Title
81329
    1CHL1    C3    1   4.534   5.866  10.219 -0.2304  0.1098  0.2092
    1CHL1    H3    2   4.598   5.955  10.198  0.1251 -0.4084 -0.9969
    1CHL1    O3    3   4.493   5.863  10.357 -0.0278 -0.3873 -0.0424
    1CHL1   H3'    4   4.405   5.826  10.349 -0.0967 -0.6619  1.5537
    1CHL1    C4    5   4.409   5.866  10.136  0.9089 -0.2155  0.1005
    1CHL1   H4A    6   4.339   5.782  10.154  0.1449  0.2280 -0.7462
    1CHL1   H4B    7   4.354   5.958  10.166 -1.3442 -1.2098 -0.7987
    1CHL1    C5    8   4.446   5.868   9.991 -0.0639 -0.0681 -0.2681
    1CHL1    C6    9   4.423   5.977   9.913 -0.1321  0.7533  0.3411
    1CHL1    H6   10   4.362   6.058   9.954  0.3380  0.5258  1.5077
    1CHL1    C7   11   4.447   5.980   9.764  0.1534 -0.2143  0.5732
    1CHL1   H7A   12   4.368   6.033   9.707  0.1285  0.4620  1.2179
    1CHL1   H7B   13   4.547   6.019   9.738  0.0790  0.3246  1.0631
    1CHL1    C8   14   4.464   5.831   9.705  0.1000 -0.8821  0.0207
    1CHL1    H8   15   4.363   5.784   9.701  0.6080 -1.9680 -0.3937
    1CHL1   C14   16   4.521   5.836   9.561 -0.1518 -0.0754 -0.5364
    1CHL1   H14   17   4.625   5.871   9.574 -0.0667 -0.1173 -1.0726
    1CHL1   C15   18   4.465   5.933   9.453 -0.2981 -0.2435  0.1574
    1CHL1  H15A   19   4.354   5.932   9.450 -0.3480  1.1517  0.7779
    1CHL1  H15B   20   4.506   6.036   9.449  1.0681 -0.7791 -2.7771
    1CHL1   C16   21   4.510   5.858   9.320  0.4876 -0.5806  0.5234
    1CHL1  H16A   22   4.413   5.831   9.272  0.6448 -1.5217  0.7144
    1CHL1  H16B   23   4.566   5.929   9.255 -0.8801 -0.1320 -0.2038
    1CHL1   C17   24   4.589   5.735   9.345 -0.2513 -0.1638 -0.0844
    1CHL1   H17   25   4.695   5.769   9.350 -0.0124 -0.2096 -3.1321
    1CHL1   C13   26   4.546   5.697   9.492 -0.2241  0.5227 -0.5147
    1CHL1   C18   27   4.407   5.630   9.475  0.2202 -0.0820  0.4573
    1CHL1  H18A   28   4.345   5.597   9.561  1.3850 -1.5059  0.8018
    1CHL1  H18B   29   4.335   5.683   9.409  1.0021  0.1272 -0.2373
    1CHL1  H18C   30   4.418   5.532   9.422 -0.5594 -0.7016  1.4071
    1CHL1   C12   31   4.648   5.605   9.576 -0.0072  0.0064  0.0599
    1CHL1  H12A   32   4.637   5.504   9.531 -3.7350  1.2390 -2.2524
    1CHL1  H12B   33   4.753   5.641   9.563  1.4123 -3.8311 -0.3999
    1CHL1   C11   34   4.603   5.602   9.726 -0.1133  0.2089  0.5160
    1CHL1  H11A   35   4.514   5.537   9.731 -0.3837  0.3025 -1.9467
    1CHL1  H11B   36   4.681   5.546   9.783 -1.5060 -1.3701  0.9178
    1CHL1    C9   37   4.555   5.736   9.789 -0.0911  0.3211 -0.4026
    1CHL1    H9   38   4.653   5.790   9.793  0.0739 -0.0654  1.7293
    1CHL1   C10   39   4.518   5.739   9.943  0.3606  0.3841 -0.2544
    1CHL1   C19   40   4.435   5.614   9.959  0.0619  0.0542 -0.6817
    1CHL1  H19A   41   4.355   5.605   9.881  0.6067  0.4024 -1.2887
    1CHL1  H19B   42   4.491   5.518   9.956  0.6264  0.3881 -0.9530
    1CHL1  H19C   43   4.385   5.622  10.058  0.2243  0.3880 -0.6238
    1CHL1    C1   44   4.651   5.733  10.030 -0.3476 -0.4678 -0.1810
    1CHL1   H1A   45   4.721   5.647  10.018  1.6803  1.1042 -0.2596
    1CHL1   H1B   46   4.710   5.822   9.999 -1.9591  1.1286  1.1261
    1CHL1    C2   47   4.623   5.749  10.181 -0.5753 -0.0720 -0.8269
    1CHL1   H2A   48   4.714   5.763  10.243 -0.7498  2.1378 -0.9650
    1CHL1   H2B   49   4.575   5.657  10.219 -1.8379  0.1567 -1.8180
    1CHL1   C20   50   4.581   5.629   9.236 -0.2306  0.2545  0.3416
    1CHL1   H20   51   4.487   5.569   9.238  1.2290 -2.1320  0.1052
    1CHL1   C21   52   4.682   5.510   9.258 -0.1848 -0.1880  0.2978
    1CHL1  H21A   53   4.637   5.443   9.335 -0.4010  0.3423  0.6343
    1CHL1  H21B   54   4.776   5.555   9.297 -1.6995  0.7172  3.1197
    1CHL1  H21C   55   4.711   5.452   9.167  0.8727  1.4714 -0.4598
    1CHL1   C22   56   4.605   5.685   9.092  0.1502 -0.4297 -0.4599
    1CHL1  H22A   57   4.569   5.790   9.087  0.9654 -0.0160  1.5756
    1CHL1  H22B   58   4.716   5.686   9.084  0.1502  0.6562 -0.4184
    1CHL1   C23   59   4.540   5.604   8.972 -0.0088 -0.7952 -0.3271
    1CHL1  H23A   60   4.598   5.509   8.969 -0.2454 -0.9086 -1.6684
    1CHL1  H23B   61   4.433   5.591   8.999 -0.1571  3.2240  1.8306
    1CHL1   C24   62   4.553   5.671   8.839 -1.0803  0.7854  0.2066
    1CHL1  H24A   63   4.498   5.768   8.838 -0.3454  1.2172  0.8458
    1CHL1  H24B   64   4.660   5.702   8.830 -0.8599  0.1416  0.5443
    1CHL1   C25   65   4.502   5.586   8.720  0.4206  0.4032  0.1818
    1CHL1   H25   66   4.398   5.554   8.742  0.6541 -0.6223 -0.1327
    1CHL1   C26   67   4.521   5.678   8.597 -0.2817  1.0672 -0.0122
    1CHL1  H26A   68   4.469   5.636   8.508  3.2846 -2.0718 -0.9144
    1CHL1  H26B   69   4.481   5.778   8.626  0.5120  0.8493  2.0020
    1CHL1  H26C   70   4.628   5.684   8.567 -0.2546  1.8193  0.2319
    1CHL1   C27   71   4.583   5.454   8.695  0.7092 -0.4165  0.0228
    1CHL1  H27A   72   4.530   5.398   8.614 -0.6931 -0.0579  0.6623
    1CHL1  H27B   73   4.687   5.486   8.675  1.1795 -1.4278  0.8152
    1CHL1  H27C   74   4.573   5.379   8.776 -0.3490 -1.8251 -1.3407
    2CHL1    C3   75   4.919   5.991  10.146  0.4435 -0.3708  0.0880
    2CHL1    H3   76   4.818   5.965  10.109  0.8724  0.2073 -1.5978
    2CHL1    O3   77   4.941   5.996  10.286  0.0695 -0.2436 -0.0989
    2CHL1   H3'   78   5.031   6.025  10.301  1.0070 -1.6322 -2.4283
    2CHL1    C4   79   5.028   5.893  10.098  0.9237  0.4501  0.3860
    2CHL1   H4A   80   5.124   5.935  10.136  1.8382 -2.4855  1.5201
    2CHL1   H4B   81   5.004   5.796  10.146  0.9445 -0.2584 -0.9659
    2CHL1    C5   82   5.032   5.879   9.944 -0.3413 -0.2463  0.5463
    2CHL1    C6   83   5.007   5.763   9.878 -0.4167 -0.3169  0.1224
    2CHL1    H6   84   4.996   5.666   9.928  0.3300 -0.3597  0.2146
    2CHL1    C7   85   5.000   5.753   9.734  0.1378  0.2683  0.7335
    2CHL1   H7A   86   5.050   5.664   9.690  1.5865  0.2293  2.3746
    2CHL1   H7B   87   4.892   5.742   9.710  0.6052  1.1078 -2.1637
    2CHL1    C8   88   5.054   5.879   9.655 -0.5753  0.0165 -0.7290
    2CHL1    H8   89   5.165   5.885   9.660 -0.6776  1.7577  0.0575
    2CHL1   C14   90   5.006   5.872   9.511  0.2379 -0.6182  0.0958
    2CHL1   H14   91   4.895   5.883   9.518  0.1070 -2.1768  0.9375
    2CHL1   C15   92   5.024   5.756   9.424  0.2788  0.1723  0.9277
    2CHL1  H15A   93   5.133   5.736   9.417  0.2331  0.4955 -1.5369
    2CHL1  H15B   94   4.977   5.659   9.453 -1.8796  0.4596 -1.3058
    2CHL1   C16   95   4.986   5.802   9.280  0.7568  0.6678 -0.0399
    2CHL1  H16A   96   5.062   5.762   9.210  1.5490  0.1271  1.1053
    2CHL1  H16B   97   4.887   5.761   9.249  0.3164 -0.2646  2.3834
    2CHL1   C17   98   4.990   5.955   9.290  1.1663 -0.4835 -0.0453
    2CHL1   H17   99   4.882   5.980   9.299  0.7517 -1.4154 -1.7710
    2CHL1   C13  100   5.048   5.990   9.428 -0.2934  0.1540  0.2261
    2CHL1   C18  101   5.196   5.995   9.396  0.2409  0.2581 -0.1433
    2CHL1  H18A  102   5.231   5.906   9.340  1.3436  0.9271 -0.5517
    2CHL1  H18B  103   5.214   6.084   9.331 -0.6625  0.3880 -0.2242
    2CHL1  H18C  104   5.261   6.019   9.482  0.3988 -0.0060 -0.1857
    2CHL1   C12  105   4.989   6.119   9.485  0.0475  0.0012  0.2462
    2CHL1  H12A  106   5.022   6.199   9.416  0.5930 -0.9155 -0.5812
    2CHL1  H12B  107   4.878   6.116   9.496  0.0591  0.6655  0.6424
    2CHL1   C11  108   5.041   6.135   9.630 -0.8477 -0.0627 -0.8875
    2CHL1  H11A  109   5.149   6.153   9.608 -0.9944  2.1249 -0.0425
    2CHL1  H11B  110   4.999   6.229   9.670 -0.6724 -0.7029  0.9124
    2CHL1    C9  111   5.004   6.008   9.720 -0.0668 -0.8024  0.6965
    2CHL1    H9  112   4.894   5.993   9.714  0.0488 -1.3223 -0.3213
    2CHL1   C10  113   5.040   6.015   9.869 -0.7118  0.4732 -0.2316
    2CHL1   C19  114   5.185   6.064   9.884 -0.7744  0.5081 -0.4032
    2CHL1  H19A  115   5.197   6.166   9.841 -3.4678  1.2277  0.3474
    2CHL1  H19B  116   5.206   6.076   9.992 -1.2584  1.0395 -0.3581
    2CHL1  H19C  117   5.260   6.009   9.823 -0.8840  0.1126 -0.1854
    2CHL1    C1  118   4.944   6.118   9.938 -0.2099 -0.2477 -0.0477
    2CHL1   H1A  119   4.976   6.220   9.908  1.8337 -0.9226 -0.2719
    2CHL1   H1B  120   4.842   6.094   9.901 -0.5630  0.4473  0.4585
    2CHL1    C2  121   4.954   6.122  10.098  0.0342 -0.0605  0.2485
    2CHL1   H2A  122   4.880   6.192  10.142 -1.7624 -1.1696 -0.9232
    2CHL1   H2B  123   5.056   6.164  10.117  0.1407  0.7983 -1.8978
    2CHL1   C20  124   5.025   6.041   9.158  0.1953  0.6655  0.1670
    2CHL1   H20  125   5.057   6.143   9.189  1.7770  0.0929  0.4856
    2CHL1   C21  126   4.899   6.036   9.077  0.1223  0.1255  0.1136
    2CHL1  H21A  127   4.812   6.082   9.130 -1.1483 -1.2363 -0.7263
    2CHL1  H21B  128   4.864   5.932   9.061 -0.0244 -0.2381  2.3699
    2CHL1  H21C  129   4.915   6.082   8.977  1.1004 -1.3987 -0.4611
    2CHL1   C22  130   5.145   5.981   9.080  0.7667  0.3707 -0.6712
    2CHL1  H22A  131   5.229   5.949   9.145  2.4847  0.1650 -2.8765
    2CHL1  H22B  132   5.092   5.897   9.030 -1.1819  1.7845 -1.0779
    2CHL1   C23  133   5.217   6.054   8.972 -0.5295 -0.2561 -0.4006
    2CHL1  H23A  134   5.263   5.982   8.901 -0.0046 -0.6899  0.3633
    2CHL1  H23B  135   5.136   6.112   8.923 -0.5682  0.3003  0.3018
    2CHL1   C24  136   5.323   6.160   9.018 -0.4826  0.2362  0.0671
    2CHL1  H24A  137   5.263   6.230   9.079  1.3141  0.9814  1.0846
    2CHL1  H24B  138   5.385   6.113   9.097  0.8958  0.8820 -0.5882
    2CHL1   C25  139   5.406   6.225   8.905 -0.1870  0.0235 -0.4718
    2CHL1   H25  140   5.456   6.144   8.847  1.1849  0.7490 -0.3562
    2CHL1   C26  141   5.314   6.301   8.797  0.6392  0.6851  0.1504
    2CHL1  H26A  142   5.282   6.218   8.730 -2.4436  0.5337  1.6518
    2CHL1  H26B  143   5.231   6.360   8.841 -0.9788  0.9458 -2.9431
    2CHL1  H26C  144   5.373   6.372   8.734 -0.3092  1.8223  0.5157
    2CHL1   C27  145   5.508   6.333   8.968 -0.0838 -0.2411  0.4269
    2CHL1  H27A  146   5.569   6.380   8.888  0.8605  0.4253  1.5166
    2CHL1  H27B  147   5.455   6.411   9.026 -0.0950 -0.7739  1.1447
    2CHL1  H27C  148   5.580   6.279   9.033 -0.0988 -1.8617 -0.8440
    3CHL1    C3  149   6.458   4.799  10.378 -0.2907 -0.2946 -0.6566
    3CHL1    H3  150   6.354   4.759  10.375 -0.7570  0.9506 -2.4324
    3CHL1    O3  151   6.498   4.856  10.506  0.1705 -0.9524  0.1104
    3CHL1   H3'  152   6.433   4.923  10.530  0.6807 -1.0169  1.8144
    3CHL1    C4  153   6.542   4.687  10.319 -0.0912 -0.1299 -0.4202
    3CHL1   H4A  154   6.647   4.723  10.330 -0.2458  0.5610 -1.0479
    3CHL1   H4B  155   6.531   4.604  10.391  1.4513 -0.5160 -0.5954
    3CHL1    C5  156   6.517   4.648  10.177  0.4128  0.0832  0.3982
    3CHL1    C6  157   6.492   4.516  10.146 -0.9358  0.0055  0.7055
    3CHL1    H6  158   6.492   4.441  10.226 -0.7537 -3.5231 -2.3399
    3CHL1    C7  159   6.480   4.468  10.000  0.6803  0.2785  0.5809
    3CHL1   H7A  160   6.519   4.366   9.981 -0.9968 -0.2312 -0.2885
    3CHL1   H7B  161   6.371   4.458   9.980  0.7000 -0.4365  0.8037
    3CHL1    C8  162   6.523   4.575   9.892 -0.2109 -0.5019 -0.5825
    3CHL1    H8  163   6.634   4.568   9.891 -0.2610 -2.4420  1.6651
    3CHL1   C14  164   6.462   4.547   9.753 -0.1921 -0.0800  0.1451
    3CHL1   H14  165   6.353   4.566   9.764 -0.5866 -1.5966 -0.9556
    3CHL1   C15  166   6.475   4.403   9.694  0.5454 -0.2075 -0.4247
    3CHL1  H15A  167   6.578   4.362   9.700  0.5083 -0.4782 -1.5243
    3CHL1  H15B  168   6.408   4.322   9.730  2.1105 -1.3471  0.0143
    3CHL1   C16  169   6.430   4.423   9.548  0.6515  0.1068  0.1675
    3CHL1  H16A  170   6.489   4.362   9.476  0.4545 -0.7240  0.6931
    3CHL1  H16B  171   6.321   4.401   9.544  0.2779  1.4496  1.9668
    3CHL1   C17  172   6.438   4.576   9.512  0.1168  0.0586  0.2407
    3CHL1   H17  173   6.331   4.608   9.509  0.3359  0.8213  0.3014
    3CHL1   C13  174   6.504   4.636   9.639 -0.2754  0.5519 -0.5376
    3CHL1   C18  175   6.656   4.630   9.612 -0.3175 -0.9940 -0.4914
    3CHL1  H18A  176   6.688   4.651   9.717 -1.8669 -0.4234 -0.0948
    3CHL1  H18B  177   6.691   4.527   9.590 -0.4738 -1.3009  0.6186
    3CHL1  H18C  178   6.692   4.711   9.546 -0.5828 -1.0316 -0.6836
    3CHL1   C12  179   6.465   4.780   9.670  0.4540 -1.0036 -0.4808
    3CHL1  H12A  180   6.482   4.854   9.589 -1.4922 -0.0794 -0.1303
    3CHL1  H12B  181   6.354   4.770   9.672  0.2868  0.6371 -0.4124
    3CHL1   C11  182   6.507   4.827   9.813  0.6226 -0.4926  0.1780
    3CHL1  H11A  183   6.617   4.841   9.803  0.8567 -0.4954  2.2611
    3CHL1  H11B  184   6.468   4.929   9.833 -1.4036 -1.1079 -0.4354
    3CHL1    C9  185   6.480   4.723   9.927 -0.2800  0.0154  0.8289
    3CHL1    H9  186   6.369   4.718   9.930 -0.3353  0.2347 -0.2164
    3CHL1   C10  187   6.527   4.762  10.070  0.7472 -0.6056  0.2009
    3CHL1   C19  188   6.669   4.818  10.052 -0.4014  0.1137  0.7852
    3CHL1  H19A  189   6.682   4.912   9.994  1.9151 -1.4985 -1.5322
    3CHL1  H19B  190   6.707   4.850  10.151 -0.2431 -0.9078  1.0674
    3CHL1  H19C  191   6.733   4.739  10.007  2.1955  1.2044  2.3418
    3CHL1    C1  192   6.421   4.863  10.133 -0.0410 -0.3632  0.5483
    3CHL1   H1A  193   6.412   4.948  10.063  0.2791 -0.3730  0.4929
    3CHL1   H1B  194   6.323   4.812  10.134 -1.1240  1.5874 -0.8289
    3CHL1    C2  195   6.455   4.915  10.276 -0.4526 -0.1322  0.5034
    3CHL1   H2A  196   6.374   4.988  10.300 -0.8042 -0.6393  0.8891
    3CHL1   H2B  197   6.551   4.970  10.270 -0.2402 -0.5652 -0.3113
    3CHL1   C20  198   6.501   4.601   9.375  0.1905 -0.5802  0.6914
    3CHL1   H20  199   6.604   4.560   9.379 -0.0127 -1.1885  0.0069
    3CHL1   C21  200   6.490   4.748   9.343  0.6749 -0.3770  0.6525
    3CHL1  H21A  201   6.534   4.769   9.243 -1.3656  0.4126 -0.1380
    3CHL1  H21B  202   6.549   4.812   9.413 -0.5961  0.3445  1.1050
    3CHL1  H21C  203   6.386   4.788   9.339  1.0704  0.7746  1.2287
    3CHL1   C22  204   6.426   4.519   9.265 -0.3750  0.8445 -0.4720
    3CHL1  H22A  205   6.398   4.419   9.306  0.2875  0.4171 -1.0346
    3CHL1  H22B  206   6.335   4.574   9.233 -1.0421  1.8692  2.8524
    3CHL1   C23  207   6.518   4.491   9.140  0.0128 -0.0942  0.0520
    3CHL1  H23A  208   6.547   4.588   9.094 -0.4420  0.2052  0.3944
    3CHL1  H23B  209   6.614   4.448   9.176 -0.0843  0.0027  0.4282
    3CHL1   C24  210   6.448   4.408   9.033 -0.0852  0.5291  0.5499
    3CHL1  H24A  211   6.520   4.370   8.957 -0.8696  0.7843 -0.3354
    3CHL1  H24B  212   6.392   4.324   9.079  0.1268  1.7459  3.2379
    3CHL1   C25  213   6.333   4.488   8.962 -0.4837 -0.9652  0.2174
    3CHL1   H25  214   6.275   4.541   9.041  0.7267 -0.5097  0.8349
    3CHL1   C26  215   6.388   4.598   8.871  0.2935  0.1749 -0.7277
    3CHL1  H26A  216   6.475   4.568   8.809  1.9796  1.2518  1.0337
    3CHL1  H26B  217   6.308   4.654   8.818 -0.5926 -1.7594 -1.5256
    3CHL1  H26C  218   6.429   4.682   8.930  0.8902 -0.5932 -0.0247
    3CHL1   C27  219   6.259   4.390   8.875  0.4100 -0.4030 -0.4751
    3CHL1  H27A  220   6.329   4.327   8.816  0.0458 -0.0535 -1.2909
    3CHL1  H27B  221   6.195   4.332   8.946  1.1680 -0.6451  0.0159
    3CHL1  H27C  222   6.190   4.435   8.800 -0.0702  0.8252  0.6600
    4CHL1    C3  223   1.390   0.930  10.555  0.0683 -0.5065 -0.9971
    4CHL1    H3  224   1.462   1.012  10.532  0.2692 -0.3703  0.0835
    4CHL1    O3  225   1.382   0.922  10.698 -0.2941  0.2292  0.2171
    4CHL1   H3'  226   1.339   0.836  10.707  1.7096 -0.9214 -0.6391
    4CHL1    C4  227   1.255   0.972  10.503 -0.0263  0.5184  0.1684
    4CHL1   H4A  228   1.176   0.911  10.552  0.3883  0.7144  1.1065
    4CHL1   H4B  229   1.234   1.074  10.543 -2.4747 -0.0838  0.5703
    4CHL1    C5  230   1.246   0.970  10.352  0.3961 -0.2876  0.3616
    4CHL1    C6  231   1.208   1.077  10.278 -0.4304 -0.0048  0.1057
    4CHL1    H6  232   1.163   1.162  10.332 -2.0940 -1.4846  1.1703
    4CHL1    C7  233   1.183   1.074  10.125  0.5981 -0.5706 -0.6752
    4CHL1   H7A  234   1.092   1.122  10.083  1.6143  1.1155 -1.0398
    4CHL1   H7B  235   1.255   1.143  10.076  1.5564  0.0144  1.4690
    4CHL1    C8  236   1.189   0.930  10.060 -0.0084  0.4800 -0.5945
    4CHL1    H8  237   1.091   0.883  10.082  0.2023  0.1510 -0.3587
    4CHL1   C14  238   1.218   0.932   9.906  0.5750 -0.0410 -0.4126
    4CHL1   H14  239   1.317   0.980   9.892 -0.2067  1.0492 -2.7492
    4CHL1   C15  240   1.119   1.011   9.823 -0.0542 -0.9925  0.1346
    4CHL1  H15A  241   1.016   1.017   9.865  0.5898 -0.1528  1.6902
    4CHL1  H15B  242   1.159   1.114   9.822 -3.9561  0.7093 -0.0890
    4CHL1   C16  243   1.113   0.947   9.685  1.1713  0.2214 -0.4213
    4CHL1  H16A  244   1.009   0.911   9.668  0.7388  0.4908  1.4558
    4CHL1  H16B  245   1.143   1.020   9.607 -0.8978  0.9489 -0.5796
    4CHL1   C17  246   1.215   0.831   9.698  0.2448 -0.0227 -0.7650
    4CHL1   H17  247   1.308   0.891   9.695  0.3524 -0.0238  1.1706
    4CHL1   C13  248   1.214   0.792   9.850 -0.6041  0.5053  0.5457
    4CHL1   C18  249   1.085   0.716   9.892 -0.1241  0.6382 -0.5845
    4CHL1  H18A  250   1.075   0.686   9.999  1.0876 -0.2515 -0.7058
    4CHL1  H18B  251   0.993   0.770   9.862 -1.4038 -0.2547  1.5340
    4CHL1  H18C  252   1.100   0.620   9.839  2.7654  0.8758 -0.3573
    4CHL1   C12  253   1.335   0.712   9.910  0.4696 -0.3128  0.7242
    4CHL1  H12A  254   1.336   0.606   9.875  1.9243  0.2790 -1.1491
    4CHL1  H12B  255   1.427   0.768   9.884 -0.8029  1.2462 -0.6134
    4CHL1   C11  256   1.328   0.706  10.066  0.1655  0.4081 -0.2886
    4CHL1  H11A  257   1.244   0.640  10.097  0.5374  0.2294  0.3451
    4CHL1  H11B  258   1.424   0.677  10.113 -0.3586  0.6271  0.9497
    4CHL1    C9  259   1.295   0.845  10.130  0.4823 -0.4235 -0.2677
    4CHL1    H9  260   1.391   0.895  10.105 -0.3807 -0.1532 -3.4383
    4CHL1   C10  261   1.284   0.837  10.287  0.4573 -0.0742 -0.3754
    4CHL1   C19  262   1.169   0.736  10.323 -0.0297  0.2123 -0.5047
    4CHL1  H19A  263   1.080   0.760  10.260 -0.7607 -2.2146 -0.4967
    4CHL1  H19B  264   1.208   0.634  10.303  2.2192  0.8447  0.3933
    4CHL1  H19C  265   1.127   0.741  10.426 -1.9160  0.9531 -1.2544
    4CHL1    C1  266   1.422   0.790  10.341 -0.4155 -0.1547 -0.5395
    4CHL1   H1A  267   1.434   0.685  10.306  1.9946 -0.3174  0.5903
    4CHL1   H1B  268   1.498   0.857  10.296  1.9498 -1.0763  1.7984
    4CHL1    C2  269   1.445   0.805  10.492  0.7819 -0.5342  0.4904
    4CHL1   H2A  270   1.553   0.797  10.517  1.0444 -1.7197 -0.8701
    4CHL1   H2B  271   1.389   0.721  10.539 -1.7574 -0.8703 -2.7697
    4CHL1   C20  272   1.201   0.720   9.597  0.7226 -0.5620  0.6286
    4CHL1   H20  273   1.142   0.635   9.637 -0.2682  0.7462  2.0782
    4CHL1   C21  274   1.338   0.663   9.562 -0.0024 -0.4480  0.4250
    4CHL1  H21A  275   1.397   0.722   9.489  0.1314 -0.4017  0.5709
    4CHL1  H21B  276   1.321   0.572   9.501 -0.8846  1.1624 -1.8643
    4CHL1  H21C  277   1.398   0.645   9.654  0.4322 -2.7569 -0.2644
    4CHL1   C22  278   1.130   0.772   9.469  0.8339  0.4098  0.6059
    4CHL1  H22A  279   1.028   0.810   9.493  0.9889  1.7082 -0.6872
    4CHL1  H22B  280   1.188   0.850   9.416  0.6533 -1.0126 -1.8378
    4CHL1   C23  281   1.102   0.674   9.353 -0.5486  0.2445  0.2314
    4CHL1  H23A  282   1.189   0.607   9.331 -1.9031 -2.0474  1.4827
    4CHL1  H23B  283   1.023   0.603   9.385 -0.0534  0.3572  1.7603
    4CHL1   C24  284   1.054   0.750   9.232  0.3907 -0.1990  0.0299
    4CHL1  H24A  285   0.997   0.835   9.276 -0.6158 -0.4526 -0.7571
    4CHL1  H24B  286   1.139   0.794   9.176 -1.5826  0.7027 -2.4927
    4CHL1   C25  287   0.979   0.661   9.138 -0.2492  0.2239  0.1802
    4CHL1   H25  288   0.892   0.625   9.198 -0.1051 -0.9442 -0.2954
    4CHL1   C26  289   0.914   0.748   9.020  0.0074 -0.5197  0.4920
    4CHL1  H26A  290   0.854   0.834   9.054 -0.4261  0.1113 -1.7084
    4CHL1  H26B  291   0.995   0.777   8.949 -0.4273 -0.2458  0.1084
    4CHL1  H26C  292   0.848   0.683   8.958  0.1577  0.1488 -0.3891
    4CHL1   C27  293   1.053   0.545   9.085  0.3237 -0.3661  0.1572
    4CHL1  H27A  294   1.137   0.579   9.021 -2.6569  3.1062 -2.3193
    4CHL1  H27B  295   1.082   0.467   9.160  1.4073 -3.4092 -3.1119
    4CHL1  H27C  296   0.989   0.484   9.018  0.4751  1.3169 -1.5858
    5CHL1    C3  297   0.129   3.935  10.305  0.2791  0.1216 -0.0925
    5CHL1    H3  298   0.077   4.033  10.293 -0.2949 -0.1763 -0.0768
    5CHL1    O3  299   0.154   3.934  10.445  0.2308 -0.0459  0.2614
    5CHL1   H3'  300   0.131   3.850  10.485  0.2660  1.0238  2.6723
    5CHL1    C4  301   0.038   3.815  10.277 -0.1409 -0.3343  0.2876
    5CHL1   H4A  302   0.082   3.717  10.306  1.4692  0.7538  1.7094
    5CHL1   H4B  303  -0.059   3.834  10.328  0.3543  2.9403  0.1652
    5CHL1    C5  304   0.017   3.800  10.122  0.9268  0.9623 -0.5851
    5CHL1    C6  305  -0.106   3.796  10.062  0.5066  0.0598 -0.1911
    5CHL1    H6  306  -0.201   3.817  10.114  0.6996  0.3927  0.0352
    5CHL1    C7  307  -0.122   3.771   9.921  0.5870 -0.7388  0.0476
    5CHL1   H7A  308  -0.212   3.706   9.906  0.1976 -0.8574  2.5321
    5CHL1   H7B  309  -0.148   3.863   9.865  2.1710 -2.9047 -4.8067
    5CHL1    C8  310  -0.008   3.719   9.848  0.0771  0.6687 -0.2491
    5CHL1    H8  311  -0.003   3.610   9.871  0.4424  1.1089  2.0113
    5CHL1   C14  312  -0.030   3.746   9.696  0.1566 -0.1999  0.4775
    5CHL1   H14  313  -0.030   3.856   9.688  1.6814 -0.0288  2.1687
    5CHL1   C15  314  -0.155   3.703   9.623  0.1703  0.1940  0.8516
    5CHL1  H15A  315  -0.195   3.603   9.651 -2.3981  1.2296  1.1682
    5CHL1  H15B  316  -0.234   3.780   9.643 -0.7481 -0.5252  0.0923
    5CHL1   C16  317  -0.124   3.703   9.479 -0.3144  0.7768  0.7674
    5CHL1  H16A  318  -0.110   3.602   9.434 -1.3302  1.7919 -2.0631
    5CHL1  H16B  319  -0.194   3.760   9.414 -1.4302 -0.0831  1.1899
    5CHL1   C17  320   0.020   3.759   9.458 -0.2810  0.2935  0.1756
    5CHL1   H17  321   0.000   3.868   9.457 -1.5378  0.1195 -2.4370
    5CHL1   C13  322   0.080   3.711   9.598  0.1836  0.2696  0.8650
    5CHL1   C18  323   0.093   3.551   9.610  0.1901  0.2764  0.1967
    5CHL1  H18A  324  -0.002   3.493   9.605  0.5588 -0.4784  1.4405
    5CHL1  H18B  325   0.147   3.508   9.524 -2.4240 -3.2126  0.0701
    5CHL1  H18C  326   0.150   3.535   9.704  0.7967 -2.5052 -0.5483
    5CHL1   C12  327   0.208   3.785   9.646  0.1020 -0.5787 -0.0208
    5CHL1  H12A  328   0.294   3.754   9.583 -0.0876  0.3975 -0.7650
    5CHL1  H12B  329   0.193   3.893   9.625  1.5123 -0.0756  1.4067
    5CHL1   C11  330   0.237   3.775   9.792 -0.2115 -0.0597 -0.7523
    5CHL1  H11A  331   0.276   3.673   9.813  0.8162  0.2129 -1.2582
    5CHL1  H11B  332   0.317   3.849   9.815  0.5123 -1.4878  1.6994
    5CHL1    C9  333   0.114   3.796   9.889 -0.2018  1.1393 -0.7072
    5CHL1    H9  334   0.083   3.901   9.872  0.5804  1.2863 -1.2629
    5CHL1   C10  335   0.141   3.789  10.040 -0.0549  1.3766  0.4474
    5CHL1   C19  336   0.194   3.644  10.076 -0.4839 -0.4318  0.4954
    5CHL1  H19A  337   0.266   3.612   9.998  0.7927  3.6276 -0.2636
    5CHL1  H19B  338   0.240   3.641  10.177 -0.5671  0.6585  0.5792
    5CHL1  H19C  339   0.108   3.576  10.057 -0.3458  0.0772 -2.4027
    5CHL1    C1  340   0.244   3.904  10.080 -0.4227 -0.3827  0.3059
    5CHL1   H1A  341   0.348   3.884  10.044 -0.7950 -0.4458 -0.7886
    5CHL1   H1B  342   0.196   3.991  10.032 -1.2350 -1.3505 -0.7045
    5CHL1    C2  343   0.260   3.928  10.231  0.1137  0.0457 -0.5076
    5CHL1   H2A  344   0.325   4.015  10.254 -0.5638  0.1093  1.3084
    5CHL1   H2B  345   0.321   3.841  10.264  1.0626  1.0455  0.4599
    5CHL1   C20  346   0.090   3.737   9.320 -0.2541 -0.0266  0.0616
    5CHL1   H20  347   0.108   3.627   9.310 -1.0603 -0.1670  0.1185
    5CHL1   C21  348   0.233   3.810   9.317  0.2550 -0.4088 -0.2027
    5CHL1  H21A  349   0.305   3.745   9.371  0.7593  0.8370  0.6675
    5CHL1  H21B  350   0.231   3.916   9.349 -1.2728 -0.5627  0.2975
    5CHL1  H21C  351   0.270   3.830   9.214 -0.4730 -0.4601 -0.4847
    5CHL1   C22  352   0.002   3.781   9.201  0.1982  0.9453 -0.0462
    5CHL1  H22A  353  -0.103   3.748   9.215  0.6161 -0.9771 -1.1595
    5CHL1  H22B  354  -0.007   3.891   9.213 -0.2320  0.8399  0.6292
    5CHL1   C23  355   0.062   3.742   9.064  0.7077 -0.2478 -0.3951
    5CHL1  H23A  356   0.149   3.806   9.035 -0.1298  0.3481 -1.7141
    5CHL1  H23B  357   0.094   3.636   9.076  2.0879 -0.1262 -2.3961
    5CHL1   C24  358  -0.039   3.750   8.947  0.0577  0.0932 -0.2353
    5CHL1  H24A  359  -0.109   3.667   8.969  1.7223 -0.7474  2.4215
    5CHL1  H24B  360  -0.103   3.841   8.955 -1.4380 -0.5594 -3.2620
    5CHL1   C25  361   0.034   3.759   8.810  0.3695 -0.4720 -0.5282
    5CHL1   H25  362   0.114   3.835   8.820 -1.7599  1.6750  1.4597
    5CHL1   C26  363   0.087   3.623   8.771 -0.2296 -0.2768 -0.0230
    5CHL1  H26A  364   0.015   3.543   8.744 -0.3041 -0.1440 -0.2198
    5CHL1  H26B  365   0.153   3.625   8.682  0.1031  0.0719  0.2301
    5CHL1  H26C  366   0.140   3.574   8.856 -0.5938 -1.1710 -0.3038
    5CHL1   C27  367  -0.058   3.834   8.710 -0.6209  1.2890  0.2267
    5CHL1  H27A  368  -0.090   3.935   8.744 -1.4163  2.0762 -2.6126
    5CHL1  H27B  369  -0.009   3.841   8.611 -0.4655 -0.4425  0.1566
    5CHL1  H27C  370  -0.149   3.773   8.694  0.0527  0.3970 -0.2352
    6CHL1    C3  371   1.182   0.210  10.443  0.5834  0.4946 -0.9353
    6CHL1    H3  372   1.262   0.133  10.430  0.2915 -0.3347  1.5243
    6CHL1    O3  373   1.162   0.235  10.583 -0.4017 -0.3003  0.1872
    6CHL1   H3'  374   1.120   0.163  10.629 -0.2274 -1.2606 -1.0961
    6CHL1    C4  375   1.225   0.344  10.378 -0.4618  0.8075  0.4861
    6CHL1   H4A  376   1.148   0.422  10.391  0.8461  2.2926 -0.4071
    6CHL1   H4B  377   1.311   0.392  10.428 -1.7004  3.5558  0.1377
    6CHL1    C5  378   1.260   0.322  10.231 -0.2509  0.1198  0.4232
    6CHL1    C6  379   1.378   0.347  10.173  0.1048  0.1358 -0.2702
    6CHL1    H6  380   1.454   0.375  10.248 -0.7321 -0.8206  0.9737
    6CHL1    C7  381   1.405   0.331  10.024 -0.1825  0.8174  0.1699
    6CHL1   H7A  382   1.460   0.421   9.991 -0.9537  0.3640 -2.5492
    6CHL1   H7B  383   1.474   0.245  10.041  1.0471  2.1319  2.3403
    6CHL1    C8  384   1.282   0.300   9.943  0.5966  0.6871 -0.2518
    6CHL1    H8  385   1.222   0.390   9.919 -1.1609 -0.6520 -1.0922
    6CHL1   C14  386   1.325   0.232   9.812 -0.0382  0.0312 -0.2772
    6CHL1   H14  387   1.369   0.133   9.838 -1.0062 -0.0479  1.1879
    6CHL1   C15  388   1.430   0.312   9.735  0.5039 -0.0880 -0.6253
    6CHL1  H15A  389   1.419   0.423   9.734  0.3702  0.0331  2.5381
    6CHL1  H15B  390   1.535   0.289   9.761  0.1182 -0.3222  0.7967
    6CHL1   C16  391   1.409   0.254   9.591  0.8614 -0.1256  0.3540
    6CHL1  H16A  392   1.414   0.337   9.517 -2.6578  0.1686  0.2828
    6CHL1  H16B  393   1.491   0.182   9.572  1.0094 -0.3453  1.7548
    6CHL1   C17  394   1.278   0.166   9.585  0.3022 -0.0448  0.4793
    6CHL1   H17  395   1.308   0.061   9.603  2.1349  0.3165 -0.2823
    6CHL1   C13  396   1.207   0.218   9.716  0.9087  0.2787 -0.4361
    6CHL1   C18  397   1.143   0.356   9.678  0.0687  0.9518 -0.7449
    6CHL1  H18A  398   1.092   0.393   9.770  0.8719 -0.8650  0.4929
    6CHL1  H18B  399   1.210   0.440   9.649  1.3049  0.8817  1.6196
    6CHL1  H18C  400   1.058   0.338   9.609 -0.1625 -1.5465  0.0968
    6CHL1   C12  401   1.110   0.120   9.779 -0.3517 -0.5047 -0.5039
    6CHL1  H12A  402   1.017   0.108   9.719 -0.2347 -0.0966 -0.7664
    6CHL1  H12B  403   1.143   0.015   9.795  1.7062  0.4139  1.9384
    6CHL1   C11  404   1.070   0.167   9.919  0.2421  0.3734 -0.0104
    6CHL1  H11A  405   1.006   0.257   9.911 -0.6606 -0.1486  1.0361
    6CHL1  H11B  406   1.008   0.084   9.961  0.4321  1.4153  2.4798
    6CHL1    C9  407   1.188   0.199  10.014 -0.0883 -0.1742 -0.1380
    6CHL1    H9  408   1.247   0.108  10.038 -1.0077 -0.6682  0.2486
    6CHL1   C10  409   1.141   0.254  10.156 -0.1534  0.3627  0.3513
    6CHL1   C19  410   1.030   0.364  10.147  0.1053  0.3647  0.6621
    6CHL1  H19A  411   0.930   0.320  10.126 -1.0253  3.0053  0.0212
    6CHL1  H19B  412   1.019   0.424  10.239  1.7595  0.7436  0.6420
    6CHL1  H19C  413   1.048   0.438  10.065  0.4296  0.8082  1.1303
    6CHL1    C1  414   1.086   0.132  10.235  0.1288 -0.3929  0.3443
    6CHL1   H1A  415   0.992   0.096  10.188  1.5915  0.4635 -3.6659
    6CHL1   H1B  416   1.160   0.049  10.241  1.3884  0.7530  1.1679
    6CHL1    C2  417   1.050   0.163  10.381  0.4065 -0.3752 -0.1372
    6CHL1   H2A  418   1.017   0.079  10.445 -0.9543 -0.7537 -1.2814
    6CHL1   H2B  419   0.976   0.245  10.391  0.6043  0.3729 -3.5694
    6CHL1   C20  420   1.201   0.172   9.449 -0.4428 -0.0783  0.7381
    6CHL1   H20  421   1.182   0.277   9.417  1.8589 -0.0598 -0.8650
    6CHL1   C21  422   1.063   0.103   9.454 -0.7000 -0.1299  0.1686
    6CHL1  H21A  423   0.995   0.172   9.508  1.1389  1.2154  0.8484
    6CHL1  H21B  424   1.078   0.005   9.505  0.1263 -0.3599 -0.4908
    6CHL1  H21C  425   1.013   0.079   9.358 -0.6057 -0.5164  0.2128
    6CHL1   C22  426   1.294   0.114   9.339  0.2021 -0.4600  0.5308
    6CHL1  H22A  427   1.387   0.174   9.333  0.1711 -0.5405 -1.3198
    6CHL1  H22B  428   1.325   0.011   9.367 -0.1201 -1.1556 -1.5052
    6CHL1   C23  429   1.238   0.128   9.200 -0.0528  0.0584 -0.0488
    6CHL1  H23A  430   1.130   0.100   9.198 -0.4317  1.3959  0.4874
    6CHL1  H23B  431   1.232   0.235   9.170 -1.7025  0.1588  0.5574
    6CHL1   C24  432   1.291   0.031   9.096 -0.2029  0.2467 -0.4553
    6CHL1  H24A  433   1.399   0.049   9.077  0.2888 -2.2754 -0.3207
    6CHL1  H24B  434   1.292  -0.071   9.140 -0.4653  1.1441  1.7455
    6CHL1   C25  435   1.212   0.031   8.963 -0.4716  0.5041  0.5264
    6CHL1   H25  436   1.112  -0.008   8.992 -0.2643 -0.1683  0.3366
    6CHL1   C26  437   1.190   0.170   8.904 -0.1678 -0.3331 -0.2952
    6CHL1  H26A  438   1.140   0.237   8.977 -0.5931 -0.2149 -0.6899
    6CHL1  H26B  439   1.288   0.217   8.881  0.3411  0.2381  2.6335
    6CHL1  H26C  440   1.127   0.169   8.813 -3.8738 -1.6172  2.0768
    6CHL1   C27  441   1.277  -0.054   8.859 -0.0956  0.4065  0.6466
    6CHL1  H27A  442   1.387  -0.035   8.860 -0.1419  0.9395 -0.9251
    6CHL1  H27B  443   1.240  -0.158   8.873 -2.4276  0.8150 -1.6653
    6CHL1  H27C  444   1.225  -0.021   8.766 -1.8082 -1.3260  0.9323
    7CHL1    C3  445   1.492   4.968  10.306 -0.5595  0.6150  0.1561
    7CHL1    H3  446   1.386   4.958  10.276 -0.6421  0.2148  0.5864
    7CHL1    O3  447   1.501   4.950  10.443  0.1775  0.6551 -0.7447
    7CHL1   H3'  448   1.592   4.931  10.469 -0.6536 -0.3049  1.8160
    7CHL1    C4  449   1.568   4.858  10.238 -0.4693  0.2793 -0.2706
    7CHL1   H4A  450   1.675   4.866  10.265 -0.2831 -1.4817 -0.3580
    7CHL1   H4B  451   1.536   4.758  10.275 -0.6710  0.5219  0.2262
    7CHL1    C5  452   1.561   4.862  10.088 -0.0567  0.0683  1.2697
    7CHL1    C6  453   1.525   4.749  10.020  0.1268  0.5051  0.4088
    7CHL1    H6  454   1.503   4.659  10.080 -0.3048  0.4488  0.1699
    7CHL1    C7  455   1.525   4.730   9.872 -0.6019 -0.0435  1.2858
    7CHL1   H7A  456   1.595   4.646   9.852  0.4140  1.0771  0.0106
    7CHL1   H7B  457   1.427   4.711   9.824  0.7125 -0.8679 -1.2412
    7CHL1    C8  458   1.577   4.863   9.807 -1.0624  0.2921 -0.1784
    7CHL1    H8  459   1.686   4.861   9.789 -1.2362 -0.2419 -1.2851
    7CHL1   C14  460   1.509   4.878   9.666 -0.9025 -0.7312 -0.0312
    7CHL1   H14  461   1.403   4.896   9.693 -0.2552  0.6390  1.7577
    7CHL1   C15  462   1.498   4.751   9.579 -0.3817 -0.5202  0.4850
    7CHL1  H15A  463   1.592   4.692   9.574  0.6709  1.1358 -0.1556
    7CHL1  H15B  464   1.407   4.693   9.605  1.5197 -3.0980  1.8916
    7CHL1   C16  465   1.468   4.806   9.439 -0.4813  0.5549 -0.2154
    7CHL1  H16A  466   1.552   4.786   9.368  0.7592  0.6775  1.1606
    7CHL1  H16B  467   1.376   4.762   9.396 -1.5874  2.0096  0.5855
    7CHL1   C17  468   1.466   4.958   9.461  0.2234 -0.1572 -0.1187
    7CHL1   H17  469   1.368   4.997   9.494  0.4134  1.4950 -1.3419
    7CHL1   C13  470   1.557   4.990   9.579 -0.6622  0.6889  0.1645
    7CHL1   C18  471   1.709   4.975   9.543  0.4260  0.0660  0.2313
    7CHL1  H18A  472   1.751   5.073   9.510  0.5509 -0.2510 -0.5644
    7CHL1  H18B  473   1.769   4.951   9.634  2.9315 -0.1024 -1.3913
    7CHL1  H18C  474   1.711   4.905   9.457 -2.3663  1.1973 -0.9004
    7CHL1   C12  475   1.528   5.120   9.660 -0.2688  0.3208 -0.4725
    7CHL1  H12A  476   1.550   5.216   9.611  0.6275  2.1710  3.1754
    7CHL1  H12B  477   1.420   5.122   9.687  0.0312  0.5821  0.8192
    7CHL1   C11  478   1.596   5.113   9.792 -0.3496 -0.5635  0.4156
    7CHL1  H11A  479   1.707   5.109   9.780 -0.3901  0.7525 -0.4981
    7CHL1  H11B  480   1.582   5.211   9.842 -2.0079 -1.1935  1.2434
    7CHL1    C9  481   1.552   4.994   9.876 -0.3646 -0.0490 -1.1584
    7CHL1    H9  482   1.445   5.020   9.883  0.3257  2.7312  1.1774
    7CHL1   C10  483   1.606   4.987  10.024 -0.5036 -0.3062  0.3698
    7CHL1   C19  484   1.760   5.000  10.036 -0.5172 -0.1270  0.3731
    7CHL1  H19A  485   1.792   5.015  10.141  0.7773 -0.8824  0.1054
    7CHL1  H19B  486   1.817   4.920   9.983 -0.6568 -0.5457  0.8396
    7CHL1  H19C  487   1.795   5.085   9.974  0.5343 -1.0105 -0.2821
    7CHL1    C1  488   1.547   5.107  10.103  0.1588 -0.5437 -0.2758
    7CHL1   H1A  489   1.614   5.191  10.074 -0.7026  1.0716  2.0315
    7CHL1   H1B  490   1.441   5.128  10.074  0.3422  3.0179  1.1335
    7CHL1    C2  491   1.558   5.098  10.259 -0.0676  0.3277 -0.0728
    7CHL1   H2A  492   1.511   5.189  10.303  0.2008  1.3572 -1.8270
    7CHL1   H2B  493   1.666   5.100  10.286  0.1724  0.2900 -0.9914
    7CHL1   C20  494   1.501   5.030   9.327  0.0680  0.2356  0.3940
    7CHL1   H20  495   1.605   5.005   9.296 -0.3992  0.3394 -1.3654
    7CHL1   C21  496   1.487   5.186   9.333 -0.0920  0.0788 -0.1527
    7CHL1  H21A  497   1.383   5.212   9.363  0.5744 -0.7317  3.2690
    7CHL1  H21B  498   1.519   5.238   9.241  2.9951 -1.1878  0.0802
    7CHL1  H21C  499   1.547   5.229   9.416 -1.6106 -0.0124  1.0462
    7CHL1   C22  500   1.416   4.977   9.206 -0.3325 -0.2294  0.2109
    7CHL1  H22A  501   1.433   4.868   9.194  2.8412  0.3991 -2.3500
    7CHL1  H22B  502   1.312   4.997   9.238  0.1471  0.2212  1.5370
    7CHL1   C23  503   1.437   5.059   9.072 -0.0412 -0.4006 -0.1360
    7CHL1  H23A  504   1.422   5.168   9.081 -1.1042 -0.5803  0.4111
    7CHL1  H23B  505   1.543   5.040   9.046 -0.2843 -0.2973 -1.2768
    7CHL1   C24  506   1.338   5.020   8.960 -0.0248  0.4378 -0.3335
    7CHL1  H24A  507   1.308   4.913   8.966 -0.5244  0.6252  0.6432
    7CHL1  H24B  508   1.241   5.072   8.975 -0.4868 -0.9983  2.3141
    7CHL1   C25  509   1.380   5.044   8.815  0.0059  0.8234 -1.4019
    7CHL1   H25  510   1.474   4.989   8.798  1.2894  2.3219  0.5051
    7CHL1   C26  511   1.282   4.981   8.717 -0.3654  0.0853 -0.0878
    7CHL1  H26A  512   1.290   5.022   8.613 -3.0774  0.4308 -0.2567
    7CHL1  H26B  513   1.292   4.871   8.709 -4.1274 -0.6066  2.0294
    7CHL1  H26C  514   1.173   4.991   8.738 -0.4696  2.0940 -1.2842
    7CHL1   C27  515   1.404   5.198   8.786 -0.2517 -0.0601  0.3304
    7CHL1  H27A  516   1.469   5.249   8.860  1.9066 -1.4120 -0.5400
    7CHL1  H27B  517   1.448   5.208   8.685  3.6382 -0.5657  1.8013
    7CHL1  H27C  518   1.305   5.249   8.786 -0.2842 -0.1228  0.2713
    8CHL1    C3  519   3.084   4.672  10.282  0.0737 -0.6281  0.8654
    8CHL1    H3  520   3.009   4.596  10.312 -0.7826 -1.2945 -2.5069
    8CHL1    O3  521   3.155   4.721  10.390 -0.3433 -0.4448  0.3939
    8CHL1   H3'  522   3.193   4.804  10.361  2.4807 -1.6061  0.4700
    8CHL1    C4  523   3.176   4.594  10.189  0.6420 -0.8271  0.4953
    8CHL1   H4A  524   3.265   4.655  10.159 -1.2361  1.8464 -0.0305
    8CHL1   H4B  525   3.218   4.507  10.243  1.4686 -1.9995 -1.8865
    8CHL1    C5  526   3.104   4.547  10.066  0.3046  0.5786 -0.1753
    8CHL1    C6  527   3.100   4.416  10.033  0.1648 -0.5410  0.0048
    8CHL1    H6  528   3.146   4.344  10.102 -1.1638  0.3007  1.8475
    8CHL1    C7  529   3.037   4.361   9.908 -0.7788 -0.0149 -0.0972
    8CHL1   H7A  530   3.096   4.275   9.870 -0.6535  0.2565 -0.5233
    8CHL1   H7B  531   2.949   4.305   9.946  2.4379 -3.4809  3.1014
    8CHL1    C8  532   3.002   4.469   9.804  0.1621  1.0238 -0.0881
    8CHL1    H8  533   3.096   4.501   9.754  0.9952 -2.6012 -1.1273
    8CHL1   C14  534   2.912   4.419   9.698  0.2494 -0.1726  0.5021
    8CHL1   H14  535   2.828   4.367   9.749 -1.6756  2.1692 -0.0724
    8CHL1   C15  536   2.959   4.305   9.607 -0.6032 -0.1651  0.0351
    8CHL1  H15A  537   3.057   4.338   9.566 -0.4408 -0.7133 -0.0141
    8CHL1  H15B  538   2.962   4.206   9.657 -1.8250 -0.8607 -1.1847
    8CHL1   C16  539   2.864   4.288   9.485 -0.3836 -0.5635 -0.0866
    8CHL1  H16A  540   2.925   4.267   9.394  0.7707 -0.5304  0.6529
    8CHL1  H16B  541   2.786   4.209   9.492  0.5322 -1.4085  1.1068
    8CHL1   C17  542   2.788   4.426   9.489  0.1201 -0.5518  0.2948
    8CHL1   H17  543   2.688   4.406   9.533 -0.3751 -2.8050 -1.6008
    8CHL1   C13  544   2.853   4.518   9.596 -0.4037  0.6158  0.2975
    8CHL1   C18  545   2.965   4.595   9.524  0.3760  0.6600  0.2533
    8CHL1  H18A  546   3.030   4.527   9.465  0.5091  0.9692  0.0369
    8CHL1  H18B  547   2.935   4.668   9.445  2.5353 -0.1101 -1.3623
    8CHL1  H18C  548   3.029   4.644   9.600 -0.3808  0.9130  0.7480
    8CHL1   C12  549   2.773   4.620   9.673 -0.0781 -0.3444 -0.5238
    8CHL1  H12A  550   2.721   4.696   9.612 -2.4311  0.2316  1.9944
    8CHL1  H12B  551   2.697   4.551   9.717  2.5998 -3.2127 -0.0398
    8CHL1   C11  552   2.849   4.680   9.786 -0.1652  0.0718 -0.1027
    8CHL1  H11A  553   2.911   4.766   9.753  1.7003 -0.0838  2.6415
    8CHL1  H11B  554   2.785   4.732   9.861  1.6252 -0.3196  1.7776
    8CHL1    C9  555   2.938   4.584   9.876  0.0600  0.1688 -0.3096
    8CHL1    H9  556   2.865   4.537   9.945  0.0271 -1.3275 -1.3295
    8CHL1   C10  557   3.040   4.654   9.977  1.0988 -0.0798 -0.3023
    8CHL1   C19  558   3.146   4.736   9.904  0.1406  0.5749 -0.3895
    8CHL1  H19A  559   3.196   4.816   9.963 -0.9885  0.1560  1.2097
    8CHL1  H19B  560   3.213   4.671   9.845  0.4256  2.6636 -2.5498
    8CHL1  H19C  561   3.099   4.799   9.825 -1.4481  0.5590  0.4971
    8CHL1    C1  562   2.953   4.741  10.070  0.1833 -0.3439 -0.0551
    8CHL1   H1A  563   2.932   4.831  10.008  0.3914  0.1667  0.6014
    8CHL1   H1B  564   2.855   4.690  10.087 -1.1612  2.6893  2.2712
    8CHL1    C2  565   3.019   4.788  10.204  0.3207 -0.1136  0.5739
    8CHL1   H2A  566   2.958   4.841  10.281  2.4168  0.3195  2.0188
    8CHL1   H2B  567   3.099   4.861  10.178  1.7212 -2.3395 -1.8111
    8CHL1   C20  568   2.767   4.467   9.342 -0.1951  0.1865  0.2371
    8CHL1   H20  569   2.866   4.480   9.293 -0.4449 -0.8532 -0.5775
    8CHL1   C21  570   2.677   4.595   9.327  0.1092 -0.1382 -0.3811
    8CHL1  H21A  571   2.709   4.682   9.388  1.8883 -0.8208 -0.2935
    8CHL1  H21B  572   2.578   4.553   9.358 -0.1042 -0.8510 -1.9308
    8CHL1  H21C  573   2.668   4.618   9.218  0.8988 -1.3011 -0.7060
    8CHL1   C22  574   2.709   4.347   9.256 -0.0664  0.6479 -0.2183
    8CHL1  H22A  575   2.769   4.255   9.241 -1.7301 -0.5767  0.3522
    8CHL1  H22B  576   2.618   4.317   9.313 -1.2531  1.2726 -1.7197
    8CHL1   C23  577   2.679   4.376   9.105  0.1848 -0.4028 -1.0399
    8CHL1  H23A  578   2.589   4.442   9.100  0.6074  0.1329 -1.8706
    8CHL1  H23B  579   2.757   4.440   9.059  1.7275 -2.0390 -0.7981
    8CHL1   C24  580   2.628   4.253   9.024 -0.4407 -0.0053 -0.3871
    8CHL1  H24A  581   2.708   4.177   9.013 -0.9302 -0.1666 -6.4411
    8CHL1  H24B  582   2.538   4.219   9.079 -0.0271 -2.2038 -0.9723
    8CHL1   C25  583   2.597   4.283   8.877  0.2001 -0.3725  0.6024
    8CHL1   H25  584   2.581   4.392   8.873 -2.1927 -0.6940 -0.1414
    8CHL1   C26  585   2.707   4.240   8.773 -0.5197  0.2789 -0.3624
    8CHL1  H26A  586   2.736   4.133   8.783  0.4390  0.3100 -2.2663
    8CHL1  H26B  587   2.668   4.249   8.669 -0.6910  0.3866 -0.2887
    8CHL1  H26C  588   2.802   4.297   8.783  0.2765 -0.8000 -1.3764
    8CHL1   C27  589   2.460   4.221   8.837  0.2575 -0.2967  0.6080
    8CHL1  H27A  590   2.379   4.247   8.908  0.6167  2.0669  0.2582
    8CHL1  H27B  591   2.431   4.257   8.736  2.8541  0.1704 -0.0574
    8CHL1  H27C  592   2.477   4.112   8.825 -2.1538 -0.8299  1.5703
    9CHL1    C3  593   6.484   6.742  10.042 -0.5693 -0.4920  0.1385
    9CHL1    H3  594   6.551   6.653  10.045  1.7606  1.0935 -1.0528
    9CHL1    O3  595   6.464   6.780  10.179 -0.1025 -0.7751  0.7321
    9CHL1   H3'  596   6.407   6.857  10.184  0.4498 -0.1918 -1.0344
    9CHL1    C4  597   6.534   6.851   9.959 -0.4288  0.4732  0.3204
    9CHL1   H4A  598   6.451   6.925   9.965 -1.4801 -0.7885  2.2835
    9CHL1   H4B  599   6.626   6.899   9.999 -0.8800 -0.3330  2.4286
    9CHL1    C5  600   6.558   6.797   9.819 -0.7629  0.5948  0.3891
    9CHL1    C6  601   6.682   6.771   9.764 -0.3284 -0.1254 -0.1391
    9CHL1    H6  602   6.771   6.798   9.822 -0.8745  0.5751  0.3845
    9CHL1    C7  603   6.704   6.732   9.619  0.4080 -0.0898 -1.0865
    9CHL1   H7A  604   6.789   6.785   9.572  0.9191  0.4164  0.3389
    9CHL1   H7B  605   6.735   6.626   9.622  0.1574 -0.1574 -0.6370
    9CHL1    C8  606   6.577   6.764   9.539  0.2220  0.0705  0.4139
    9CHL1    H8  607   6.569   6.873   9.519  0.6542 -0.4604 -3.5549
    9CHL1   C14  608   6.595   6.708   9.402 -0.0707 -0.3238 -0.0061
    9CHL1   H14  609   6.593   6.598   9.415  0.0505 -0.3035  0.1850
    9CHL1   C15  610   6.730   6.737   9.333  0.4140 -0.4239 -0.0786
    9CHL1  H15A  611   6.743   6.848   9.340 -2.1322 -0.0267 -0.4764
    9CHL1  H15B  612   6.814   6.686   9.384  1.2424  1.4151  0.4936
    9CHL1   C16  613   6.693   6.711   9.188  0.4510 -0.1979 -0.1051
    9CHL1  H16A  614   6.731   6.796   9.128  3.1089 -0.7713  0.6157
    9CHL1  H16B  615   6.745   6.619   9.152 -0.6122 -1.0018  0.3764
    9CHL1   C17  616   6.539   6.692   9.170 -0.1256  0.0209 -0.0733
    9CHL1   H17  617   6.515   6.585   9.182  0.5546  0.1194  3.4963
    9CHL1   C13  618   6.487   6.746   9.300  0.3692  0.4266 -0.1466
    9CHL1   C18  619   6.454   6.898   9.281  0.5208 -0.2873 -0.5214
    9CHL1  H18A  620   6.365   6.910   9.215 -0.5242 -1.3671  0.6210
    9CHL1  H18B  621   6.415   6.934   9.379  1.9074  0.9207 -0.3882
    9CHL1  H18C  622   6.540   6.958   9.244  0.5100 -1.0742 -1.8954
    9CHL1   C12  623   6.367   6.668   9.354  0.0858 -0.4246 -0.3550
    9CHL1  H12A  624   6.270   6.679   9.300 -0.6870 -1.5807  0.7376
    9CHL1  H12B  625   6.386   6.559   9.361 -2.2261 -0.9740 -1.6380
    9CHL1   C11  626   6.330   6.719   9.498 -0.3891  0.1515 -0.0988
    9CHL1  H11A  627   6.298   6.826   9.491 -2.3457 -0.2705  1.6183
    9CHL1  H11B  628   6.248   6.651   9.527  0.3309 -1.1946 -1.1373
    9CHL1    C9  629   6.452   6.713   9.604 -0.1562 -0.4652  0.4750
    9CHL1    H9  630   6.478   6.605   9.613 -0.3546 -0.4375  1.5051
    9CHL1   C10  631   6.427   6.769   9.746  0.0003 -0.8323  0.0593
    9CHL1   C19  632   6.340   6.900   9.731  0.4243  0.2651  0.1290
    9CHL1  H19A  633   6.315   6.945   9.829 -0.1942 -1.3165  0.7360
    9CHL1  H19B  634   6.378   6.980   9.664 -0.4071 -0.1311 -0.8377
    9CHL1  H19C  635   6.248   6.857   9.686  0.3088 -0.4281  0.9924
    9CHL1    C1  636   6.355   6.658   9.830 -0.2170  0.8636 -0.2842
    9CHL1   H1A  637   6.254   6.646   9.783 -0.6662  0.5058  0.7430
    9CHL1   H1B  638   6.414   6.564   9.821  0.7857  1.6559 -3.9837
    9CHL1    C2  639   6.348   6.693   9.980  0.0774 -0.1065 -0.6829
    9CHL1   H2A  640   6.318   6.600  10.032  0.7514  0.8899  1.5934
    9CHL1   H2B  641   6.280   6.779   9.999  0.9872  0.5269 -0.2150
    9CHL1   C20  642   6.482   6.743   9.034  0.1870  0.4161 -0.2729
    9CHL1   H20  643   6.375   6.772   9.043  0.6841  1.6172  3.0719
    9CHL1   C21  644   6.505   6.634   8.923 -0.7376 -0.1786 -0.4972
    9CHL1  H21A  645   6.454   6.647   8.826 -0.9479 -2.1983 -0.7056
    9CHL1  H21B  646   6.467   6.534   8.953 -1.6315 -0.9892 -3.9257
    9CHL1  H21C  647   6.614   6.621   8.903 -0.8553 -1.6859 -0.2556
    9CHL1   C22  648   6.539   6.869   8.960 -0.1944 -0.1021 -0.0649
    9CHL1  H22A  649   6.560   6.942   9.041  1.1750 -0.4623 -0.0802
    9CHL1  H22B  650   6.640   6.849   8.918  0.3305 -2.2271  1.9817
    9CHL1   C23  651   6.443   6.937   8.861  0.0525  0.1384  0.6895
    9CHL1  H23A  652   6.446   6.871   8.771  2.0023  2.6856 -1.2865
    9CHL1  H23B  653   6.347   6.951   8.915  0.2175 -0.9817  1.3069
    9CHL1   C24  654   6.481   7.077   8.808 -0.3690 -0.1246  0.2244
    9CHL1  H24A  655   6.491   7.146   8.895  0.3716  2.9172 -2.1040
    9CHL1  H24B  656   6.578   7.072   8.756 -0.8278  0.8403 -0.7715
    9CHL1   C25  657   6.378   7.125   8.713 -0.0205  0.1412  0.8892
    9CHL1   H25  658   6.282   7.080   8.747  0.4677 -0.2742  1.7708
    9CHL1   C26  659   6.373   7.279   8.702  0.4148  0.7593  0.1492
    9CHL1  H26A  660   6.362   7.325   8.803  3.3656  0.1248  0.8751
    9CHL1  H26B  661   6.471   7.310   8.658  1.1121 -2.5616 -0.9511
    9CHL1  H26C  662   6.296   7.314   8.630  0.0113  2.1761  1.2136
    9CHL1   C27  663   6.403   7.080   8.567 -0.3394  0.5619 -0.1666
    9CHL1  H27A  664   6.315   7.092   8.501 -0.8758  0.4534  0.5239
    9CHL1  H27B  665   6.482   7.143   8.521 -0.0701  0.3576  0.0094
    9CHL1  H27C  666   6.440   6.975   8.568 -0.0191  0.6707 -0.3539
   10CHL1    C3  667   4.042   4.660   9.996  0.5028 -0.2746 -0.7220
   10CHL1    H3  668   3.958   4.597   9.959  0.5214 -0.8498  0.1966
   10CHL1    O3  669   4.070   4.653  10.134 -0.3843  0.3355  0.5433
   10CHL1   H3'  670   4.033   4.732  10.174  0.5225  1.7228 -1.1958
   10CHL1    C4  671   4.156   4.628   9.902  0.9836 -0.3455  0.5984
   10CHL1   H4A  672   4.236   4.705   9.910  0.7551  0.0684 -0.7679
   10CHL1   H4B  673   4.194   4.531   9.939  0.0023 -0.2874  1.8133
   10CHL1    C5  674   4.103   4.629   9.758  0.0208  0.7344 -0.5220
   10CHL1    C6  675   4.091   4.515   9.688  0.7014  1.1548  0.3386
   10CHL1    H6  676   4.118   4.415   9.727 -2.5346  0.3910  0.9096
   10CHL1    C7  677   4.062   4.512   9.548  0.1533  0.0923  0.5452
   10CHL1   H7A  678   4.138   4.448   9.498 -1.8413 -1.0956 -1.1198
   10CHL1   H7B  679   3.962   4.472   9.520  0.1324  1.4867 -1.6535
   10CHL1    C8  680   4.057   4.652   9.476  0.2030  0.4940  1.3165
   10CHL1    H8  681   4.164   4.682   9.476  0.5325 -0.6479  1.2027
   10CHL1   C14  682   3.995   4.655   9.339  0.6265 -0.0845 -0.0410
   10CHL1   H14  683   3.886   4.640   9.350  0.4185  1.1877 -0.2561
   10CHL1   C15  684   4.036   4.549   9.235 -0.4077 -0.0562 -0.3051
   10CHL1  H15A  685   4.142   4.524   9.259 -0.0812  1.2661 -0.2678
   10CHL1  H15B  686   3.972   4.461   9.259 -2.2033  1.7310  1.9548
   10CHL1   C16  687   4.013   4.614   9.100  0.6958 -0.6308  0.5447
   10CHL1  H16A  688   4.111   4.630   9.051  1.7071 -0.2553  2.5881
   10CHL1  H16B  689   3.948   4.543   9.043 -0.2318 -0.0722  0.8850
   10CHL1   C17  690   3.947   4.755   9.136  0.5411  0.1994 -0.2263
   10CHL1   H17  691   3.838   4.737   9.146  0.5585  0.1526 -0.1100
   10CHL1   C13  692   4.014   4.792   9.271  0.0124  0.9473 -0.0352
   10CHL1   C18  693   4.162   4.827   9.243  0.8260  0.1824  0.0815
   10CHL1  H18A  694   4.155   4.933   9.212  1.7204  0.0851 -0.4791
   10CHL1  H18B  695   4.229   4.811   9.330 -0.3905  1.5955  1.3319
   10CHL1  H18C  696   4.197   4.768   9.156 -2.5286 -2.6953  0.4639
   10CHL1   C12  697   3.946   4.908   9.351  0.6868  0.3464  0.0678
   10CHL1  H12A  698   3.981   5.006   9.313  0.1654  0.2966 -0.5662
   10CHL1  H12B  699   3.838   4.886   9.336  0.5422 -0.0244  1.5376
   10CHL1   C11  700   3.972   4.901   9.503  0.4899  0.6935 -0.8337
   10CHL1  H11A  701   4.061   4.967   9.519 -1.1777  2.5560  1.3919
   10CHL1  H11B  702   3.888   4.956   9.549  1.8603  1.9430  0.2995
   10CHL1    C9  703   3.989   4.755   9.563  0.2209 -0.6506 -0.1452
   10CHL1    H9  704   3.886   4.715   9.576  0.1887 -0.3830  0.4995
   10CHL1   C10  705   4.054   4.762   9.707  0.7371 -0.3046  0.7939
   10CHL1   C19  706   4.180   4.859   9.703  0.2132 -0.2146  0.4433
   10CHL1  H19A  707   4.134   4.960   9.699  0.0946 -0.2872 -0.0875
   10CHL1  H19B  708   4.240   4.871   9.795 -2.0860  2.5760  1.7589
   10CHL1  H19C  709   4.245   4.842   9.614 -0.8107 -2.5575  0.0663
   10CHL1    C1  710   3.948   4.814   9.810 -0.1364  0.1081  0.1897
   10CHL1   H1A  711   3.918   4.917   9.781 -0.7195 -0.0022  0.3948
   10CHL1   H1B  712   3.859   4.748   9.801 -0.0955 -0.3244  2.3875
   10CHL1    C2  713   3.990   4.800   9.961 -0.3225 -0.0272  0.5552
   10CHL1   H2A  714   3.892   4.820  10.012 -0.6541 -0.3375  0.0454
   10CHL1   H2B  715   4.055   4.885   9.991 -1.6390  1.8227 -1.4974
   10CHL1   C20  716   3.954   4.852   9.020  0.1589 -0.0572  0.4712
   10CHL1   H20  717   4.057   4.882   8.992  0.7587 -3.2218 -1.1575
   10CHL1   C21  718   3.879   4.983   9.049 -0.2404 -0.5856 -0.0833
   10CHL1  H21A  719   3.850   5.044   8.960 -0.3503  0.3475  0.5772
   10CHL1  H21B  720   3.943   5.045   9.114 -0.6755  1.0129 -1.1111
   10CHL1  H21C  721   3.793   4.967   9.118  0.3986 -0.2954  0.7929
   10CHL1   C22  722   3.901   4.787   8.889  0.3152  0.2491  0.3551
   10CHL1  H22A  723   3.970   4.702   8.870  1.2611  1.1305 -0.2143
   10CHL1  H22B  724   3.792   4.765   8.891  0.3840 -0.1643 -0.1674
   10CHL1   C23  725   3.906   4.872   8.761  0.3406  0.1767 -0.8623
   10CHL1  H23A  726   3.838   4.959   8.762 -0.2888 -0.3100 -0.2030
   10CHL1  H23B  727   4.008   4.916   8.754  0.0687  0.6290 -2.3214
   10CHL1   C24  728   3.874   4.771   8.641 -0.3148  0.1553 -0.5963
   10CHL1  H24A  729   3.952   4.692   8.642 -0.8261 -0.5549 -3.8280
   10CHL1  H24B  730   3.772   4.728   8.653 -0.6531  1.4038  1.4032
   10CHL1   C25  731   3.889   4.840   8.505  0.0964 -0.3981 -0.7175
   10CHL1   H25  732   3.980   4.904   8.499 -1.1119  1.3927 -0.8902
   10CHL1   C26  733   3.890   4.727   8.389 -0.7334 -0.2013 -0.1764
   10CHL1  H26A  734   3.893   4.764   8.284 -0.5651  0.2511 -0.0146
   10CHL1  H26B  735   3.980   4.665   8.409  0.5303  1.4919 -0.3783
   10CHL1  H26C  736   3.802   4.660   8.401 -1.8913  1.1583 -0.7274
   10CHL1   C27  737   3.769   4.930   8.486 -0.2040  0.1158 -0.4946
   10CHL1  H27A  738   3.683   4.877   8.531 -0.1543 -1.8098 -2.4783
   10CHL1  H27B  739   3.765   5.021   8.549 -1.4700 -0.6589  0.6014
   10CHL1  H27C  740   3.753   4.955   8.379 -1.0258 -1.9217 -0.8990
   11CHL1    C3  741   1.888   3.626  10.093 -0.4905  0.3027 -0.0973
   11CHL1    H3  742   1.874   3.735  10.082 -0.5106  0.2195 -0.9209
   11CHL1    O3  743   1.889   3.587  10.231 -0.1843 -0.2881 -0.0897
   11CHL1   H3'  744   1.910   3.493  10.232 -2.3825 -0.8477 -0.7280
   11CHL1    C4  745   1.784   3.543  10.025  0.1378 -0.9806  0.1827
   11CHL1   H4A  746   1.801   3.435  10.044 -1.4040 -1.8251 -2.6438
   11CHL1   H4B  747   1.683   3.569  10.063 -1.3243 -2.6458 -2.2816
   11CHL1    C5  748   1.768   3.577   9.874 -0.0507 -0.0402  0.6876
   11CHL1    C6  749   1.656   3.617   9.817 -0.0046  0.3841  0.4057
   11CHL1    H6  750   1.563   3.627   9.875  0.0158  0.0445  0.4985
   11CHL1    C7  751   1.637   3.659   9.675  0.2732  0.4632  0.3744
   11CHL1   H7A  752   1.543   3.610   9.641  0.1613  0.7921  0.1954
   11CHL1   H7B  753   1.627   3.770   9.673  2.4159  0.6845  0.3449
   11CHL1    C8  754   1.766   3.623   9.588  0.3852 -0.0607  0.3516
   11CHL1    H8  755   1.748   3.520   9.552 -1.1340  0.9072 -1.9339
   11CHL1   C14  756   1.771   3.706   9.460  0.5234  0.7458 -0.1605
   11CHL1   H14  757   1.782   3.808   9.502  0.1268 -0.0567  2.0347
   11CHL1   C15  758   1.645   3.706   9.371  0.0113  0.1090 -0.5995
   11CHL1  H15A  759   1.606   3.603   9.355  0.5857 -0.0822 -0.8098
   11CHL1  H15B  760   1.572   3.772   9.422  1.5008  0.5321  1.0782
   11CHL1   C16  761   1.692   3.741   9.232  0.3688  0.0870  0.1185
   11CHL1  H16A  762   1.664   3.667   9.154  2.1738 -0.8399  0.3027
   11CHL1  H16B  763   1.646   3.842   9.220 -0.0320 -0.0981  0.0614
   11CHL1   C17  764   1.846   3.769   9.246  0.2376  0.1474 -0.1801
   11CHL1   H17  765   1.872   3.872   9.278 -2.0851  1.6227 -2.6374
   11CHL1   C13  766   1.886   3.672   9.367 -0.6431 -0.7510 -0.8829
   11CHL1   C18  767   1.882   3.530   9.317  0.5390 -0.7297 -0.8167
   11CHL1  H18A  768   1.795   3.518   9.249 -0.9915  1.1656  0.7059
   11CHL1  H18B  769   1.983   3.506   9.277  1.4658 -0.4839  1.2816
   11CHL1  H18C  770   1.864   3.458   9.400  2.6132  0.7584  1.0509
   11CHL1   C12  771   2.022   3.702   9.437 -0.2528 -0.4434 -0.1980
   11CHL1  H12A  772   2.104   3.685   9.364 -1.3249 -1.4947 -1.2070
   11CHL1  H12B  773   2.024   3.808   9.473 -2.3777 -0.5927  0.5084
   11CHL1   C11  774   2.026   3.620   9.571  0.5508 -0.2255 -0.1409
   11CHL1  H11A  775   2.030   3.512   9.545 -2.0987 -0.3251 -0.4433
   11CHL1  H11B  776   2.115   3.656   9.626  0.5717 -0.7689  0.1930
   11CHL1    C9  777   1.896   3.640   9.663 -1.1972 -0.5371 -0.7533
   11CHL1    H9  778   1.905   3.748   9.690  0.0443 -1.1514  1.6189
   11CHL1   C10  779   1.908   3.568   9.808  1.0519 -0.2771  0.4009
   11CHL1   C19  780   1.943   3.425   9.793  0.4404  0.1247  0.7101
   11CHL1  H19A  781   1.935   3.367   9.888  2.9848  1.1793  1.6335
   11CHL1  H19B  782   1.875   3.372   9.722  0.8840  1.5483 -0.8201
   11CHL1  H19C  783   2.046   3.425   9.753 -1.1087  2.0406 -3.9648
   11CHL1    C1  784   2.016   3.639   9.893 -0.5741 -0.0751  0.1242
   11CHL1   H1A  785   2.109   3.615   9.837  0.5127 -0.7853  2.1250
   11CHL1   H1B  786   2.001   3.749   9.887 -0.2134 -0.0973 -1.5166
   11CHL1    C2  787   2.019   3.602  10.040 -0.2050  1.3419 -0.1894
   11CHL1   H2A  788   2.094   3.663  10.095  1.6912 -0.9226 -0.1239
   11CHL1   H2B  789   2.071   3.505  10.053  2.5419  2.7810  0.4874
   11CHL1   C20  790   1.918   3.764   9.106 -0.0714  0.0306 -0.6759
   11CHL1   H20  791   1.916   3.657   9.076 -1.4446  0.0607 -0.7749
   11CHL1   C21  792   2.060   3.817   9.116 -0.0911  0.1441  0.2440
   11CHL1  H21A  793   2.124   3.749   9.178 -0.1324  1.0769  1.3343
   11CHL1  H21B  794   2.071   3.913   9.170  1.6586 -0.3081  0.7581
   11CHL1  H21C  795   2.109   3.827   9.016 -2.5015 -1.0892 -1.1545
   11CHL1   C22  796   1.847   3.849   9.004 -0.3191 -0.2098 -0.5211
   11CHL1  H22A  797   1.742   3.819   8.986  0.6744 -1.9621 -4.2495
   11CHL1  H22B  798   1.847   3.954   9.043  0.4399  0.2967 -1.8209
   11CHL1   C23  799   1.907   3.852   8.862 -0.6512 -0.3926  0.6751
   11CHL1  H23A  800   1.860   3.942   8.817  1.3374  0.3999  0.0416
   11CHL1  H23B  801   2.014   3.883   8.862 -0.7377 -0.0232 -0.8881
   11CHL1   C24  802   1.881   3.728   8.771 -0.7448  0.1655  0.1433
   11CHL1  H24A  803   1.957   3.647   8.776 -1.6227 -0.5826  2.3539
   11CHL1  H24B  804   1.781   3.684   8.787 -0.6021  0.1047  0.8848
   11CHL1   C25  805   1.888   3.775   8.624  0.3781 -0.0509  0.2333
   11CHL1   H25  806   1.815   3.856   8.604  0.3433 -0.2954 -0.6690
   11CHL1   C26  807   2.025   3.825   8.587 -0.5723 -0.3096 -0.0275
   11CHL1  H26A  808   2.073   3.906   8.646  2.5749 -1.5301 -0.7002
   11CHL1  H26B  809   2.095   3.740   8.602 -2.7383 -1.9779  1.3988
   11CHL1  H26C  810   2.020   3.859   8.481  1.8223  0.5781  0.0942
   11CHL1   C27  811   1.846   3.656   8.533 -0.0965 -0.4777 -0.4574
   11CHL1  H27A  812   1.928   3.581   8.546  0.3619 -0.1056 -1.1200
   11CHL1  H27B  813   1.742   3.620   8.545 -0.3014 -0.1036 -1.0351
   11CHL1  H27C  814   1.856   3.684   8.425  1.0743  0.3443 -0.1559
   12CHL1    C3  815   1.850   6.340  10.416  0.2655  0.1034 -0.0628
   12CHL1    H3  816   1.822   6.241  10.373 -0.6719  0.1652  0.3659
   12CHL1    O3  817   1.812   6.353  10.555  0.3637 -0.2912  0.0056
   12CHL1   H3'  818   1.860   6.431  10.584 -0.4085 -0.0517  0.6873
   12CHL1    C4  819   1.997   6.361  10.399 -0.2571 -0.1439  0.0851
   12CHL1   H4A  820   2.028   6.452  10.454  1.1227  0.2624 -1.2726
   12CHL1   H4B  821   2.048   6.277  10.450 -0.2581  0.2585  0.7618
   12CHL1    C5  822   2.049   6.360  10.259 -0.8040  0.0407 -0.0306
   12CHL1    C6  823   2.150   6.287  10.223 -0.3509  0.8141  0.1864
   12CHL1    H6  824   2.208   6.230  10.297  1.6409  2.3573 -0.1035
   12CHL1    C7  825   2.201   6.280  10.080 -0.6762  0.1964  0.2525
   12CHL1   H7A  826   2.312   6.290  10.069 -0.8613  1.4263 -0.7066
   12CHL1   H7B  827   2.186   6.181  10.032  0.5319  0.8263 -1.5679
   12CHL1    C8  828   2.146   6.386   9.985  0.6684  0.2921 -0.6891
   12CHL1    H8  829   2.206   6.477  10.009  0.1755  0.4294  0.0557
   12CHL1   C14  830   2.169   6.346   9.838  0.2821  0.2261  0.1956
   12CHL1   H14  831   2.110   6.252   9.829 -1.2754  1.2205 -0.3426
   12CHL1   C15  832   2.311   6.299   9.800  0.0220  0.4554  0.3629
   12CHL1  H15A  833   2.403   6.346   9.840  0.3382  0.8460 -0.7635
   12CHL1  H15B  834   2.314   6.190   9.822 -0.2919  0.2756 -0.4383
   12CHL1   C16  835   2.316   6.306   9.643  0.5857 -0.0409  0.0566
   12CHL1  H16A  836   2.400   6.373   9.618  1.2277 -1.3627 -1.5862
   12CHL1  H16B  837   2.346   6.210   9.595  1.6322  0.3204 -0.0344
   12CHL1   C17  838   2.173   6.360   9.604 -0.2698  0.1856 -0.5531
   12CHL1   H17  839   2.121   6.263   9.595  1.1190 -0.6101 -0.3244
   12CHL1   C13  840   2.116   6.435   9.730  0.1432  0.2556 -0.4487
   12CHL1   C18  841   2.205   6.559   9.745  0.0937 -0.2177  0.7541
   12CHL1  H18A  842   2.315   6.542   9.747  0.0553 -1.2315 -1.7796
   12CHL1  H18B  843   2.181   6.627   9.661 -0.9313  0.8004  1.8336
   12CHL1  H18C  844   2.185   6.613   9.840  1.2299 -0.3239  1.0599
   12CHL1   C12  845   1.965   6.462   9.752  0.4727 -1.4026 -0.7609
   12CHL1  H12A  846   1.921   6.546   9.694 -1.5281 -1.7910  0.1060
   12CHL1  H12B  847   1.899   6.378   9.721 -1.0163 -0.7867  0.5784
   12CHL1   C11  848   1.944   6.507   9.905  0.2792  0.5146  0.2723
   12CHL1  H11A  849   2.000   6.603   9.911  0.5461  0.3635  0.1906
   12CHL1  H11B  850   1.834   6.521   9.915  0.3845  0.5487  1.5684
   12CHL1    C9  851   1.994   6.409  10.008 -0.5616  0.7902 -0.6662
   12CHL1    H9  852   1.936   6.319   9.980  0.3213  0.3223 -1.0299
   12CHL1   C10  853   1.974   6.447  10.159 -0.1683 -0.1133  0.1503
   12CHL1   C19  854   2.018   6.593  10.178  0.6923 -0.4391 -0.9043
   12CHL1  H19A  855   2.010   6.632  10.282  0.0349  0.4768 -1.2801
   12CHL1  H19B  856   2.120   6.612  10.138  0.8997  2.5393  0.7214
   12CHL1  H19C  857   1.942   6.650  10.121  0.8478  0.2830 -0.4119
   12CHL1    C1  858   1.820   6.446  10.190 -0.4390  0.2028  1.2805
   12CHL1   H1A  859   1.763   6.520  10.130  0.3833 -0.0798  0.1270
   12CHL1   H1B  860   1.774   6.352  10.154 -1.0429  0.7080  0.7082
   12CHL1    C2  861   1.778   6.454  10.336  0.3206 -0.0740  0.3658
   12CHL1   H2A  862   1.667   6.456  10.338  0.3249  0.1676  0.4172
   12CHL1   H2B  863   1.804   6.549  10.387  2.5293 -0.2326 -0.3413
   12CHL1   C20  864   2.166   6.429   9.473 -0.5336 -0.2026 -0.2028
   12CHL1   H20  865   2.206   6.532   9.484 -0.5839 -0.2607  0.5891
   12CHL1   C21  866   2.018   6.428   9.427 -0.1012  0.6827 -0.7404
   12CHL1  H21A  867   1.960   6.498   9.490 -0.8036 -1.8126  1.5755
   12CHL1  H21B  868   1.969   6.329   9.442  0.8823  0.4645  1.4413
   12CHL1  H21C  869   1.999   6.468   9.325  1.0654  0.3268 -1.1074
   12CHL1   C22  870   2.248   6.348   9.369  0.0387 -0.7250  0.1438
   12CHL1  H22A  871   2.352   6.345   9.407 -0.0255  0.1311  0.3919
   12CHL1  H22B  872   2.229   6.238   9.369 -2.8011 -0.3239  1.7240
   12CHL1   C23  873   2.257   6.403   9.231 -0.2190 -0.1021  0.3826
   12CHL1  H23A  874   2.157   6.393   9.185  0.1856  0.9491 -0.8000
   12CHL1  H23B  875   2.282   6.512   9.227 -1.0748  0.0560 -1.1503
   12CHL1   C24  876   2.360   6.326   9.144 -0.8841  0.2184  0.2162
   12CHL1  H24A  877   2.459   6.310   9.191 -0.2921  0.5092 -0.9033
   12CHL1  H24B  878   2.321   6.224   9.123 -0.1768  0.0817 -0.4778
   12CHL1   C25  879   2.398   6.396   9.014 -0.2584 -0.0981  0.2067
   12CHL1   H25  880   2.441   6.492   9.050 -0.3935 -0.2353  0.7363
   12CHL1   C26  881   2.508   6.313   8.944 -0.6683  0.0323  0.1613
   12CHL1  H26A  882   2.513   6.328   8.834 -0.5118 -0.6904  0.0615
   12CHL1  H26B  883   2.605   6.321   8.997 -0.2279 -0.7176 -0.5001
   12CHL1  H26C  884   2.486   6.204   8.950 -1.6332  0.2354  0.6241
   12CHL1   C27  885   2.279   6.413   8.921 -0.3132 -0.0522  0.3344
   12CHL1  H27A  886   2.202   6.469   8.980  1.2830  1.0789  1.4418
   12CHL1  H27B  887   2.296   6.474   8.830  1.4221 -0.3794  0.4057
   12CHL1  H27C  888   2.234   6.319   8.883  0.7273  0.0975 -1.3436
   13CHL1    C3  889   2.454   0.052   9.880 -0.2485  0.8824  0.0990
   13CHL1    H3  890   2.355   0.019   9.843  0.8237 -0.9386 -1.3143
   13CHL1    O3  891   2.473   0.021  10.016 -0.3353 -0.1043 -0.0086
   13CHL1   H3'  892   2.550   0.072  10.044  0.9104 -0.6034 -2.2365
   13CHL1    C4  893   2.543  -0.037   9.792  0.0585  0.2451 -0.1069
   13CHL1   H4A  894   2.646  -0.013   9.825 -0.6331  1.2908  1.4055
   13CHL1   H4B  895   2.521  -0.138   9.831 -1.4499  1.0437  1.2258
   13CHL1    C5  896   2.521  -0.005   9.647 -0.2172  0.2226 -0.3927
   13CHL1    C6  897   2.482  -0.098   9.565 -0.1443  0.0396  0.6029
   13CHL1    H6  898   2.479  -0.202   9.599 -1.2521  0.1031  0.7578
   13CHL1    C7  899   2.463  -0.084   9.414 -0.3918  0.5607 -0.2209
   13CHL1   H7A  900   2.515  -0.169   9.366 -2.2858 -0.8860  0.1705
   13CHL1   H7B  901   2.358  -0.088   9.376  0.0003  2.1279 -1.5756
   13CHL1    C8  902   2.539   0.044   9.366 -0.3529 -0.2480 -0.0428
   13CHL1    H8  903   2.647   0.027   9.344  0.0978  1.8193  0.3589
   13CHL1   C14  904   2.493   0.086   9.217 -0.5662 -0.0705  0.0322
   13CHL1   H14  905   2.384   0.102   9.232 -0.4934 -0.0137  0.5094
   13CHL1   C15  906   2.500  -0.017   9.104 -0.1854  0.0545  0.2373
   13CHL1  H15A  907   2.602  -0.052   9.077 -0.5826  0.0475 -1.3803
   13CHL1  H15B  908   2.423  -0.094   9.127 -1.1820  1.5692  2.3520
   13CHL1   C16  909   2.463   0.070   8.980  0.3155  0.8598 -0.1393
   13CHL1  H16A  910   2.537   0.055   8.898 -1.3859  1.6377 -1.9042
   13CHL1  H16B  911   2.361   0.057   8.940 -0.1942  2.4907  0.5715
   13CHL1   C17  912   2.472   0.222   9.029 -0.3336  0.0342  0.1739
   13CHL1   H17  913   2.369   0.246   9.064 -0.1944  2.3937 -0.8544
   13CHL1   C13  914   2.548   0.219   9.160  0.5988  0.6775  0.0587
   13CHL1   C18  915   2.703   0.210   9.147  0.0319 -0.6907 -0.0374
   13CHL1  H18A  916   2.735   0.132   9.074 -0.8731 -0.7331 -0.4081
   13CHL1  H18B  917   2.740   0.308   9.112 -0.8856  0.0409  1.0032
   13CHL1  H18C  918   2.758   0.188   9.241  1.4493  1.0673 -0.4004
   13CHL1   C12  919   2.505   0.317   9.266  0.1796 -0.1499 -0.3178
   13CHL1  H12A  920   2.535   0.417   9.229 -0.4969  0.6605  1.2066
   13CHL1  H12B  921   2.394   0.321   9.273  0.1487  0.3273 -0.9966
   13CHL1   C11  922   2.566   0.289   9.407 -0.0424  0.2563  0.2583
   13CHL1  H11A  923   2.677   0.293   9.402  0.1832 -1.0605  2.5878
   13CHL1  H11B  924   2.531   0.369   9.476 -0.1493 -0.4314  1.0190
   13CHL1    C9  925   2.509   0.157   9.469 -0.2593 -0.4340 -0.7771
   13CHL1    H9  926   2.399   0.171   9.467 -0.3373 -0.7639  0.5554
   13CHL1   C10  927   2.557   0.145   9.614 -0.0289  0.6137 -0.2330
   13CHL1   C19  928   2.712   0.175   9.613 -0.2591  0.4926 -0.1968
   13CHL1  H19A  929   2.752   0.102   9.539 -1.6384 -0.1805 -0.3265
   13CHL1  H19B  930   2.747   0.279   9.595  1.5517 -0.2536 -1.2490
   13CHL1  H19C  931   2.759   0.134   9.705 -0.1915 -1.5685 -1.0936
   13CHL1    C1  932   2.477   0.237   9.706 -0.1927 -0.3988 -0.3345
   13CHL1   H1A  933   2.509   0.342   9.692 -2.7873  0.2239 -2.4153
   13CHL1   H1B  934   2.374   0.228   9.666  0.4568  0.3431 -2.2574
   13CHL1    C2  935   2.488   0.198   9.858  0.9686 -0.1086 -0.5221
   13CHL1   H2A  936   2.422   0.271   9.910  1.3442 -2.1655  3.2346
   13CHL1   H2B  937   2.594   0.226   9.878  0.7345 -0.8360  2.0829
   13CHL1   C20  938   2.502   0.313   8.911 -0.2052  0.2151 -0.1518
   13CHL1   H20  939   2.604   0.288   8.875  0.4724  1.5684  0.7170
   13CHL1   C21  940   2.520   0.460   8.971  0.1711  0.2712 -0.3399
   13CHL1  H21A  941   2.600   0.468   9.047  0.7976 -3.3441 -0.4460
   13CHL1  H21B  942   2.427   0.503   9.014  1.4183  2.1447  0.6397
   13CHL1  H21C  943   2.542   0.534   8.890 -3.5744  1.4416 -0.5119
   13CHL1   C22  944   2.399   0.314   8.796 -0.0915  0.1055 -0.0114
   13CHL1  H22A  945   2.412   0.391   8.717  0.2344 -0.4783 -0.5259
   13CHL1  H22B  946   2.401   0.221   8.736 -1.2663  0.2062 -0.2218
   13CHL1   C23  947   2.253   0.329   8.844 -0.2733  0.0111 -0.3209
   13CHL1  H23A  948   2.236   0.233   8.898  3.5919 -0.2948  0.6616
   13CHL1  H23B  949   2.243   0.409   8.920 -1.2329 -0.6204  0.2289
   13CHL1   C24  950   2.150   0.346   8.727 -0.0617  0.0484 -0.3577
   13CHL1  H24A  951   2.175   0.440   8.674  1.5640 -0.8646 -1.3087
   13CHL1  H24B  952   2.158   0.268   8.648  0.4903  0.5735 -0.8349
   13CHL1   C25  953   2.001   0.347   8.776 -0.5813  0.2872 -0.3127
   13CHL1   H25  954   1.993   0.260   8.846  1.2813  1.6128  1.6661
   13CHL1   C26  955   1.960   0.478   8.837 -0.4864 -0.0900 -0.2240
   13CHL1  H26A  956   2.020   0.499   8.928 -1.7855  0.0192  0.6308
   13CHL1  H26B  957   1.981   0.558   8.763 -3.2217  1.9303  0.9905
   13CHL1  H26C  958   1.852   0.481   8.862 -0.0775 -0.7986  1.8567
   13CHL1   C27  959   1.902   0.322   8.661 -0.0423  0.0793 -0.2954
   13CHL1  H27A  960   1.811   0.324   8.725  1.2465 -0.5703  1.6695
   13CHL1  H27B  961   1.900   0.407   8.590  0.5190  1.1674  0.9471
   13CHL1  H27C  962   1.917   0.225   8.609 -0.9133  0.4946 -1.3648
   14CHL1    C3  963   0.106   4.520  10.324 -0.0374 -0.4121 -0.0764
   14CHL1    H3  964   0.008   4.551  10.282  0.4532  1.6149  0.1977
   14CHL1    O3  965   0.100   4.545  10.466 -0.6952  0.4896  0.0871
   14CHL1   H3'  966   0.056   4.629  10.480  1.2377  1.8011 -1.2432
   14CHL1    C4  967   0.123   4.376  10.306 -0.1903  0.1990  0.3116
   14CHL1   H4A  968   0.219   4.337  10.346 -0.6389  0.1832  1.4194
   14CHL1   H4B  969   0.042   4.319  10.356  1.0225 -0.7217  1.2983
   14CHL1    C5  970   0.114   4.340  10.160  0.6241 -0.6764  0.0922
   14CHL1    C6  971   0.024   4.253  10.118  0.2379  0.0899  0.1222
   14CHL1    H6  972  -0.049   4.218  10.193 -0.4214  0.4025 -0.3552
   14CHL1    C7  973   0.012   4.204   9.976  0.2023  0.2433  0.2849
   14CHL1   H7A  974   0.013   4.093   9.966 -1.1671  0.0474  1.8747
   14CHL1   H7B  975  -0.086   4.246   9.944  0.3654  1.0286  0.7905
   14CHL1    C8  976   0.128   4.253   9.881  0.0638 -0.7648 -0.8109
   14CHL1    H8  977   0.211   4.181   9.895  1.3418  0.5483 -1.3117
   14CHL1   C14  978   0.080   4.262   9.739  0.1150 -0.2757 -0.1768
   14CHL1   H14  979  -0.002   4.336   9.739 -0.5009 -0.8701  2.3592
   14CHL1   C15  980  -0.000   4.142   9.681 -0.4119  0.1487  0.5164
   14CHL1  H15A  981   0.067   4.053   9.680  2.1480  1.9575  1.1583
   14CHL1  H15B  982  -0.095   4.115   9.732  0.3862 -0.8797  1.5296
   14CHL1   C16  983  -0.028   4.185   9.535 -0.8208  0.2123  0.1896
   14CHL1  H16A  984   0.003   4.103   9.467 -0.7915  0.8118 -0.5398
   14CHL1  H16B  985  -0.129   4.226   9.510 -0.8695  0.9717  1.5234
   14CHL1   C17  986   0.079   4.297   9.502 -0.3043 -0.5271  0.1005
   14CHL1   H17  987   0.030   4.397   9.511  1.6662  0.5491 -0.4080
   14CHL1   C13  988   0.177   4.301   9.624 -0.2409  0.5093 -0.3349
   14CHL1   C18  989   0.297   4.196   9.616  0.3575  0.2175 -0.3969
   14CHL1  H18A  990   0.332   4.186   9.721 -0.3213  1.4562 -0.0370
   14CHL1  H18B  991   0.257   4.095   9.590  0.5325 -0.1162  0.5859
   14CHL1  H18C  992   0.381   4.220   9.547  0.8189  0.0077  0.0896
   14CHL1   C12  993   0.236   4.445   9.662 -0.7361  0.6721  0.0976
   14CHL1  H12A  994   0.328   4.453   9.599 -0.8506  0.2108 -0.1309
   14CHL1  H12B  995   0.163   4.525   9.640 -0.0504  1.2571 -0.0756
   14CHL1   C11  996   0.283   4.440   9.817 -0.3911  0.2346 -0.1679
   14CHL1  H11A  997   0.380   4.386   9.813 -0.3918  0.3070 -1.9947
   14CHL1  H11B  998   0.288   4.549   9.838 -0.8160  0.3230 -0.5161
   14CHL1    C9  999   0.182   4.390   9.921  0.3201 -0.1765 -0.2677
   14CHL1    H9 1000   0.091   4.454   9.918  0.3189 -0.2029 -1.1069
   14CHL1   C10 1001   0.219   4.410  10.069 -0.1112 -0.4262  0.6917
   14CHL1   C19 1002   0.358   4.344  10.095 -0.7142  0.1794 -0.3546
   14CHL1  H19A 1003   0.443   4.401  10.051  0.5490 -1.8436 -0.6685
   14CHL1  H19B 1004   0.373   4.320  10.202 -0.7036  2.2698  0.1470
   14CHL1  H19C 1005   0.344   4.251  10.035 -1.2755  0.2161 -0.2829
   14CHL1    C1 1006   0.219   4.562  10.108  0.4018 -0.0285 -0.2868
   14CHL1   H1A 1007   0.306   4.605  10.053 -0.0687 -0.7079 -1.5974
   14CHL1   H1B 1008   0.136   4.621  10.063 -1.3343  2.5716  5.3512
   14CHL1    C2 1009   0.223   4.599  10.257  0.0118  0.4963  0.6560
   14CHL1   H2A 1010   0.199   4.706  10.274 -1.0713  0.2625  0.6345
   14CHL1   H2B 1011   0.318   4.565  10.304 -1.8037 -3.3181  1.9365
   14CHL1   C20 1012   0.158   4.283   9.366 -0.5444  0.8019 -0.2928
   14CHL1   H20 1013   0.213   4.187   9.360 -1.5089  0.3257 -2.7052
   14CHL1   C21 1014   0.255   4.398   9.338 -0.0682 -0.1057  0.3358
   14CHL1  H21A 1015   0.191   4.484   9.368  0.5921  0.3966  0.3210
   14CHL1  H21B 1016   0.288   4.394   9.232 -0.6348  0.1651  0.1454
   14CHL1  H21C 1017   0.353   4.389   9.390  1.7693 -0.2173 -2.8727
   14CHL1   C22 1018   0.060   4.277   9.246  0.6865 -0.0677  0.3937
   14CHL1  H22A 1019  -0.020   4.205   9.274 -1.7658  1.3298 -2.3914
   14CHL1  H22B 1020   0.006   4.374   9.240 -1.4400 -1.1329  1.3062
   14CHL1   C23 1021   0.099   4.222   9.109 -0.5120  0.6767  0.3135
   14CHL1  H23A 1022   0.191   4.270   9.071 -0.6141 -0.3489 -1.3127
   14CHL1  H23B 1023   0.133   4.117   9.121  1.3681  0.9626 -1.8986
   14CHL1   C24 1024  -0.010   4.237   9.001  0.4586  0.6736  0.6136
   14CHL1  H24A 1025  -0.111   4.193   9.016 -1.0844  3.2759 -1.4374
   14CHL1  H24B 1026  -0.033   4.345   9.011 -1.1997  0.3065  1.2042
   14CHL1   C25 1027   0.022   4.201   8.848 -0.1406 -0.7968  0.0239
   14CHL1   H25 1028   0.065   4.099   8.842  0.1552 -0.6240 -1.1150
   14CHL1   C26 1029  -0.101   4.228   8.756 -0.1047  0.7185 -0.6036
   14CHL1  H26A 1030  -0.141   4.332   8.759 -1.2497  0.3543 -1.9814
   14CHL1  H26B 1031  -0.084   4.197   8.651  0.2378 -1.0953 -0.0472
   14CHL1  H26C 1032  -0.187   4.171   8.798  0.1247  1.5054  1.0354
   14CHL1   C27 1033   0.134   4.298   8.803 -0.4725 -0.1875  0.0748
   14CHL1  H27A 1034   0.221   4.295   8.871 -0.8812  0.6547  0.6593
   14CHL1  H27B 1035   0.176   4.274   8.703  1.5072  0.9291  0.5795
   14CHL1  H27C 1036   0.097   4.403   8.800  1.0059  0.3407 -1.1577
   15CHL1    C3 1037   0.708   6.115  10.183  0.2708  0.1609 -0.1128
   15CHL1    H3 1038   0.639   6.033  10.155 -1.9812  1.8472  0.2615
   15CHL1    O3 1039   0.684   6.164  10.312  0.1168  0.0260  0.3693
   15CHL1   H3' 1040   0.751   6.233  10.309  1.3443 -0.9966  2.2757
   15CHL1    C4 1041   0.853   6.061  10.161  0.4209  0.3259  0.7551
   15CHL1   H4A 1042   0.923   6.140  10.198 -0.6685  0.8858  1.6813
   15CHL1   H4B 1043   0.861   5.973  10.228  0.6098 -0.4710 -0.2866
   15CHL1    C5 1044   0.889   6.012  10.028 -0.2287  0.1183  0.0938
   15CHL1    C6 1045   0.948   5.891  10.008  0.1287  0.1356 -0.1047
   15CHL1    H6 1046   0.960   5.826  10.097 -1.4736  0.5020  0.4109
   15CHL1    C7 1047   0.993   5.844   9.870 -0.1524  0.0640  0.1009
   15CHL1   H7A 1048   1.100   5.812   9.875  0.5530  2.2234  0.3105
   15CHL1   H7B 1049   0.935   5.759   9.831 -1.4636  0.2018  1.6328
   15CHL1    C8 1050   0.984   5.951   9.768  0.1856  0.1634 -0.2780
   15CHL1    H8 1051   1.071   6.019   9.772  2.2048 -2.1556 -1.7365
   15CHL1   C14 1052   0.979   5.889   9.632  0.5895  1.1969 -0.2517
   15CHL1   H14 1053   0.880   5.839   9.622 -0.4354  3.3358 -1.4324
   15CHL1   C15 1054   1.084   5.782   9.599  0.9478 -0.1262  0.2448
   15CHL1  H15A 1055   1.183   5.805   9.643  1.8950  0.7196 -2.1816
   15CHL1  H15B 1056   1.048   5.682   9.632  0.9090 -0.2784 -0.2504
   15CHL1   C16 1057   1.107   5.784   9.453  0.4253  0.1183 -0.7644
   15CHL1  H16A 1058   1.210   5.819   9.432  0.3114  0.7557 -0.2992
   15CHL1  H16B 1059   1.089   5.689   9.398  0.2003 -0.2536 -0.0637
   15CHL1   C17 1060   1.006   5.889   9.395 -0.9132 -0.1294 -0.2074
   15CHL1   H17 1061   0.906   5.844   9.376 -0.7702 -2.2906  3.3441
   15CHL1   C13 1062   0.989   5.988   9.514  0.3353 -0.7718 -0.7821
   15CHL1   C18 1063   1.113   6.092   9.526  1.1791 -0.0557  0.7030
   15CHL1  H18A 1064   1.208   6.037   9.544  1.0189 -0.6601 -0.2171
   15CHL1  H18B 1065   1.114   6.156   9.436 -2.9009  1.1530  1.3324
   15CHL1  H18C 1066   1.095   6.165   9.608 -0.1080  1.5826 -0.9734
   15CHL1   C12 1067   0.861   6.068   9.518 -0.2505  0.4961 -0.0379
   15CHL1  H12A 1068   0.857   6.156   9.450 -0.1948 -2.0353 -3.6362
   15CHL1  H12B 1069   0.774   6.000   9.510 -0.0596  0.0722  1.2948
   15CHL1   C11 1070   0.847   6.131   9.656  0.5160 -0.7534 -0.3205
   15CHL1  H11A 1071   0.924   6.211   9.659  1.4356 -1.6055  3.2032
   15CHL1  H11B 1072   0.752   6.187   9.659 -0.8069 -2.7783 -1.6919
   15CHL1    C9 1073   0.858   6.038   9.779 -0.2077 -0.0486 -0.8623
   15CHL1    H9 1074   0.769   5.971   9.777  1.4888 -2.4385 -0.7228
   15CHL1   C10 1075   0.852   6.106   9.920  0.2324  0.4653  0.7859
   15CHL1   C19 1076   0.954   6.225   9.920  0.2220 -0.1827 -0.4531
   15CHL1  H19A 1077   0.949   6.278  10.018 -0.0275 -1.4345  0.2358
   15CHL1  H19B 1078   1.062   6.199   9.918  0.2527 -0.4273  1.8349
   15CHL1  H19C 1079   0.934   6.292   9.834  0.4229  1.1225  0.4877
   15CHL1    C1 1080   0.709   6.164   9.948 -0.3146  0.0949  0.6367
   15CHL1   H1A 1081   0.704   6.242   9.868  3.3220 -0.7202 -0.5698
   15CHL1   H1B 1082   0.645   6.077   9.923  1.5765 -1.3545  0.5803
   15CHL1    C2 1083   0.679   6.226  10.084  0.0578  1.0006  0.4132
   15CHL1   H2A 1084   0.576   6.265  10.071 -0.3944  0.3643  1.8840
   15CHL1   H2B 1085   0.745   6.313  10.109 -1.1498  1.5150  1.9864
   15CHL1   C20 1086   1.052   5.959   9.258  0.4534 -0.1043 -0.3675
   15CHL1   H20 1087   1.146   6.017   9.272  0.1032  0.3946 -0.0496
   15CHL1   C21 1088   0.926   6.038   9.205 -0.2047 -0.5012  0.4044
   15CHL1  H21A 1089   0.911   6.130   9.265  3.8812  0.6018  0.0595
   15CHL1  H21B 1090   0.838   5.971   9.213  0.5058 -1.2590  2.6052
   15CHL1  H21C 1091   0.935   6.076   9.101  1.0862  0.4731  0.8496
   15CHL1   C22 1092   1.088   5.848   9.155  0.4626 -0.8259  0.3124
   15CHL1  H22A 1093   1.170   5.784   9.193  1.2590 -1.4817 -2.2814
   15CHL1  H22B 1094   0.997   5.785   9.148  1.2989 -2.4197  2.6290
   15CHL1   C23 1095   1.141   5.897   9.019  0.3050  0.4340  0.9337
   15CHL1  H23A 1096   1.074   5.957   8.953 -0.4305  0.4058  1.6427
   15CHL1  H23B 1097   1.229   5.963   9.039  1.8655 -2.0053  2.5978
   15CHL1   C24 1098   1.193   5.783   8.933  0.6006  0.7928  0.5267
   15CHL1  H24A 1099   1.272   5.724   8.984  0.8038  0.1056 -0.5504
   15CHL1  H24B 1100   1.103   5.719   8.920 -0.3120  1.9893  0.7414
   15CHL1   C25 1101   1.234   5.822   8.789  0.5703  0.2686 -0.1654
   15CHL1   H25 1102   1.164   5.900   8.751 -2.4628 -3.2204 -2.4829
   15CHL1   C26 1103   1.380   5.870   8.786 -0.0297  0.4765 -0.1698
   15CHL1  H26A 1104   1.411   5.897   8.683  0.3470  0.4140 -0.0750
   15CHL1  H26B 1105   1.368   5.969   8.835 -2.1453  0.2513 -0.1655
   15CHL1  H26C 1106   1.461   5.808   8.830  1.0081  1.5052 -0.5730
   15CHL1   C27 1107   1.216   5.699   8.688 -0.1791 -0.5890  0.5212
   15CHL1  H27A 1108   1.279   5.611   8.714  1.1180 -0.4137 -1.7367
   15CHL1  H27B 1109   1.114   5.658   8.674 -0.1890 -0.5795  0.5686
   15CHL1  H27C 1110   1.248   5.732   8.586 -0.9947  2.2307  1.1073
   16CHL1    C3 1111   3.739   2.538  10.360  0.1614 -0.3388 -0.8701
   16CHL1    H3 1112   3.789   2.637  10.366  1.1462 -0.8753  0.1857
   16CHL1    O3 1113   3.728   2.496  10.500 -0.2872  0.0290 -0.0445
   16CHL1   H3' 1114   3.739   2.401  10.500  1.3331  0.1485  1.5763
   16CHL1    C4 1115   3.598   2.545  10.300 -0.2629 -0.0872 -0.5251
   16CHL1   H4A 1116   3.551   2.447  10.321  0.4169 -0.3071  0.0211
   16CHL1   H4B 1117   3.534   2.612  10.361 -0.4341 -1.4084  0.8123
   16CHL1    C5 1118   3.591   2.570  10.150 -0.1925  0.8401  0.5773
   16CHL1    C6 1119   3.521   2.667  10.097  0.1787  0.6525 -0.3421
   16CHL1    H6 1120   3.452   2.719  10.166 -1.0727 -0.4160 -0.7450
   16CHL1    C7 1121   3.514   2.695   9.948  0.8731  0.7223  1.2989
   16CHL1   H7A 1122   3.412   2.714   9.908  1.5870 -1.9387 -2.2460
   16CHL1   H7B 1123   3.578   2.784   9.928  0.8019  0.9186  1.8974
   16CHL1    C8 1124   3.571   2.581   9.864 -0.1590 -0.2477 -0.8790
   16CHL1    H8 1125   3.506   2.491   9.870  0.3005 -0.6409 -1.6374
   16CHL1   C14 1126   3.590   2.636   9.721  0.5629  0.4709 -0.3702
   16CHL1   H14 1127   3.659   2.723   9.728 -1.0924  1.8542 -0.8809
   16CHL1   C15 1128   3.469   2.696   9.650  0.6947  0.7950 -0.7940
   16CHL1  H15A 1129   3.379   2.636   9.675  1.5146 -0.2372 -0.2460
   16CHL1  H15B 1130   3.452   2.802   9.681  1.5287  0.5770  0.4718
   16CHL1   C16 1131   3.500   2.669   9.501 -0.1856 -0.7182 -0.0350
   16CHL1  H16A 1132   3.429   2.597   9.456 -2.1504 -1.0063  3.2529
   16CHL1  H16B 1133   3.493   2.765   9.446 -1.8255 -0.2161  1.0107
   16CHL1   C17 1134   3.646   2.613   9.491  0.9352  0.4263 -0.1534
   16CHL1   H17 1135   3.705   2.707   9.500  1.4126  0.0868  0.3672
   16CHL1   C13 1136   3.657   2.536   9.630  0.1831  0.0136  0.3613
   16CHL1   C18 1137   3.572   2.402   9.609  0.5492  0.8660  0.3238
   16CHL1  H18A 1138   3.547   2.348   9.703  0.1539  1.6007  0.6512
   16CHL1  H18B 1139   3.476   2.413   9.555 -0.6659 -0.9557  1.9658
   16CHL1  H18C 1140   3.630   2.328   9.550 -3.0039 -3.4867  1.7286
   16CHL1   C12 1141   3.796   2.504   9.688 -0.4751  0.2138  0.0260
   16CHL1  H12A 1142   3.852   2.430   9.626  3.3400  1.0864  2.0621
   16CHL1  H12B 1143   3.857   2.596   9.698 -2.2604  1.4344  0.1382
   16CHL1   C11 1144   3.780   2.441   9.828  0.1367  1.2329  0.2162
   16CHL1  H11A 1145   3.731   2.341   9.822  0.7855  1.0049 -2.9888
   16CHL1  H11B 1146   3.885   2.415   9.856  0.4924  0.1741 -1.9037
   16CHL1    C9 1147   3.709   2.537   9.928 -0.4257  0.4031  1.0171
   16CHL1    H9 1148   3.789   2.614   9.935 -0.6715  0.7481  0.1814
   16CHL1   C10 1149   3.693   2.483  10.069  0.5787 -0.4185  0.2871
   16CHL1   C19 1150   3.651   2.336  10.061  0.4782 -0.2058 -0.4378
   16CHL1  H19A 1151   3.740   2.283  10.020  0.2665  1.6121 -3.5710
   16CHL1  H19B 1152   3.615   2.297  10.158 -1.5133  1.7490 -0.3084
   16CHL1  H19C 1153   3.563   2.335   9.993  0.3086  2.6066 -0.3978
   16CHL1    C1 1154   3.838   2.494  10.138 -0.1138 -1.0964 -0.9236
   16CHL1   H1A 1155   3.909   2.431  10.081 -1.4779 -1.2000 -2.6160
   16CHL1   H1B 1156   3.868   2.601  10.146 -2.6214 -0.3448 -0.6572
   16CHL1    C2 1157   3.833   2.446  10.286  0.2018 -0.9063  0.1675
   16CHL1   H2A 1158   3.938   2.462  10.319 -0.1997 -0.1678  1.1679
   16CHL1   H2B 1159   3.820   2.337  10.301 -1.8413 -0.6725  0.3914
   16CHL1   C20 1160   3.673   2.541   9.355 -0.7731 -0.4474  0.0105
   16CHL1   H20 1161   3.612   2.453   9.324  3.5162 -3.0221 -2.0073
   16CHL1   C21 1162   3.826   2.498   9.353 -0.0837  0.4380  0.8355
   16CHL1  H21A 1163   3.894   2.586   9.348 -0.3058  0.5579 -0.4663
   16CHL1  H21B 1164   3.829   2.446   9.255 -0.6287  1.1035  0.4508
   16CHL1  H21C 1165   3.862   2.422   9.425  2.2048  0.2083 -0.4480
   16CHL1   C22 1166   3.649   2.640   9.241 -0.4065  0.5818  0.6486
   16CHL1  H22A 1167   3.557   2.700   9.255 -1.3615 -1.0262  1.5241
   16CHL1  H22B 1168   3.732   2.715   9.242  0.6270 -0.4769 -0.5574
   16CHL1   C23 1169   3.661   2.579   9.102  0.0091 -0.3349  0.0123
   16CHL1  H23A 1170   3.763   2.544   9.074  0.5852  0.7559  0.7261
   16CHL1  H23B 1171   3.595   2.490   9.089 -2.2804  1.1075  1.2022
   16CHL1   C24 1172   3.615   2.683   8.994  0.4947  0.3340 -0.0575
   16CHL1  H24A 1173   3.505   2.694   9.008  0.5835  1.6036 -0.2262
   16CHL1  H24B 1174   3.656   2.781   9.028 -1.1667  0.6732  1.0830
   16CHL1   C25 1175   3.645   2.646   8.846 -0.7773 -0.5071 -0.2572
   16CHL1   H25 1176   3.659   2.536   8.842  1.7521 -0.4885  3.4762
   16CHL1   C26 1177   3.519   2.694   8.762  0.3828 -0.5795 -0.2495
   16CHL1  H26A 1178   3.544   2.669   8.657 -0.2024  0.6620 -0.7003
   16CHL1  H26B 1179   3.441   2.631   8.810  1.5149 -2.9462 -1.3258
   16CHL1  H26C 1180   3.496   2.802   8.774 -1.9887 -0.8793 -1.5369
   16CHL1   C27 1181   3.763   2.730   8.792 -0.0964 -0.0517  0.3371
   16CHL1  H27A 1182   3.767   2.830   8.842  2.2921  0.5138 -0.8111
   16CHL1  H27B 1183   3.859   2.680   8.819  0.2841 -0.5789 -1.7860
   16CHL1  H27C 1184   3.759   2.748   8.683  1.7781  1.2839  0.4289
   17CHL1    C3 1185   5.713   6.607  10.534 -0.3913 -0.6361 -0.0138
   17CHL1    H3 1186   5.799   6.540  10.516 -0.5997 -0.6465 -1.0377
   17CHL1    O3 1187   5.675   6.615  10.671  0.6526  0.4179 -0.9588
   17CHL1   H3' 1188   5.599   6.558  10.680 -0.7387  2.5240  2.1549
   17CHL1    C4 1189   5.756   6.749  10.477  0.5977 -0.0529  0.0923
   17CHL1   H4A 1190   5.669   6.818  10.487  0.1610 -0.6264  0.3060
   17CHL1   H4B 1191   5.848   6.773  10.533  1.0730  1.0253 -1.0827
   17CHL1    C5 1192   5.776   6.749  10.327 -0.1346  0.0954 -0.4994
   17CHL1    C6 1193   5.886   6.808  10.277  0.2192 -0.1484 -0.4035
   17CHL1    H6 1194   5.951   6.863  10.347  0.3897  0.0348 -0.7036
   17CHL1    C7 1195   5.941   6.800  10.137  0.6340 -0.3789 -0.1508
   17CHL1   H7A 1196   5.961   6.905  10.107  0.0433 -0.1710  0.1546
   17CHL1   H7B 1197   6.030   6.734  10.139  0.3907 -0.6971  0.2175
   17CHL1    C8 1198   5.834   6.751  10.040  0.4704 -0.4047  0.0783
   17CHL1    H8 1199   5.769   6.840  10.022  1.1634 -0.0035 -0.4687
   17CHL1   C14 1200   5.883   6.716   9.900 -0.6935 -0.6138  0.0282
   17CHL1   H14 1201   5.935   6.619   9.918 -0.2230 -0.1562  1.2148
   17CHL1   C15 1202   5.979   6.820   9.833  0.2808  0.0187 -0.3391
   17CHL1  H15A 1203   5.949   6.927   9.842 -1.1448 -0.4600  1.0911
   17CHL1  H15B 1204   6.083   6.819   9.873  0.7655  0.5315 -1.5303
   17CHL1   C16 1205   5.978   6.785   9.689  0.5250  0.1175  0.6084
   17CHL1  H16A 1206   5.925   6.866   9.635 -2.8604 -2.2276  0.1086
   17CHL1  H16B 1207   6.080   6.763   9.651  0.2295 -1.5865  0.6965
   17CHL1   C17 1208   5.874   6.662   9.677 -0.3267 -0.7999 -0.2692
   17CHL1   H17 1209   5.934   6.571   9.701  1.7190  1.0492  2.2141
   17CHL1   C13 1210   5.777   6.677   9.799  0.0450  0.7085  0.1389
   17CHL1   C18 1211   5.673   6.794   9.767  0.0608 -0.2564 -0.1234
   17CHL1  H18A 1212   5.614   6.822   9.857  1.8665  3.3951  0.1076
   17CHL1  H18B 1213   5.712   6.887   9.722  2.3207 -2.5335 -3.3043
   17CHL1  H18C 1214   5.589   6.758   9.703 -2.4985 -0.6503  3.1744
   17CHL1   C12 1215   5.702   6.549   9.850  0.3452  0.1085 -0.7121
   17CHL1  H12A 1216   5.614   6.523   9.787  0.3119 -1.4369 -0.0644
   17CHL1  H12B 1217   5.778   6.469   9.860 -0.7101 -0.7100  1.3448
   17CHL1   C11 1218   5.654   6.571  10.001 -0.4018 -0.2726 -0.2471
   17CHL1  H11A 1219   5.574   6.648   9.996 -1.0182 -0.8547  0.2867
   17CHL1  H11B 1220   5.625   6.474  10.048  1.9528  0.1450  2.2854
   17CHL1    C9 1221   5.750   6.631  10.105  0.1275 -0.0050  0.2834
   17CHL1    H9 1222   5.825   6.552  10.130 -1.5216 -1.5586  0.5396
   17CHL1   C10 1223   5.680   6.656  10.238  0.1796 -0.6254  0.6648
   17CHL1   C19 1224   5.545   6.733  10.227 -0.3637 -0.5771  0.2330
   17CHL1  H19A 1225   5.468   6.665  10.186 -0.7202 -0.9361  1.4710
   17CHL1  H19B 1226   5.509   6.784  10.318 -0.8558  0.2201 -0.3932
   17CHL1  H19C 1227   5.562   6.821  10.160 -0.6288 -0.9702 -0.3612
   17CHL1    C1 1228   5.653   6.526  10.314 -0.3432 -0.6476  0.4920
   17CHL1   H1A 1229   5.571   6.484  10.252 -0.6305 -1.3894  1.3453
   17CHL1   H1B 1230   5.740   6.456  10.311 -2.0557 -3.1412  3.2511
   17CHL1    C2 1231   5.604   6.532  10.452  0.1227 -0.3233  0.7456
   17CHL1   H2A 1232   5.590   6.433  10.500  2.2446 -0.5781  0.9338
   17CHL1   H2B 1233   5.508   6.586  10.465  0.1130  0.3119 -1.5452
   17CHL1   C20 1234   5.816   6.650   9.530  0.1585  0.0682 -0.1927
   17CHL1   H20 1235   5.740   6.728   9.506  2.1985  1.7213 -1.6694
   17CHL1   C21 1236   5.756   6.508   9.526  0.2323  0.3467 -0.3327
   17CHL1  H21A 1237   5.654   6.514   9.571 -1.3804  1.9258 -3.8056
   17CHL1  H21B 1238   5.818   6.428   9.572 -1.5554 -1.1226 -0.3259
   17CHL1  H21C 1239   5.739   6.487   9.418 -1.4058  1.5593 -0.3497
   17CHL1   C22 1240   5.927   6.670   9.424 -0.1509  0.2925  0.0248
   17CHL1  H22A 1241   5.995   6.754   9.451 -0.4915  0.0493  1.7276
   17CHL1  H22B 1242   5.986   6.577   9.428 -1.1181 -0.3342  0.0367
   17CHL1   C23 1243   5.881   6.688   9.277  0.9276 -0.3368 -0.3630
   17CHL1  H23A 1244   5.808   6.608   9.251  0.9708 -0.8179  0.9070
   17CHL1  H23B 1245   5.828   6.786   9.274  0.9282 -0.1644  2.4036
   17CHL1   C24 1246   5.984   6.684   9.173 -0.3380 -0.4531  0.3092
   17CHL1  H24A 1247   6.072   6.733   9.220  1.2731 -1.7681 -1.1833
   17CHL1  H24B 1248   6.007   6.577   9.153 -0.3573 -0.3765 -0.1353
   17CHL1   C25 1249   5.948   6.743   9.039 -0.1604 -0.3368 -0.8052
   17CHL1   H25 1250   5.920   6.849   9.062 -0.1788 -0.7254  1.1111
   17CHL1   C26 1251   6.071   6.743   8.943  0.2351 -0.2013 -0.8869
   17CHL1  H26A 1252   6.076   6.810   8.854 -1.0231  2.0646  0.6448
   17CHL1  H26B 1253   6.150   6.801   8.995 -1.6357  3.2866 -1.5718
   17CHL1  H26C 1254   6.094   6.637   8.920 -0.2644 -0.5147 -0.0234
   17CHL1   C27 1255   5.831   6.667   8.974 -0.1199 -0.4490 -0.3366
   17CHL1  H27A 1256   5.754   6.633   9.046  1.2853 -1.3806  0.8092
   17CHL1  H27B 1257   5.777   6.726   8.898  1.1843 -2.5513 -3.0841
   17CHL1  H27C 1258   5.878   6.580   8.923 -1.1219  0.0857 -2.2497
   18CHL1    C3 1259   5.425   4.835  10.095  0.0952  0.4009 -0.6090
   18CHL1    H3 1260   5.341   4.763  10.103 -2.8047  3.6294 -0.0148
   18CHL1    O3 1261   5.441   4.907  10.214  0.0591 -0.2540 -0.0250
   18CHL1   H3' 1262   5.373   4.974  10.203 -0.4772 -0.9698 -1.3629
   18CHL1    C4 1263   5.553   4.754  10.076 -0.2043  0.2873  0.2704
   18CHL1   H4A 1264   5.629   4.832  10.052 -0.5759  0.0915 -1.7785
   18CHL1   H4B 1265   5.590   4.701  10.166 -3.3485  0.7689  1.9719
   18CHL1    C5 1266   5.542   4.678   9.949  0.7567  0.4054  0.2483
   18CHL1    C6 1267   5.551   4.542   9.950  0.1266 -0.5619 -0.5310
   18CHL1    H6 1268   5.575   4.498  10.048  1.6684 -0.2655 -0.7401
   18CHL1    C7 1269   5.536   4.444   9.831  0.7109 -1.2063 -0.5000
   18CHL1   H7A 1270   5.622   4.374   9.836  1.0890 -0.6556  2.6853
   18CHL1   H7B 1271   5.444   4.382   9.836  0.9548 -1.6953 -1.7245
   18CHL1    C8 1272   5.552   4.530   9.701 -0.0824  0.0895  0.5425
   18CHL1    H8 1273   5.659   4.551   9.682 -0.2496 -0.3989 -1.0619
   18CHL1   C14 1274   5.514   4.440   9.582  0.7944 -0.0480 -0.0431
   18CHL1   H14 1275   5.411   4.403   9.603  0.7685 -1.4344 -2.3030
   18CHL1   C15 1276   5.600   4.315   9.554  0.5720  0.6047 -0.4343
   18CHL1  H15A 1277   5.709   4.329   9.568  0.2824  0.3403  3.0923
   18CHL1  H15B 1278   5.578   4.222   9.610  0.6514 -0.3785 -1.9937
   18CHL1   C16 1279   5.543   4.276   9.410  0.2625  0.2720 -0.3910
   18CHL1  H16A 1280   5.630   4.277   9.341 -0.4178  2.2751 -1.2927
   18CHL1  H16B 1281   5.496   4.176   9.415  2.6831 -1.1771 -3.5369
   18CHL1   C17 1282   5.443   4.384   9.366  0.2269  0.0856 -1.0514
   18CHL1   H17 1283   5.341   4.367   9.406  0.2463 -0.9518 -1.4113
   18CHL1   C13 1284   5.489   4.508   9.442 -0.3601  0.6593  0.6695
   18CHL1   C18 1285   5.627   4.550   9.380 -0.1807 -0.5760  0.2405
   18CHL1  H18A 1286   5.702   4.563   9.461  0.1916  0.5222 -0.2685
   18CHL1  H18B 1287   5.664   4.477   9.305  0.7185 -1.7432  1.7536
   18CHL1  H18C 1288   5.606   4.642   9.322 -5.7251 -1.6508  0.0148
   18CHL1   C12 1289   5.399   4.627   9.452  0.6403  0.4798 -0.1686
   18CHL1  H12A 1290   5.386   4.665   9.348 -2.9510  0.2271  0.0526
   18CHL1  H12B 1291   5.300   4.597   9.493 -0.6642  2.6690 -1.4964
   18CHL1   C11 1292   5.458   4.718   9.562  0.2451 -0.2269 -0.2303
   18CHL1  H11A 1293   5.561   4.745   9.530  0.8333 -0.7990  1.1184
   18CHL1  H11B 1294   5.399   4.812   9.556  1.0876  0.2265 -2.8553
   18CHL1    C9 1295   5.470   4.660   9.702  0.0935  0.2170  1.1103
   18CHL1    H9 1296   5.366   4.626   9.717 -0.6414  1.6107 -0.5175
   18CHL1   C10 1297   5.508   4.757   9.815  0.2611  0.2535 -0.4658
   18CHL1   C19 1298   5.635   4.840   9.776  0.3734  0.7900  0.8882
   18CHL1  H19A 1299   5.665   4.917   9.851  1.6144  0.0324  1.1936
   18CHL1  H19B 1300   5.717   4.765   9.768  0.3619  0.9868 -1.8768
   18CHL1  H19C 1301   5.633   4.892   9.678  2.7207  0.6399  0.7085
   18CHL1    C1 1302   5.382   4.845   9.850 -0.0847  0.4002  0.3471
   18CHL1   H1A 1303   5.364   4.911   9.762 -1.9644  0.9545  1.0992
   18CHL1   H1B 1304   5.298   4.773   9.855 -1.4158  1.9224  0.6519
   18CHL1    C2 1305   5.385   4.928   9.978 -0.1962  0.6098  0.2029
   18CHL1   H2A 1306   5.284   4.972   9.991 -1.0552 -0.4308 -2.1902
   18CHL1   H2B 1307   5.460   5.009   9.974  1.4770 -0.8241  1.1825
   18CHL1   C20 1308   5.431   4.387   9.212 -0.6645 -0.5804 -0.5343
   18CHL1   H20 1309   5.517   4.442   9.167  1.2060 -1.9844  1.1648
   18CHL1   C21 1310   5.299   4.456   9.187 -0.4063  0.1540  0.0391
   18CHL1  H21A 1311   5.293   4.560   9.225  0.8836 -0.1513  1.2007
   18CHL1  H21B 1312   5.218   4.404   9.241 -0.2915  0.3618  0.4166
   18CHL1  H21C 1313   5.281   4.460   9.077 -0.8201 -0.3733  0.0836
   18CHL1   C22 1314   5.429   4.247   9.145  0.2781 -0.4001 -0.2920
   18CHL1  H22A 1315   5.524   4.196   9.172  0.1167 -1.2954 -1.3348
   18CHL1  H22B 1316   5.356   4.185   9.203  2.3672 -0.4188  2.5099
   18CHL1   C23 1317   5.410   4.242   8.989 -0.4711 -0.1060  0.5570
   18CHL1  H23A 1318   5.311   4.276   8.953  0.4568 -1.2382 -3.6432
   18CHL1  H23B 1319   5.493   4.303   8.947 -2.2364  1.9976 -0.0614
   18CHL1   C24 1320   5.420   4.097   8.950 -0.4052  0.7192  0.6162
   18CHL1  H24A 1321   5.502   4.043   9.001 -1.6802 -0.7287  1.2136
   18CHL1  H24B 1322   5.327   4.045   8.981 -1.9444  3.5044  1.0413
   18CHL1   C25 1323   5.450   4.078   8.794 -0.0588  0.0379 -0.1608
   18CHL1   H25 1324   5.540   4.137   8.767 -0.0972  1.9737  3.3843
   18CHL1   C26 1325   5.473   3.930   8.771 -0.8054  0.1772  0.1189
   18CHL1  H26A 1326   5.542   3.879   8.841 -0.5851  0.8468  0.3919
   18CHL1  H26B 1327   5.376   3.875   8.761 -0.5912  0.0732 -1.6586
   18CHL1  H26C 1328   5.511   3.916   8.668 -0.7174  1.4628 -0.0408
   18CHL1   C27 1329   5.338   4.130   8.702  0.6574 -0.2755  0.1240
   18CHL1  H27A 1330   5.353   4.121   8.592 -1.4872 -1.4537 -0.1339
   18CHL1  H27B 1331   5.240   4.079   8.712 -0.2392  0.8658 -2.0956
   18CHL1  H27C 1332   5.326   4.239   8.716  0.8129 -0.0842 -1.1066
   19CHL1    C3 1333   0.868   1.986  10.233 -0.1213  0.6097  0.6283
   19CHL1    H3 1334   0.779   2.033  10.186  1.3097  3.3283  0.4200
   19CHL1    O3 1335   0.852   1.978  10.373 -0.2255 -0.3065 -0.6714
   19CHL1   H3' 1336   0.917   1.916  10.409  0.0534  1.7603  2.8384
   19CHL1    C4 1337   0.892   1.853  10.167  0.3497 -0.4045  0.8041
   19CHL1   H4A 1338   0.981   1.806  10.212  2.0542  1.2748 -0.5924
   19CHL1   H4B 1339   0.803   1.789  10.184 -1.0255  0.3333 -2.6179
   19CHL1    C5 1340   0.912   1.867  10.019 -0.0197  0.0216 -0.4553
   19CHL1    C6 1341   0.817   1.812   9.938 -0.6099  0.5060 -0.0840
   19CHL1    H6 1342   0.729   1.755   9.971 -0.2577  1.3898  2.6393
   19CHL1    C7 1343   0.836   1.814   9.790 -0.1548  0.4141  0.5632
   19CHL1   H7A 1344   0.797   1.725   9.735 -0.5653  1.5708 -1.1079
   19CHL1   H7B 1345   0.766   1.880   9.735 -0.1999 -1.2290 -1.5088
   19CHL1    C8 1346   0.980   1.854   9.740 -0.3374 -0.3496 -0.1870
   19CHL1    H8 1347   1.045   1.767   9.764 -0.8477 -1.2027 -1.7371
   19CHL1   C14 1348   0.982   1.888   9.598  0.2887  0.2395 -0.3107
   19CHL1   H14 1349   0.909   1.969   9.574  0.0098 -0.1587 -0.8272
   19CHL1   C15 1350   0.939   1.782   9.498 -0.6313  0.1098 -0.0800
   19CHL1  H15A 1351   0.979   1.690   9.546 -1.9781  0.8769  2.6771
   19CHL1  H15B 1352   0.828   1.782   9.493 -0.6398  1.8626 -0.5633
   19CHL1   C16 1353   0.998   1.820   9.367 -0.5881 -0.6654  0.3149
   19CHL1  H16A 1354   1.047   1.729   9.328 -0.1088  0.5098 -1.9883
   19CHL1  H16B 1355   0.913   1.860   9.306 -0.8723  1.5782  2.0403
   19CHL1   C17 1356   1.088   1.946   9.395  0.0483 -0.1755  1.0196
   19CHL1   H17 1357   1.020   2.031   9.371 -0.2025 -1.1179 -1.9848
   19CHL1   C13 1358   1.115   1.937   9.543 -0.0164  0.1884 -0.3033
   19CHL1   C18 1359   1.235   1.843   9.562 -0.3430 -0.0619 -0.5596
   19CHL1  H18A 1360   1.325   1.898   9.530  0.8969  0.1207  2.8273
   19CHL1  H18B 1361   1.232   1.818   9.671 -2.4645 -0.4399 -0.6516
   19CHL1  H18C 1362   1.225   1.751   9.500 -0.7862  0.7859 -1.7666
   19CHL1   C12 1363   1.136   2.075   9.610 -0.1983  0.2597  0.2362
   19CHL1  H12A 1364   1.229   2.123   9.573  1.1145 -1.3118  1.3527
   19CHL1  H12B 1365   1.047   2.133   9.576  0.8510  2.3212  0.8565
   19CHL1   C11 1366   1.136   2.063   9.761 -0.4833  0.3386 -0.3512
   19CHL1  H11A 1367   1.231   2.011   9.782 -1.2543 -0.7233  0.6506
   19CHL1  H11B 1368   1.142   2.165   9.804 -1.2823  1.7048 -3.2201
   19CHL1    C9 1369   1.020   1.980   9.822  0.1247 -0.0890 -0.3069
   19CHL1    H9 1370   0.931   2.044   9.802  0.9515  1.2451  0.1775
   19CHL1   C10 1371   1.033   1.953   9.977 -0.4565  0.5004 -0.7515
   19CHL1   C19 1372   1.166   1.878  10.013 -0.3450  0.0448 -0.1562
   19CHL1  H19A 1373   1.173   1.782   9.958 -3.9945 -0.1491 -0.5494
   19CHL1  H19B 1374   1.253   1.943   9.988  2.0098 -2.3280  1.3490
   19CHL1  H19C 1375   1.183   1.858  10.121 -1.3439  1.5438  0.3119
   19CHL1    C1 1376   1.025   2.080  10.055  0.2389 -0.8916  0.1500
   19CHL1   H1A 1377   1.118   2.138  10.036  0.6173 -1.2930  0.7400
   19CHL1   H1B 1378   0.942   2.136  10.006  0.6085 -2.9888 -3.2277
   19CHL1    C2 1379   0.990   2.074  10.206  0.3097  0.8098  0.5280
   19CHL1   H2A 1380   0.975   2.177  10.244  2.8078  1.7813 -0.9010
   19CHL1   H2B 1381   1.080   2.031  10.256 -1.4987 -2.9046  0.9592
   19CHL1   C20 1382   1.198   1.948   9.279  0.4016 -0.3552 -0.4978
   19CHL1   H20 1383   1.263   1.859   9.292 -1.4480 -1.6828  0.0719
   19CHL1   C21 1384   1.273   2.083   9.291 -0.6085 -0.0641  0.5305
   19CHL1  H21A 1385   1.320   2.107   9.388  0.7764 -1.8332  0.3500
   19CHL1  H21B 1386   1.208   2.169   9.263  0.1652 -0.8297 -4.4817
   19CHL1  H21C 1387   1.354   2.083   9.215 -1.2483  0.9430 -0.1763
   19CHL1   C22 1388   1.123   1.934   9.145  0.1049 -0.0776 -0.7654
   19CHL1  H22A 1389   1.060   1.842   9.144  0.0161 -0.0802  1.0130
   19CHL1  H22B 1390   1.054   2.020   9.131  0.7755  0.5486 -0.3474
   19CHL1   C23 1391   1.217   1.926   9.028  0.2465 -0.3265 -0.2259
   19CHL1  H23A 1392   1.300   2.000   9.024 -1.4073  1.6159  0.1412
   19CHL1  H23B 1393   1.271   1.831   9.049  3.2843  1.1479 -0.7481
   19CHL1   C24 1394   1.147   1.934   8.898  0.1837  0.4022  0.7771
   19CHL1  H24A 1395   1.056   1.870   8.886  1.0851 -0.8255  0.2778
   19CHL1  H24B 1396   1.113   2.035   8.866  0.5135  0.2256 -0.1669
   19CHL1   C25 1397   1.242   1.895   8.774  0.5339  0.0488 -0.6579
   19CHL1   H25 1398   1.342   1.940   8.789 -0.9149  2.5639  2.7958
   19CHL1   C26 1399   1.232   1.747   8.740 -0.1033  0.3258  0.2330
   19CHL1  H26A 1400   1.262   1.666   8.809 -1.0938  0.4365  0.8123
   19CHL1  H26B 1401   1.127   1.721   8.718  0.0189 -1.2737  1.4258
   19CHL1  H26C 1402   1.299   1.740   8.651  0.9316  0.3862  0.9881
   19CHL1   C27 1403   1.193   1.977   8.651  0.3298  0.5894 -0.6908
   19CHL1  H27A 1404   1.242   1.949   8.555  0.0791  1.8888 -1.2166
   19CHL1  H27B 1405   1.085   1.975   8.626 -0.0282  3.2527  0.3841
   19CHL1  H27C 1406   1.235   2.078   8.668  2.0350 -0.0382 -0.9333
   20CHL1    C3 1407   4.361   3.272  10.375  0.1113 -0.4637  0.2664
   20CHL1    H3 1408   4.466   3.244  10.396  0.2279 -0.9667 -0.9187
   20CHL1    O3 1409   4.307   3.304  10.503  0.4712 -0.2313 -0.2192
   20CHL1   H3' 1410   4.213   3.284  10.500  0.3621 -0.1536  1.4125
   20CHL1    C4 1411   4.355   3.390  10.278  0.2914  0.9426 -0.4538
   20CHL1   H4A 1412   4.247   3.413  10.264  0.2618  1.0568 -0.0395
   20CHL1   H4B 1413   4.399   3.480  10.326  2.2640 -0.2134  0.0207
   20CHL1    C5 1414   4.410   3.359  10.142  0.3333  0.0018 -0.9444
   20CHL1    C6 1415   4.507   3.440  10.093  0.2365 -0.6843 -0.0112
   20CHL1    H6 1416   4.546   3.530  10.142 -2.6256  0.7551 -0.1413
   20CHL1    C7 1417   4.556   3.419   9.954 -0.1455  0.4021 -0.0320
   20CHL1   H7A 1418   4.578   3.514   9.900 -0.3819 -1.2037 -3.1501
   20CHL1   H7B 1419   4.659   3.379   9.962 -0.0660  0.1100 -2.1379
   20CHL1    C8 1420   4.470   3.329   9.873 -0.8313 -0.2866  0.2086
   20CHL1    H8 1421   4.381   3.383   9.835 -0.2637  0.4189 -0.1316
   20CHL1   C14 1422   4.549   3.283   9.745 -0.2447 -0.0646 -0.0748
   20CHL1   H14 1423   4.628   3.216   9.787  0.0757 -0.0346 -0.6273
   20CHL1   C15 1424   4.619   3.383   9.649  0.4731 -0.1111 -0.4342
   20CHL1  H15A 1425   4.541   3.453   9.613  0.1198 -0.2248  0.0961
   20CHL1  H15B 1426   4.702   3.429   9.706 -0.3248 -1.4792  2.0051
   20CHL1   C16 1427   4.673   3.294   9.534  0.0396  0.0787  0.0462
   20CHL1  H16A 1428   4.656   3.357   9.444 -1.6606  2.0506  1.6234
   20CHL1  H16B 1429   4.782   3.274   9.540  0.7334  3.5712  4.7078
   20CHL1   C17 1430   4.586   3.163   9.541  0.1360  0.1010  0.2535
   20CHL1   H17 1431   4.652   3.099   9.603  0.3610  0.1459  0.0571
   20CHL1   C13 1432   4.476   3.189   9.649  0.3555  0.2656  1.0228
   20CHL1   C18 1433   4.347   3.259   9.596  0.1536 -0.1178  0.0835
   20CHL1  H18A 1434   4.382   3.344   9.534  2.9306  0.0211  1.7117
   20CHL1  H18B 1435   4.299   3.200   9.515  1.4756 -0.9960 -0.0886
   20CHL1  H18C 1436   4.269   3.301   9.663 -0.6023  2.0019 -1.9875
   20CHL1   C12 1437   4.444   3.056   9.728  0.1456 -0.1779 -0.5729
   20CHL1  H12A 1438   4.392   2.992   9.653  1.0033 -0.3952 -0.9953
   20CHL1  H12B 1439   4.537   3.002   9.755 -0.5730  0.2270  3.2203
   20CHL1   C11 1440   4.367   3.094   9.854  0.0882  0.1296  0.6065
   20CHL1  H11A 1441   4.276   3.153   9.826  0.3839  0.4369  0.2841
   20CHL1  H11B 1442   4.346   3.005   9.918 -0.2769 -1.8183 -2.0833
   20CHL1    C9 1443   4.431   3.198   9.949 -0.5484 -0.0716  0.0123
   20CHL1    H9 1444   4.529   3.157   9.981  1.5354  2.6814 -2.3239
   20CHL1   C10 1445   4.341   3.238  10.074  0.1921 -0.2801  1.2526
   20CHL1   C19 1446   4.198   3.286  10.031  0.8180 -0.9501 -0.6226
   20CHL1  H19A 1447   4.130   3.325  10.110  1.8816 -2.0951  0.9203
   20CHL1  H19B 1448   4.209   3.365   9.954 -0.4727  1.3303  1.3978
   20CHL1  H19C 1449   4.132   3.213   9.980  2.3732 -2.1878 -0.9342
   20CHL1    C1 1450   4.339   3.119  10.180  0.4780 -0.0938  0.4855
   20CHL1   H1A 1451   4.280   3.031  10.147 -0.5510  0.8515 -0.2831
   20CHL1   H1B 1452   4.445   3.087  10.194  0.9042  0.3994 -1.3070
   20CHL1    C2 1453   4.285   3.159  10.315  0.5264  0.2394  0.3737
   20CHL1   H2A 1454   4.288   3.077  10.390  0.3037  0.3421  0.4968
   20CHL1   H2B 1455   4.177   3.181  10.306  0.4560 -0.8419 -2.2232
   20CHL1   C20 1456   4.557   3.093   9.402  0.0604  0.4621 -0.6782
   20CHL1   H20 1457   4.485   3.014   9.431  0.2476  0.3715 -0.4556
   20CHL1   C21 1458   4.690   3.037   9.349  0.0221  0.2446  0.1016
   20CHL1  H21A 1459   4.749   3.128   9.326  0.1745  0.6283  1.8900
   20CHL1  H21B 1460   4.672   2.969   9.263 -1.7444 -0.5771  1.0720
   20CHL1  H21C 1461   4.738   2.974   9.428 -1.9088  0.7729  1.7907
   20CHL1   C22 1462   4.497   3.185   9.298 -0.0166  0.3605 -0.3776
   20CHL1  H22A 1463   4.410   3.245   9.332 -0.9315 -1.1691  0.0893
   20CHL1  H22B 1464   4.570   3.261   9.266 -0.8008  1.2482 -0.1102
   20CHL1   C23 1465   4.431   3.113   9.175 -0.1283 -0.4262 -0.3740
   20CHL1  H23A 1466   4.502   3.077   9.099  0.0250 -0.0014 -0.4360
   20CHL1  H23B 1467   4.372   3.033   9.225  0.4769 -0.9219 -0.4547
   20CHL1   C24 1468   4.326   3.202   9.108  0.1589  0.5061  0.0586
   20CHL1  H24A 1469   4.254   3.242   9.183  0.9218 -0.5158  1.3688
   20CHL1  H24B 1470   4.376   3.278   9.045 -1.0972 -0.4663 -2.2270
   20CHL1   C25 1471   4.242   3.122   9.011  0.2420  0.2213 -0.1142
   20CHL1   H25 1472   4.179   3.051   9.068 -2.1963  0.5460 -2.2417
   20CHL1   C26 1473   4.140   3.215   8.951 -0.0497  0.6834 -1.7977
   20CHL1  H26A 1474   4.175   3.309   8.903  0.2737  0.3710 -2.1814
   20CHL1  H26B 1475   4.084   3.164   8.870 -1.3421  0.5316 -0.8385
   20CHL1  H26C 1476   4.069   3.233   9.035  0.7090 -3.3629 -0.0361
   20CHL1   C27 1477   4.323   3.045   8.907 -0.1315 -0.5804 -0.0515
   20CHL1  H27A 1478   4.378   2.960   8.954 -0.0727 -0.3148  0.3689
   20CHL1  H27B 1479   4.265   3.018   8.816 -1.9091  0.6816  0.6469
   20CHL1  H27C 1480   4.409   3.106   8.872  0.6118 -1.6932 -0.2144
   21CHL1    C3 1481   2.571   4.960  10.204 -0.3808 -0.5408  0.2362
   21CHL1    H3 1482   2.655   4.887  10.198 -1.4410 -1.9533  1.6029
   21CHL1    O3 1483   2.560   4.971  10.343 -0.1836 -0.1851 -0.0331
   21CHL1   H3' 1484   2.495   5.038  10.362  0.5724  0.2774  1.0573
   21CHL1    C4 1485   2.617   5.090  10.138  0.3090  0.0614  0.4002
   21CHL1   H4A 1486   2.538   5.161  10.170 -0.2902 -0.1982 -0.4798
   21CHL1   H4B 1487   2.714   5.115  10.186 -0.5667  0.7201  1.9134
   21CHL1    C5 1488   2.622   5.076   9.989  0.1589  0.4849 -0.1341
   21CHL1    C6 1489   2.733   5.109   9.919  0.6800 -0.0148 -0.2225
   21CHL1    H6 1490   2.821   5.143   9.976 -1.3591  3.2874  1.2071
   21CHL1    C7 1491   2.749   5.085   9.771  0.0468  0.3605  0.8001
   21CHL1   H7A 1492   2.810   5.164   9.720  0.6259 -0.6111 -0.0565
   21CHL1   H7B 1493   2.795   4.988   9.742 -2.1308 -0.3900 -0.3272
   21CHL1    C8 1494   2.611   5.082   9.697  0.7958 -0.2435 -0.3677
   21CHL1    H8 1495   2.553   5.176   9.703 -2.0466 -1.8646 -0.6613
   21CHL1   C14 1496   2.620   5.052   9.549 -0.4831 -0.7806 -0.6227
   21CHL1   H14 1497   2.684   4.962   9.540  0.9937  0.3292 -1.6813
   21CHL1   C15 1498   2.695   5.155   9.466 -0.2848 -0.4336 -0.0806
   21CHL1  H15A 1499   2.665   5.261   9.482  1.3761 -0.1592  1.5065
   21CHL1  H15B 1500   2.806   5.162   9.475 -0.2153 -1.4120 -0.0950
   21CHL1   C16 1501   2.655   5.114   9.324  0.7315  0.1323 -0.8712
   21CHL1  H16A 1502   2.587   5.191   9.280 -0.2809  0.0298  0.4571
   21CHL1  H16B 1503   2.736   5.100   9.250  3.3832  1.1875  1.6293
   21CHL1   C17 1504   2.564   4.987   9.333  0.4710  0.5291 -1.1251
   21CHL1   H17 1505   2.633   4.900   9.342  0.1820  0.3960 -0.0479
   21CHL1   C13 1506   2.501   5.009   9.480  0.4496  0.2125  0.5419
   21CHL1   C18 1507   2.399   5.121   9.471  0.1185  0.6148  0.5471
   21CHL1  H18A 1508   2.383   5.161   9.574  2.2184  0.8333  0.8241
   21CHL1  H18B 1509   2.432   5.196   9.397  0.7486  0.0985  0.2930
   21CHL1  H18C 1510   2.302   5.081   9.434  0.4940  2.6188 -3.0517
   21CHL1   C12 1511   2.456   4.874   9.547 -0.7189 -0.5269  0.1525
   21CHL1  H12A 1512   2.371   4.823   9.495 -0.4926 -1.1950  0.4188
   21CHL1  H12B 1513   2.539   4.800   9.548 -0.4057 -0.1816  2.1726
   21CHL1   C11 1514   2.410   4.914   9.691  0.0357 -0.6679 -0.2908
   21CHL1  H11A 1515   2.324   4.985   9.699 -0.6961 -1.6788  1.2913
   21CHL1  H11B 1516   2.368   4.828   9.746  0.7570  0.2628  1.8071
   21CHL1    C9 1517   2.528   4.977   9.775 -0.3064 -0.6145  0.1302
   21CHL1    H9 1518   2.600   4.892   9.781 -0.6859 -0.8753  1.3291
   21CHL1   C10 1519   2.491   5.024   9.918 -0.2817  0.8232  0.4170
   21CHL1   C19 1520   2.382   5.139   9.912  0.5476 -0.6303 -0.3078
   21CHL1  H19A 1521   2.402   5.216   9.835 -1.2295  2.5952  2.1952
   21CHL1  H19B 1522   2.287   5.095   9.873  0.0412  1.2194 -1.2562
   21CHL1  H19C 1523   2.382   5.184  10.013  3.6598  2.0438 -1.3295
   21CHL1    C1 1524   2.436   4.899   9.993  0.5181  0.2291  0.9571
   21CHL1   H1A 1525   2.337   4.876   9.948  1.0398 -1.1581  0.4871
   21CHL1   H1B 1526   2.502   4.811   9.978 -0.4060 -0.3124 -0.0993
   21CHL1    C2 1527   2.437   4.918  10.147  0.9875 -0.2366  0.1257
   21CHL1   H2A 1528   2.411   4.820  10.193  4.3589 -0.7370  1.2331
   21CHL1   H2B 1529   2.360   4.992  10.177  1.8199  2.6927 -4.1934
   21CHL1   C20 1530   2.466   4.952   9.214  0.2714  0.4595  0.2880
   21CHL1   H20 1531   2.363   4.993   9.227 -0.7754 -2.1703  1.2033
   21CHL1   C21 1532   2.438   4.794   9.216 -0.4536 -0.5936 -0.0201
   21CHL1  H21A 1533   2.340   4.767   9.171 -0.8493  0.5729  0.1097
   21CHL1  H21B 1534   2.443   4.749   9.317 -0.8258  1.8734  1.1756
   21CHL1  H21C 1535   2.520   4.749   9.156 -0.5685 -1.2717  0.3345
   21CHL1   C22 1536   2.526   4.996   9.070 -0.3971  0.6917 -0.1168
   21CHL1  H22A 1537   2.572   5.097   9.067  0.1885  0.4049 -1.7656
   21CHL1  H22B 1538   2.608   4.926   9.046  0.2012  1.2625  0.2205
   21CHL1   C23 1539   2.428   4.979   8.950  1.0849  0.2996 -1.1632
   21CHL1  H23A 1540   2.394   4.873   8.944  1.1431  0.3248 -2.0742
   21CHL1  H23B 1541   2.331   5.029   8.970  0.0345 -1.7965 -0.6948
   21CHL1   C24 1542   2.484   5.014   8.812  0.0015 -0.3485  0.4546
   21CHL1  H24A 1543   2.496   5.124   8.804  0.0877 -0.4591 -1.0604
   21CHL1  H24B 1544   2.586   4.971   8.803 -0.3024 -0.9711 -0.0536
   21CHL1   C25 1545   2.383   4.978   8.697 -0.0345  0.5861 -0.5141
   21CHL1   H25 1546   2.359   4.869   8.700  0.6124  0.3759 -2.0087
   21CHL1   C26 1547   2.241   5.046   8.713 -0.3810  0.4762 -1.1137
   21CHL1  H26A 1548   2.234   5.156   8.703  0.1492  0.7666  1.0857
   21CHL1  H26B 1549   2.180   4.998   8.634 -0.3127 -0.0632 -0.8503
   21CHL1  H26C 1550   2.192   5.013   8.807  0.5192  2.7415  0.2368
   21CHL1   C27 1551   2.442   5.011   8.556 -0.1161 -0.3617  0.0904
   21CHL1  H27A 1552   2.552   4.996   8.566 -0.2583 -1.4124  0.1314
   21CHL1  H27B 1553   2.388   4.956   8.477 -1.0756  1.5509 -0.6505
   21CHL1  H27C 1554   2.423   5.120   8.546 -2.2175 -0.6407  0.6335
   22CHL1    C3 1555   4.920   0.729  10.147  0.2035  0.5801  0.4345
   22CHL1    H3 1556   4.812   0.724  10.121  0.2525  0.7601  0.1866
   22CHL1    O3 1557   4.930   0.707  10.289 -0.2829 -0.0519  0.4783
   22CHL1   H3' 1558   5.022   0.718  10.315  0.4044 -2.1222 -0.8520
   22CHL1    C4 1559   5.013   0.625  10.077 -0.1425 -0.1164 -0.0506
   22CHL1   H4A 1560   5.107   0.625  10.137 -1.1648 -0.9001  1.6004
   22CHL1   H4B 1561   4.970   0.524  10.094 -1.6481  0.9725  3.5444
   22CHL1    C5 1562   5.042   0.655   9.930 -0.0134  0.9154 -0.0430
   22CHL1    C6 1563   5.023   0.563   9.840  0.1393  0.1551 -0.1416
   22CHL1    H6 1564   4.995   0.466   9.884  0.2838  0.8180  1.5119
   22CHL1    C7 1565   5.052   0.570   9.693  0.1579  0.1076 -0.6257
   22CHL1   H7A 1566   5.113   0.482   9.664 -1.1154 -1.4632  1.1984
   22CHL1   H7B 1567   4.957   0.576   9.636  0.9060  1.5063 -1.7988
   22CHL1    C8 1568   5.125   0.700   9.645  0.0142  0.5961 -0.0154
   22CHL1    H8 1569   5.232   0.678   9.660  0.5652  3.2188  0.3205
   22CHL1   C14 1570   5.072   0.734   9.506  0.1222  0.6426 -0.1408
   22CHL1   H14 1571   4.963   0.756   9.508 -0.0706 -0.2255 -0.6251
   22CHL1   C15 1572   5.073   0.626   9.393  0.3943 -0.3551  0.4069
   22CHL1  H15A 1573   5.163   0.562   9.398 -0.3321 -1.4355 -0.1322
   22CHL1  H15B 1574   4.984   0.560   9.389 -0.0144  0.2305 -2.5959
   22CHL1   C16 1575   5.065   0.711   9.263  0.3201 -0.2034  0.5996
   22CHL1  H16A 1576   5.136   0.677   9.185 -2.1181  1.5455 -2.5944
   22CHL1  H16B 1577   4.964   0.698   9.218  0.0485 -2.5250  1.7301
   22CHL1   C17 1578   5.077   0.862   9.311  0.4175  0.2869  0.4901
   22CHL1   H17 1579   4.970   0.888   9.324  0.3009 -0.0358  0.2144
   22CHL1   C13 1580   5.147   0.856   9.450  0.1431 -0.7427  0.0672
   22CHL1   C18 1581   5.299   0.835   9.431  0.4087 -0.0842 -0.4059
   22CHL1  H18A 1582   5.344   0.921   9.376 -0.0007 -1.0420 -2.3528
   22CHL1  H18B 1583   5.352   0.803   9.523  1.1462 -0.6508 -1.0066
   22CHL1  H18C 1584   5.317   0.750   9.362  1.8826 -0.5621  0.5324
   22CHL1   C12 1585   5.126   0.975   9.539  0.4763 -0.7354  0.3171
   22CHL1  H12A 1586   5.193   1.059   9.510 -0.8720  0.0937 -0.5240
   22CHL1  H12B 1587   5.023   1.010   9.517  0.5560 -0.2254  0.7269
   22CHL1   C11 1588   5.151   0.940   9.683 -0.1561 -0.2686  0.0226
   22CHL1  H11A 1589   5.260   0.936   9.706 -0.3443  2.1043  1.6777
   22CHL1  H11B 1590   5.102   1.021   9.741 -1.1501 -0.7149 -0.1746
   22CHL1    C9 1591   5.086   0.814   9.733  0.0369 -0.7995 -0.2038
   22CHL1    H9 1592   4.978   0.840   9.721  0.2848 -0.0116 -0.8909
   22CHL1   C10 1593   5.094   0.791   9.884  0.1412 -0.2680  0.2004
   22CHL1   C19 1594   5.233   0.803   9.943 -0.1947 -0.5323 -0.1910
   22CHL1  H19A 1595   5.312   0.737   9.901  0.0944 -1.5369  1.7715
   22CHL1  H19B 1596   5.275   0.906   9.944  1.0479 -0.9606  2.8980
   22CHL1  H19C 1597   5.240   0.771  10.050  1.6277 -0.6818 -0.3083
   22CHL1    C1 1598   4.999   0.891   9.962  0.3777 -0.7604 -0.5107
   22CHL1   H1A 1599   5.039   0.993   9.945  1.3115 -0.9259  0.5382
   22CHL1   H1B 1600   4.897   0.893   9.919  0.2467  3.6514 -0.3874
   22CHL1    C2 1601   4.967   0.874  10.118  0.2617 -0.1756  0.3950
   22CHL1   H2A 1602   4.895   0.950  10.154  1.2036  1.0146 -0.1449
   22CHL1   H2B 1603   5.059   0.899  10.176  0.2606 -0.2277  0.4193
   22CHL1   C20 1604   5.121   0.972   9.214  0.1786 -0.1654 -0.1379
   22CHL1   H20 1605   5.171   1.052   9.272 -0.6503  0.1749  0.1145
   22CHL1   C21 1606   4.995   1.035   9.139 -0.4511 -0.1526 -0.3566
   22CHL1  H21A 1607   5.022   1.117   9.070 -2.1489  0.1309 -0.7395
   22CHL1  H21B 1608   4.928   1.083   9.214  1.7943  3.1301 -0.2408
   22CHL1  H21C 1609   4.942   0.959   9.078  0.2765 -0.6163 -0.4183
   22CHL1   C22 1610   5.223   0.917   9.115 -0.4183 -0.4391  0.0634
   22CHL1  H22A 1611   5.306   0.875   9.176  1.2400  0.9186 -1.1698
   22CHL1  H22B 1612   5.172   0.835   9.059 -0.1300  0.2052 -1.1801
   22CHL1   C23 1613   5.290   1.022   9.018  0.4460 -0.8953  0.4380
   22CHL1  H23A 1614   5.356   0.969   8.946  0.1399  1.0709 -1.3800
   22CHL1  H23B 1615   5.207   1.055   8.952  0.8947 -0.5162  0.0589
   22CHL1   C24 1616   5.367   1.141   9.073 -0.2465 -0.0558 -0.2421
   22CHL1  H24A 1617   5.301   1.196   9.144  0.1422 -0.0409  0.1098
   22CHL1  H24B 1618   5.450   1.103   9.136  0.0106  0.4687 -0.2623
   22CHL1   C25 1619   5.432   1.232   8.968 -0.1116  0.1415  0.4905
   22CHL1   H25 1620   5.465   1.326   9.017 -1.7007  0.6085  0.7158
   22CHL1   C26 1621   5.555   1.184   8.897  0.7358 -0.3022  0.1961
   22CHL1  H26A 1622   5.575   1.260   8.818 -1.8455 -0.1208 -0.3910
   22CHL1  H26B 1623   5.643   1.165   8.962  0.4675  2.1342  1.3912
   22CHL1  H26C 1624   5.528   1.091   8.843  0.4280 -0.0028 -0.1779
   22CHL1   C27 1625   5.325   1.273   8.854 -0.5197  0.4591 -0.1996
   22CHL1  H27A 1626   5.339   1.201   8.771  0.3097 -0.0297  0.3517
   22CHL1  H27B 1627   5.221   1.279   8.894 -1.7180 -2.1797 -2.4964
   22CHL1  H27C 1628   5.364   1.367   8.810 -0.4823 -0.0125 -1.2210
   23CHL1    C3 1629   0.479   2.178  10.255 -0.1745  0.2496  0.2043
   23CHL1    H3 1630   0.567   2.118  10.289 -0.8356 -1.6296 -1.2598
   23CHL1    O3 1631   0.391   2.220  10.362 -0.6484  0.3737  0.5114
   23CHL1   H3' 1632   0.361   2.143  10.411 -0.4230  1.6367  2.7820
   23CHL1    C4 1633   0.519   2.301  10.176  0.2541 -0.4141 -0.1369
   23CHL1   H4A 1634   0.429   2.365  10.177  0.3415 -0.1890 -2.3233
   23CHL1   H4B 1635   0.590   2.345  10.249 -0.6498 -0.4532  0.7874
   23CHL1    C5 1636   0.573   2.276  10.036 -0.7634  0.2749  0.5279
   23CHL1    C6 1637   0.692   2.324   9.989 -0.0022  0.0779 -0.2700
   23CHL1    H6 1638   0.755   2.384  10.057 -0.7377 -2.3327  2.7997
   23CHL1    C7 1639   0.752   2.312   9.854  0.3986  0.2369 -0.1389
   23CHL1   H7A 1640   0.780   2.414   9.820 -0.1903 -0.0534 -1.5910
   23CHL1   H7B 1641   0.839   2.244   9.838  0.7335  0.7908 -0.7390
   23CHL1    C8 1642   0.645   2.256   9.752  0.4425 -0.4727 -0.4679
   23CHL1    H8 1643   0.579   2.342   9.728  0.3698 -0.5988 -0.7217
   23CHL1   C14 1644   0.710   2.213   9.622  0.6085 -0.6844 -0.9653
   23CHL1   H14 1645   0.775   2.127   9.648  0.8571 -0.8297 -2.0252
   23CHL1   C15 1646   0.797   2.316   9.541  0.4112 -0.4460 -0.9897
   23CHL1  H15A 1647   0.752   2.416   9.553  0.8245 -0.5193  2.0174
   23CHL1  H15B 1648   0.898   2.310   9.588 -0.6829  0.3893  1.6611
   23CHL1   C16 1649   0.796   2.266   9.398 -0.2958 -0.4889 -0.3454
   23CHL1  H16A 1650   0.756   2.347   9.333 -0.9888 -1.7393 -1.5113
   23CHL1  H16B 1651   0.899   2.241   9.366  0.0378  1.0461 -0.5445
   23CHL1   C17 1652   0.695   2.146   9.390 -0.9653 -0.3898  0.3794
   23CHL1   H17 1653   0.765   2.061   9.408  0.5954  0.1998 -2.3981
   23CHL1   C13 1654   0.606   2.166   9.518  0.1346 -0.1813 -0.0722
   23CHL1   C18 1655   0.502   2.266   9.476 -0.2053  0.2361  0.2318
   23CHL1  H18A 1656   0.465   2.330   9.559  0.2681  2.3906 -1.1340
   23CHL1  H18B 1657   0.534   2.351   9.412  0.2731 -1.1486 -1.4680
   23CHL1  H18C 1658   0.420   2.212   9.423  0.6324  0.3780 -1.2812
   23CHL1   C12 1659   0.534   2.041   9.578  0.0284 -0.3975 -0.2405
   23CHL1  H12A 1660   0.467   1.997   9.501  1.2565 -0.6715 -1.1761
   23CHL1  H12B 1661   0.615   1.967   9.593 -0.3530 -0.5619  1.1449
   23CHL1   C11 1662   0.463   2.082   9.706 -0.2520  0.6278  0.2587
   23CHL1  H11A 1663   0.368   2.137   9.687 -1.4448 -1.0232  1.1379
   23CHL1  H11B 1664   0.414   1.994   9.752  0.5524  1.0139  1.9171
   23CHL1    C9 1665   0.559   2.148   9.809  1.3620  0.1542 -0.1801
   23CHL1    H9 1666   0.637   2.077   9.844  2.3683  2.0076  1.5621
   23CHL1   C10 1667   0.491   2.188   9.940  0.1235  0.0779 -0.5062
   23CHL1   C19 1668   0.358   2.264   9.908  0.5007 -0.0853  0.0430
   23CHL1  H19A 1669   0.283   2.189   9.877 -0.4683  0.8578  0.0332
   23CHL1  H19B 1670   0.306   2.314   9.993 -1.0352 -2.6820  0.7496
   23CHL1  H19C 1671   0.350   2.341   9.829  0.4324 -0.8454 -0.7023
   23CHL1    C1 1672   0.458   2.074  10.031 -0.0945  0.0011  0.4530
   23CHL1   H1A 1673   0.401   2.003   9.968 -1.4001  2.4198 -1.2598
   23CHL1   H1B 1674   0.552   2.021  10.058 -0.2686 -0.1070  0.8397
   23CHL1    C2 1675   0.388   2.095  10.165 -0.4046 -0.3692 -0.4951
   23CHL1   H2A 1676   0.362   2.000  10.215  0.3097  0.2750  1.1728
   23CHL1   H2B 1677   0.290   2.143  10.140 -0.9522 -1.2648 -0.1078
   23CHL1   C20 1678   0.627   2.124   9.253  0.8242  0.1157  0.0422
   23CHL1   H20 1679   0.558   2.205   9.222 -1.0943 -1.1144  0.8894
   23CHL1   C21 1680   0.517   2.006   9.255 -0.2635 -0.2931  0.4119
   23CHL1  H21A 1681   0.492   1.983   9.149  1.1723 -1.1388  0.2255
   23CHL1  H21B 1682   0.426   2.047   9.303 -0.0897 -1.4903  1.8274
   23CHL1  H21C 1683   0.543   1.911   9.308 -1.8320 -1.1484 -0.2649
   23CHL1   C22 1684   0.734   2.093   9.151 -0.0031 -0.1986  0.4103
   23CHL1  H22A 1685   0.818   2.164   9.162  1.4391 -1.9867  1.6340
   23CHL1  H22B 1686   0.789   2.004   9.189  3.5872  1.8700  0.5496
   23CHL1   C23 1687   0.690   2.091   9.000  0.6813 -1.0652  0.0050
   23CHL1  H23A 1688   0.593   2.039   8.982  1.1053 -1.7781 -0.2392
   23CHL1  H23B 1689   0.669   2.199   8.983  1.0405 -1.0447 -0.3224
   23CHL1   C24 1690   0.798   2.045   8.901 -0.1471  0.7188  0.7289
   23CHL1  H24A 1691   0.875   2.124   8.903 -0.8880  1.4595  0.3790
   23CHL1  H24B 1692   0.834   1.948   8.943 -0.9309  0.7243  1.4253
   23CHL1   C25 1693   0.759   2.035   8.748  0.4748  0.4211 -0.7385
   23CHL1   H25 1694   0.851   2.025   8.685 -1.0898 -3.7917 -2.7161
   23CHL1   C26 1695   0.686   1.911   8.719 -0.5420  0.1075 -0.0837
   23CHL1  H26A 1696   0.662   1.897   8.612  2.8111 -0.7890 -0.8353
   23CHL1  H26B 1697   0.749   1.822   8.743 -0.4185  0.2841  0.2550
   23CHL1  H26C 1698   0.595   1.901   8.782 -0.5431  1.3487  0.1296
   23CHL1   C27 1699   0.684   2.157   8.693 -1.0338 -0.4591  0.1963
   23CHL1  H27A 1700   0.581   2.163   8.733 -0.5293 -0.1424  1.5026
   23CHL1  H27B 1701   0.732   2.248   8.736  0.4880 -1.9561  1.8399
   23CHL1  H27C 1702   0.688   2.150   8.582 -1.5134 -1.6623  0.2331
   24CHL1    C3 1703   1.671   1.292  10.156 -0.4490 -0.3788  0.3537
   24CHL1    H3 1704   1.680   1.193  10.204 -0.2232  0.7922  2.9127
   24CHL1    O3 1705   1.680   1.392  10.257 -0.3785 -0.2324  0.2137
   24CHL1   H3' 1706   1.589   1.420  10.257 -0.4084 -0.3195 -0.7401
   24CHL1    C4 1707   1.781   1.315  10.057  0.0081 -0.5032  0.6691
   24CHL1   H4A 1708   1.765   1.420  10.022  0.4992 -1.1599 -1.6940
   24CHL1   H4B 1709   1.878   1.314  10.111 -0.6810 -0.6970  1.9435
   24CHL1    C5 1710   1.774   1.230   9.930  0.6920 -0.4057 -0.2550
   24CHL1    C6 1711   1.872   1.146   9.895 -0.3215 -0.8734 -0.0303
   24CHL1    H6 1712   1.964   1.154   9.955 -0.8306  0.6223  0.5903
   24CHL1    C7 1713   1.869   1.061   9.770 -0.2210  0.3483  0.5627
   24CHL1   H7A 1714   1.965   1.065   9.714  1.1008 -1.2864  2.5735
   24CHL1   H7B 1715   1.860   0.953   9.793 -2.0536 -0.0770 -1.7989
   24CHL1    C8 1716   1.748   1.100   9.667  0.2813  0.1802 -0.2147
   24CHL1    H8 1717   1.779   1.199   9.627 -3.7796  2.0257  0.6703
   24CHL1   C14 1718   1.734   1.006   9.556  0.3921  0.0944 -0.6642
   24CHL1   H14 1719   1.716   0.906   9.600 -1.0182  0.1704 -1.0045
   24CHL1   C15 1720   1.852   0.973   9.457 -0.6218  0.0465  0.2193
   24CHL1  H15A 1721   1.907   1.066   9.431 -0.1472  0.3479  2.1154
   24CHL1  H15B 1722   1.926   0.910   9.511  1.0846  1.2832 -0.5679
   24CHL1   C16 1723   1.785   0.914   9.338 -0.1345 -0.5780  0.0743
   24CHL1  H16A 1724   1.824   0.955   9.242  1.0806 -0.6942  0.4999
   24CHL1  H16B 1725   1.806   0.806   9.349 -1.0083 -0.8077 -0.4466
   24CHL1   C17 1726   1.630   0.923   9.365  0.0965  0.4135  0.0936
   24CHL1   H17 1727   1.601   0.831   9.419 -2.5258  0.2353 -1.4651
   24CHL1   C13 1728   1.614   1.035   9.467 -0.1592  0.4141 -0.0289
   24CHL1   C18 1729   1.627   1.171   9.397 -0.3097  0.4589 -0.0713
   24CHL1  H18A 1730   1.625   1.259   9.464 -1.5565  0.1336  0.3379
   24CHL1  H18B 1731   1.726   1.183   9.347  0.0665 -0.7240  0.3559
   24CHL1  H18C 1732   1.537   1.177   9.333 -0.6643 -2.2445  0.0549
   24CHL1   C12 1733   1.484   1.026   9.551  0.0946  0.0977 -0.4929
   24CHL1  H12A 1734   1.394   1.022   9.487  0.4117 -1.4072 -0.8665
   24CHL1  H12B 1735   1.492   0.922   9.588  0.9075  0.3046 -0.0590
   24CHL1   C11 1736   1.487   1.128   9.664 -0.2945 -0.4296 -0.2266
   24CHL1  H11A 1737   1.477   1.230   9.621  1.5182 -0.5036 -0.9161
   24CHL1  H11B 1738   1.402   1.102   9.730 -0.2391  0.8244  0.3714
   24CHL1    C9 1739   1.619   1.119   9.750 -0.4755 -0.5176  0.4898
   24CHL1    H9 1740   1.602   1.026   9.808  0.1892 -0.0519  1.4515
   24CHL1   C10 1741   1.628   1.233   9.861  0.1224 -0.4992 -0.7672
   24CHL1   C19 1742   1.609   1.360   9.787  0.3910 -0.0135  0.2134
   24CHL1  H19A 1743   1.641   1.351   9.681  1.4661  0.0019  0.5259
   24CHL1  H19B 1744   1.503   1.384   9.767 -0.5154 -2.4887  1.6291
   24CHL1  H19C 1745   1.654   1.448   9.839  2.7325 -0.2834 -1.1938
   24CHL1    C1 1746   1.521   1.211   9.970 -0.2551  0.3765  0.3816
   24CHL1   H1A 1747   1.419   1.213   9.925 -0.7108  2.6294  1.3625
   24CHL1   H1B 1748   1.525   1.110  10.016  0.0069 -0.2153 -0.9128
   24CHL1    C2 1749   1.536   1.304  10.092 -0.0899  0.1572  0.3532
   24CHL1   H2A 1750   1.451   1.285  10.162 -1.2384  2.6179 -0.2519
   24CHL1   H2B 1751   1.523   1.409  10.057  2.1597 -0.0807 -1.4575
   24CHL1   C20 1752   1.556   0.928   9.230 -0.3762 -0.1650 -0.2130
   24CHL1   H20 1753   1.593   1.015   9.173 -0.0809 -0.4249 -0.4181
   24CHL1   C21 1754   1.403   0.959   9.247  0.8665 -0.3376 -0.1055
   24CHL1  H21A 1755   1.379   1.056   9.294 -1.7862 -0.3820 -1.1625
   24CHL1  H21B 1756   1.352   0.872   9.295  2.0255 -1.6408 -1.1467
   24CHL1  H21C 1757   1.357   0.952   9.145  1.7682  1.1706 -0.6370
   24CHL1   C22 1758   1.568   0.803   9.142  0.4510  0.2191 -0.1633
   24CHL1  H22A 1759   1.666   0.751   9.150  0.2180 -0.6273 -2.0499
   24CHL1  H22B 1760   1.499   0.721   9.170  2.5634 -1.7495 -0.3575
   24CHL1   C23 1761   1.556   0.842   8.989  0.9006  1.0564 -0.1508
   24CHL1  H23A 1762   1.458   0.893   8.975 -0.2021 -1.1280 -0.8709
   24CHL1  H23B 1763   1.644   0.907   8.969  0.0427  2.3073  0.0210
   24CHL1   C24 1764   1.532   0.717   8.896 -0.2660 -0.4658  0.1625
   24CHL1  H24A 1765   1.618   0.649   8.915 -0.1131 -0.2082  0.3981
   24CHL1  H24B 1766   1.452   0.652   8.938  0.1048 -0.1846  1.3525
   24CHL1   C25 1767   1.518   0.751   8.744 -1.3792 -0.4363 -0.3211
   24CHL1   H25 1768   1.445   0.834   8.729 -2.4460 -1.6599 -2.6258
   24CHL1   C26 1769   1.647   0.812   8.686  0.4384 -0.5071  0.1318
   24CHL1  H26A 1770   1.680   0.909   8.730  0.3593 -0.1105 -0.6682
   24CHL1  H26B 1771   1.736   0.746   8.696  0.6330 -1.0012 -3.5612
   24CHL1  H26C 1772   1.624   0.830   8.579  0.7104  1.1956  0.3311
   24CHL1   C27 1773   1.471   0.627   8.673 -0.1084 -0.7925  0.0652
   24CHL1  H27A 1774   1.550   0.549   8.679  2.1759  1.4103  0.2441
   24CHL1  H27B 1775   1.368   0.594   8.699 -0.8326 -0.0897 -1.7267
   24CHL1  H27C 1776   1.464   0.652   8.565 -0.7622 -0.9038  0.0798
   25CHL1    C3 1777   0.021   5.247  10.335  0.1739 -0.2969 -0.2900
   25CHL1    H3 1778  -0.031   5.150  10.351 -0.2239 -0.1124 -0.4747
   25CHL1    O3 1779   0.023   5.312  10.461  0.4801  0.3016 -0.1464
   25CHL1   H3' 1780   0.099   5.275  10.506 -0.7281 -1.9733  0.1667
   25CHL1    C4 1781   0.162   5.225  10.284  0.3437  0.4432  0.5188
   25CHL1   H4A 1782   0.213   5.324  10.291 -0.8084  1.1662 -0.7938
   25CHL1   H4B 1783   0.212   5.155  10.354  1.9902  0.9203 -0.1382
   25CHL1    C5 1784   0.157   5.164  10.146  0.5573 -0.4958 -0.2088
   25CHL1    C6 1785   0.221   5.051  10.120  0.6633  1.3507  0.5054
   25CHL1    H6 1786   0.270   4.998  10.202 -0.3868  0.3365  0.5046
   25CHL1    C7 1787   0.222   4.992   9.980 -0.0176  0.0120  1.0460
   25CHL1   H7A 1788   0.318   4.940   9.962 -0.6847 -1.0411  0.4697
   25CHL1   H7B 1789   0.158   4.902   9.993  1.6227 -1.4399 -0.5153
   25CHL1    C8 1790   0.189   5.097   9.862  0.2542  0.8709  0.4907
   25CHL1    H8 1791   0.283   5.156   9.848  1.4384 -1.2844 -1.3466
   25CHL1   C14 1792   0.166   5.025   9.730  0.0904  0.1387 -0.5125
   25CHL1   H14 1793   0.065   4.980   9.744  0.6103 -0.8733  0.1689
   25CHL1   C15 1794   0.258   4.905   9.696 -0.3092 -0.2017  1.2998
   25CHL1  H15A 1795   0.360   4.947   9.706 -0.1432  0.1055 -1.0788
   25CHL1  H15B 1796   0.255   4.811   9.756  0.7738 -0.6337  0.7069
   25CHL1   C16 1797   0.229   4.887   9.544 -0.8755 -0.0041 -0.1687
   25CHL1  H16A 1798   0.324   4.896   9.485 -0.6385  4.0010  0.4889
   25CHL1  H16B 1799   0.185   4.786   9.534 -0.8417  0.0704 -1.2999
   25CHL1   C17 1800   0.136   5.002   9.501  0.2352 -0.8126  0.1778
   25CHL1   H17 1801   0.036   4.954   9.512 -0.5644  0.1835 -2.0832
   25CHL1   C13 1802   0.149   5.108   9.609  0.3015  0.2509  0.1795
   25CHL1   C18 1803   0.268   5.197   9.577  0.2410 -0.3532 -0.0366
   25CHL1  H18A 1804   0.249   5.256   9.484 -0.2362  0.2163  0.4162
   25CHL1  H18B 1805   0.278   5.268   9.662  1.4816 -1.2074  0.5559
   25CHL1  H18C 1806   0.353   5.126   9.581 -0.8118 -1.6514  0.0127
   25CHL1   C12 1807   0.018   5.190   9.632 -0.2824 -0.2246 -0.2517
   25CHL1  H12A 1808   0.006   5.274   9.561  0.9907  1.2390  1.1980
   25CHL1  H12B 1809  -0.071   5.124   9.636  0.4426 -1.2136  0.0486
   25CHL1   C11 1810   0.020   5.262   9.778  0.1949  0.1683  0.5016
   25CHL1  H11A 1811   0.101   5.336   9.766 -0.8878  1.4981  1.1782
   25CHL1  H11B 1812  -0.075   5.317   9.795  0.1357 -0.4372  2.3977
   25CHL1    C9 1813   0.064   5.177   9.900 -0.2977  0.4039 -0.2552
   25CHL1    H9 1814  -0.014   5.100   9.920  0.2796  0.4981  2.9673
   25CHL1   C10 1815   0.078   5.245  10.042  0.3577 -0.1186 -0.2461
   25CHL1   C19 1816   0.159   5.376  10.016  0.6501 -0.2253  0.5918
   25CHL1  H19A 1817   0.107   5.435   9.937 -1.3828 -2.5516  0.0597
   25CHL1  H19B 1818   0.153   5.443  10.104 -1.8419  1.9665 -1.0899
   25CHL1  H19C 1819   0.261   5.341   9.990 -0.6158 -2.4096 -1.9015
   25CHL1    C1 1820  -0.063   5.278  10.095  0.4530  0.6695 -0.6154
   25CHL1   H1A 1821  -0.101   5.348  10.019  0.9849 -1.9618 -3.5186
   25CHL1   H1B 1822  -0.119   5.182  10.092 -0.9190  1.4641 -1.4200
   25CHL1    C2 1823  -0.072   5.325  10.246 -0.3662 -0.4115  1.0340
   25CHL1   H2A 1824  -0.173   5.307  10.288 -0.3589 -1.6461  0.5823
   25CHL1   H2B 1825  -0.040   5.430  10.256  0.3236 -0.4077 -0.8153
   25CHL1   C20 1826   0.147   5.033   9.351  0.1854 -0.6607 -0.3704
   25CHL1   H20 1827   0.240   5.091   9.337 -1.1312  1.6907  0.0354
   25CHL1   C21 1828   0.034   5.112   9.307  1.1422  0.5254 -0.2950
   25CHL1  H21A 1829   0.012   5.202   9.368 -2.0815 -0.8063  0.7596
   25CHL1  H21B 1830  -0.059   5.051   9.307  1.6472 -0.2611 -0.1514
   25CHL1  H21C 1831   0.034   5.147   9.201  0.6982  1.0469 -0.1221
   25CHL1   C22 1832   0.155   4.908   9.268 -0.2466  0.1449 -0.3352
   25CHL1  H22A 1833   0.253   4.859   9.287  0.3904  0.5684 -2.3410
   25CHL1  H22B 1834   0.068   4.844   9.296 -1.1406  0.3950 -2.3524
   25CHL1   C23 1835   0.166   4.930   9.116  0.2021 -0.0208 -0.7697
   25CHL1  H23A 1836   0.075   4.984   9.082  0.6758  0.7998 -0.7391
   25CHL1  H23B 1837   0.249   5.001   9.100  2.0952 -1.5367  1.6490
   25CHL1   C24 1838   0.179   4.801   9.042  0.0933 -0.8451  0.3172
   25CHL1  H24A 1839   0.285   4.769   9.050  1.2868  2.1264 -1.7608
   25CHL1  H24B 1840   0.109   4.729   9.090  0.6182 -0.6227  1.4397
   25CHL1   C25 1841   0.146   4.794   8.891 -0.1170  0.3562  0.3382
   25CHL1   H25 1842   0.174   4.892   8.845 -0.2358 -0.3817 -1.4098
   25CHL1   C26 1843   0.223   4.680   8.824 -0.8717 -0.2044  0.5593
   25CHL1  H26A 1844   0.220   4.584   8.880  0.3173 -0.5038  0.1317
   25CHL1  H26B 1845   0.193   4.673   8.717 -0.2847  2.5703  0.1528
   25CHL1  H26C 1846   0.328   4.715   8.821 -0.9812  0.1289  0.5747
   25CHL1   C27 1847  -0.006   4.767   8.862  0.0071 -0.9833 -0.7360
   25CHL1  H27A 1848  -0.031   4.768   8.754 -0.7454 -0.5786 -0.5691
   25CHL1  H27B 1849  -0.024   4.664   8.901  0.3293  0.3366  3.3662
   25CHL1  H27C 1850  -0.066   4.837   8.924  3.2884  0.5735  0.8963
   26CHL1    C3 1851   3.703   4.481  10.142  0.2486  0.3195 -0.7419
   26CHL1    H3 1852   3.805   4.522  10.128  0.3350  0.6840  0.8155
   26CHL1    O3 1853   3.692   4.434  10.275  0.2196  0.1002 -0.2325
   26CHL1   H3' 1854   3.691   4.508  10.337  1.6778  0.2926 -0.3917
   26CHL1    C4 1855   3.591   4.583  10.118 -0.5907  0.4734  0.7762
   26CHL1   H4A 1856   3.503   4.520  10.143  1.3010 -2.2643  0.9219
   26CHL1   H4B 1857   3.598   4.663  10.195  1.3166 -1.2547  2.5047
   26CHL1    C5 1858   3.579   4.631   9.975 -0.6560  0.1781 -0.8117
   26CHL1    C6 1859   3.577   4.760   9.944 -0.2158 -0.5289  0.7202
   26CHL1    H6 1860   3.584   4.842  10.018  0.2998  0.2271 -0.1509
   26CHL1    C7 1861   3.564   4.813   9.805 -0.1906 -0.2932 -0.6027
   26CHL1   H7A 1862   3.485   4.890   9.793 -0.1331  0.1466  1.4556
   26CHL1   H7B 1863   3.662   4.855   9.772  0.6630 -0.2548  1.7888
   26CHL1    C8 1864   3.517   4.702   9.710 -0.0907  0.4784 -0.4719
   26CHL1    H8 1865   3.408   4.684   9.722 -0.3142 -0.1819 -2.9088
   26CHL1   C14 1866   3.535   4.756   9.566  0.3498 -0.3312  0.7678
   26CHL1   H14 1867   3.639   4.789   9.542 -0.3934  0.2657 -2.0367
   26CHL1   C15 1868   3.453   4.877   9.522  0.9988  0.3785  0.4153
   26CHL1  H15A 1869   3.347   4.865   9.552  1.1977  0.6104  1.2660
   26CHL1  H15B 1870   3.493   4.969   9.570  2.3526 -0.3663  0.7715
   26CHL1   C16 1871   3.475   4.870   9.364 -0.3494  0.4250 -0.1219
   26CHL1  H16A 1872   3.379   4.888   9.310 -1.0447  0.9031  1.2248
   26CHL1  H16B 1873   3.549   4.948   9.336  3.2116 -2.2598  1.1183
   26CHL1   C17 1874   3.534   4.730   9.332  0.6262  0.6313 -0.0495
   26CHL1   H17 1875   3.643   4.731   9.313  0.1332 -0.7170 -3.6844
   26CHL1   C13 1876   3.506   4.652   9.454 -0.2949 -0.0545 -1.0561
   26CHL1   C18 1877   3.352   4.614   9.460 -1.0943  0.4402 -0.1647
   26CHL1  H18A 1878   3.286   4.694   9.421  1.5254  1.7998 -2.1706
   26CHL1  H18B 1879   3.321   4.528   9.396 -0.2428 -0.9436  1.2176
   26CHL1  H18C 1880   3.324   4.573   9.559 -2.5758 -1.5872 -1.3338
   26CHL1   C12 1881   3.593   4.533   9.481  0.3426 -0.5480 -0.6725
   26CHL1  H12A 1882   3.577   4.448   9.411  0.9621 -2.4037  1.3167
   26CHL1  H12B 1883   3.700   4.563   9.477  0.6681 -1.5905 -0.1919
   26CHL1   C11 1884   3.572   4.469   9.623 -0.3142 -0.1871  0.6888
   26CHL1  H11A 1885   3.467   4.434   9.621  0.5920 -3.1453 -1.1464
   26CHL1  H11B 1886   3.645   4.387   9.642  1.4606  1.5735  1.9285
   26CHL1    C9 1887   3.587   4.573   9.735 -0.5717 -0.2511  0.0894
   26CHL1    H9 1888   3.695   4.600   9.730 -0.2870 -0.9356  1.9661
   26CHL1   C10 1889   3.567   4.512   9.877 -0.0889  0.0886 -0.5103
   26CHL1   C19 1890   3.434   4.446   9.880  0.2220  0.2012 -0.5970
   26CHL1  H19A 1891   3.368   4.518   9.827 -0.8664  0.2553  0.7613
   26CHL1  H19B 1892   3.438   4.345   9.835  3.1350 -1.3836  2.7054
   26CHL1  H19C 1893   3.389   4.436   9.981 -0.1172 -0.5508 -0.8159
   26CHL1    C1 1894   3.676   4.406   9.910 -0.0571 -0.0101 -0.0119
   26CHL1   H1A 1895   3.669   4.316   9.845 -1.3876  0.8185 -1.0595
   26CHL1   H1B 1896   3.779   4.445   9.894  0.1621  0.5549  2.3883
   26CHL1    C2 1897   3.679   4.358  10.048  0.5492  0.0900 -0.5389
   26CHL1   H2A 1898   3.763   4.289  10.068 -0.4896 -0.7947  0.9581
   26CHL1   H2B 1899   3.596   4.296  10.088 -0.4239  0.2237 -2.2922
   26CHL1   C20 1900   3.483   4.680   9.194  0.4908  0.4449  0.6605
   26CHL1   H20 1901   3.372   4.682   9.207  0.5023  1.5159  0.7248
   26CHL1   C21 1902   3.544   4.547   9.153 -0.0321 -1.2937  0.1666
   26CHL1  H21A 1903   3.655   4.559   9.153 -0.2535  1.5595 -1.5586
   26CHL1  H21B 1904   3.508   4.510   9.054 -0.4773 -0.6332  0.0795
   26CHL1  H21C 1905   3.512   4.466   9.221 -1.5779  0.4543  1.6163
   26CHL1   C22 1906   3.517   4.779   9.081 -0.6427  0.6641  0.2549
   26CHL1  H22A 1907   3.481   4.882   9.106 -1.2130  0.6515 -0.4426
   26CHL1  H22B 1908   3.626   4.792   9.068 -0.3180 -0.5469  1.6014
   26CHL1   C23 1909   3.456   4.745   8.945 -0.1588 -0.2438  0.3928
   26CHL1  H23A 1910   3.502   4.651   8.906  1.7726  0.9130 -0.2749
   26CHL1  H23B 1911   3.345   4.732   8.950 -0.0561 -0.8606  1.2846
   26CHL1   C24 1912   3.482   4.856   8.855  0.4187  0.1573  0.2227
   26CHL1  H24A 1913   3.463   4.956   8.899  1.4050  0.1414  0.7275
   26CHL1  H24B 1914   3.590   4.843   8.833 -0.0194  2.0171 -3.7856
   26CHL1   C25 1915   3.414   4.844   8.711 -0.2093  0.3167  0.0974
   26CHL1   H25 1916   3.478   4.912   8.651 -1.6403  0.4631 -1.3014
   26CHL1   C26 1917   3.417   4.707   8.642 -0.7403 -0.0924 -0.1956
   26CHL1  H26A 1918   3.380   4.631   8.715 -0.1419  1.4954  1.8496
   26CHL1  H26B 1919   3.356   4.714   8.549 -0.8118  2.7575 -0.0270
   26CHL1  H26C 1920   3.520   4.677   8.613 -1.2431 -1.6160 -0.4976
   26CHL1   C27 1921   3.271   4.888   8.709  0.5796  0.0504 -0.1650
   26CHL1  H27A 1922   3.192   4.822   8.752 -0.9462  2.6507  1.3079
   26CHL1  H27B 1923   3.259   4.988   8.756 -0.2312 -0.6206  1.1334
   26CHL1  H27C 1924   3.254   4.896   8.600 -2.4747 -2.2891 -0.0148
   27CHL1    C3 1925   1.441   6.013  10.302  0.1327  0.6689 -0.2961
   27CHL1    H3 1926   1.469   5.906  10.286  0.8717  0.8407 -0.2262
   27CHL1    O3 1927   1.414   6.038  10.442  0.0865  0.6365  0.2831
   27CHL1   H3' 1928   1.477   6.105  10.470  0.9980 -0.4989  1.0488
   27CHL1    C4 1929   1.565   6.091  10.262 -0.0994  0.4046 -0.7987
   27CHL1   H4A 1930   1.561   6.189  10.313 -1.6006 -0.4864  0.8962
   27CHL1   H4B 1931   1.645   6.034  10.313  2.0164 -0.0309 -4.2501
   27CHL1    C5 1932   1.596   6.089  10.114  0.1976  0.0253 -0.2946
   27CHL1    C6 1933   1.712   6.043  10.068  0.1444 -0.3240  0.2636
   27CHL1    H6 1934   1.785   6.005  10.141  0.8199 -1.5468 -1.0090
   27CHL1    C7 1935   1.750   6.032   9.926 -0.9710  0.2355 -0.2018
   27CHL1   H7A 1936   1.851   6.068   9.897 -2.2570  0.8011 -4.6468
   27CHL1   H7B 1937   1.742   5.924   9.899 -0.9237  0.2700 -0.3511
   27CHL1    C8 1938   1.658   6.108   9.836  0.4795  0.1151 -0.0211
   27CHL1    H8 1939   1.685   6.213   9.862 -1.5193  0.7190 -0.2195
   27CHL1   C14 1940   1.674   6.061   9.692  0.2328 -0.4720  0.4693
   27CHL1   H14 1941   1.650   5.953   9.679  4.1849 -1.3774 -0.6398
   27CHL1   C15 1942   1.820   6.043   9.636 -0.1918 -0.1747 -0.1092
   27CHL1  H15A 1943   1.881   6.132   9.661 -0.5616  0.0984 -0.1685
   27CHL1  H15B 1944   1.861   5.950   9.680  0.1692  0.0570  0.0427
   27CHL1   C16 1945   1.797   6.028   9.479 -0.4863  0.1970  0.5338
   27CHL1  H16A 1946   1.857   6.099   9.419 -0.1428 -0.6681 -0.1627
   27CHL1  H16B 1947   1.815   5.923   9.450 -1.7332 -0.7080  2.7491
   27CHL1   C17 1948   1.644   6.063   9.459  0.7826 -0.7876  0.6646
   27CHL1   H17 1949   1.599   5.962   9.450 -0.1531 -0.2155 -1.6458
   27CHL1   C13 1950   1.595   6.138   9.581  0.1195  0.0422  0.0232
   27CHL1   C18 1951   1.636   6.291   9.582  0.0710  0.2957 -0.1722
   27CHL1  H18A 1952   1.746   6.281   9.568 -0.0412 -1.1078 -0.2567
   27CHL1  H18B 1953   1.598   6.344   9.492  2.7432 -0.5353 -1.8936
   27CHL1  H18C 1954   1.622   6.341   9.680  2.0393  1.9403 -0.6760
   27CHL1   C12 1955   1.444   6.114   9.622 -0.4019  0.1278  0.8124
   27CHL1  H12A 1956   1.377   6.185   9.569 -2.3514 -1.3995  1.1544
   27CHL1  H12B 1957   1.424   6.006   9.608  2.2271 -0.3269 -0.1881
   27CHL1   C11 1958   1.422   6.161   9.766  1.1010 -0.0908 -0.2759
   27CHL1  H11A 1959   1.427   6.272   9.759  1.1057 -0.1107 -0.5936
   27CHL1  H11B 1960   1.317   6.138   9.793  0.3485  0.8095 -2.2326
   27CHL1    C9 1961   1.516   6.099   9.872 -0.2277 -0.2438 -0.1119
   27CHL1    H9 1962   1.495   5.990   9.865  0.2417 -0.2375 -2.1993
   27CHL1   C10 1963   1.479   6.126  10.022  0.4009 -0.6785  0.0280
   27CHL1   C19 1964   1.451   6.281  10.028 -0.5398  0.7505 -0.1508
   27CHL1  H19A 1965   1.448   6.309  10.136 -0.7899 -1.3217  0.4341
   27CHL1  H19B 1966   1.529   6.349   9.989  0.4961  0.0698  0.6736
   27CHL1  H19C 1967   1.359   6.300   9.968 -0.3666  0.0039 -0.6676
   27CHL1    C1 1968   1.349   6.052  10.076  0.4357 -0.4559 -0.3178
   27CHL1   H1A 1969   1.266   6.106  10.025 -0.4900 -1.5533 -0.0177
   27CHL1   H1B 1970   1.339   5.945  10.049  2.0265 -1.0945  1.3874
   27CHL1    C2 1971   1.320   6.053  10.227 -0.0008 -0.2886  0.4447
   27CHL1   H2A 1972   1.238   5.983  10.254  1.0782 -1.4524  0.8176
   27CHL1   H2B 1973   1.294   6.159  10.243  1.7336  0.3020 -0.3465
   27CHL1   C20 1974   1.613   6.131   9.318 -0.2187  0.5617 -0.2482
   27CHL1   H20 1975   1.655   6.234   9.315  0.7457  0.2030  0.4210
   27CHL1   C21 1976   1.461   6.137   9.306 -0.1898  0.6902 -0.4617
   27CHL1  H21A 1977   1.416   6.223   9.361 -1.3198  0.3469 -0.8200
   27CHL1  H21B 1978   1.411   6.047   9.346 -1.0301  1.1105 -0.5384
   27CHL1  H21C 1979   1.432   6.146   9.199 -0.5711 -0.9508 -0.5201
   27CHL1   C22 1980   1.668   6.046   9.205  0.5989 -0.3836 -0.7346
   27CHL1  H22A 1981   1.765   5.998   9.229  0.3041 -1.0513 -0.8501
   27CHL1  H22B 1982   1.597   5.961   9.191 -0.1764 -0.1985  1.6157
   27CHL1   C23 1983   1.688   6.117   9.072 -0.0525 -0.4117 -0.1959
   27CHL1  H23A 1984   1.590   6.145   9.027  1.0959 -0.8056 -3.1480
   27CHL1  H23B 1985   1.748   6.210   9.078 -1.7002  0.8264 -1.8650
   27CHL1   C24 1986   1.760   6.015   8.976  0.3186 -0.0310 -0.2522
   27CHL1  H24A 1987   1.848   5.973   9.029  1.6719 -0.9665 -3.0447
   27CHL1  H24B 1988   1.689   5.932   8.957  1.0787 -1.4344  2.5604
   27CHL1   C25 1989   1.813   6.065   8.842  0.2066  0.1793 -0.0983
   27CHL1   H25 1990   1.730   6.117   8.790  0.4279  0.2096 -0.4226
   27CHL1   C26 1991   1.925   6.169   8.858 -0.2054 -1.0318  0.1241
   27CHL1  H26A 1992   1.872   6.262   8.889 -0.1698 -0.8756 -0.2764
   27CHL1  H26B 1993   1.992   6.137   8.940 -3.7141 -0.6070  3.4439
   27CHL1  H26C 1994   1.976   6.182   8.760  0.3391 -4.6028 -0.1827
   27CHL1   C27 1995   1.862   5.940   8.767 -0.6468 -0.7980  0.9863
   27CHL1  H27A 1996   1.894   5.968   8.665  0.0515 -0.2130  1.3558
   27CHL1  H27B 1997   1.954   5.899   8.814  1.5143  0.0127 -2.2136
   27CHL1  H27C 1998   1.779   5.867   8.752 -0.8797  0.0205 -2.4143
   28CHL1    C3 1999   3.505   1.851  10.075 -0.0628  0.0459 -0.0255
   28CHL1    H3 2000   3.517   1.741  10.086 -0.5864 -0.1044 -0.9100
   28CHL1    O3 2001   3.455   1.891  10.201  0.3721 -0.2246 -0.2247
   28CHL1   H3' 2002   3.526   1.927  10.256 -1.5190  2.1153  0.8393
   28CHL1    C4 2003   3.641   1.917  10.059 -0.8968 -0.1395 -0.5356
   28CHL1   H4A 2004   3.650   2.026  10.076 -2.5062 -0.1434  0.6122
   28CHL1   H4B 2005   3.697   1.867  10.141 -0.4386 -1.7078 -1.7566
   28CHL1    C5 2006   3.704   1.882   9.929  0.1851 -0.4115 -0.2307
   28CHL1    C6 2007   3.824   1.817   9.928  0.0747  0.1485  0.7417
   28CHL1    H6 2008   3.877   1.809  10.024 -0.1347 -0.3351  0.8208
   28CHL1    C7 2009   3.897   1.790   9.798  0.4590 -0.1149 -0.0070
   28CHL1   H7A 2010   4.004   1.817   9.817  0.1333  0.8746  0.5361
   28CHL1   H7B 2011   3.904   1.684   9.767 -1.1167  0.4002 -2.3552
   28CHL1    C8 2012   3.834   1.851   9.674  0.3452 -0.6420 -0.3488
   28CHL1    H8 2013   3.858   1.959   9.677 -0.8306 -0.3754  1.5251
   28CHL1   C14 2014   3.886   1.781   9.548  0.9249  0.0383  0.1876
   28CHL1   H14 2015   3.842   1.679   9.541  1.4670 -0.1263 -0.9782
   28CHL1   C15 2016   4.038   1.769   9.540  0.4364 -0.0200  0.2226
   28CHL1  H15A 2017   4.084   1.868   9.561 -0.6684  0.1783  1.9538
   28CHL1  H15B 2018   4.056   1.684   9.609 -1.9486 -0.6362  0.1915
   28CHL1   C16 2019   4.050   1.743   9.394 -0.1787  0.3018  0.0229
   28CHL1  H16A 2020   4.131   1.801   9.346  0.7283 -0.4122  0.6513
   28CHL1  H16B 2021   4.084   1.638   9.385  0.6048  0.4797  0.7436
   28CHL1   C17 2022   3.922   1.772   9.314 -0.1990  0.0236 -0.0141
   28CHL1   H17 2023   3.873   1.674   9.295 -0.4398  0.1002  0.2033
   28CHL1   C13 2024   3.832   1.850   9.420  0.4467  0.4502  0.7718
   28CHL1   C18 2025   3.871   2.002   9.411 -0.2900  0.0615  0.3399
   28CHL1  H18A 2026   3.831   2.064   9.329 -1.9586  1.7926  2.3456
   28CHL1  H18B 2027   3.855   2.050   9.510  0.9440  1.0471  0.0920
   28CHL1  H18C 2028   3.982   2.005   9.406 -0.2932 -0.3692 -0.0955
   28CHL1   C12 2029   3.680   1.814   9.413  0.2275 -0.0603 -0.6015
   28CHL1  H12A 2030   3.636   1.868   9.326  1.4133  1.6252 -0.2020
   28CHL1  H12B 2031   3.668   1.704   9.413 -0.9528  0.0126  1.8573
   28CHL1   C11 2032   3.604   1.865   9.538  0.7052 -0.1879  0.1501
   28CHL1  H11A 2033   3.607   1.976   9.532 -0.7437 -0.0327  1.5224
   28CHL1  H11B 2034   3.503   1.820   9.529  1.0883 -1.0573  0.0611
   28CHL1    C9 2035   3.677   1.837   9.675 -1.1363  0.7645  0.3504
   28CHL1    H9 2036   3.657   1.729   9.688 -2.3715  1.0969  1.3295
   28CHL1   C10 2037   3.614   1.904   9.801  0.0747  0.1421  0.7506
   28CHL1   C19 2038   3.601   2.054   9.770  0.6252 -0.0929 -0.2384
   28CHL1  H19A 2039   3.694   2.106   9.738  0.7237  1.1554  1.8479
   28CHL1  H19B 2040   3.519   2.065   9.696  0.3402 -0.4718  0.0160
   28CHL1  H19C 2041   3.557   2.114   9.853 -0.1339 -1.0921  0.1007
   28CHL1    C1 2042   3.474   1.847   9.818 -0.1433  0.3134  0.3486
   28CHL1   H1A 2043   3.402   1.871   9.736 -0.6855 -2.2877 -0.0427
   28CHL1   H1B 2044   3.492   1.737   9.811  1.0580  0.6086 -2.2293
   28CHL1    C2 2045   3.411   1.869   9.954 -0.0952 -0.2714 -0.2768
   28CHL1   H2A 2046   3.327   1.796   9.955  0.9439 -1.5199 -0.3878
   28CHL1   H2B 2047   3.371   1.972   9.951 -0.3296 -0.3835 -1.4818
   28CHL1   C20 2048   3.942   1.835   9.174  0.3573  0.4527 -0.1719
   28CHL1   H20 2049   3.992   1.933   9.187 -1.0290  1.1022  0.5185
   28CHL1   C21 2050   3.804   1.865   9.109  0.0694  0.8613  0.1150
   28CHL1  H21A 2051   3.744   1.771   9.107  0.5083  0.5692  0.3530
   28CHL1  H21B 2052   3.814   1.900   9.004  1.7437  2.9548  0.8883
   28CHL1  H21C 2053   3.757   1.939   9.178 -1.7369 -0.2463  0.1310
   28CHL1   C22 2054   4.027   1.753   9.075  0.0861 -0.2368 -0.0261
   28CHL1  H22A 2055   4.128   1.718   9.107  0.5626 -0.1674 -1.3876
   28CHL1  H22B 2056   3.965   1.662   9.065  0.9170 -1.1262  2.1457
   28CHL1   C23 2057   4.066   1.827   8.946  0.3314 -0.0284  0.4590
   28CHL1  H23A 2058   3.991   1.806   8.866  0.7126  0.1751  0.0417
   28CHL1  H23B 2059   4.074   1.935   8.970  2.4173  0.0824 -0.5272
   28CHL1   C24 2060   4.189   1.770   8.865 -0.3582  0.9118 -0.2706
   28CHL1  H24A 2061   4.281   1.785   8.926 -0.5249  0.9940 -0.0422
   28CHL1  H24B 2062   4.163   1.665   8.843 -2.3948  1.0758  1.1317
   28CHL1   C25 2063   4.224   1.841   8.730 -0.2585 -0.0431  0.7837
   28CHL1   H25 2064   4.224   1.949   8.753  0.8320  0.9831 -3.2404
   28CHL1   C26 2065   4.364   1.788   8.687 -0.5434 -0.0194 -0.4364
   28CHL1  H26A 2066   4.400   1.841   8.597  0.0187  0.0116 -0.1981
   28CHL1  H26B 2067   4.428   1.816   8.774 -2.7030  1.4379  0.7830
   28CHL1  H26C 2068   4.380   1.678   8.676  0.7679 -0.1215  1.8493
   28CHL1   C27 2069   4.135   1.811   8.616 -0.4430 -0.0465 -0.4623
   28CHL1  H27A 2070   4.137   1.707   8.577 -0.3877 -0.2828  0.1523
   28CHL1  H27B 2071   4.031   1.849   8.628 -0.1144  0.7535 -0.0804
   28CHL1  H27C 2072   4.158   1.876   8.529 -0.6348 -0.2430 -0.6607
   29CHL1    C3 2073   5.265   2.616   6.440 -0.5003 -0.6935  0.6350
   29CHL1    H3 2074   5.173   2.557   6.460 -2.2783  0.5143 -3.0445
   29CHL1    O3 2075   5.288   2.595   6.301 -0.5060  0.1721 -0.1631
   29CHL1   H3' 2076   5.380   2.622   6.297 -0.4479  0.3224  1.4414
   29CHL1    C4 2077   5.248   2.767   6.469 -0.0350  0.4495  0.5258
   29CHL1   H4A 2078   5.340   2.812   6.427 -0.0081 -0.7708 -0.7985
   29CHL1   H4B 2079   5.155   2.802   6.420 -0.4730  0.8935  1.6379
   29CHL1    C5 2080   5.216   2.789   6.612  0.1288 -0.6191  0.6185
   29CHL1    C6 2081   5.107   2.847   6.665  0.2641  0.0114  0.1921
   29CHL1    H6 2082   5.024   2.870   6.597  0.4045  1.7667  0.5799
   29CHL1    C7 2083   5.079   2.879   6.812  0.1135 -0.0144 -0.5082
   29CHL1   H7A 2084   5.048   2.985   6.814 -3.3307 -0.8252 -2.6670
   29CHL1   H7B 2085   5.000   2.810   6.851  2.8253 -1.6721  2.5943
   29CHL1    C8 2086   5.206   2.869   6.901 -0.6166  0.4759 -0.4208
   29CHL1    H8 2087   5.266   2.960   6.882 -0.1701  0.4149  0.6152
   29CHL1   C14 2088   5.182   2.867   7.050  0.8668  0.2338 -0.0870
   29CHL1   H14 2089   5.122   2.775   7.067  1.3503  0.1490  1.2538
   29CHL1   C15 2090   5.091   2.982   7.090  0.0977 -0.4227 -0.2567
   29CHL1  H15A 2091   5.123   3.080   7.050  0.0476  0.1361  1.0261
   29CHL1  H15B 2092   4.989   2.966   7.050  0.7580  1.6188 -3.0072
   29CHL1   C16 2093   5.105   2.989   7.246 -0.2342  0.0798  0.4821
   29CHL1  H16A 2094   5.129   3.090   7.286 -1.8456  0.2295  1.1432
   29CHL1  H16B 2095   5.004   2.962   7.281  0.1624 -1.5404  0.4679
   29CHL1   C17 2096   5.217   2.884   7.277  0.3130 -0.3695  0.0269
   29CHL1   H17 2097   5.153   2.795   7.293 -0.3943  0.2927  1.1058
   29CHL1   C13 2098   5.296   2.863   7.150  0.5486  0.0410  0.8636
   29CHL1   C18 2099   5.396   2.978   7.136 -0.0921 -0.5711  0.0271
   29CHL1  H18A 2100   5.343   3.075   7.149 -2.2982 -1.9730  2.6020
   29CHL1  H18B 2101   5.469   2.967   7.219  0.3868  2.6432  0.1412
   29CHL1  H18C 2102   5.446   2.983   7.036  1.1467 -0.6943  0.6177
   29CHL1   C12 2103   5.355   2.725   7.118  0.5085 -0.7960  0.6073
   29CHL1  H12A 2104   5.446   2.699   7.177  0.3483 -2.3847  0.1883
   29CHL1  H12B 2105   5.284   2.642   7.137 -0.6309  0.5396  2.5373
   29CHL1   C11 2106   5.399   2.721   6.970 -0.9998 -0.0719 -0.2151
   29CHL1  H11A 2107   5.490   2.784   6.957 -1.5969  0.8574  0.0882
   29CHL1  H11B 2108   5.440   2.620   6.949  1.3959  0.9273 -0.7735
   29CHL1    C9 2109   5.286   2.747   6.865 -0.1994  0.1630 -0.1144
   29CHL1    H9 2110   5.218   2.660   6.879  1.4083 -0.8743  1.8490
   29CHL1   C10 2111   5.323   2.733   6.709 -0.0642 -0.5906  0.0683
   29CHL1   C19 2112   5.446   2.822   6.688  0.1815 -0.1584  0.3486
   29CHL1  H19A 2113   5.470   2.836   6.580 -1.3063  0.6856  0.0910
   29CHL1  H19B 2114   5.438   2.915   6.749  0.8327  1.8986 -2.5035
   29CHL1  H19C 2115   5.537   2.774   6.729  0.4235  0.1787  0.2110
   29CHL1    C1 2116   5.348   2.589   6.677 -0.1918  0.5655 -0.2050
   29CHL1   H1A 2117   5.440   2.555   6.729 -0.2676 -0.1318 -0.5149
   29CHL1   H1B 2118   5.262   2.531   6.718 -0.5745  1.5378  0.4030
   29CHL1    C2 2119   5.377   2.558   6.532 -0.4539  0.1666  0.8745
   29CHL1   H2A 2120   5.396   2.449   6.518 -1.2886  0.3691 -2.7846
   29CHL1   H2B 2121   5.477   2.604   6.515  0.3930 -2.1672 -1.0373
   29CHL1   C20 2122   5.279   2.896   7.419 -0.0728 -0.2750 -0.4003
   29CHL1   H20 2123   5.345   2.985   7.422 -0.7241  0.1725  1.3851
   29CHL1   C21 2124   5.358   2.770   7.439  0.2663 -0.0447 -0.0194
   29CHL1  H21A 2125   5.436   2.744   7.364 -1.6595 -2.7580 -1.2294
   29CHL1  H21B 2126   5.287   2.685   7.447  2.6946 -2.0540  1.8307
   29CHL1  H21C 2127   5.420   2.787   7.530  2.5598 -0.9651 -1.3259
   29CHL1   C22 2128   5.167   2.908   7.529 -0.2515 -0.0449 -0.0129
   29CHL1  H22A 2129   5.110   3.002   7.514 -1.0304 -0.5839 -0.5887
   29CHL1  H22B 2130   5.103   2.817   7.524 -1.2378  0.5949  0.5417
   29CHL1   C23 2131   5.225   2.912   7.672 -0.3299 -0.2622 -0.6965
   29CHL1  H23A 2132   5.264   2.813   7.703 -3.8690 -1.1422  1.5938
   29CHL1  H23B 2133   5.306   2.986   7.692  0.8503 -2.2610  2.9853
   29CHL1   C24 2134   5.106   2.936   7.766  0.4506 -0.3360  0.3123
   29CHL1  H24A 2135   5.075   3.043   7.758  2.3564  0.2547  0.2929
   29CHL1  H24B 2136   5.019   2.870   7.747  2.6285 -2.9438 -1.4219
   29CHL1   C25 2137   5.132   2.921   7.917 -0.1602  0.0374  0.0728
   29CHL1   H25 2138   5.164   2.820   7.949 -0.7974 -0.0214  0.5561
   29CHL1   C26 2139   5.234   3.030   7.959 -0.2165  0.4982  0.7937
   29CHL1  H26A 2140   5.216   3.123   7.902  2.0713 -0.0005 -0.8811
   29CHL1  H26B 2141   5.241   3.047   8.069  2.9365 -0.8057  0.8975
   29CHL1  H26C 2142   5.340   3.010   7.931  0.2466  1.8529  1.4961
   29CHL1   C27 2143   5.000   2.950   7.983 -0.0306  0.1389 -0.4061
   29CHL1  H27A 2144   4.967   3.056   7.976  2.9737  1.3020  1.2124
   29CHL1  H27B 2145   4.921   2.890   7.933  0.2671 -0.9396  0.4065
   29CHL1  H27C 2146   5.012   2.939   8.093  0.1971 -1.3511 -0.5657
   30CHL1    C3 2147   2.592   2.556   7.204  0.0320 -0.7721 -0.1614
   30CHL1    H3 2148   2.642   2.479   7.267  0.2324 -1.6428 -1.3540
   30CHL1    O3 2149   2.634   2.539   7.071  0.2475  0.1136  0.0227
   30CHL1   H3' 2150   2.605   2.620   7.028 -0.3768 -0.5546 -0.8617
   30CHL1    C4 2151   2.444   2.517   7.230 -0.0838  0.4301 -0.5553
   30CHL1   H4A 2152   2.375   2.555   7.152 -1.8295 -2.1194 -0.3783
   30CHL1   H4B 2153   2.436   2.407   7.214 -0.1231  0.2345  0.6740
   30CHL1    C5 2154   2.382   2.557   7.368 -0.6294 -0.1954 -0.0776
   30CHL1    C6 2155   2.328   2.463   7.450 -0.6251  0.0224 -0.2001
   30CHL1    H6 2156   2.306   2.366   7.404 -1.8172  0.8107 -1.3702
   30CHL1    C7 2157   2.287   2.480   7.591  0.0308 -0.3955 -0.5707
   30CHL1   H7A 2158   2.190   2.430   7.614  0.1058  0.5191  2.0895
   30CHL1   H7B 2159   2.352   2.419   7.656  0.3606  1.3769  0.8670
   30CHL1    C8 2160   2.275   2.630   7.625 -0.0106 -0.5703  0.3613
   30CHL1    H8 2161   2.185   2.671   7.574  0.3165  1.5479  1.4101
   30CHL1   C14 2162   2.257   2.647   7.775 -0.3297  0.4536 -0.5350
   30CHL1   H14 2163   2.345   2.597   7.822 -1.2557 -0.9117 -0.1676
   30CHL1   C15 2164   2.143   2.576   7.842  0.3289  0.3473  0.5994
   30CHL1  H15A 2165   2.048   2.600   7.790 -0.3805  0.3506  1.8505
   30CHL1  H15B 2166   2.153   2.465   7.839 -0.0068  0.3329 -1.9961
   30CHL1   C16 2167   2.116   2.651   7.978 -0.8925  0.6364 -0.2676
   30CHL1  H16A 2168   2.007   2.672   7.975 -1.2101 -1.0058 -1.7571
   30CHL1  H16B 2169   2.142   2.588   8.066 -1.0969  0.3556 -0.4032
   30CHL1   C17 2170   2.216   2.772   7.978  0.2431 -0.1771 -0.3677
   30CHL1   H17 2171   2.310   2.739   8.028  0.2736 -0.2742 -0.4880
   30CHL1   C13 2172   2.250   2.793   7.827 -1.1324  0.3657 -0.5619
   30CHL1   C18 2173   2.127   2.860   7.761 -0.0284  0.2551  0.1884
   30CHL1  H18A 2174   2.128   2.868   7.650 -1.2555 -1.6471 -0.0136
   30CHL1  H18B 2175   2.027   2.819   7.787 -1.2502  2.2125 -1.1519
   30CHL1  H18C 2176   2.124   2.965   7.798  2.9155  0.8391 -1.0124
   30CHL1   C12 2177   2.382   2.859   7.791 -0.0979  0.2854  0.2098
   30CHL1  H12A 2178   2.371   2.961   7.832  1.6352  0.7612 -0.3881
   30CHL1  H12B 2179   2.462   2.799   7.840  1.3047  0.2924 -1.8862
   30CHL1   C11 2180   2.406   2.861   7.635 -0.0598 -0.3101 -0.6731
   30CHL1  H11A 2181   2.341   2.933   7.581 -1.6073 -0.8804  0.3922
   30CHL1  H11B 2182   2.510   2.896   7.620 -0.2731  0.9421  0.5826
   30CHL1    C9 2183   2.394   2.715   7.576  1.0534  0.5387 -0.2122
   30CHL1    H9 2184   2.479   2.660   7.621 -0.0187 -1.4959 -0.5531
   30CHL1   C10 2185   2.415   2.700   7.418  0.0459  0.0742 -0.4365
   30CHL1   C19 2186   2.332   2.803   7.349  0.7049  0.3787  0.3675
   30CHL1  H19A 2187   2.366   2.907   7.368 -1.8614  1.4278 -0.2918
   30CHL1  H19B 2188   2.339   2.809   7.238  0.7854 -0.8654  0.2931
   30CHL1  H19C 2189   2.228   2.793   7.387  0.4595 -0.9162 -0.5833
   30CHL1    C1 2190   2.563   2.720   7.393 -0.0241 -0.0630  0.4887
   30CHL1   H1A 2191   2.602   2.820   7.424  0.3271 -0.3628  1.0353
   30CHL1   H1B 2192   2.622   2.656   7.463 -0.5005  1.1372  2.0619
   30CHL1    C2 2193   2.615   2.703   7.246  0.4733 -0.3269 -0.9526
   30CHL1   H2A 2194   2.726   2.710   7.239  0.8090 -1.2330  1.8405
   30CHL1   H2B 2195   2.563   2.771   7.175 -1.5283  1.0568  1.6359
   30CHL1   C20 2196   2.171   2.895   8.067  0.4422  0.7723  0.4665
   30CHL1   H20 2197   2.069   2.915   8.027 -0.0775  0.7498  1.7574
   30CHL1   C21 2198   2.267   3.016   8.061 -0.4256 -0.3679  0.3218
   30CHL1  H21A 2199   2.282   3.060   7.960  0.7623  0.9213  1.0215
   30CHL1  H21B 2200   2.369   2.985   8.094  0.0361  0.9872  0.2153
   30CHL1  H21C 2201   2.239   3.095   8.134 -1.2967 -0.7516  0.4066
   30CHL1   C22 2202   2.147   2.851   8.213 -0.1536 -0.4868  0.5587
   30CHL1  H22A 2203   2.093   2.755   8.221 -0.9109 -0.1117  0.1075
   30CHL1  H22B 2204   2.250   2.832   8.250 -0.3147 -1.2204  0.6427
   30CHL1   C23 2205   2.065   2.958   8.291  1.1015 -0.4129  0.2938
   30CHL1  H23A 2206   2.118   3.055   8.299  0.8648 -0.2407 -0.2067
   30CHL1  H23B 2207   1.980   2.982   8.224  0.3037 -2.2464  0.5815
   30CHL1   C24 2208   2.008   2.911   8.427  0.4759  0.3832  0.0430
   30CHL1  H24A 2209   1.948   2.987   8.483 -2.1438 -2.3093  1.1439
   30CHL1  H24B 2210   1.943   2.826   8.399 -0.7788  1.6375 -1.0527
   30CHL1   C25 2211   2.115   2.866   8.532 -0.2650  0.2183 -1.3847
   30CHL1   H25 2212   2.185   2.793   8.487 -2.5787 -3.5935  0.6624
   30CHL1   C26 2213   2.198   2.981   8.585 -0.0454  0.3996 -0.1237
   30CHL1  H26A 2214   2.279   3.005   8.513  0.6199 -0.5966  0.2714
   30CHL1  H26B 2215   2.144   3.077   8.600 -1.0486 -0.2486  0.5544
   30CHL1  H26C 2216   2.241   2.951   8.682 -1.0801 -1.4076 -0.1691
   30CHL1   C27 2217   2.045   2.785   8.657 -0.6358  1.4517 -0.0268
   30CHL1  H27A 2218   2.117   2.736   8.726 -1.2907  1.6924  0.8430
   30CHL1  H27B 2219   1.997   2.859   8.724  1.0102  2.0678  0.5130
   30CHL1  H27C 2220   1.977   2.703   8.622  0.8185  0.0577  0.3094
   31CHL1    C3 2221   0.381   5.803   6.907  0.1908 -0.4017  0.6307
   31CHL1    H3 2222   0.460   5.842   6.975  0.9711  0.6112 -0.7892
   31CHL1    O3 2223   0.430   5.817   6.770  0.0493 -0.2201  0.2419
   31CHL1   H3' 2224   0.494   5.746   6.757  2.3894  1.8124 -0.0996
   31CHL1    C4 2225   0.344   5.663   6.945  0.2203  0.8358  0.0522
   31CHL1   H4A 2226   0.248   5.631   6.897  1.5420  0.6598 -2.6683
   31CHL1   H4B 2227   0.426   5.593   6.919  0.1940  2.1909 -4.6726
   31CHL1    C5 2228   0.315   5.647   7.092 -0.7881 -0.2658  0.1000
   31CHL1    C6 2229   0.390   5.576   7.177 -0.4788  0.3611  0.5123
   31CHL1    H6 2230   0.481   5.531   7.136 -0.2066  2.2329 -1.0764
   31CHL1    C7 2231   0.354   5.546   7.320  0.0283 -0.1846  0.2113
   31CHL1   H7A 2232   0.336   5.439   7.344 -3.1076  0.3943  0.8873
   31CHL1   H7B 2233   0.441   5.584   7.378  0.0103  0.8422 -0.4172
   31CHL1    C8 2234   0.220   5.615   7.365 -0.6713  0.2901 -0.3112
   31CHL1    H8 2235   0.146   5.546   7.319 -1.3509  0.4611  0.5060
   31CHL1   C14 2236   0.209   5.621   7.520 -1.1997  0.3205  0.3360
   31CHL1   H14 2237   0.284   5.698   7.546 -0.5490 -1.0238  2.6540
   31CHL1   C15 2238   0.243   5.495   7.607 -0.2055  0.0587  0.4685
   31CHL1  H15A 2239   0.186   5.413   7.558 -0.0854 -0.5225  1.2862
   31CHL1  H15B 2240   0.353   5.488   7.601 -0.1002  2.1016 -2.9927
   31CHL1   C16 2241   0.181   5.543   7.736  0.0899  0.1168 -0.4805
   31CHL1  H16A 2242   0.110   5.464   7.769  0.5088  0.3294  0.9994
   31CHL1  H16B 2243   0.254   5.544   7.819  0.0120  3.1496 -0.3258
   31CHL1   C17 2244   0.096   5.671   7.710 -0.4649 -0.6117 -0.9340
   31CHL1   H17 2245   0.153   5.760   7.746  0.2273 -1.6181  0.5445
   31CHL1   C13 2246   0.073   5.676   7.556 -0.0861  0.0018 -0.4827
   31CHL1   C18 2247  -0.043   5.589   7.509 -0.7093 -0.0703  0.8281
   31CHL1  H18A 2248  -0.136   5.626   7.557 -1.1456 -1.2122  0.8960
   31CHL1  H18B 2249  -0.059   5.584   7.399  0.0693  0.6124  0.6782
   31CHL1  H18C 2250  -0.019   5.490   7.555  3.5619 -1.1939 -3.1221
   31CHL1   C12 2251   0.069   5.815   7.502 -0.7977  0.6131  0.7088
   31CHL1  H12A 2252  -0.031   5.857   7.529 -0.6994  0.8445  0.7176
   31CHL1  H12B 2253   0.146   5.882   7.545 -0.2050 -0.8796  2.0548
   31CHL1   C11 2254   0.069   5.824   7.350 -0.0955  0.7209 -0.2495
   31CHL1  H11A 2255  -0.025   5.787   7.305  0.1286 -0.3989  0.1576
   31CHL1  H11B 2256   0.087   5.931   7.325 -1.2954  0.6013 -1.7785
   31CHL1    C9 2257   0.194   5.751   7.295 -0.4432 -0.6479  0.1066
   31CHL1    H9 2258   0.277   5.815   7.331 -0.1170 -2.8796  3.8404
   31CHL1   C10 2259   0.192   5.735   7.136  0.4452 -0.0747 -0.1560
   31CHL1   C19 2260   0.057   5.673   7.079 -0.6185  0.3305 -0.7269
   31CHL1  H19A 2261   0.066   5.567   7.109  2.4698  1.3426  2.6969
   31CHL1  H19B 2262  -0.040   5.716   7.112 -0.1678  0.2369  0.7882
   31CHL1  H19C 2263   0.054   5.692   6.969  0.0412  1.0915 -0.6248
   31CHL1    C1 2264   0.211   5.879   7.075  0.1789 -1.5672 -0.0692
   31CHL1   H1A 2265   0.116   5.933   7.095  0.7933 -0.1980 -0.7186
   31CHL1   H1B 2266   0.291   5.925   7.136 -0.0587 -0.4882 -0.5480
   31CHL1    C2 2267   0.256   5.896   6.928 -0.6566  1.0199  0.0000
   31CHL1   H2A 2268   0.271   6.003   6.902 -0.1427  0.5655 -1.6711
   31CHL1   H2B 2269   0.174   5.848   6.870 -2.4966  0.1023  3.1140
   31CHL1   C20 2270  -0.029   5.678   7.804 -0.1568 -0.3785  0.0906
   31CHL1   H20 2271  -0.087   5.586   7.781  0.4000 -1.0291  1.1791
   31CHL1   C21 2272  -0.110   5.805   7.775 -0.1347  0.3465 -0.1418
   31CHL1  H21A 2273  -0.148   5.804   7.671  1.4073 -0.0178 -0.7234
   31CHL1  H21B 2274  -0.042   5.892   7.789  0.8361 -0.8605  4.1288
   31CHL1  H21C 2275  -0.191   5.815   7.851  0.3837  2.2020  0.2155
   31CHL1   C22 2276   0.005   5.655   7.952  0.0229 -0.4126 -0.7487
   31CHL1  H22A 2277   0.049   5.555   7.971 -2.8946 -1.1767  3.2878
   31CHL1  H22B 2278   0.069   5.735   7.995 -0.9023  0.6069 -1.1993
   31CHL1   C23 2279  -0.113   5.652   8.052 -0.4674  0.1530  0.2683
   31CHL1  H23A 2280  -0.174   5.745   8.046  1.5213  1.4857 -0.1719
   31CHL1  H23B 2281  -0.182   5.571   8.018  0.2368  0.1387 -1.2138
   31CHL1   C24 2282  -0.054   5.625   8.192 -0.2380  0.1912  0.0132
   31CHL1  H24A 2283   0.005   5.532   8.178  0.6404  0.5576  1.1397
   31CHL1  H24B 2284   0.023   5.697   8.227  1.5500 -1.9790  0.8215
   31CHL1   C25 2285  -0.168   5.587   8.295  0.2282 -0.4725 -0.5387
   31CHL1   H25 2286  -0.229   5.506   8.250  0.6904 -2.2070  1.7859
   31CHL1   C26 2287  -0.111   5.528   8.428 -0.4661 -0.5323 -0.5068
   31CHL1  H26A 2288  -0.192   5.507   8.501 -0.3071 -0.0919 -0.2026
   31CHL1  H26B 2289  -0.058   5.433   8.405 -2.1866 -1.1687 -2.0818
   31CHL1  H26C 2290  -0.045   5.606   8.471 -2.2850  0.9172 -0.2115
   31CHL1   C27 2291  -0.265   5.702   8.318  0.8262 -0.5872  0.2144
   31CHL1  H27A 2292  -0.341   5.675   8.395 -1.2870  0.4255 -1.4082
   31CHL1  H27B 2293  -0.330   5.712   8.229 -0.1448  0.8364  1.0573
   31CHL1  H27C 2294  -0.203   5.792   8.337  0.3219 -0.0337 -0.6948
   32CHL1    C3 2295   4.039   4.031   6.757  0.3140  0.2162  0.5365
   32CHL1    H3 2296   4.148   4.050   6.771  0.2328  2.3084 -1.1288
   32CHL1    O3 2297   4.001   4.041   6.618  0.3544  0.0902 -0.4141
   32CHL1   H3' 2298   3.968   4.129   6.599  0.6701  0.6433  1.3449
   32CHL1    C4 2299   4.022   3.881   6.796 -0.0381  0.3043 -0.1908
   32CHL1   H4A 2300   3.927   3.846   6.750  0.2940  0.7755 -1.2455
   32CHL1   H4B 2301   4.094   3.815   6.743 -0.3656 -0.7652  0.6646
   32CHL1    C5 2302   4.027   3.855   6.943  0.1351  0.2319  0.4752
   32CHL1    C6 2303   4.084   3.736   6.984  0.6800  0.4996 -0.0851
   32CHL1    H6 2304   4.112   3.657   6.913  1.1304 -0.0849  0.7319
   32CHL1    C7 2305   4.100   3.698   7.131  0.1386 -0.2017 -0.4603
   32CHL1   H7A 2306   4.067   3.593   7.146 -0.2206 -0.6306 -3.5576
   32CHL1   H7B 2307   4.203   3.714   7.171 -0.0189  1.7797 -0.7347
   32CHL1    C8 2308   4.009   3.784   7.225  0.0159 -0.0192 -0.5776
   32CHL1    H8 2309   3.902   3.752   7.222  0.4014 -1.4592  0.0756
   32CHL1   C14 2310   4.066   3.773   7.368  0.3242 -0.6191 -0.1066
   32CHL1   H14 2311   4.164   3.826   7.371  0.0439 -0.1385  1.3069
   32CHL1   C15 2312   4.099   3.633   7.422  0.9977 -0.1175 -0.2455
   32CHL1  H15A 2313   4.019   3.564   7.387  1.8203 -0.6021 -1.2161
   32CHL1  H15B 2314   4.199   3.603   7.383  1.2261  0.8117 -0.4007
   32CHL1   C16 2315   4.102   3.659   7.571 -0.6352 -1.0246 -0.3090
   32CHL1  H16A 2316   4.028   3.594   7.622 -1.6015  0.6644  0.5277
   32CHL1  H16B 2317   4.198   3.637   7.623 -1.1673 -0.7263  0.8349
   32CHL1   C17 2318   4.059   3.805   7.599  0.1203  0.2413 -0.4936
   32CHL1   H17 2319   4.152   3.865   7.597  1.7943 -2.2217 -0.2821
   32CHL1   C13 2320   3.980   3.843   7.471 -0.8210  0.3129 -0.0185
   32CHL1   C18 2321   3.842   3.780   7.484 -0.2793  0.3804  0.8769
   32CHL1  H18A 2322   3.787   3.804   7.390 -0.8309  1.9460  1.5761
   32CHL1  H18B 2323   3.849   3.671   7.505  2.7981  0.3939  0.3716
   32CHL1  H18C 2324   3.781   3.822   7.567 -3.4504  0.8021 -1.4667
   32CHL1   C12 2325   3.982   3.996   7.433  0.5274  0.0765  0.2506
   32CHL1  H12A 2326   3.914   4.054   7.498 -0.6598 -2.3846  1.3250
   32CHL1  H12B 2327   4.087   4.031   7.443  0.8792 -1.3463  1.9513
   32CHL1   C11 2328   3.934   4.016   7.285  0.0625  0.0169 -0.8519
   32CHL1  H11A 2329   3.825   4.000   7.274  0.2236 -0.9674 -1.1090
   32CHL1  H11B 2330   3.958   4.124   7.274 -0.7688  0.4857  1.3788
   32CHL1    C9 2331   4.014   3.931   7.184 -0.4614  0.4586  0.1423
   32CHL1    H9 2332   4.122   3.956   7.193 -0.2264  0.6948 -2.4391
   32CHL1   C10 2333   3.971   3.957   7.039  0.0329  0.4074 -0.4626
   32CHL1   C19 2334   3.815   3.917   7.028 -0.2131  0.7976  0.8043
   32CHL1  H19A 2335   3.798   3.820   7.080 -1.2015 -0.2886 -1.4184
   32CHL1  H19B 2336   3.755   4.003   7.066 -2.2483 -0.2370  0.0898
   32CHL1  H19C 2337   3.783   3.900   6.923  0.7992 -1.1631  0.7782
   32CHL1    C1 2338   3.994   4.096   6.995 -0.0225  0.4465  0.0804
   32CHL1   H1A 2339   3.935   4.166   7.058 -0.0024  0.7922 -0.2810
   32CHL1   H1B 2340   4.104   4.112   7.001 -0.2734  2.0425  0.7557
   32CHL1    C2 2341   3.959   4.131   6.848  0.6048  0.0366  0.0495
   32CHL1   H2A 2342   3.989   4.234   6.819 -0.1341 -0.1491 -1.4220
   32CHL1   H2B 2343   3.850   4.124   6.829  0.3390  1.3646  0.8980
   32CHL1   C20 2344   3.993   3.827   7.741 -0.3526  0.4413  0.9358
   32CHL1   H20 2345   3.911   3.753   7.753  0.0450 -0.0594  0.5865
   32CHL1   C21 2346   3.948   3.972   7.757 -0.0274  1.0670  0.2154
   32CHL1  H21A 2347   3.928   3.982   7.866  2.4831 -2.0356  1.1491
   32CHL1  H21B 2348   3.859   3.990   7.694 -0.2863  1.5158  0.6996
   32CHL1  H21C 2349   4.031   4.040   7.728  0.9888 -0.9478 -2.0117
   32CHL1   C22 2350   4.088   3.795   7.853  0.1428 -0.8719 -0.4213
   32CHL1  H22A 2351   4.132   3.696   7.828  2.1245 -0.3574  0.7821
   32CHL1  H22B 2352   4.172   3.868   7.857  0.6194 -1.1481 -3.2736
   32CHL1   C23 2353   4.012   3.778   7.991  0.2009  0.1371  1.0308
   32CHL1  H23A 2354   3.937   3.856   8.014  0.5765  0.6746  0.4632
   32CHL1  H23B 2355   3.970   3.675   7.983  4.3367 -1.8447  1.6713
   32CHL1   C24 2356   4.118   3.777   8.104 -0.1615  0.2216  0.6326
   32CHL1  H24A 2357   4.205   3.718   8.070 -2.6863 -2.3317 -1.9828
   32CHL1  H24B 2358   4.156   3.882   8.106 -0.7076  0.4577 -0.3920
   32CHL1   C25 2359   4.079   3.735   8.249 -0.1206  0.2476 -0.2316
   32CHL1   H25 2360   4.040   3.631   8.246 -1.0723  0.5886  0.0952
   32CHL1   C26 2361   4.187   3.754   8.365  0.3549  0.5437  0.9533
   32CHL1  H26A 2362   4.150   3.721   8.464  0.6564  0.4153  1.0242
   32CHL1  H26B 2363   4.273   3.687   8.342 -0.3191 -0.0833  0.2247
   32CHL1  H26C 2364   4.217   3.861   8.379  2.2286 -0.0251  1.6383
   32CHL1   C27 2365   3.962   3.825   8.288  0.1135 -0.0399  0.0284
   32CHL1  H27A 2366   3.994   3.931   8.285  0.8106 -0.2038  1.0127
   32CHL1  H27B 2367   3.887   3.805   8.209 -1.5475 -2.4614  2.0331
   32CHL1  H27C 2368   3.921   3.797   8.388 -0.7551 -1.8152 -0.7807
   33CHL1    C3 2369   4.938   3.406   6.707  0.0140 -0.1791 -0.1777
   33CHL1    H3 2370   4.920   3.322   6.778  0.4788 -0.1056  0.0313
   33CHL1    O3 2371   4.974   3.355   6.577  0.6045  0.4886  0.4214
   33CHL1   H3' 2372   5.008   3.428   6.525 -0.3872  0.5094 -0.2196
   33CHL1    C4 2373   4.808   3.499   6.696 -0.1925  0.6203 -0.2874
   33CHL1   H4A 2374   4.818   3.592   6.635  0.1812  1.0855  0.4682
   33CHL1   H4B 2375   4.734   3.436   6.642  2.1072 -3.8778  1.2686
   33CHL1    C5 2376   4.761   3.540   6.834  0.7418  1.2515  0.3813
   33CHL1    C6 2377   4.638   3.514   6.883  0.7456 -0.4737  0.0939
   33CHL1    H6 2378   4.563   3.472   6.815  1.1524  1.8225 -1.9086
   33CHL1    C7 2379   4.594   3.567   7.018 -0.3935 -0.3491  0.3301
   33CHL1   H7A 2380   4.495   3.617   7.012  0.1975  0.7420 -0.7813
   33CHL1   H7B 2381   4.581   3.469   7.070 -1.1102 -0.4767 -0.0766
   33CHL1    C8 2382   4.689   3.665   7.085  0.0157  0.0713 -0.7608
   33CHL1    H8 2383   4.673   3.763   7.035  0.2893  1.0957  1.0850
   33CHL1   C14 2384   4.656   3.652   7.239 -0.1912  0.3340  0.0568
   33CHL1   H14 2385   4.676   3.548   7.274 -2.4888  0.1013  0.8539
   33CHL1   C15 2386   4.507   3.664   7.280 -0.0730 -0.1067 -0.6331
   33CHL1  H15A 2387   4.460   3.754   7.234  0.0030 -0.2154 -0.9317
   33CHL1  H15B 2388   4.435   3.581   7.259  1.2995 -1.7404  0.8253
   33CHL1   C16 2389   4.518   3.684   7.433 -0.0952 -0.6391  0.3030
   33CHL1  H16A 2390   4.467   3.779   7.458 -1.9363 -1.2467 -0.9751
   33CHL1  H16B 2391   4.470   3.609   7.500  1.8613 -2.4966 -0.2546
   33CHL1   C17 2392   4.675   3.695   7.470 -0.1513 -0.2884 -0.2838
   33CHL1   H17 2393   4.709   3.593   7.499 -2.8371 -2.0085 -2.6239
   33CHL1   C13 2394   4.743   3.732   7.335  0.2449  0.3393 -0.0778
   33CHL1   C18 2395   4.724   3.878   7.298 -0.0559  0.2983  0.0094
   33CHL1  H18A 2396   4.614   3.889   7.304 -0.2167 -1.3089  0.1874
   33CHL1  H18B 2397   4.767   3.950   7.372  0.3780  2.3614 -2.1267
   33CHL1  H18C 2398   4.763   3.900   7.196  0.0788 -1.3791 -0.3163
   33CHL1   C12 2399   4.893   3.689   7.313  0.1235  0.3421 -0.3888
   33CHL1  H12A 2400   4.957   3.764   7.365  1.2350 -1.2986  0.6933
   33CHL1  H12B 2401   4.908   3.586   7.351 -2.1556  0.8031  1.9853
   33CHL1   C11 2402   4.931   3.698   7.156  0.3781 -0.1586  0.2292
   33CHL1  H11A 2403   4.923   3.800   7.113 -0.3970 -0.1983  0.2694
   33CHL1  H11B 2404   5.035   3.662   7.145  0.4967  0.2910 -0.1569
   33CHL1    C9 2405   4.831   3.617   7.067 -0.7885  0.5471 -0.0098
   33CHL1    H9 2406   4.828   3.515   7.112 -0.3385  0.3190 -0.4970
   33CHL1   C10 2407   4.875   3.603   6.921 -0.2286  0.3308  0.0746
   33CHL1   C19 2408   4.900   3.744   6.861 -0.4204  0.5788 -0.1623
   33CHL1  H19A 2409   4.823   3.818   6.892 -1.7673 -0.9814  0.3593
   33CHL1  H19B 2410   4.993   3.788   6.903  0.1949  0.5484 -1.4675
   33CHL1  H19C 2411   4.894   3.750   6.751 -0.5704  2.3293 -0.0960
   33CHL1    C1 2412   5.013   3.518   6.908 -0.0113  0.3753 -0.6726
   33CHL1   H1A 2413   5.104   3.561   6.955 -1.8236  2.0854  1.5148
   33CHL1   H1B 2414   4.982   3.424   6.959 -1.2586  1.7925  1.3328
   33CHL1    C2 2415   5.055   3.487   6.764 -0.0951 -0.5941 -1.2717
   33CHL1   H2A 2416   5.144   3.419   6.758 -0.9839 -1.8323 -0.9209
   33CHL1   H2B 2417   5.076   3.579   6.706  5.1102  0.3387  1.4188
   33CHL1   C20 2418   4.702   3.795   7.583 -0.2565  0.2911  0.6167
   33CHL1   H20 2419   4.675   3.896   7.546 -2.8061 -1.6835 -3.7868
   33CHL1   C21 2420   4.851   3.791   7.625  0.3117  0.3757  0.3520
   33CHL1  H21A 2421   4.883   3.686   7.636  1.8949  0.7507 -0.3442
   33CHL1  H21B 2422   4.863   3.850   7.719 -1.8864 -0.4978  1.2423
   33CHL1  H21C 2423   4.920   3.826   7.545  0.3788 -1.6058 -0.4975
   33CHL1   C22 2424   4.617   3.775   7.716  0.3145 -0.1650  1.0778
   33CHL1  H22A 2425   4.645   3.852   7.791 -3.3050  0.4920  1.9633
   33CHL1  H22B 2426   4.510   3.782   7.689  0.4876 -0.6777  0.2448
   33CHL1   C23 2427   4.640   3.633   7.784 -0.3130  0.2276  0.4499
   33CHL1  H23A 2428   4.601   3.561   7.708 -0.6587 -1.0032  1.7636
   33CHL1  H23B 2429   4.750   3.622   7.797  0.3283  1.2221 -2.9357
   33CHL1   C24 2430   4.563   3.620   7.921  0.3508 -0.6527  0.8294
   33CHL1  H24A 2431   4.615   3.681   7.998 -0.6551 -0.6222  1.5009
   33CHL1  H24B 2432   4.462   3.665   7.908  1.2226  0.9401 -0.9587
   33CHL1   C25 2433   4.533   3.477   7.962 -0.4440  0.2609 -0.3216
   33CHL1   H25 2434   4.481   3.423   7.880 -0.1709 -0.4441 -0.0432
   33CHL1   C26 2435   4.662   3.399   7.999  0.1004 -0.9097 -0.0855
   33CHL1  H26A 2436   4.619   3.301   8.028  0.0817  0.0429  3.5081
   33CHL1  H26B 2437   4.726   3.393   7.908 -0.4143  0.6873 -0.6041
   33CHL1  H26C 2438   4.725   3.438   8.081  0.2466 -0.1532 -0.5470
   33CHL1   C27 2439   4.434   3.489   8.083 -0.3791  0.2234  0.6004
   33CHL1  H27A 2440   4.470   3.566   8.154 -0.2549  0.1380  0.6301
   33CHL1  H27B 2441   4.331   3.513   8.050  0.5585  0.9963 -2.0353
   33CHL1  H27C 2442   4.435   3.392   8.136 -3.2156  1.0403  2.3470
   34CHL1    C3 2443   4.047   2.743   6.834 -0.1940 -0.6955  0.0383
   34CHL1    H3 2444   4.123   2.662   6.839 -0.4526 -0.8764  1.4890
   34CHL1    O3 2445   4.009   2.764   6.701 -0.4772  0.4121 -0.3049
   34CHL1   H3' 2446   3.922   2.722   6.700  0.2986 -1.7353  3.5120
   34CHL1    C4 2447   3.924   2.690   6.917 -0.5437 -0.6341 -0.0862
   34CHL1   H4A 2448   3.849   2.769   6.895 -0.9294 -0.8822  0.3278
   34CHL1   H4B 2449   3.889   2.598   6.865 -1.0063  0.2687 -1.4237
   34CHL1    C5 2450   3.947   2.672   7.065 -0.6141 -0.2847 -0.1685
   34CHL1    C6 2451   3.920   2.556   7.118  0.4867 -0.6083  0.0461
   34CHL1    H6 2452   3.870   2.476   7.061 -0.0253 -0.4641  0.2861
   34CHL1    C7 2453   3.934   2.524   7.264 -0.4588  0.0664  0.1055
   34CHL1   H7A 2454   3.849   2.469   7.308  0.5603  0.1463  2.2821
   34CHL1   H7B 2455   4.020   2.458   7.289 -0.0286  1.5456  2.8087
   34CHL1    C8 2456   3.954   2.660   7.341 -0.2328  0.1663  0.1162
   34CHL1    H8 2457   3.848   2.692   7.351 -0.5641 -1.4991  3.3022
   34CHL1   C14 2458   4.007   2.633   7.483  0.6281  0.0019  0.0266
   34CHL1   H14 2459   4.110   2.600   7.459  0.0662 -3.0106  1.3082
   34CHL1   C15 2460   3.936   2.523   7.562 -0.6652  0.2353  0.0885
   34CHL1  H15A 2461   3.828   2.511   7.538 -0.9969 -0.1913  1.6753
   34CHL1  H15B 2462   3.987   2.427   7.536 -0.4969 -0.8677  3.9608
   34CHL1   C16 2463   3.944   2.563   7.709 -0.3352  0.2372 -0.3154
   34CHL1  H16A 2464   3.844   2.599   7.741 -1.2025 -1.5890 -0.8133
   34CHL1  H16B 2465   3.987   2.491   7.781  0.1002  2.1147  1.3677
   34CHL1   C17 2466   4.035   2.688   7.705  0.0099 -0.2846 -0.6876
   34CHL1   H17 2467   4.139   2.654   7.722  0.6145  1.5409 -0.4540
   34CHL1   C13 2468   4.020   2.754   7.570  0.5343 -0.0998  0.5208
   34CHL1   C18 2469   3.890   2.832   7.555  0.1905  0.2644 -0.6851
   34CHL1  H18A 2470   3.803   2.763   7.557  0.6451 -0.3144  0.7932
   34CHL1  H18B 2471   3.868   2.904   7.636 -0.5721 -0.8791  0.1541
   34CHL1  H18C 2472   3.883   2.886   7.459 -1.5196 -0.8713 -1.2433
   34CHL1   C12 2473   4.147   2.827   7.507  0.0925  0.2853  0.0430
   34CHL1  H12A 2474   4.166   2.922   7.561  4.5513 -0.6914  0.5856
   34CHL1  H12B 2475   4.236   2.761   7.517 -1.0292 -0.9788  2.8422
   34CHL1   C11 2476   4.125   2.856   7.356 -0.2129  0.1741  0.4880
   34CHL1  H11A 2477   4.077   2.956   7.355  2.1126  1.4041 -1.9160
   34CHL1  H11B 2478   4.228   2.874   7.319  0.0487 -3.3092 -0.9502
   34CHL1    C9 2479   4.061   2.748   7.271  0.4886 -0.0981  0.1001
   34CHL1    H9 2480   4.148   2.680   7.259  0.6262  0.1908 -0.5509
   34CHL1   C10 2481   4.010   2.793   7.134 -0.2474  0.0826  0.2697
   34CHL1   C19 2482   3.910   2.906   7.148  0.2140  0.6826 -0.1376
   34CHL1  H19A 2483   3.963   2.999   7.176 -1.4473  0.9921  2.2096
   34CHL1  H19B 2484   3.856   2.923   7.052 -1.2248 -0.5353  0.4160
   34CHL1  H19C 2485   3.839   2.875   7.228 -0.3662 -0.0524 -0.9180
   34CHL1    C1 2486   4.133   2.853   7.043  0.0855 -0.0061 -0.6270
   34CHL1   H1A 2487   4.184   2.939   7.092 -1.6021 -0.2190  1.6712
   34CHL1   H1B 2488   4.210   2.774   7.031  1.4235  1.5591 -3.4347
   34CHL1    C2 2489   4.102   2.875   6.898 -0.8741  0.0573 -0.0957
   34CHL1   H2A 2490   4.184   2.908   6.830 -0.3675 -1.8686 -0.4661
   34CHL1   H2B 2491   4.024   2.954   6.902 -1.8936 -0.9723  0.5301
   34CHL1   C20 2492   4.016   2.769   7.834 -0.6421 -0.1814 -0.2020
   34CHL1   H20 2493   3.912   2.798   7.861 -0.3833  1.2323 -0.6021
   34CHL1   C21 2494   4.097   2.900   7.824  0.0468  0.3214 -0.5965
   34CHL1  H21A 2495   4.064   2.954   7.732  0.5715  1.7560  0.0169
   34CHL1  H21B 2496   4.206   2.883   7.811 -0.0788  0.0248 -1.2924
   34CHL1  H21C 2497   4.080   2.961   7.916  2.0239  2.6629 -1.6773
   34CHL1   C22 2498   4.064   2.685   7.953 -1.1117 -0.0705  0.1629
   34CHL1  H22A 2499   4.007   2.591   7.964 -1.3322 -0.0381 -0.6571
   34CHL1  H22B 2500   4.172   2.659   7.942 -1.2256 -1.8567  2.5007
   34CHL1   C23 2501   4.046   2.759   8.092 -0.5239 -0.3163  0.8346
   34CHL1  H23A 2502   4.107   2.851   8.100  0.5978 -0.9765  0.0993
   34CHL1  H23B 2503   3.937   2.783   8.089 -0.4712 -0.1227 -1.1307
   34CHL1   C24 2504   4.075   2.654   8.198 -0.1334 -0.0566  0.2343
   34CHL1  H24A 2505   4.005   2.570   8.178  0.0634  0.4457 -3.2254
   34CHL1  H24B 2506   4.174   2.614   8.167 -1.0338 -0.7025 -2.0665
   34CHL1   C25 2507   4.051   2.685   8.347 -0.9741  0.2343  0.2363
   34CHL1   H25 2508   4.081   2.588   8.392  2.1600 -0.4674 -2.8904
   34CHL1   C26 2509   4.145   2.795   8.400  0.0070 -0.3982 -0.3200
   34CHL1  H26A 2510   4.120   2.895   8.357  2.0964  1.1224  1.6965
   34CHL1  H26B 2511   4.129   2.803   8.510 -0.2676  1.1541 -0.4440
   34CHL1  H26C 2512   4.251   2.768   8.379  0.4064 -0.4176  1.5079
   34CHL1   C27 2513   3.906   2.727   8.375  0.0442  0.1395 -0.0676
   34CHL1  H27A 2514   3.830   2.652   8.344 -1.9199  1.0382  2.2203
   34CHL1  H27B 2515   3.891   2.733   8.485 -1.7781 -0.9583 -0.2082
   34CHL1  H27C 2516   3.875   2.825   8.335 -2.0869 -0.7981 -0.8649
   35CHL1    C3 2517   3.016   1.604   7.198 -0.5351 -0.4291  0.0744
   35CHL1    H3 2518   3.056   1.686   7.262  0.2986 -0.9410  0.2265
   35CHL1    O3 2519   3.074   1.613   7.070  0.4607 -0.7306  0.3297
   35CHL1   H3' 2520   3.053   1.530   7.027  0.6235  0.2485 -1.7111
   35CHL1    C4 2521   3.041   1.476   7.274  0.2639 -0.1981 -0.3515
   35CHL1   H4A 2522   3.008   1.387   7.217  0.7722 -1.4034  1.1392
   35CHL1   H4B 2523   3.151   1.472   7.288  0.6538  3.6752 -1.1145
   35CHL1    C5 2524   2.972   1.473   7.410  0.1719  0.2300 -0.8077
   35CHL1    C6 2525   3.041   1.447   7.526 -0.2739  0.9533 -0.2390
   35CHL1    H6 2526   3.151   1.448   7.520  0.0907 -0.3356  3.3902
   35CHL1    C7 2527   2.981   1.435   7.665  0.2471  0.1296 -0.1086
   35CHL1   H7A 2528   3.016   1.341   7.714 -1.4608  0.9018  2.8254
   35CHL1   H7B 2529   3.023   1.516   7.728  0.7944 -0.9506  0.9818
   35CHL1    C8 2530   2.826   1.445   7.662  0.1560 -0.0794 -0.3144
   35CHL1    H8 2531   2.794   1.340   7.644  1.4806 -0.5683 -0.0111
   35CHL1   C14 2532   2.775   1.485   7.804 -0.7171  0.1770 -0.3105
   35CHL1   H14 2533   2.826   1.580   7.827 -1.0489  0.3607 -0.3229
   35CHL1   C15 2534   2.812   1.399   7.933  0.3263  0.2609  0.3291
   35CHL1  H15A 2535   2.797   1.292   7.907 -1.0659  0.0543  1.8014
   35CHL1  H15B 2536   2.916   1.418   7.966  0.4730 -1.7825  1.2655
   35CHL1   C16 2537   2.706   1.441   8.034 -0.0378  0.2238  0.6230
   35CHL1  H16A 2538   2.665   1.345   8.069  4.5618 -2.3018 -0.1299
   35CHL1  H16B 2539   2.750   1.503   8.115 -0.9807 -0.1924  1.4604
   35CHL1   C17 2540   2.603   1.536   7.958 -0.5922  0.6658 -0.2247
   35CHL1   H17 2541   2.650   1.636   7.967  4.5821 -1.3013 -2.0638
   35CHL1   C13 2542   2.622   1.506   7.815  0.1066 -0.3345  0.4832
   35CHL1   C18 2543   2.549   1.374   7.782  0.7767  0.0514 -0.3852
   35CHL1  H18A 2544   2.565   1.302   7.865  0.2100  0.4299  0.0636
   35CHL1  H18B 2545   2.440   1.394   7.772  0.6439  1.3236  2.6124
   35CHL1  H18C 2546   2.579   1.341   7.680 -0.9680  3.2739 -2.0975
   35CHL1   C12 2547   2.589   1.621   7.719  0.4823  0.3104  0.4704
   35CHL1  H12A 2548   2.478   1.620   7.715  0.3254 -2.7430  2.1555
   35CHL1  H12B 2549   2.640   1.718   7.741  0.2149  1.0692 -1.9718
   35CHL1   C11 2550   2.630   1.576   7.572 -0.4456 -0.2094 -0.6158
   35CHL1  H11A 2551   2.558   1.499   7.537 -0.2677 -1.2461  1.1861
   35CHL1  H11B 2552   2.612   1.672   7.520  1.7538  1.2756  1.1473
   35CHL1    C9 2553   2.784   1.550   7.560  0.2541  0.0134 -0.1560
   35CHL1    H9 2554   2.846   1.637   7.592  0.1350 -0.1642  0.5890
   35CHL1   C10 2555   2.826   1.510   7.413  0.3350 -0.3825  0.2013
   35CHL1   C19 2556   2.741   1.391   7.369  0.1865  0.1416  0.0001
   35CHL1  H19A 2557   2.648   1.431   7.321  0.8730  0.2188 -1.3026
   35CHL1  H19B 2558   2.782   1.332   7.285  1.6631 -2.9386  2.6724
   35CHL1  H19C 2559   2.726   1.309   7.442  0.9688 -1.4467 -1.5712
   35CHL1    C1 2560   2.801   1.634   7.323 -0.2686  0.5565  0.2692
   35CHL1   H1A 2561   2.691   1.647   7.311 -0.2917  0.4499  0.3589
   35CHL1   H1B 2562   2.849   1.718   7.376  0.8969 -0.7597  1.3767
   35CHL1    C2 2563   2.864   1.623   7.181 -0.6680 -0.5585  0.0394
   35CHL1   H2A 2564   2.850   1.711   7.115 -3.7035 -1.2159 -0.3121
   35CHL1   H2B 2565   2.820   1.534   7.130 -1.3340 -1.4257  2.0431
   35CHL1   C20 2566   2.469   1.534   8.029  0.0604 -0.1575 -0.3990
   35CHL1   H20 2567   2.423   1.433   8.027  1.3689 -0.8267  1.2716
   35CHL1   C21 2568   2.366   1.628   7.958 -0.8320  0.0088  0.1725
   35CHL1  H21A 2569   2.410   1.729   7.944 -1.9514  0.7658  1.7702
   35CHL1  H21B 2570   2.279   1.636   8.026 -1.3710  0.2745 -0.5319
   35CHL1  H21C 2571   2.330   1.595   7.858 -1.3886  2.3696 -0.4783
   35CHL1   C22 2572   2.474   1.577   8.180 -0.2325  0.6557  0.6677
   35CHL1  H22A 2573   2.367   1.564   8.209 -1.5259  0.5285 -3.4610
   35CHL1  H22B 2574   2.530   1.493   8.225 -1.3365 -2.4322 -3.1520
   35CHL1   C23 2575   2.543   1.713   8.208 -0.0288  0.2524  0.2562
   35CHL1  H23A 2576   2.647   1.692   8.176  0.9148  0.5218  2.9218
   35CHL1  H23B 2577   2.498   1.799   8.154  0.2987  0.1963 -0.1090
   35CHL1   C24 2578   2.546   1.744   8.353 -0.6535  0.6350 -0.4000
   35CHL1  H24A 2579   2.583   1.652   8.403 -1.1372  0.3343 -0.5883
   35CHL1  H24B 2580   2.608   1.827   8.393  0.8352  0.4968 -2.2808
   35CHL1   C25 2581   2.404   1.765   8.402 -0.3168 -0.3578  0.1767
   35CHL1   H25 2582   2.346   1.673   8.379  0.9239 -1.1011 -0.1286
   35CHL1   C26 2583   2.414   1.780   8.550  0.5208 -0.0420 -0.7327
   35CHL1  H26A 2584   2.310   1.787   8.587  0.6032 -1.6753 -0.0805
   35CHL1  H26B 2585   2.475   1.698   8.594  1.0006  0.1189 -1.0919
   35CHL1  H26C 2586   2.472   1.872   8.572 -1.4268  0.6630  1.9491
   35CHL1   C27 2587   2.344   1.887   8.336  0.4981 -0.0916 -0.2365
   35CHL1  H27A 2588   2.236   1.886   8.363  1.2519 -0.7584  3.1387
   35CHL1  H27B 2589   2.337   1.867   8.227 -0.6316 -1.7915  0.1123
   35CHL1  H27C 2590   2.408   1.975   8.360  1.4336 -1.2373  1.6240
   36CHL1    C3 2591   4.462   2.387   6.833 -0.2759  0.0671 -0.2479
   36CHL1    H3 2592   4.557   2.332   6.816 -0.4501 -0.6898  1.1310
   36CHL1    O3 2593   4.409   2.428   6.710  0.3042  0.1666 -0.0652
   36CHL1   H3' 2594   4.324   2.384   6.705 -0.4914  1.3814  1.7398
   36CHL1    C4 2595   4.363   2.291   6.906 -0.5115  0.3482  0.3632
   36CHL1   H4A 2596   4.259   2.329   6.916 -0.4350  0.0702  2.9430
   36CHL1   H4B 2597   4.368   2.195   6.851  2.2452  0.6647 -0.0627
   36CHL1    C5 2598   4.418   2.266   7.046  0.3961 -0.4467 -0.3602
   36CHL1    C6 2599   4.440   2.143   7.083 -1.1379  0.7779  0.2410
   36CHL1    H6 2600   4.415   2.055   7.024 -1.7826  0.1630  1.3931
   36CHL1    C7 2601   4.484   2.099   7.217 -0.4109  0.1334 -0.2952
   36CHL1   H7A 2602   4.418   2.020   7.260 -2.1600  0.7438 -1.7719
   36CHL1   H7B 2603   4.591   2.070   7.228 -0.9146 -1.4352  0.9210
   36CHL1    C8 2604   4.468   2.214   7.323 -0.3818  0.3986 -0.1954
   36CHL1    H8 2605   4.361   2.218   7.351 -0.8573 -0.1002 -1.8663
   36CHL1   C14 2606   4.526   2.185   7.468  0.1795 -0.4211 -0.4543
   36CHL1   H14 2607   4.636   2.173   7.466 -0.0538 -3.5406 -0.1911
   36CHL1   C15 2608   4.477   2.056   7.537 -0.1713  0.0622 -0.5057
   36CHL1  H15A 2609   4.366   2.052   7.541 -0.2533  2.0347  2.2961
   36CHL1  H15B 2610   4.515   1.959   7.499  1.5777  0.5335 -0.0623
   36CHL1   C16 2611   4.526   2.077   7.682  0.1047 -1.2473 -0.3971
   36CHL1  H16A 2612   4.444   2.055   7.753 -1.1727  0.6424 -1.2010
   36CHL1  H16B 2613   4.620   2.023   7.705 -0.8650 -1.9436  2.3083
   36CHL1   C17 2614   4.555   2.233   7.692 -0.2909  0.3503 -0.3770
   36CHL1   H17 2615   4.666   2.241   7.696 -0.3424  0.7928  1.5129
   36CHL1   C13 2616   4.505   2.303   7.565 -0.1618 -0.3159  0.2094
   36CHL1   C18 2617   4.350   2.325   7.587  0.2649 -0.5436  0.2379
   36CHL1  H18A 2618   4.337   2.412   7.654 -0.0673 -0.0352 -0.4725
   36CHL1  H18B 2619   4.298   2.346   7.491  0.9544  2.5310  0.4484
   36CHL1  H18C 2620   4.311   2.227   7.624 -0.7693 -0.0899  0.3817
   36CHL1   C12 2621   4.582   2.432   7.506 -0.0846  0.2728 -0.4299
   36CHL1  H12A 2622   4.576   2.519   7.574  0.5894 -0.9513  1.2868
   36CHL1  H12B 2623   4.691   2.407   7.501  0.1695  1.1831  0.2758
   36CHL1   C11 2624   4.526   2.469   7.376  0.5700 -0.1756  0.3757
   36CHL1  H11A 2625   4.423   2.503   7.399  0.8643 -0.1891  1.7845
   36CHL1  H11B 2626   4.578   2.552   7.323 -1.3269  1.7132  1.3337
   36CHL1    C9 2627   4.520   2.352   7.269  0.4531 -0.0171 -0.8356
   36CHL1    H9 2628   4.627   2.335   7.243 -0.1459 -0.2223 -3.3938
   36CHL1   C10 2629   4.446   2.388   7.134 -0.0471  0.7938 -0.4255
   36CHL1   C19 2630   4.312   2.455   7.177 -0.6998 -0.7969  0.4825
   36CHL1  H19A 2631   4.251   2.478   7.087 -1.3291 -1.1929  0.8000
   36CHL1  H19B 2632   4.265   2.393   7.257  0.1106  0.2588  1.8180
   36CHL1  H19C 2633   4.331   2.557   7.216 -0.8355 -0.6143  0.0814
   36CHL1    C1 2634   4.539   2.482   7.057 -0.1169 -0.4811 -0.0042
   36CHL1   H1A 2635   4.543   2.575   7.119  0.9824 -0.6750  0.2495
   36CHL1   H1B 2636   4.642   2.440   7.064  0.1336  0.3662  2.0521
   36CHL1    C2 2637   4.490   2.518   6.916  0.3709 -0.0602 -0.4920
   36CHL1   H2A 2638   4.567   2.571   6.857  0.5495 -2.1342 -2.2411
   36CHL1   H2B 2639   4.390   2.566   6.926 -0.4244 -1.6348 -0.5876
   36CHL1   C20 2640   4.505   2.289   7.828 -0.0950  0.2045 -0.2526
   36CHL1   H20 2641   4.396   2.273   7.841  0.2830 -1.9482  0.6416
   36CHL1   C21 2642   4.544   2.443   7.836  0.3662  0.2469 -1.1143
   36CHL1  H21A 2643   4.654   2.456   7.830  0.4938  1.5405  2.2724
   36CHL1  H21B 2644   4.514   2.488   7.933 -0.4037 -1.2052 -0.6488
   36CHL1  H21C 2645   4.489   2.503   7.761  1.5363 -0.7520 -2.8456
   36CHL1   C22 2646   4.571   2.219   7.951  0.5697 -0.1067 -1.1080
   36CHL1  H22A 2647   4.591   2.111   7.937 -0.7214 -0.3557 -1.1248
   36CHL1  H22B 2648   4.678   2.250   7.954  0.7320 -0.7019  0.2346
   36CHL1   C23 2649   4.498   2.248   8.081  0.2874  0.0374  0.3561
   36CHL1  H23A 2650   4.463   2.353   8.077 -1.3673 -0.5340 -2.9318
   36CHL1  H23B 2651   4.408   2.183   8.074  0.5771 -0.1880 -2.0604
   36CHL1   C24 2652   4.579   2.206   8.197 -0.6568  0.2524 -0.5594
   36CHL1  H24A 2653   4.608   2.099   8.185 -0.3816  0.0648  1.3510
   36CHL1  H24B 2654   4.675   2.258   8.216 -1.2484  0.8767  0.8480
   36CHL1   C25 2655   4.500   2.226   8.327  0.0707  0.3065 -0.5532
   36CHL1   H25 2656   4.403   2.171   8.320  1.1455 -1.5908 -1.0158
   36CHL1   C26 2657   4.569   2.160   8.444 -0.3731 -0.4724  0.1825
   36CHL1  H26A 2658   4.503   2.182   8.530  0.0451  0.1857  0.3455
   36CHL1  H26B 2659   4.599   2.055   8.424  1.7281  0.5914 -3.0966
   36CHL1  H26C 2660   4.666   2.213   8.457 -0.6360  0.4387 -1.2678
   36CHL1   C27 2661   4.476   2.374   8.362  0.1944 -0.3001 -0.3332
   36CHL1  H27A 2662   4.431   2.436   8.281 -1.5073 -0.1590  0.6655
   36CHL1  H27B 2663   4.411   2.381   8.452 -1.8121 -2.0801 -1.5506
   36CHL1  H27C 2664   4.569   2.429   8.389 -0.0523  0.5631 -1.1646
   37CHL1    C3 2665   5.774   4.563   7.019  0.6896  0.5772 -0.5449
   37CHL1    H3 2666   5.709   4.653   7.032 -0.3962 -0.0158 -1.7015
   37CHL1    O3 2667   5.791   4.519   6.885  0.4641 -0.7566  0.1197
   37CHL1   H3' 2668   5.826   4.430   6.878 -2.1653 -1.7193 -3.1444
   37CHL1    C4 2669   5.917   4.596   7.069  0.1651 -0.4193  0.3294
   37CHL1   H4A 2670   5.984   4.511   7.042  1.9663  1.0096  0.0707
   37CHL1   H4B 2671   5.952   4.683   7.010  0.6865  0.2797  1.6234
   37CHL1    C5 2672   5.928   4.629   7.217 -0.7503 -0.4864 -0.0896
   37CHL1    C6 2673   5.985   4.747   7.260  0.3502 -0.4626  0.5555
   37CHL1    H6 2674   6.033   4.818   7.191  0.7077 -2.2489 -1.1494
   37CHL1    C7 2675   5.993   4.776   7.406  0.0510 -0.0779  0.8337
   37CHL1   H7A 2676   6.094   4.816   7.429  0.0759  0.1424  0.3601
   37CHL1   H7B 2677   5.922   4.856   7.435  0.1004  0.7303 -1.0840
   37CHL1    C8 2678   5.957   4.658   7.507  0.1906 -0.2356 -0.4746
   37CHL1    H8 2679   6.039   4.584   7.526 -0.2341 -0.8790 -1.0791
   37CHL1   C14 2680   5.926   4.721   7.639 -0.9384 -0.6450  0.2430
   37CHL1   H14 2681   5.848   4.794   7.607 -0.0476  0.5176  0.6608
   37CHL1   C15 2682   6.037   4.807   7.699 -0.1762  0.5756 -0.1243
   37CHL1  H15A 2683   6.135   4.755   7.689  0.3039  1.7169 -1.6338
   37CHL1  H15B 2684   6.040   4.902   7.642  0.7286 -0.5294 -2.0418
   37CHL1   C16 2685   5.990   4.830   7.838 -0.3883  0.0404 -0.0909
   37CHL1  H16A 2686   6.077   4.801   7.901 -0.9701 -2.8586 -0.4996
   37CHL1  H16B 2687   5.957   4.933   7.863  0.7400  0.2441  0.6172
   37CHL1   C17 2688   5.882   4.723   7.871  0.5413 -0.3795  0.1495
   37CHL1   H17 2689   5.790   4.784   7.871  0.2740 -0.7483  1.5561
   37CHL1   C13 2690   5.879   4.629   7.747 -0.2898 -0.9366 -0.6873
   37CHL1   C18 2691   5.990   4.522   7.788  0.3717  0.4021  0.4311
   37CHL1  H18A 2692   6.003   4.451   7.704 -0.7180  0.8145 -0.0977
   37CHL1  H18B 2693   6.089   4.566   7.813  0.9981  0.2975 -1.7488
   37CHL1  H18C 2694   5.964   4.456   7.874 -1.4909 -1.5932 -1.5618
   37CHL1   C12 2695   5.750   4.565   7.698 -0.2901  0.4225  0.4608
   37CHL1  H12A 2696   5.705   4.503   7.779 -2.5591 -1.2463 -1.9466
   37CHL1  H12B 2697   5.675   4.645   7.681  0.5304  0.5140 -3.6214
   37CHL1   C11 2698   5.766   4.487   7.562  0.2643 -0.6024 -0.0783
   37CHL1  H11A 2699   5.832   4.400   7.580 -0.8375 -1.1409  1.4339
   37CHL1  H11B 2700   5.671   4.442   7.528  0.9748 -3.7431  1.7205
   37CHL1    C9 2701   5.835   4.583   7.457  0.2339 -0.1006 -0.1119
   37CHL1    H9 2702   5.759   4.661   7.436 -1.0562 -0.9916  1.1178
   37CHL1   C10 2703   5.859   4.526   7.313 -0.2338  0.6598 -0.6964
   37CHL1   C19 2704   5.939   4.395   7.340 -0.3834  0.9078 -0.0388
   37CHL1  H19A 2705   6.011   4.409   7.423 -0.0310 -1.1248  0.0510
   37CHL1  H19B 2706   5.877   4.309   7.374  0.9120 -0.3208 -0.6454
   37CHL1  H19C 2707   5.993   4.356   7.251  0.6144  1.2501  0.4115
   37CHL1    C1 2708   5.721   4.482   7.247  0.4221  0.4462  0.6195
   37CHL1   H1A 2709   5.689   4.393   7.305  0.1671 -0.8382 -1.4082
   37CHL1   H1B 2710   5.648   4.563   7.272  0.4265  1.4035 -2.1630
   37CHL1    C2 2711   5.722   4.445   7.103 -0.1275  0.3819  0.4968
   37CHL1   H2A 2712   5.622   4.415   7.065 -0.2895  0.2943  0.9743
   37CHL1   H2B 2713   5.786   4.358   7.080  0.6009  1.5865 -2.3759
   37CHL1   C20 2714   5.877   4.672   8.022 -0.0488  0.6255  0.9563
   37CHL1   H20 2715   5.969   4.611   8.032 -1.0669 -1.2545 -0.5144
   37CHL1   C21 2716   5.747   4.587   8.033  0.5495  0.2538 -0.4468
   37CHL1  H21A 2717   5.756   4.479   8.009 -1.4980 -0.3781  1.3012
   37CHL1  H21B 2718   5.670   4.632   7.967 -0.3997  1.1362  1.2076
   37CHL1  H21C 2719   5.712   4.616   8.135 -0.3093 -0.3758 -0.5471
   37CHL1   C22 2720   5.877   4.792   8.123 -0.9376  0.2151  0.9624
   37CHL1  H22A 2721   5.948   4.870   8.087  0.0307 -1.9334 -2.1931
   37CHL1  H22B 2722   5.777   4.838   8.134 -1.3095 -0.4234  0.3025
   37CHL1   C23 2723   5.930   4.753   8.263  0.2929 -0.3320 -0.6093
   37CHL1  H23A 2724   5.869   4.670   8.304  1.0609  0.1436  1.6377
   37CHL1  H23B 2725   6.034   4.717   8.245  1.6136  1.6105  2.3903
   37CHL1   C24 2726   5.926   4.874   8.361 -0.3349  0.5867 -0.0196
   37CHL1  H24A 2727   6.008   4.948   8.350 -0.6039  0.9356  0.2855
   37CHL1  H24B 2728   5.836   4.937   8.343 -1.8349 -1.4464  0.0009
   37CHL1   C25 2729   5.924   4.819   8.503  0.5643 -0.0067 -0.3979
   37CHL1   H25 2730   5.839   4.747   8.497  0.9670 -0.3857 -2.2543
   37CHL1   C26 2731   6.061   4.754   8.535  0.3187 -0.3075 -0.0988
   37CHL1  H26A 2732   6.140   4.821   8.577  1.9377 -2.8773  1.1714
   37CHL1  H26B 2733   6.068   4.678   8.615  2.5054 -0.1792 -0.0940
   37CHL1  H26C 2734   6.108   4.700   8.450  2.1977  1.1169 -0.0354
   37CHL1   C27 2735   5.882   4.932   8.608  0.2306  0.5148  0.2144
   37CHL1  H27A 2736   5.780   4.969   8.587  0.1488 -0.1115 -0.5205
   37CHL1  H27B 2737   5.880   4.899   8.714  0.3800  1.6890  0.6053
   37CHL1  H27C 2738   5.967   5.005   8.603  2.1914 -1.6448  0.2221
   38CHL1    C3 2739   1.213   0.318   6.808  0.2323  0.2729  0.4125
   38CHL1    H3 2740   1.135   0.380   6.856 -1.1472 -1.4474  0.5330
   38CHL1    O3 2741   1.232   0.373   6.672  0.3060  0.3634 -0.4201
   38CHL1   H3' 2742   1.216   0.296   6.616 -1.3112  1.1273 -1.0711
   38CHL1    C4 2743   1.341   0.327   6.889  0.1805  0.2316 -0.1153
   38CHL1   H4A 2744   1.408   0.265   6.826 -1.9187 -0.6778 -1.5521
   38CHL1   H4B 2745   1.380   0.431   6.896 -1.0803  0.7163 -0.0320
   38CHL1    C5 2746   1.321   0.277   7.027 -0.8462  0.9144 -0.1043
   38CHL1    C6 2747   1.337   0.347   7.143  0.6298 -0.3832 -0.1927
   38CHL1    H6 2748   1.368   0.452   7.131  0.5995 -0.3625 -0.0891
   38CHL1    C7 2749   1.325   0.294   7.277  0.0170  0.4345 -0.3689
   38CHL1   H7A 2750   1.400   0.336   7.347 -2.3812  2.4566  1.1310
   38CHL1   H7B 2751   1.226   0.330   7.312  0.0787  0.1180  0.1388
   38CHL1    C8 2752   1.328   0.143   7.283  0.4170 -0.0021 -0.2262
   38CHL1    H8 2753   1.433   0.114   7.261  0.4974 -0.1032  0.2735
   38CHL1   C14 2754   1.284   0.099   7.427  0.2416  0.3373 -0.5964
   38CHL1   H14 2755   1.178   0.131   7.430  0.5989  1.5917 -0.9701
   38CHL1   C15 2756   1.350   0.154   7.552 -0.2287 -0.2356  0.9099
   38CHL1  H15A 2757   1.459   0.145   7.533 -0.6247 -2.7715 -0.6237
   38CHL1  H15B 2758   1.321   0.259   7.576 -0.5382 -0.8113  3.3973
   38CHL1   C16 2759   1.313   0.059   7.658 -0.3325  0.0539  0.6908
   38CHL1  H16A 2760   1.401   0.023   7.716 -0.7428 -3.1955 -0.5237
   38CHL1  H16B 2761   1.241   0.093   7.736 -0.3718 -1.6221  1.4330
   38CHL1   C17 2762   1.235  -0.063   7.593  0.8376 -0.2794 -0.0174
   38CHL1   H17 2763   1.126  -0.040   7.592  0.8041 -0.2474  1.8542
   38CHL1   C13 2764   1.284  -0.052   7.447 -0.3008 -0.4624  0.1671
   38CHL1   C18 2765   1.426  -0.110   7.431  0.0472 -0.1081  0.1800
   38CHL1  H18A 2766   1.498  -0.077   7.509 -0.0905  2.0556 -0.5288
   38CHL1  H18B 2767   1.414  -0.220   7.438  0.2616 -0.4399 -3.0216
   38CHL1  H18C 2768   1.463  -0.084   7.329  3.3586  1.8311  1.7091
   38CHL1   C12 2769   1.185  -0.106   7.341  0.6270  0.2017  0.0390
   38CHL1  H12A 2770   1.174  -0.214   7.361 -2.8607  0.8051  2.1481
   38CHL1  H12B 2771   1.094  -0.047   7.364  0.9498  1.0698 -0.7959
   38CHL1   C11 2772   1.225  -0.077   7.193  0.3176 -0.2961 -1.0413
   38CHL1  H11A 2773   1.319  -0.136   7.185  2.0211  1.9728  0.7392
   38CHL1  H11B 2774   1.142  -0.106   7.126 -0.2313 -1.8007  0.2357
   38CHL1    C9 2775   1.241   0.079   7.172  0.1627 -0.9891  0.6090
   38CHL1    H9 2776   1.140   0.120   7.194  0.7688  0.7171  0.3831
   38CHL1   C10 2777   1.278   0.128   7.028  0.3362 -0.3187 -0.2707
   38CHL1   C19 2778   1.398   0.040   6.981 -0.2174 -0.2181 -0.4157
   38CHL1  H19A 2779   1.451   0.073   6.889  0.4917  1.5203  0.5750
   38CHL1  H19B 2780   1.476   0.042   7.060 -0.9791 -0.3568  0.3554
   38CHL1  H19C 2781   1.360  -0.064   6.968  2.8459 -1.8410  2.0089
   38CHL1    C1 2782   1.159   0.112   6.938 -0.0439 -0.2608 -0.1397
   38CHL1   H1A 2783   1.126   0.006   6.931 -0.8578 -0.0510  0.4120
   38CHL1   H1B 2784   1.075   0.170   6.981  0.0120 -0.4204  0.1830
   38CHL1    C2 2785   1.173   0.169   6.797  0.0508 -0.5272 -0.3954
   38CHL1   H2A 2786   1.079   0.158   6.739 -0.1640  0.2882 -0.2107
   38CHL1   H2B 2787   1.261   0.127   6.744  2.3575  1.4326  1.6389
   38CHL1   C20 2788   1.249  -0.190   7.676  0.2977 -0.0862  0.2211
   38CHL1   H20 2789   1.354  -0.225   7.674 -0.1791 -2.6459  5.0725
   38CHL1   C21 2790   1.179  -0.317   7.627  0.1540  0.0437  0.4487
   38CHL1  H21A 2791   1.243  -0.356   7.544 -1.9272  2.0316 -2.2789
   38CHL1  H21B 2792   1.077  -0.302   7.587  1.1535 -0.3890 -2.5678
   38CHL1  H21C 2793   1.187  -0.404   7.695  1.5274 -0.0555  0.1930
   38CHL1   C22 2794   1.218  -0.167   7.826 -0.6921  0.6557 -0.2362
   38CHL1  H22A 2795   1.246  -0.069   7.869  0.2037  0.3204 -0.0468
   38CHL1  H22B 2796   1.110  -0.185   7.846 -0.1418 -1.0418  1.4541
   38CHL1   C23 2797   1.303  -0.269   7.903  0.6156  0.5198 -0.0977
   38CHL1  H23A 2798   1.269  -0.365   7.859 -1.0563  1.9728 -2.2320
   38CHL1  H23B 2799   1.408  -0.247   7.877 -0.2772  1.7041 -3.2409
   38CHL1   C24 2800   1.282  -0.263   8.057  0.5899  0.7898  0.4875
   38CHL1  H24A 2801   1.282  -0.156   8.086  2.1073  1.1412 -0.6962
   38CHL1  H24B 2802   1.184  -0.313   8.071  0.8325  0.6453  1.7732
   38CHL1   C25 2803   1.400  -0.325   8.140 -0.2052  0.0070 -0.5703
   38CHL1   H25 2804   1.493  -0.268   8.119  0.6120 -0.4629  1.4869
   38CHL1   C26 2805   1.357  -0.295   8.289 -0.7157 -0.4231 -0.1381
   38CHL1  H26A 2806   1.331  -0.188   8.306 -1.9648 -0.6366 -0.6139
   38CHL1  H26B 2807   1.253  -0.331   8.294 -1.5530  1.6216 -1.3761
   38CHL1  H26C 2808   1.415  -0.353   8.364 -2.0723 -0.5301  0.8660
   38CHL1   C27 2809   1.419  -0.475   8.131 -0.5789  0.2722 -0.1630
   38CHL1  H27A 2810   1.460  -0.525   8.221 -0.5129 -0.3042 -0.5103
   38CHL1  H27B 2811   1.326  -0.528   8.102 -0.6916  1.2525 -1.7022
   38CHL1  H27C 2812   1.501  -0.487   8.057  0.0912  1.3528  0.3755
   39CHL1    C3 2813   3.000   3.714   7.162  0.3286 -0.1405 -0.3461
   39CHL1    H3 2814   3.105   3.682   7.145  0.3456 -0.6461  0.6859
   39CHL1    O3 2815   2.949   3.767   7.037  0.6540 -0.0097 -0.2922
   39CHL1   H3' 2816   2.943   3.689   6.981  0.9849  0.2448 -0.6863
   39CHL1    C4 2817   2.908   3.604   7.218 -0.3895 -0.6721 -0.4482
   39CHL1   H4A 2818   2.806   3.646   7.210  0.2679  1.1306  0.1655
   39CHL1   H4B 2819   2.925   3.510   7.161 -1.3128 -2.6188  2.2957
   39CHL1    C5 2820   2.924   3.574   7.365 -0.0529  0.3814 -0.1909
   39CHL1    C6 2821   2.926   3.451   7.413 -0.0228  0.0397  0.5085
   39CHL1    H6 2822   2.917   3.373   7.336 -1.5588  1.6211 -1.0146
   39CHL1    C7 2823   2.929   3.405   7.553  0.5782 -0.0138  0.2910
   39CHL1   H7A 2824   2.868   3.313   7.571 -1.0320  0.9406 -0.0903
   39CHL1   H7B 2825   3.033   3.377   7.579  0.9793 -0.3735 -1.5588
   39CHL1    C8 2826   2.913   3.528   7.649  0.6165  0.2654  0.3842
   39CHL1    H8 2827   2.804   3.540   7.665  1.0618  2.7092  2.1249
   39CHL1   C14 2828   2.969   3.502   7.794  0.0403 -0.0074 -0.1969
   39CHL1   H14 2829   3.080   3.500   7.790  0.2987  1.1003  3.0118
   39CHL1   C15 2830   2.937   3.365   7.862 -0.0494 -0.1421  0.3506
   39CHL1  H15A 2831   2.826   3.355   7.857 -0.3813  2.8849  0.0614
   39CHL1  H15B 2832   2.998   3.278   7.830 -0.8374 -0.3901 -0.5139
   39CHL1   C16 2833   2.971   3.385   8.011  0.6690 -0.0155 -0.8711
   39CHL1  H16A 2834   2.877   3.363   8.068  0.5128  2.5900  0.0077
   39CHL1  H16B 2835   3.057   3.324   8.045  0.4989 -0.3351 -1.0082
   39CHL1   C17 2836   3.010   3.533   8.023 -0.1898  0.6634 -0.0039
   39CHL1   H17 2837   3.119   3.533   8.003  0.3217  1.6873  2.3711
   39CHL1   C13 2838   2.943   3.607   7.896 -0.1757  0.0892  0.2464
   39CHL1   C18 2839   2.794   3.620   7.918 -0.5738 -0.0911  0.2455
   39CHL1  H18A 2840   2.750   3.524   7.955 -0.9633  0.3700  1.0090
   39CHL1  H18B 2841   2.774   3.700   7.992 -2.2806  0.0494 -0.3264
   39CHL1  H18C 2842   2.739   3.654   7.828  2.3382  3.5923 -0.3726
   39CHL1   C12 2843   3.012   3.737   7.853  0.3434  0.6286 -0.5304
   39CHL1  H12A 2844   2.975   3.810   7.929  0.8185  1.0051 -0.6555
   39CHL1  H12B 2845   3.123   3.737   7.858  0.4675 -1.0658 -2.4909
   39CHL1   C11 2846   2.955   3.779   7.710 -0.8838 -0.5696 -0.4846
   39CHL1  H11A 2847   2.852   3.816   7.734 -0.6680  0.7134 -1.4330
   39CHL1  H11B 2848   3.011   3.867   7.674  0.6216 -0.0085  2.8310
   39CHL1    C9 2849   2.970   3.664   7.600 -0.4107  0.0461  0.4683
   39CHL1    H9 2850   3.080   3.646   7.597  0.0721  2.4494  1.4146
   39CHL1   C10 2851   2.933   3.695   7.456 -0.2011 -0.0942  0.2660
   39CHL1   C19 2852   2.788   3.745   7.458 -0.2536 -0.5579 -0.3908
   39CHL1  H19A 2853   2.783   3.839   7.516 -1.0953 -0.1326 -1.1236
   39CHL1  H19B 2854   2.739   3.755   7.359  0.7752 -1.6462 -1.0413
   39CHL1  H19C 2855   2.725   3.675   7.518 -0.0690  1.2817  2.0753
   39CHL1    C1 2856   3.031   3.807   7.397  0.4895 -0.3068  0.2684
   39CHL1   H1A 2857   3.031   3.894   7.466  1.8759  0.2112 -0.3417
   39CHL1   H1B 2858   3.132   3.760   7.400 -0.0245 -1.4092  0.9332
   39CHL1    C2 2859   3.004   3.846   7.250 -0.4618 -0.2489 -0.6041
   39CHL1   H2A 2860   3.093   3.905   7.220 -1.1131  2.6448  2.5164
   39CHL1   H2B 2861   2.910   3.905   7.242  0.1638  1.0211  0.9444
   39CHL1   C20 2862   2.994   3.585   8.162 -0.4128  0.2797 -0.1582
   39CHL1   H20 2863   3.031   3.690   8.160 -0.9294  0.5161  1.4955
   39CHL1   C21 2864   3.104   3.503   8.238 -0.3168  0.3651 -0.2540
   39CHL1  H21A 2865   3.203   3.502   8.189  0.4648 -0.8884  1.2369
   39CHL1  H21B 2866   3.087   3.393   8.248  0.4995  0.2605  0.0509
   39CHL1  H21C 2867   3.112   3.539   8.343  0.4075  3.6342 -1.3423
   39CHL1   C22 2868   2.861   3.558   8.246 -0.2001  0.2954 -0.0259
   39CHL1  H22A 2869   2.768   3.567   8.186 -0.7681  1.8888  1.0428
   39CHL1  H22B 2870   2.876   3.454   8.282  1.6664  0.3297 -0.5807
   39CHL1   C23 2871   2.858   3.658   8.368 -0.4671  0.1574 -0.0709
   39CHL1  H23A 2872   2.919   3.623   8.453  0.9766  1.8655 -0.3416
   39CHL1  H23B 2873   2.892   3.760   8.340 -0.3940  0.1814  0.1046
   39CHL1   C24 2874   2.714   3.668   8.421 -0.2496  0.5326  0.0364
   39CHL1  H24A 2875   2.644   3.661   8.335 -0.1104  1.4245 -0.1610
   39CHL1  H24B 2876   2.699   3.583   8.492 -1.0567 -0.2746 -1.0717
   39CHL1   C25 2877   2.681   3.791   8.514  0.4272  0.4270 -0.0031
   39CHL1   H25 2878   2.735   3.880   8.476 -0.9213  1.5134  0.5313
   39CHL1   C26 2879   2.534   3.812   8.510  0.4815 -0.2932 -1.0009
   39CHL1  H26A 2880   2.491   3.802   8.408 -2.5856  1.1039  0.0141
   39CHL1  H26B 2881   2.483   3.739   8.577  0.4485  1.0307  0.4872
   39CHL1  H26C 2882   2.508   3.914   8.547 -2.8731 -1.6183  0.7903
   39CHL1   C27 2883   2.739   3.776   8.657 -0.6347 -0.4802  0.0791
   39CHL1  H27A 2884   2.839   3.728   8.654 -1.2748 -2.0224  1.6073
   39CHL1  H27B 2885   2.753   3.881   8.691 -1.4531 -0.4072  0.2222
   39CHL1  H27C 2886   2.679   3.715   8.728  0.5915 -1.0917  0.6174
   40CHL1    C3 2887   5.834   2.932   6.857 -0.1939 -0.2500  0.3784
   40CHL1    H3 2888   5.747   3.002   6.857  1.0407  1.4070 -1.7473
   40CHL1    O3 2889   5.875   2.903   6.721  0.0503 -0.6441  0.1526
   40CHL1   H3' 2890   5.943   2.835   6.717 -2.6455 -3.8083  1.9791
   40CHL1    C4 2891   5.949   3.004   6.934 -0.7633 -0.1933 -0.3021
   40CHL1   H4A 2892   6.030   2.928   6.942 -0.2323  0.5321  1.7916
   40CHL1   H4B 2893   5.974   3.092   6.871  3.3190  0.9218  2.5089
   40CHL1    C5 2894   5.916   3.045   7.076  0.1391 -0.3192  0.4684
   40CHL1    C6 2895   5.922   3.179   7.111 -0.1977 -0.2154  0.2958
   40CHL1    H6 2896   5.958   3.256   7.041 -0.1419 -1.2037 -0.7913
   40CHL1    C7 2897   5.888   3.227   7.247  0.0909 -0.0085 -0.5486
   40CHL1   H7A 2898   5.964   3.305   7.272 -1.4557  0.8287  1.8189
   40CHL1   H7B 2899   5.790   3.279   7.251 -0.4296 -0.9649 -0.5409
   40CHL1    C8 2900   5.877   3.111   7.352 -0.4081 -0.3928  0.2727
   40CHL1    H8 2901   5.984   3.082   7.364  0.4820  1.9759 -1.4223
   40CHL1   C14 2902   5.822   3.165   7.476  0.3778 -0.5611  0.2305
   40CHL1   H14 2903   5.725   3.205   7.440  1.1750  1.4071  0.1264
   40CHL1   C15 2904   5.883   3.288   7.542 -0.7375  0.1239 -0.0366
   40CHL1  H15A 2905   5.990   3.306   7.515 -1.2155  3.5718 -0.1785
   40CHL1  H15B 2906   5.838   3.387   7.516  0.6319  1.4548  2.2493
   40CHL1   C16 2907   5.859   3.275   7.690 -0.5696  0.6257 -0.7611
   40CHL1  H16A 2908   5.954   3.262   7.746 -1.3797  1.0655  0.7640
   40CHL1  H16B 2909   5.811   3.371   7.720  1.2382  1.4108 -0.2161
   40CHL1   C17 2910   5.757   3.155   7.713  0.6966 -0.5129  0.2882
   40CHL1   H17 2911   5.658   3.203   7.698  0.5287 -0.8738  0.2090
   40CHL1   C13 2912   5.788   3.061   7.590 -0.0629  0.1949  0.2185
   40CHL1   C18 2913   5.916   2.985   7.630  0.1511  0.2028 -0.0784
   40CHL1  H18A 2914   5.958   2.915   7.555 -1.1990  0.0229 -0.6933
   40CHL1  H18B 2915   5.996   3.049   7.673  0.9637 -0.2735 -0.8603
   40CHL1  H18C 2916   5.892   2.915   7.713  0.6173  2.0384  1.6963
   40CHL1   C12 2917   5.676   2.977   7.535  0.7085  0.3165 -0.0677
   40CHL1  H12A 2918   5.664   2.889   7.601 -3.4734 -1.0867 -2.3610
   40CHL1  H12B 2919   5.582   3.035   7.525 -1.0749 -2.2157  1.0790
   40CHL1   C11 2920   5.713   2.909   7.397 -0.3386 -1.1545  0.6533
   40CHL1  H11A 2921   5.782   2.823   7.408  2.1570  0.7960  1.4765
   40CHL1  H11B 2922   5.619   2.885   7.343  0.6672  3.5595 -4.1405
   40CHL1    C9 2923   5.783   3.004   7.292 -0.1798 -0.2129  0.4226
   40CHL1    H9 2924   5.702   3.066   7.249 -1.7407 -1.1208  1.9161
   40CHL1   C10 2925   5.854   2.935   7.165  1.0278  0.2121  0.1726
   40CHL1   C19 2926   5.957   2.828   7.205  0.3674  0.0022 -0.0150
   40CHL1  H19A 2927   5.905   2.737   7.242 -0.2821  0.0424 -0.7810
   40CHL1  H19B 2928   6.026   2.815   7.119  1.0126 -0.5398  0.5694
   40CHL1  H19C 2929   6.010   2.874   7.291  0.3728 -1.3256  0.7158
   40CHL1    C1 2930   5.738   2.857   7.080 -0.1033 -0.5063 -1.0749
   40CHL1   H1A 2931   5.695   2.770   7.135  1.5208 -0.5353  0.2498
   40CHL1   H1B 2932   5.659   2.932   7.064  2.5479  2.4932 -1.1317
   40CHL1    C2 2933   5.783   2.808   6.940  0.3248  0.5503 -0.4561
   40CHL1   H2A 2934   5.710   2.761   6.870  0.9702  0.4313 -1.0602
   40CHL1   H2B 2935   5.861   2.729   6.945 -2.0789 -2.0254 -1.2578
   40CHL1   C20 2936   5.747   3.107   7.852  0.0167  0.5787 -0.6171
   40CHL1   H20 2937   5.818   3.025   7.877  1.2413  2.6186  3.3167
   40CHL1   C21 2938   5.609   3.036   7.867  0.6602  0.0899 -0.3279
   40CHL1  H21A 2939   5.592   3.022   7.976  0.2294  0.5747 -0.3282
   40CHL1  H21B 2940   5.604   2.935   7.821 -0.4238 -1.2738  2.5392
   40CHL1  H21C 2941   5.519   3.091   7.831  0.4011 -0.0242  0.1371
   40CHL1   C22 2942   5.760   3.207   7.960 -0.6853  0.5373  0.0755
   40CHL1  H22A 2943   5.756   3.155   8.058  3.6156  1.1404  0.7432
   40CHL1  H22B 2944   5.860   3.254   7.958 -0.2772 -0.2913  0.7732
   40CHL1   C23 2945   5.662   3.327   7.958  0.1395 -0.4279  0.4167
   40CHL1  H23A 2946   5.682   3.391   7.870  2.6941 -0.2257  1.0427
   40CHL1  H23B 2947   5.558   3.291   7.951 -0.5310  0.9378  2.3436
   40CHL1   C24 2948   5.672   3.403   8.097 -0.3099 -0.8271  0.4761
   40CHL1  H24A 2949   5.668   3.330   8.181 -0.5662 -0.3064  0.9242
   40CHL1  H24B 2950   5.779   3.429   8.112 -0.5164 -0.6631  1.8170
   40CHL1   C25 2951   5.583   3.519   8.102 -0.5256  0.0541 -0.1054
   40CHL1   H25 2952   5.480   3.484   8.079 -0.9454 -0.7525  2.5793
   40CHL1   C26 2953   5.586   3.575   8.248 -0.4799  0.1569 -0.0493
   40CHL1  H26A 2954   5.684   3.626   8.262  0.6608 -1.5091 -1.4924
   40CHL1  H26B 2955   5.498   3.641   8.263 -0.2117  1.4955 -3.3421
   40CHL1  H26C 2956   5.586   3.491   8.320  0.1247  1.1732  1.1901
   40CHL1   C27 2957   5.631   3.629   7.994  0.7067  0.3100 -0.2001
   40CHL1  H27A 2958   5.548   3.702   7.983  0.3428  0.0216  0.5397
   40CHL1  H27B 2959   5.727   3.675   8.025  1.8315 -0.4914 -2.3627
   40CHL1  H27C 2960   5.658   3.588   7.895  0.4917  0.3487 -0.2761
   41CHL1    C3 2961   5.641   3.550   6.808 -0.1121  0.0178  0.6866
   41CHL1    H3 2962   5.633   3.657   6.838  0.4036 -0.2181  1.6903
   41CHL1    O3 2963   5.698   3.526   6.681 -0.2699 -0.1207  0.2491
   41CHL1   H3' 2964   5.708   3.431   6.670  2.5879  0.2077 -1.0546
   41CHL1    C4 2965   5.725   3.488   6.915 -0.4430 -0.2347 -0.3707
   41CHL1   H4A 2966   5.747   3.383   6.887  1.1556  0.2256 -0.9495
   41CHL1   H4B 2967   5.827   3.531   6.903 -0.2937  0.3036  2.3200
   41CHL1    C5 2968   5.660   3.503   7.047  0.5759 -0.7002  0.3838
   41CHL1    C6 2969   5.722   3.578   7.136  0.1187  0.4942  0.0707
   41CHL1    H6 2970   5.820   3.623   7.117  1.1792 -0.1318  3.4390
   41CHL1    C7 2971   5.663   3.599   7.276  0.0850  0.2129  0.1240
   41CHL1   H7A 2972   5.744   3.595   7.353  1.7565  1.6834 -1.4636
   41CHL1   H7B 2973   5.626   3.704   7.278  0.0804  0.2115  2.0866
   41CHL1    C8 2974   5.546   3.507   7.318 -0.0411  0.5001  0.4570
   41CHL1    H8 2975   5.583   3.402   7.316 -2.6674 -0.5627  2.4270
   41CHL1   C14 2976   5.475   3.541   7.447 -0.0488 -0.3162  0.1179
   41CHL1   H14 2977   5.438   3.644   7.433  0.8530 -0.2001 -1.7846
   41CHL1   C15 2978   5.566   3.551   7.569  0.0360  0.1475 -0.7082
   41CHL1  H15A 2979   5.638   3.469   7.592 -1.6665 -1.2553 -0.1188
   41CHL1  H15B 2980   5.615   3.650   7.578  1.7115 -0.4473 -2.6657
   41CHL1   C16 2981   5.460   3.536   7.684 -0.2271 -0.4434  0.8204
   41CHL1  H16A 2982   5.491   3.443   7.735  0.2696 -1.9867 -2.0527
   41CHL1  H16B 2983   5.457   3.628   7.746 -1.7566  0.5501 -0.6008
   41CHL1   C17 2984   5.324   3.509   7.616 -0.4082  0.0214  0.1824
   41CHL1   H17 2985   5.268   3.604   7.605 -0.9207 -0.4971 -2.0615
   41CHL1   C13 2986   5.354   3.454   7.477  0.2516  0.0832  0.2102
   41CHL1   C18 2987   5.394   3.308   7.493 -0.1791  0.4506 -0.0725
   41CHL1  H18A 2988   5.399   3.254   7.396 -1.5930 -2.1506  1.1943
   41CHL1  H18B 2989   5.481   3.280   7.556  1.3303 -0.6864 -2.5107
   41CHL1  H18C 2990   5.305   3.254   7.533 -0.4700  0.7601 -0.2936
   41CHL1   C12 2991   5.246   3.477   7.369  0.0535 -0.6108  0.1638
   41CHL1  H12A 2992   5.154   3.418   7.390 -2.5672  2.2697 -2.2267
   41CHL1  H12B 2993   5.215   3.583   7.372  2.1415  0.0232  1.5328
   41CHL1   C11 2994   5.304   3.440   7.227 -0.2682 -0.5501  0.1635
   41CHL1  H11A 2995   5.312   3.330   7.209 -0.8285 -0.5906  0.1342
   41CHL1  H11B 2996   5.239   3.471   7.142  0.4992  0.9033  0.0920
   41CHL1    C9 2997   5.450   3.495   7.196  0.1802  0.1913  0.0687
   41CHL1    H9 2998   5.432   3.605   7.187  0.7677  0.3279  0.4766
   41CHL1   C10 2999   5.519   3.450   7.058  0.5842  0.0870 -0.6775
   41CHL1   C19 3000   5.506   3.299   7.044 -0.1433  0.1729 -0.0101
   41CHL1  H19A 3001   5.560   3.253   6.959 -1.0164 -1.3392  0.1995
   41CHL1  H19B 3002   5.538   3.239   7.132 -0.0131 -0.3688 -0.4206
   41CHL1  H19C 3003   5.399   3.275   7.022  0.3034 -1.0309 -0.9504
   41CHL1    C1 3004   5.440   3.516   6.945  0.6398 -0.1304  0.1959
   41CHL1   H1A 3005   5.341   3.465   6.949  1.3669 -2.0102 -2.6209
   41CHL1   H1B 3006   5.436   3.626   6.959  1.2918 -0.3834  3.1021
   41CHL1    C2 3007   5.499   3.487   6.807 -1.0083 -0.8431 -0.1253
   41CHL1   H2A 3008   5.430   3.524   6.728 -3.7854  0.3005  2.6168
   41CHL1   H2B 3009   5.508   3.380   6.781 -0.1257 -0.7006 -0.4390
   41CHL1   C20 3010   5.228   3.430   7.717 -0.0675 -0.1499  0.4033
   41CHL1   H20 3011   5.270   3.330   7.742 -0.2741  0.1408  2.0048
   41CHL1   C21 3012   5.086   3.406   7.658 -0.4742 -0.1504 -0.9082
   41CHL1  H21A 3013   5.062   3.511   7.630  2.2699  1.8673  3.2948
   41CHL1  H21B 3014   5.009   3.381   7.735  0.3442 -0.6316 -0.2292
   41CHL1  H21C 3015   5.087   3.335   7.573  1.9882  0.1365 -1.1926
   41CHL1   C22 3016   5.214   3.499   7.856  0.0802  0.5205  1.1330
   41CHL1  H22A 3017   5.311   3.545   7.882  1.4514  0.0394 -2.4830
   41CHL1  H22B 3018   5.152   3.590   7.845 -2.4078 -1.2725 -1.3274
   41CHL1   C23 3019   5.154   3.418   7.973  0.2523 -0.1707 -0.2508
   41CHL1  H23A 3020   5.052   3.394   7.936  0.7364  1.4284 -2.9301
   41CHL1  H23B 3021   5.223   3.332   7.987 -0.6360 -0.9701 -0.6520
   41CHL1   C24 3022   5.145   3.502   8.112  0.2971 -0.0261 -0.0609
   41CHL1  H24A 3023   5.243   3.555   8.121 -0.2548  1.0258 -0.1216
   41CHL1  H24B 3024   5.054   3.563   8.096  0.3987 -0.0807 -0.9089
   41CHL1   C25 3025   5.135   3.425   8.248  0.3626 -0.0796  1.3858
   41CHL1   H25 3026   5.117   3.496   8.331 -0.8185  0.0421  1.0328
   41CHL1   C26 3027   5.014   3.334   8.245 -0.2788 -0.1763 -0.4647
   41CHL1  H26A 3028   4.924   3.399   8.244 -0.6625 -0.6445  1.0184
   41CHL1  H26B 3029   5.021   3.267   8.156 -0.9364 -1.3534  0.3501
   41CHL1  H26C 3030   5.013   3.261   8.329 -0.9756  0.1902 -0.1428
   41CHL1   C27 3031   5.261   3.348   8.284 -1.0480 -0.0976  0.5925
   41CHL1  H27A 3032   5.312   3.294   8.202  0.1915  1.8649  0.0174
   41CHL1  H27B 3033   5.353   3.402   8.315  1.5923 -2.1906 -2.9140
   41CHL1  H27C 3034   5.239   3.270   8.360  1.8242  0.4322  2.0822
   42CHL1    C3 3035   5.683   0.575   7.066  0.9273  0.2641  0.1078
   42CHL1    H3 3036   5.638   0.482   7.026  1.6192  0.2768 -0.7380
   42CHL1    O3 3037   5.683   0.660   6.950 -0.9059  0.2012 -0.8225
   42CHL1   H3' 3038   5.770   0.674   6.912 -0.5136 -0.8826 -0.3535
   42CHL1    C4 3039   5.597   0.644   7.175 -1.0529 -0.1935 -0.0939
   42CHL1   H4A 3040   5.625   0.751   7.188  1.7041 -0.9091  0.5306
   42CHL1   H4B 3041   5.496   0.646   7.129 -1.0257  1.9939 -0.1772
   42CHL1    C5 3042   5.613   0.559   7.303  0.2576 -0.2006 -0.1703
   42CHL1    C6 3043   5.500   0.509   7.366  0.0382  0.5163 -0.0225
   42CHL1    H6 3044   5.399   0.541   7.338  0.5261  1.8904 -0.3045
   42CHL1    C7 3045   5.505   0.426   7.492  0.5744  0.8531 -0.4161
   42CHL1   H7A 3046   5.418   0.445   7.559 -1.1127 -2.4634 -1.4178
   42CHL1   H7B 3047   5.498   0.317   7.468  0.8812  0.5559  0.7731
   42CHL1    C8 3048   5.644   0.437   7.559  0.7815 -0.1836  0.4998
   42CHL1    H8 3049   5.649   0.544   7.589  3.6466 -0.3300  0.8759
   42CHL1   C14 3050   5.658   0.340   7.676  0.2483 -0.4158 -0.5272
   42CHL1   H14 3051   5.643   0.243   7.623 -0.9416 -0.6226  0.1508
   42CHL1   C15 3052   5.545   0.329   7.784  0.0553 -0.3225  0.6036
   42CHL1  H15A 3053   5.510   0.431   7.814 -1.3065 -0.6725  0.2717
   42CHL1  H15B 3054   5.457   0.279   7.739 -0.1174  0.4948 -0.0008
   42CHL1   C16 3055   5.612   0.249   7.897  0.1365  0.0170  0.5616
   42CHL1  H16A 3056   5.579   0.297   7.992 -0.0183 -1.8181  1.4719
   42CHL1  H16B 3057   5.557   0.152   7.902  0.2133 -0.1976 -1.7069
   42CHL1   C17 3058   5.763   0.238   7.863  0.3899 -0.1813 -0.2076
   42CHL1   H17 3059   5.765   0.138   7.816 -0.7247 -0.6607  0.7231
   42CHL1   C13 3060   5.792   0.336   7.746 -0.2012  0.2555 -1.2101
   42CHL1   C18 3061   5.822   0.470   7.810 -0.3097  0.3204 -0.3161
   42CHL1  H18A 3062   5.927   0.460   7.847  0.1221  1.2442 -1.2274
   42CHL1  H18B 3063   5.825   0.551   7.733  2.6067  3.0321  2.3620
   42CHL1  H18C 3064   5.767   0.498   7.902  0.2810  0.0637  0.1231
   42CHL1   C12 3065   5.895   0.294   7.636  0.2619  0.7639  1.0032
   42CHL1  H12A 3066   5.992   0.291   7.689  0.4373 -0.3134  0.6359
   42CHL1  H12B 3067   5.872   0.199   7.585  0.0489  1.4280 -0.1778
   42CHL1   C11 3068   5.895   0.394   7.523 -0.2224  0.1621 -0.3182
   42CHL1  H11A 3069   5.932   0.491   7.560 -1.9676  0.6209  0.3321
   42CHL1  H11B 3070   5.960   0.355   7.441 -1.2859 -2.4460 -0.0225
   42CHL1    C9 3071   5.755   0.419   7.462 -0.2481 -0.3223 -0.0808
   42CHL1    H9 3072   5.724   0.324   7.413 -3.6416  0.4439  0.3203
   42CHL1   C10 3073   5.752   0.525   7.345 -0.0698 -0.0973  0.1770
   42CHL1   C19 3074   5.818   0.663   7.389  0.3319  0.2632  0.3007
   42CHL1  H19A 3075   5.778   0.706   7.483  2.6370  1.9918  0.5739
   42CHL1  H19B 3076   5.924   0.654   7.420  0.2076 -0.3716  0.5595
   42CHL1  H19C 3077   5.807   0.741   7.310  1.7660 -0.3685 -0.5617
   42CHL1    C1 3078   5.831   0.457   7.235 -0.2843  0.0215 -0.4003
   42CHL1   H1A 3079   5.937   0.437   7.261 -0.6049 -1.1458  0.0455
   42CHL1   H1B 3080   5.774   0.366   7.206 -1.0381 -0.1634  1.5291
   42CHL1    C2 3081   5.829   0.543   7.107 -0.3541  0.1686 -0.1371
   42CHL1   H2A 3082   5.879   0.480   7.030  0.7963  0.1024  0.6481
   42CHL1   H2B 3083   5.887   0.637   7.110  0.2836 -0.1961 -0.9151
   42CHL1   C20 3084   5.857   0.232   7.987 -0.0681  0.1348 -0.6515
   42CHL1   H20 3085   5.855   0.335   8.030  1.1402  0.2119 -0.7470
   42CHL1   C21 3086   6.000   0.197   7.941 -0.1064  0.4734  0.1959
   42CHL1  H21A 3087   6.080   0.190   8.017  2.1747 -1.3562 -2.1805
   42CHL1  H21B 3088   6.045   0.270   7.870  0.1867  0.7990  0.7091
   42CHL1  H21C 3089   5.990   0.098   7.891 -2.5778  0.9202 -0.3012
   42CHL1   C22 3090   5.814   0.138   8.100 -1.0169  0.2205  0.0683
   42CHL1  H22A 3091   5.712   0.157   8.139 -1.3850  0.2032 -0.8518
   42CHL1  H22B 3092   5.803   0.039   8.052 -2.4621  0.8952 -1.0757
   42CHL1   C23 3093   5.913   0.134   8.222 -0.0751 -0.2020 -0.4177
   42CHL1  H23A 3094   6.000   0.074   8.187  0.8365  1.5903 -1.3703
   42CHL1  H23B 3095   5.940   0.240   8.241  0.8049 -0.7879  2.0566
   42CHL1   C24 3096   5.847   0.065   8.347 -0.1705  0.4041 -0.4083
   42CHL1  H24A 3097   5.772   0.138   8.382 -1.0933 -1.3181  1.4180
   42CHL1  H24B 3098   5.792  -0.027   8.317  1.0691 -0.1527 -1.0570
   42CHL1   C25 3099   5.939   0.037   8.468 -0.1860 -0.4171  0.2481
   42CHL1   H25 3100   6.024  -0.025   8.432 -1.3846 -1.8664 -0.1506
   42CHL1   C26 3101   6.013   0.166   8.518  0.2011 -0.4147 -0.1788
   42CHL1  H26A 3102   5.936   0.237   8.556  1.4837  0.0174  1.7762
   42CHL1  H26B 3103   6.080   0.136   8.601 -1.9418 -0.8058  1.4933
   42CHL1  H26C 3104   6.073   0.223   8.444  0.8820 -0.1937  0.5291
   42CHL1   C27 3105   5.860  -0.028   8.580 -0.5304 -0.4911  0.3334
   42CHL1  H27A 3106   5.920  -0.039   8.673 -1.0079  0.1624  0.7307
   42CHL1  H27B 3107   5.814  -0.122   8.543  1.5191 -1.2240 -0.5436
   42CHL1  H27C 3108   5.777   0.033   8.621  1.0792  2.1728 -0.1443
   43CHL1    C3 3109   5.784   5.122   6.856 -0.2155 -0.7728 -0.2702
   43CHL1    H3 3110   5.851   5.034   6.874  3.1047  1.3421 -1.3489
   43CHL1    O3 3111   5.787   5.167   6.722 -0.0184 -0.2374  0.1583
   43CHL1   H3' 3112   5.769   5.086   6.674  1.7936 -0.0056 -1.0235
   43CHL1    C4 3113   5.638   5.091   6.892 -0.5637  0.5706  0.3871
   43CHL1   H4A 3114   5.570   5.179   6.884 -2.7051 -0.9722  0.7798
   43CHL1   H4B 3115   5.613   5.020   6.811 -0.2361 -0.8769  1.5187
   43CHL1    C5 3116   5.625   5.036   7.033  0.1682 -1.3331 -0.1758
   43CHL1    C6 3117   5.576   4.918   7.066  0.1963 -0.6690  0.2974
   43CHL1    H6 3118   5.534   4.861   6.982  1.2827  0.4851 -1.0827
   43CHL1    C7 3119   5.560   4.867   7.210  0.2239 -0.6798  0.0641
   43CHL1   H7A 3120   5.460   4.821   7.224 -1.2426  2.2741 -0.0137
   43CHL1   H7B 3121   5.631   4.785   7.237 -1.1327 -2.1367 -0.6106
   43CHL1    C8 3122   5.574   4.984   7.307 -0.4349 -0.2480  0.2884
   43CHL1    H8 3123   5.483   5.048   7.297 -0.5799 -0.4500  0.3026
   43CHL1   C14 3124   5.587   4.937   7.448 -0.6333  0.8346 -0.2538
   43CHL1   H14 3125   5.676   4.872   7.464 -0.1466  1.2194 -1.3049
   43CHL1   C15 3126   5.469   4.853   7.493 -0.3123  0.1087 -0.1985
   43CHL1  H15A 3127   5.381   4.895   7.439 -1.2207 -0.8827  0.4678
   43CHL1  H15B 3128   5.476   4.748   7.459  0.3910  0.3046 -0.6921
   43CHL1   C16 3129   5.460   4.873   7.639  0.0643  0.7510 -0.0966
   43CHL1  H16A 3130   5.361   4.907   7.675  0.0021 -1.3221  1.9535
   43CHL1  H16B 3131   5.471   4.777   7.695  3.5917 -0.3123 -2.2805
   43CHL1   C17 3132   5.575   4.963   7.681 -0.6372  0.3124 -0.2828
   43CHL1   H17 3133   5.663   4.898   7.695 -0.3085  0.4810 -1.5215
   43CHL1   C13 3134   5.592   5.044   7.552  0.3062  0.5110  0.2038
   43CHL1   C18 3135   5.472   5.146   7.536 -0.9612  0.4722  0.0523
   43CHL1  H18A 3136   5.373   5.101   7.557 -0.7927  0.1627  0.1805
   43CHL1  H18B 3137   5.492   5.231   7.605 -0.2905  0.0505  0.3817
   43CHL1  H18C 3138   5.461   5.199   7.438 -0.4821  0.3806 -0.0515
   43CHL1   C12 3139   5.729   5.112   7.538 -0.5221 -0.0408 -0.0283
   43CHL1  H12A 3140   5.759   5.187   7.614  0.7282 -0.5936  0.0403
   43CHL1  H12B 3141   5.797   5.025   7.542  0.2942  0.5790 -0.2146
   43CHL1   C11 3142   5.739   5.174   7.400  0.5640  0.3336 -0.0117
   43CHL1  H11A 3143   5.685   5.270   7.408 -1.4815 -0.8709  2.1093
   43CHL1  H11B 3144   5.846   5.196   7.381  0.0732  2.6811 -0.3701
   43CHL1    C9 3145   5.694   5.080   7.278  0.1219  0.2939 -0.2116
   43CHL1    H9 3146   5.777   5.007   7.273  1.0864  1.1299  1.9530
   43CHL1   C10 3147   5.683   5.138   7.135  0.7537  0.3225  0.2377
   43CHL1   C19 3148   5.585   5.261   7.164 -0.1372  0.4011 -0.3524
   43CHL1  H19A 3149   5.566   5.315   7.069  0.0944 -0.4815 -0.9116
   43CHL1  H19B 3150   5.498   5.249   7.232  0.1599 -1.8856 -0.2945
   43CHL1  H19C 3151   5.656   5.333   7.209  0.9900 -0.8124 -0.1360
   43CHL1    C1 3152   5.826   5.188   7.085 -0.0658 -0.6339  0.0874
   43CHL1   H1A 3153   5.857   5.271   7.152 -1.9105  0.5628 -0.4562
   43CHL1   H1B 3154   5.896   5.103   7.093 -0.2405 -0.7572  0.3623
   43CHL1    C2 3155   5.833   5.236   6.944  0.3583 -0.3183 -0.0509
   43CHL1   H2A 3156   5.930   5.276   6.909 -0.3407  0.3096 -1.3434
   43CHL1   H2B 3157   5.765   5.324   6.933  2.4047  1.4337  0.6502
   43CHL1   C20 3158   5.528   5.031   7.811 -0.5680 -0.3364  0.0596
   43CHL1   H20 3159   5.433   5.086   7.796 -0.2167 -0.0281 -1.1167
   43CHL1   C21 3160   5.647   5.124   7.849 -0.6476 -0.0532 -0.1165
   43CHL1  H21A 3161   5.642   5.205   7.772  2.1436 -1.1735 -1.6187
   43CHL1  H21B 3162   5.747   5.077   7.847 -1.0567 -0.9476 -1.8730
   43CHL1  H21C 3163   5.631   5.167   7.950  0.9825  1.7842 -0.5831
   43CHL1   C22 3164   5.503   4.926   7.922 -0.0566  0.4637 -0.6609
   43CHL1  H22A 3165   5.402   4.880   7.919 -0.3189  1.0445 -1.0278
   43CHL1  H22B 3166   5.575   4.843   7.932  0.0863  0.5558 -0.9152
   43CHL1   C23 3167   5.495   4.993   8.067 -0.1687  0.4494  0.0764
   43CHL1  H23A 3168   5.582   5.056   8.096  0.0518 -0.2772  1.0680
   43CHL1  H23B 3169   5.408   5.061   8.065 -0.1909  0.4836  1.5288
   43CHL1   C24 3170   5.471   4.886   8.171 -0.0778 -0.1053 -0.3321
   43CHL1  H24A 3171   5.369   4.842   8.173  0.4681 -1.3956 -0.1228
   43CHL1  H24B 3172   5.537   4.797   8.170  3.2008  2.0471  2.0887
   43CHL1   C25 3173   5.478   4.937   8.317 -0.2287 -1.1059  0.1396
   43CHL1   H25 3174   5.584   4.963   8.336 -0.4605 -0.6642  0.9146
   43CHL1   C26 3175   5.405   5.060   8.353  0.3368  0.4883 -0.2090
   43CHL1  H26A 3176   5.297   5.041   8.333  0.0027  1.1225  0.9187
   43CHL1  H26B 3177   5.405   5.084   8.462  0.1597  0.9067 -0.2974
   43CHL1  H26C 3178   5.451   5.144   8.296  1.1374 -0.7747 -1.4903
   43CHL1   C27 3179   5.464   4.836   8.426 -0.5222  0.7021 -0.6645
   43CHL1  H27A 3180   5.481   4.890   8.522  1.7677  0.1049 -0.6725
   43CHL1  H27B 3181   5.361   4.794   8.423 -0.7281  1.1907 -0.5749
   43CHL1  H27C 3182   5.533   4.749   8.423 -0.6849  0.4190  1.6238
   44CHL1    C3 3183   0.118   3.189   6.835 -0.1819  0.7956  0.6124
   44CHL1    H3 3184   0.088   3.296   6.826  0.3803  1.0746  1.8170
   44CHL1    O3 3185   0.136   3.144   6.697 -0.5856  0.2395 -0.8433
   44CHL1   H3' 3186   0.064   3.193   6.655 -1.1349 -0.4163 -0.6794
   44CHL1    C4 3187   0.249   3.155   6.916  0.6902 -0.3656  0.0621
   44CHL1   H4A 3188   0.260   3.045   6.911 -0.0763 -0.5278  1.3391
   44CHL1   H4B 3189   0.331   3.199   6.856  1.7049 -1.0777  0.9008
   44CHL1    C5 3190   0.228   3.200   7.061 -0.3401 -0.2657  0.0165
   44CHL1    C6 3191   0.309   3.294   7.121 -0.3054 -0.8703  0.0986
   44CHL1    H6 3192   0.396   3.336   7.069  0.4998 -1.1387  1.2081
   44CHL1    C7 3193   0.295   3.342   7.263 -0.4334  0.5171  0.2950
   44CHL1   H7A 3194   0.392   3.353   7.316  1.0492  2.0310 -2.5051
   44CHL1   H7B 3195   0.242   3.440   7.262  0.5807  1.1417 -2.6273
   44CHL1    C8 3196   0.224   3.224   7.342  0.2257 -0.0446  0.2652
   44CHL1    H8 3197   0.291   3.137   7.352  0.0452 -0.1629  0.4363
   44CHL1   C14 3198   0.197   3.270   7.485 -0.3322  0.1701 -0.4331
   44CHL1   H14 3199   0.125   3.352   7.466 -1.5730 -0.4009  1.5887
   44CHL1   C15 3200   0.310   3.339   7.568  0.0930  0.0656 -0.2615
   44CHL1  H15A 3201   0.410   3.292   7.561  0.3747  0.5083  0.6239
   44CHL1  H15B 3202   0.333   3.444   7.540 -0.4225 -0.0678 -1.2473
   44CHL1   C16 3203   0.265   3.325   7.710  0.0390 -0.1245 -0.7952
   44CHL1  H16A 3204   0.329   3.273   7.785 -0.9884  0.0323  0.2155
   44CHL1  H16B 3205   0.232   3.425   7.745 -0.2839 -0.3218 -0.5247
   44CHL1   C17 3206   0.127   3.252   7.710 -0.5384 -0.2264  0.3953
   44CHL1   H17 3207   0.052   3.333   7.694 -1.5346 -1.2305 -0.0887
   44CHL1   C13 3208   0.126   3.178   7.576  0.1425  0.0190 -0.1685
   44CHL1   C18 3209   0.194   3.037   7.597 -0.5604 -1.0471 -0.1828
   44CHL1  H18A 3210   0.135   2.959   7.648 -2.1996  0.9887  1.2017
   44CHL1  H18B 3211   0.231   3.000   7.499 -2.0940 -4.1750  0.3206
   44CHL1  H18C 3212   0.281   3.044   7.666 -0.6513 -2.4398  0.0908
   44CHL1   C12 3213  -0.019   3.159   7.507  0.5674 -0.6530 -0.4273
   44CHL1  H12A 3214  -0.059   3.088   7.582 -2.2424 -0.2037 -1.4025
   44CHL1  H12B 3215  -0.066   3.259   7.511 -0.1461 -0.9722  4.0024
   44CHL1   C11 3216   0.001   3.101   7.362 -0.3873 -0.1883  0.3623
   44CHL1  H11A 3217   0.043   2.998   7.374  0.0747 -0.7714 -4.3134
   44CHL1  H11B 3218  -0.100   3.090   7.317  0.7119 -1.8038 -1.9327
   44CHL1    C9 3219   0.092   3.184   7.275  0.2101 -0.3979  0.3630
   44CHL1    H9 3220   0.053   3.287   7.260  2.4613  0.3006 -1.1828
   44CHL1   C10 3221   0.111   3.128   7.128 -0.3946 -0.8249  0.3746
   44CHL1   C19 3222   0.151   2.982   7.144 -0.1909  0.6308 -0.6078
   44CHL1  H19A 3223   0.241   2.971   7.209 -0.2177  2.9276 -0.0995
   44CHL1  H19B 3224   0.074   2.917   7.191  0.9716 -0.3050  0.0751
   44CHL1  H19C 3225   0.195   2.927   7.058 -0.0274 -1.4495  0.7170
   44CHL1    C1 3226  -0.018   3.141   7.044  0.8849  0.1715 -0.6689
   44CHL1   H1A 3227  -0.097   3.077   7.088 -0.2960  1.2947 -1.0673
   44CHL1   H1B 3228  -0.061   3.244   7.042  2.3888  0.8214 -2.9433
   44CHL1    C2 3229  -0.002   3.112   6.895 -0.1850 -0.1582  0.1302
   44CHL1   H2A 3230  -0.098   3.138   6.847  1.0107  1.5295 -1.4932
   44CHL1   H2B 3231   0.020   3.003   6.886  2.6294  0.3742 -0.5817
   44CHL1   C20 3232   0.103   3.176   7.841 -0.1487 -0.0639 -0.2758
   44CHL1   H20 3233   0.182   3.099   7.856 -1.3163 -1.1156  0.8641
   44CHL1   C21 3234  -0.035   3.105   7.837  0.0995  0.3156 -0.2051
   44CHL1  H21A 3235  -0.063   3.064   7.936 -1.7054  0.5939 -0.5574
   44CHL1  H21B 3236  -0.027   3.015   7.771 -0.8453  1.6150 -2.1865
   44CHL1  H21C 3237  -0.122   3.170   7.813 -1.0596 -1.2871 -0.5688
   44CHL1   C22 3238   0.101   3.272   7.968  0.6871  0.2999  0.2283
   44CHL1  H22A 3239   0.199   3.324   7.972  1.3445 -0.8858  0.0994
   44CHL1  H22B 3240   0.021   3.345   7.943  0.8171  0.3079 -0.1780
   44CHL1   C23 3241   0.063   3.213   8.106 -0.2967 -0.5915 -0.9329
   44CHL1  H23A 3242   0.064   3.291   8.185 -0.7308 -1.3313 -0.1838
   44CHL1  H23B 3243  -0.043   3.184   8.091 -0.0412 -1.0971 -1.8458
   44CHL1   C24 3244   0.139   3.091   8.155 -0.4458  0.1209  0.3546
   44CHL1  H24A 3245   0.108   3.005   8.092 -0.4369 -0.6707  1.4194
   44CHL1  H24B 3246   0.247   3.117   8.145 -0.8863  1.5345 -1.3049
   44CHL1   C25 3247   0.114   3.049   8.304 -0.3580  0.0670  0.1145
   44CHL1   H25 3248   0.004   3.034   8.310 -0.2585 -0.5529  0.4157
   44CHL1   C26 3249   0.176   2.908   8.333  0.2614  0.5290  0.2476
   44CHL1  H26A 3250   0.131   2.855   8.419 -0.3332  0.5585 -0.0385
   44CHL1  H26B 3251   0.154   2.837   8.250 -0.3982  0.2580  0.6458
   44CHL1  H26C 3252   0.285   2.898   8.349 -0.0924 -1.7086  1.7867
   44CHL1   C27 3253   0.168   3.152   8.408  0.4819 -0.1291 -0.5018
   44CHL1  H27A 3254   0.278   3.160   8.404  0.7327 -0.1531  3.2146
   44CHL1  H27B 3255   0.119   3.248   8.384 -0.1216  0.0235  1.1983
   44CHL1  H27C 3256   0.132   3.128   8.511  0.1794  2.3822  0.0459
   45CHL1    C3 3257   0.776   0.517   6.695  0.2261 -0.4923 -0.1643
   45CHL1    H3 3258   0.877   0.475   6.676  2.2391  2.9335  1.8190
   45CHL1    O3 3259   0.733   0.576   6.575  0.3005  0.0594  0.2161
   45CHL1   H3' 3260   0.637   0.582   6.576  0.2464  1.1587 -2.5778
   45CHL1    C4 3261   0.676   0.403   6.729  0.2773 -0.3238 -0.5399
   45CHL1   H4A 3262   0.572   0.441   6.736  0.0397 -0.5358 -2.3530
   45CHL1   H4B 3263   0.684   0.323   6.653  1.3826 -0.4298 -0.3319
   45CHL1    C5 3264   0.710   0.347   6.866  0.4811 -0.1122  0.6142
   45CHL1    C6 3265   0.720   0.215   6.875 -0.2456  0.1143 -0.3448
   45CHL1    H6 3266   0.716   0.149   6.787 -1.0128  0.1288 -0.3285
   45CHL1    C7 3267   0.744   0.138   7.002 -0.0511  0.1029  0.4533
   45CHL1   H7A 3268   0.662   0.062   7.005 -0.6510  0.5767 -1.7976
   45CHL1   H7B 3269   0.842   0.088   6.995  2.5477  4.9135 -3.0592
   45CHL1    C8 3270   0.735   0.231   7.132 -0.3169  0.5207 -0.0916
   45CHL1    H8 3271   0.628   0.243   7.160  0.2005  1.0347  1.7803
   45CHL1   C14 3272   0.807   0.175   7.253 -0.4361  0.4650  0.3101
   45CHL1   H14 3273   0.911   0.169   7.216 -0.4682  1.9152 -0.0975
   45CHL1   C15 3274   0.771   0.031   7.295 -0.2003  0.2550  0.6565
   45CHL1  H15A 3275   0.662   0.010   7.295  0.3488 -3.0284  0.5984
   45CHL1  H15B 3276   0.805  -0.054   7.233 -0.0074  1.5294 -1.0749
   45CHL1   C16 3277   0.831   0.018   7.436 -0.1516 -0.6065 -0.4412
   45CHL1  H16A 3278   0.747  -0.001   7.506 -0.3164 -0.4340 -0.5924
   45CHL1  H16B 3279   0.913  -0.057   7.443 -1.3338 -2.0293 -1.1525
   45CHL1   C17 3280   0.865   0.162   7.477 -0.2600 -0.4443 -0.3370
   45CHL1   H17 3281   0.970   0.172   7.441 -0.9066 -1.7366 -2.8522
   45CHL1   C13 3282   0.794   0.260   7.372 -0.4625  0.3790  0.8121
   45CHL1   C18 3283   0.646   0.278   7.412 -0.2637  0.0633 -1.1612
   45CHL1  H18A 3284   0.608   0.178   7.442  0.5255  0.3453  0.9968
   45CHL1  H18B 3285   0.635   0.338   7.504  1.1669  0.0855 -0.9822
   45CHL1  H18C 3286   0.575   0.321   7.338 -1.6474 -0.1202  0.0260
   45CHL1   C12 3287   0.873   0.387   7.340 -0.3517 -0.5592  0.3714
   45CHL1  H12A 3288   0.885   0.445   7.434  0.2666 -0.5838  0.3107
   45CHL1  H12B 3289   0.979   0.364   7.315 -0.2874  1.0533 -0.9945
   45CHL1   C11 3290   0.804   0.463   7.227 -0.7942  0.6411 -0.3623
   45CHL1  H11A 3291   0.706   0.500   7.263 -1.1398  0.6220 -1.2438
   45CHL1  H11B 3292   0.860   0.558   7.212  1.0255 -0.3898 -0.4332
   45CHL1    C9 3293   0.792   0.371   7.098  0.6701 -0.6259 -0.4590
   45CHL1    H9 3294   0.899   0.353   7.075  0.7226  0.0952 -0.8158
   45CHL1   C10 3295   0.722   0.441   6.979 -0.3119  0.0741 -0.3180
   45CHL1   C19 3296   0.586   0.494   7.019  0.4698 -0.1949  0.6691
   45CHL1  H19A 3297   0.521   0.405   7.037 -1.3447  1.4102  2.5310
   45CHL1  H19B 3298   0.590   0.547   7.116 -1.2692  0.3390  0.4848
   45CHL1  H19C 3299   0.547   0.574   6.953 -1.8737 -0.1634  1.9763
   45CHL1    C1 3300   0.813   0.562   6.943  1.0177 -0.1716 -0.0003
   45CHL1   H1A 3301   0.797   0.643   7.018  2.0785  0.5221 -0.4953
   45CHL1   H1B 3302   0.919   0.530   6.939  0.9677 -0.2354 -1.2434
   45CHL1    C2 3303   0.788   0.619   6.808 -0.3091  0.1448 -0.3155
   45CHL1   H2A 3304   0.862   0.693   6.770  2.0412 -0.7037  2.2331
   45CHL1   H2B 3305   0.690   0.669   6.814 -0.2933  0.5282 -2.5859
   45CHL1   C20 3306   0.840   0.176   7.635 -0.7493  0.2113  0.1233
   45CHL1   H20 3307   0.731   0.180   7.657 -1.2166  0.9137 -2.0068
   45CHL1   C21 3308   0.884   0.321   7.680  0.8415  0.7395 -0.1418
   45CHL1  H21A 3309   0.870   0.330   7.790 -1.3875  1.5334 -0.4335
   45CHL1  H21B 3310   0.812   0.395   7.637  1.0401  0.7085 -0.5312
   45CHL1  H21C 3311   0.979   0.350   7.631 -0.8102  1.3807 -3.2832
   45CHL1   C22 3312   0.898   0.059   7.718  0.2426  0.2108  0.3850
   45CHL1  H22A 3313   0.889  -0.040   7.668  1.3245  1.6482 -2.9966
   45CHL1  H22B 3314   1.006   0.085   7.728  0.3030 -0.0759  0.4827
   45CHL1   C23 3315   0.822   0.045   7.850 -0.5443 -0.2898  0.0527
   45CHL1  H23A 3316   0.833   0.144   7.900 -2.9407  1.4055 -2.4796
   45CHL1  H23B 3317   0.715   0.030   7.825 -0.5671  1.1949 -0.8992
   45CHL1   C24 3318   0.868  -0.075   7.934  0.1035  0.9183  0.2294
   45CHL1  H24A 3319   0.850  -0.174   7.888  2.2657  0.5105  0.1367
   45CHL1  H24B 3320   0.979  -0.066   7.937  0.3206 -1.1139 -0.2822
   45CHL1   C25 3321   0.815  -0.078   8.078  0.5226 -0.5852 -0.2513
   45CHL1   H25 3322   0.707  -0.057   8.064  0.4330  0.6992  1.8775
   45CHL1   C26 3323   0.834  -0.210   8.143  0.5818  0.1346 -0.2875
   45CHL1  H26A 3324   0.796  -0.283   8.069  1.0351 -0.7055  0.3011
   45CHL1  H26B 3325   0.942  -0.229   8.161  0.2455 -0.1217  1.7842
   45CHL1  H26C 3326   0.788  -0.221   8.244 -0.4829  1.4515 -0.5892
   45CHL1   C27 3327   0.875   0.029   8.162  0.2421 -0.7146 -0.1667
   45CHL1  H27A 3328   0.869   0.006   8.270  0.6087 -1.9443 -0.3837
   45CHL1  H27B 3329   0.985   0.036   8.149  0.5822  0.4854  2.6613
   45CHL1  H27C 3330   0.831   0.130   8.150  0.7638 -0.4789 -0.0820
   46CHL1    C3 3331   0.352   2.573   7.114 -0.7395  0.2172  0.4532
   46CHL1    H3 3332   0.253   2.624   7.120 -0.1872  1.1756  1.9998
   46CHL1    O3 3333   0.400   2.588   6.986 -0.5251 -0.6435  1.0672
   46CHL1   H3' 3334   0.385   2.506   6.939 -1.6457 -0.5422  1.2392
   46CHL1    C4 3335   0.452   2.630   7.210  0.4780 -0.0773  0.7368
   46CHL1   H4A 3336   0.548   2.575   7.202 -1.3580 -3.4796  0.2283
   46CHL1   H4B 3337   0.475   2.732   7.173  0.5535 -0.5532 -0.5819
   46CHL1    C5 3338   0.397   2.620   7.346 -0.2405 -0.5538 -0.5447
   46CHL1    C6 3339   0.378   2.727   7.419 -0.0309  0.2509 -0.1550
   46CHL1    H6 3340   0.403   2.830   7.391 -0.4894 -0.0057 -1.5898
   46CHL1    C7 3341   0.346   2.725   7.567 -0.1207 -0.8314 -0.3958
   46CHL1   H7A 3342   0.404   2.799   7.626 -1.5425 -0.7623  0.9730
   46CHL1   H7B 3343   0.240   2.757   7.571 -0.3896 -1.7072 -0.2588
   46CHL1    C8 3344   0.348   2.582   7.628  0.4934  0.5619 -0.9827
   46CHL1    H8 3345   0.451   2.547   7.650  0.4068  0.4342 -0.7729
   46CHL1   C14 3346   0.277   2.583   7.764  0.8685 -0.1014  0.5696
   46CHL1   H14 3347   0.171   2.596   7.732  0.9359 -1.4902 -0.2915
   46CHL1   C15 3348   0.316   2.695   7.863  0.5285  0.5945 -0.2916
   46CHL1  H15A 3349   0.426   2.681   7.856  0.4674 -0.3113  0.3624
   46CHL1  H15B 3350   0.284   2.798   7.839 -1.1152 -0.1446 -1.5143
   46CHL1   C16 3351   0.240   2.643   7.992 -0.0326 -0.1471 -0.3953
   46CHL1  H16A 3352   0.309   2.659   8.078  0.2270 -2.1867 -0.1648
   46CHL1  H16B 3353   0.152   2.709   8.009  0.4246  0.6605 -1.1377
   46CHL1   C17 3354   0.196   2.496   7.972 -0.4384  0.0208 -0.3285
   46CHL1   H17 3355   0.088   2.492   7.945 -0.4184  1.3495 -0.6435
   46CHL1   C13 3356   0.275   2.452   7.843  0.2953 -0.0487  0.0279
   46CHL1   C18 3357   0.416   2.416   7.881 -0.3168  0.2547  0.3593
   46CHL1  H18A 3358   0.487   2.414   7.796  0.2695  1.4396  0.7916
   46CHL1  H18B 3359   0.455   2.500   7.943  1.7173  1.0563 -1.8646
   46CHL1  H18C 3360   0.418   2.325   7.946  0.7792  0.1314  0.1830
   46CHL1   C12 3361   0.214   2.349   7.755  0.0085  0.7017 -0.5123
   46CHL1  H12A 3362   0.203   2.248   7.799  0.1202  0.5771 -0.7687
   46CHL1  H12B 3363   0.106   2.370   7.742 -0.2642 -0.2743  0.0407
   46CHL1   C11 3364   0.283   2.333   7.611 -0.5144 -0.6678 -0.2192
   46CHL1  H11A 3365   0.380   2.283   7.631 -0.3961 -1.3531 -2.2606
   46CHL1  H11B 3366   0.227   2.257   7.553  1.9775 -1.4682 -1.7061
   46CHL1    C9 3367   0.291   2.473   7.539  0.1935 -0.4277  0.5526
   46CHL1    H9 3368   0.189   2.504   7.508  0.3763  0.6760  1.0191
   46CHL1   C10 3369   0.372   2.479   7.400 -0.8239  0.6544 -0.2416
   46CHL1   C19 3370   0.512   2.411   7.421 -0.0493  0.3304  0.2796
   46CHL1  H19A 3371   0.493   2.309   7.458  1.0251  0.8174  2.3356
   46CHL1  H19B 3372   0.574   2.402   7.329 -0.0420 -0.3574  0.3528
   46CHL1  H19C 3373   0.571   2.466   7.497  0.7300 -0.1692  0.0481
   46CHL1    C1 3374   0.288   2.403   7.292  0.5521 -0.2877 -0.1669
   46CHL1   H1A 3375   0.286   2.295   7.319  0.2385 -0.1433  0.3961
   46CHL1   H1B 3376   0.182   2.433   7.310  0.5165 -1.4860  2.0077
   46CHL1    C2 3377   0.326   2.426   7.144 -0.1203  1.1154 -0.4302
   46CHL1   H2A 3378   0.250   2.384   7.074 -1.4809  0.3554  1.4192
   46CHL1   H2B 3379   0.422   2.377   7.120  0.6092  2.2225  0.1475
   46CHL1   C20 3380   0.196   2.413   8.099  0.4750 -0.2865  0.1849
   46CHL1   H20 3381   0.300   2.408   8.139  1.0416 -1.7642 -1.3636
   46CHL1   C21 3382   0.154   2.272   8.057 -0.3482  0.2724  0.6594
   46CHL1  H21A 3383   0.218   2.217   7.984 -0.4345  1.2199 -0.1568
   46CHL1  H21B 3384   0.054   2.264   8.009  0.7542 -1.4806 -1.5810
   46CHL1  H21C 3385   0.148   2.202   8.143 -1.9085  0.3659  0.6505
   46CHL1   C22 3386   0.109   2.468   8.211  0.3374 -0.0562  0.6362
   46CHL1  H22A 3387   0.083   2.576   8.201 -1.6885 -0.3875  1.7018
   46CHL1  H22B 3388   0.013   2.411   8.209  1.5000 -2.2602  2.4119
   46CHL1   C23 3389   0.167   2.440   8.352 -0.4314 -0.6080  0.2520
   46CHL1  H23A 3390   0.092   2.486   8.420 -0.0736 -0.4647  0.5535
   46CHL1  H23B 3391   0.183   2.331   8.364  1.8596 -0.6034 -1.8911
   46CHL1   C24 3392   0.298   2.518   8.379  0.2556 -0.1863  0.1941
   46CHL1  H24A 3393   0.369   2.501   8.295 -0.9738  0.7454 -1.1085
   46CHL1  H24B 3394   0.274   2.626   8.386  1.9814  0.1822  0.7546
   46CHL1   C25 3395   0.369   2.484   8.510  0.5162 -0.3012  0.1853
   46CHL1   H25 3396   0.287   2.493   8.584  1.1096  0.6461  0.7556
   46CHL1   C26 3397   0.422   2.343   8.519  0.0395 -0.7921  0.1704
   46CHL1  H26A 3398   0.462   2.313   8.618  1.8590 -1.1325 -0.6267
   46CHL1  H26B 3399   0.341   2.268   8.507 -2.5941  1.5492  1.7819
   46CHL1  H26C 3400   0.501   2.329   8.442 -0.1938  0.5256 -0.3363
   46CHL1   C27 3401   0.461   2.596   8.555  0.0757 -0.2525 -0.0043
   46CHL1  H27A 3402   0.420   2.699   8.550 -1.5649 -0.6253  3.0612
   46CHL1  H27B 3403   0.505   2.575   8.655  0.4695 -2.5085 -0.5935
   46CHL1  H27C 3404   0.550   2.586   8.490  0.9456 -2.6358  1.4041
   47CHL1    C3 3405   1.069   1.908   6.769 -0.1350  0.4443  0.2577
   47CHL1    H3 3406   1.107   2.012   6.784  0.6977  0.2516 -0.4789
   47CHL1    O3 3407   1.003   1.877   6.646 -0.1015  0.0447  0.1555
   47CHL1   H3' 3408   1.068   1.829   6.594 -0.3159  0.4829 -0.5453
   47CHL1    C4 3409   1.178   1.810   6.794  0.6466 -1.2111 -0.2384
   47CHL1   H4A 3410   1.145   1.706   6.773 -1.2394 -0.8373  0.6544
   47CHL1   H4B 3411   1.254   1.828   6.715 -0.7552  0.2081 -1.3134
   47CHL1    C5 3412   1.234   1.828   6.938 -0.1235  0.4583  0.2758
   47CHL1    C6 3413   1.362   1.861   6.960 -0.1409  0.2551  0.5182
   47CHL1    H6 3414   1.425   1.872   6.870  2.9766 -1.5657  2.2846
   47CHL1    C7 3415   1.420   1.895   7.092 -0.1954  0.1856  0.4311
   47CHL1   H7A 3416   1.525   1.862   7.101  0.4585  1.6660 -1.2425
   47CHL1   H7B 3417   1.425   2.003   7.116 -1.4121 -0.0047  1.7125
   47CHL1    C8 3418   1.347   1.833   7.208  0.5852  0.5150 -0.6573
   47CHL1    H8 3419   1.361   1.723   7.204 -0.7028  0.3447 -0.8581
   47CHL1   C14 3420   1.385   1.888   7.348 -0.2484  0.2080  0.1204
   47CHL1   H14 3421   1.365   1.997   7.346  2.0073  0.6892  0.6779
   47CHL1   C15 3422   1.534   1.875   7.397 -0.1290  0.5344  0.8720
   47CHL1  H15A 3423   1.581   1.777   7.374  0.8320  1.3817 -1.0688
   47CHL1  H15B 3424   1.591   1.955   7.344 -3.2212  1.4601 -1.4366
   47CHL1   C16 3425   1.527   1.910   7.544 -0.0889 -0.0983  0.6667
   47CHL1  H16A 3426   1.592   1.840   7.600 -2.1034 -1.7024  1.1613
   47CHL1  H16B 3427   1.555   2.017   7.551 -0.8636  0.2154 -0.6423
   47CHL1   C17 3428   1.377   1.895   7.584  0.7669 -0.4288  0.3667
   47CHL1   H17 3429   1.322   1.992   7.589  1.8746  0.1466  3.0234
   47CHL1   C13 3430   1.309   1.824   7.462  0.2382 -0.1234 -0.3154
   47CHL1   C18 3431   1.340   1.667   7.466 -0.0603 -0.0604 -0.0284
   47CHL1  H18A 3432   1.317   1.618   7.369 -0.1352  0.3334 -0.2090
   47CHL1  H18B 3433   1.449   1.647   7.471 -0.1705 -1.6120 -2.3753
   47CHL1  H18C 3434   1.287   1.629   7.556 -0.3747  2.2959  0.8450
   47CHL1   C12 3435   1.156   1.857   7.444  0.0382 -0.6666  0.5653
   47CHL1  H12A 3436   1.094   1.812   7.525 -3.0567  2.8629  0.4266
   47CHL1  H12B 3437   1.137   1.966   7.440 -1.3251 -0.9084 -0.3364
   47CHL1   C11 3438   1.117   1.799   7.307 -0.3382 -0.5912 -0.4825
   47CHL1  H11A 3439   1.136   1.690   7.314  0.3549 -0.5925 -1.9384
   47CHL1  H11B 3440   1.011   1.824   7.282  0.1784  0.4692 -1.7360
   47CHL1    C9 3441   1.196   1.854   7.188 -0.9459  0.3085 -0.0007
   47CHL1    H9 3442   1.185   1.964   7.191  3.4855  0.9333 -0.5858
   47CHL1   C10 3443   1.133   1.817   7.046 -1.0761  0.2198 -0.6138
   47CHL1   C19 3444   1.090   1.668   7.062 -0.4215  0.9193  0.1533
   47CHL1  H19A 3445   0.991   1.669   7.113  0.1279  1.6295  1.2463
   47CHL1  H19B 3446   1.076   1.625   6.961 -0.9526 -1.6155  1.2465
   47CHL1  H19C 3447   1.171   1.617   7.117 -0.6778  0.3249 -0.0116
   47CHL1    C1 3448   1.014   1.910   7.010  1.4134 -0.0711 -0.0787
   47CHL1   H1A 3449   0.938   1.891   7.089  0.3312 -1.1778 -1.3262
   47CHL1   H1B 3450   1.037   2.019   7.012 -0.7188  0.4612 -1.0621
   47CHL1    C2 3451   0.954   1.879   6.876  0.1172  0.2275  0.2458
   47CHL1   H2A 3452   0.866   1.943   6.855 -0.2513 -0.5191 -0.5778
   47CHL1   H2B 3453   0.922   1.773   6.865 -1.4072  0.6908  0.0094
   47CHL1   C20 3454   1.365   1.844   7.728  0.2307  0.0640  0.4660
   47CHL1   H20 3455   1.407   1.741   7.742  1.3925  0.5788  0.9310
   47CHL1   C21 3456   1.221   1.845   7.773 -0.4339  0.5186  0.0152
   47CHL1  H21A 3457   1.171   1.944   7.770 -1.3209  0.0795  0.1839
   47CHL1  H21B 3458   1.203   1.809   7.877 -0.5276 -0.1206 -0.2153
   47CHL1  H21C 3459   1.154   1.776   7.718 -0.0170  1.8235 -2.2314
   47CHL1   C22 3460   1.438   1.935   7.832 -0.0798  0.8158 -0.1716
   47CHL1  H22A 3461   1.547   1.916   7.820  0.2253  1.9329  0.6474
   47CHL1  H22B 3462   1.420   2.039   7.795  2.1964  0.3395 -2.9502
   47CHL1   C23 3463   1.412   1.905   7.983 -0.4224  0.6210 -0.3463
   47CHL1  H23A 3464   1.310   1.943   8.005 -1.4878 -3.1506  2.1418
   47CHL1  H23B 3465   1.418   1.795   7.989  1.6293  0.7870  3.7127
   47CHL1   C24 3466   1.517   1.959   8.074  0.5760  0.6541 -1.0656
   47CHL1  H24A 3467   1.613   1.905   8.059  0.9957  0.5329  1.5151
   47CHL1  H24B 3468   1.532   2.067   8.051 -2.5303  1.9401  1.9358
   47CHL1   C25 3469   1.464   1.955   8.222  0.4011  0.0792  0.3548
   47CHL1   H25 3470   1.549   1.992   8.283  0.5080  0.0628  0.2163
   47CHL1   C26 3471   1.348   2.053   8.255 -0.2982 -0.4336  0.7030
   47CHL1  H26A 3472   1.390   2.150   8.221 -1.6330 -0.3260 -0.7189
   47CHL1  H26B 3473   1.256   2.030   8.199 -2.6545  0.9566  3.7063
   47CHL1  H26C 3474   1.326   2.051   8.364 -0.4068 -0.7756  0.6736
   47CHL1   C27 3475   1.432   1.818   8.283 -0.0439  0.0381 -0.6102
   47CHL1  H27A 3476   1.342   1.766   8.245  1.2716 -2.6355 -0.3333
   47CHL1  H27B 3477   1.521   1.752   8.271  1.1701  1.2938  0.9214
   47CHL1  H27C 3478   1.405   1.823   8.391 -1.7420  0.6781 -1.0308
   48CHL1    C3 3479   4.986   2.398   6.681  0.3688 -0.4345  0.5597
   48CHL1    H3 3480   5.058   2.482   6.672  0.7440 -0.8757 -0.7923
   48CHL1    O3 3481   4.958   2.366   6.543  0.2025  0.0830  0.6406
   48CHL1   H3' 3482   4.981   2.273   6.537  1.1738  0.3372  0.1199
   48CHL1    C4 3483   5.052   2.277   6.755 -0.6705  0.0100 -0.4206
   48CHL1   H4A 3484   4.987   2.187   6.751  0.5699 -0.9362  0.1670
   48CHL1   H4B 3485   5.141   2.245   6.698 -1.1427 -1.3831 -0.3957
   48CHL1    C5 3486   5.089   2.308   6.901  0.6472 -0.8310 -0.5140
   48CHL1    C6 3487   5.213   2.298   6.955  0.1015  0.1444 -0.1445
   48CHL1    H6 3488   5.292   2.248   6.896  2.1975  1.8023  1.1321
   48CHL1    C7 3489   5.246   2.327   7.098  0.1303  0.6808 -0.7145
   48CHL1   H7A 3490   5.310   2.247   7.141 -2.2114 -1.7291 -1.4479
   48CHL1   H7B 3491   5.300   2.424   7.098  1.4145 -0.0093 -1.2827
   48CHL1    C8 3492   5.118   2.337   7.196  0.2938  0.2669 -0.2476
   48CHL1    H8 3493   5.087   2.232   7.215  0.1846  0.8905  4.0162
   48CHL1   C14 3494   5.158   2.410   7.325  0.5668  0.1466  0.6089
   48CHL1   H14 3495   5.190   2.509   7.288 -1.7912  0.2647 -1.3440
   48CHL1   C15 3496   5.281   2.356   7.409  0.0933 -0.8382  0.5132
   48CHL1  H15A 3497   5.258   2.249   7.430  0.5206 -1.3418 -1.3665
   48CHL1  H15B 3498   5.378   2.362   7.356  0.0031 -0.0150  0.4256
   48CHL1   C16 3499   5.264   2.430   7.545 -0.1008  0.0114  0.4219
   48CHL1  H16A 3500   5.285   2.357   7.625 -1.9281 -0.6726  0.3159
   48CHL1  H16B 3501   5.334   2.517   7.547 -0.0258 -0.0248 -0.2607
   48CHL1   C17 3502   5.124   2.494   7.550 -0.0901  0.7061 -0.1995
   48CHL1   H17 3503   5.140   2.603   7.537  3.1322  0.2539 -0.7535
   48CHL1   C13 3504   5.049   2.433   7.432  0.2088 -0.0184  0.2017
   48CHL1   C18 3505   4.991   2.299   7.458  0.3025  0.1441 -0.5518
   48CHL1  H18A 3506   4.908   2.314   7.532  0.8901  0.5238  0.0432
   48CHL1  H18B 3507   4.945   2.247   7.372 -1.7636  2.7656 -1.1640
   48CHL1  H18C 3508   5.065   2.227   7.498  2.1507  0.4199 -3.2328
   48CHL1   C12 3509   4.941   2.525   7.362  1.0950 -0.4037  0.2458
   48CHL1  H12A 3510   4.851   2.530   7.427  0.3210  0.5891 -0.8625
   48CHL1  H12B 3511   4.982   2.627   7.350  1.3388 -0.5016  0.2326
   48CHL1   C11 3512   4.901   2.476   7.221 -0.3867  0.3389  0.7624
   48CHL1  H11A 3513   4.835   2.388   7.237 -0.5048  0.3386  0.2911
   48CHL1  H11B 3514   4.833   2.549   7.173 -1.3403  0.3655  2.0984
   48CHL1    C9 3515   5.018   2.422   7.121 -0.0989 -0.3530 -0.6833
   48CHL1    H9 3516   5.086   2.507   7.101 -0.4346 -0.1469 -0.9817
   48CHL1   C10 3517   4.973   2.368   6.984 -0.8110 -0.1747 -0.2498
   48CHL1   C19 3518   4.873   2.250   7.003  0.1395 -0.3028 -0.3462
   48CHL1  H19A 3519   4.835   2.216   6.904 -1.5994  3.2357 -1.0520
   48CHL1  H19B 3520   4.911   2.160   7.056 -2.5946 -1.4471 -0.1484
   48CHL1  H19C 3521   4.786   2.287   7.061  0.6047 -0.9384  0.7853
   48CHL1    C1 3522   4.906   2.486   6.908  0.4694  0.1466 -0.3230
   48CHL1   H1A 3523   4.817   2.527   6.960 -1.7076 -4.1413 -0.1703
   48CHL1   H1B 3524   4.982   2.566   6.898  0.8826 -0.3134 -0.9559
   48CHL1    C2 3525   4.863   2.451   6.767 -0.0316 -0.1361  1.0346
   48CHL1   H2A 3526   4.818   2.541   6.720  0.7714  1.0954  2.5271
   48CHL1   H2B 3527   4.779   2.379   6.757  1.0679 -1.3914  0.4958
   48CHL1   C20 3528   5.051   2.483   7.683 -0.6559  0.2990  0.4780
   48CHL1   H20 3529   5.033   2.375   7.704  0.8098  0.2014  1.3991
   48CHL1   C21 3530   4.916   2.558   7.672 -0.5704  0.0156 -0.0947
   48CHL1  H21A 3531   4.839   2.492   7.627 -1.0287 -0.5069  1.3810
   48CHL1  H21B 3532   4.931   2.658   7.626  0.9446  0.3532  1.0518
   48CHL1  H21C 3533   4.865   2.579   7.768  0.0631 -1.2597  0.5558
   48CHL1   C22 3534   5.138   2.532   7.807 -0.3286 -0.5941 -0.5826
   48CHL1  H22A 3535   5.238   2.487   7.827  0.1818  1.0821  0.8463
   48CHL1  H22B 3536   5.159   2.639   7.785 -1.0450 -0.1951  0.6377
   48CHL1   C23 3537   5.052   2.526   7.931 -0.5049 -0.1183  0.0249
   48CHL1  H23A 3538   4.979   2.609   7.935 -0.5137 -0.1662  1.4707
   48CHL1  H23B 3539   4.989   2.435   7.920 -0.8383  0.3110 -1.8940
   48CHL1   C24 3540   5.135   2.542   8.052  0.1368  0.7351  0.2092
   48CHL1  H24A 3541   5.220   2.471   8.056  0.1439  0.7111 -0.2975
   48CHL1  H24B 3542   5.174   2.645   8.064  0.6294  0.6390 -0.4863
   48CHL1   C25 3543   5.056   2.509   8.187 -0.4253 -1.5396  0.0431
   48CHL1   H25 3544   5.129   2.512   8.270  1.0856  0.3372 -1.2519
   48CHL1   C26 3545   4.953   2.612   8.215 -0.2489 -0.1340  0.3965
   48CHL1  H26A 3546   4.886   2.624   8.128 -1.2485 -2.0609  0.8484
   48CHL1  H26B 3547   4.887   2.591   8.302 -0.3580 -1.3439  0.0477
   48CHL1  H26C 3548   4.994   2.713   8.233  0.6565 -0.3053 -0.5896
   48CHL1   C27 3549   5.002   2.359   8.188  0.2750  0.3329 -0.6315
   48CHL1  H27A 3550   4.958   2.331   8.286 -1.4136  2.6594 -0.6259
   48CHL1  H27B 3551   4.923   2.357   8.109  0.5916  1.7821 -1.0229
   48CHL1  H27C 3552   5.082   2.285   8.165 -0.3158 -0.3753 -0.4320
   49CHL1    C3 3553   2.265   4.269   6.681  0.2847 -0.5692  0.0830
   49CHL1    H3 3554   2.299   4.375   6.684 -1.0203 -0.1584  1.8139
   49CHL1    O3 3555   2.226   4.244   6.541 -0.0203 -0.2406  1.1563
   49CHL1   H3' 3556   2.145   4.294   6.529  0.3657 -0.1811 -2.6251
   49CHL1    C4 3557   2.377   4.174   6.721 -0.7166  0.3987 -0.1343
   49CHL1   H4A 3558   2.349   4.071   6.689  0.4132 -0.2188  0.8012
   49CHL1   H4B 3559   2.462   4.193   6.651 -0.7521 -1.0894 -0.6065
   49CHL1    C5 3560   2.408   4.180   6.871 -0.8581  0.0352  0.3130
   49CHL1    C6 3561   2.532   4.217   6.914  0.4055 -0.5214 -0.5947
   49CHL1    H6 3562   2.615   4.231   6.843  0.1946 -0.9288 -0.9199
   49CHL1    C7 3563   2.563   4.197   7.062 -0.4776  0.3546  0.1265
   49CHL1   H7A 3564   2.667   4.162   7.078 -1.0311 -0.6078  1.8751
   49CHL1   H7B 3565   2.554   4.300   7.103  0.7384  1.4688 -2.2009
   49CHL1    C8 3566   2.458   4.115   7.142  0.4101 -0.5380 -0.3938
   49CHL1    H8 3567   2.461   4.006   7.124 -0.2591 -0.6351  0.0133
   49CHL1   C14 3568   2.481   4.141   7.296 -0.3506 -0.4382 -0.0441
   49CHL1   H14 3569   2.460   4.250   7.302  0.8901 -0.2188  0.6200
   49CHL1   C15 3570   2.628   4.123   7.353 -0.7827  0.4317 -1.2115
   49CHL1  H15A 3571   2.680   4.034   7.309  0.9381  0.1246  1.2597
   49CHL1  H15B 3572   2.694   4.213   7.354 -1.0795  0.7522  2.5514
   49CHL1   C16 3573   2.595   4.077   7.497 -0.0087  0.2941 -0.5888
   49CHL1  H16A 3574   2.605   3.967   7.511  1.2451  0.3724 -0.6992
   49CHL1  H16B 3575   2.662   4.127   7.571 -0.9853 -2.1858  2.1611
   49CHL1   C17 3576   2.443   4.118   7.520 -0.1459 -1.1851 -0.7206
   49CHL1   H17 3577   2.440   4.229   7.521 -0.3793 -1.1963  0.4387
   49CHL1   C13 3578   2.379   4.082   7.391  0.4151 -0.6205 -0.7637
   49CHL1   C18 3579   2.376   3.923   7.385 -0.1255  0.7613 -0.7126
   49CHL1  H18A 3580   2.319   3.878   7.469 -2.7563  1.2292 -2.1248
   49CHL1  H18B 3581   2.324   3.888   7.293 -0.5296 -1.7494  0.3967
   49CHL1  H18C 3582   2.479   3.882   7.381 -1.4627 -2.8873 -1.8892
   49CHL1   C12 3583   2.245   4.150   7.354  0.5594 -0.4283 -0.0869
   49CHL1  H12A 3584   2.166   4.107   7.419  1.3401 -0.0473  1.1450
   49CHL1  H12B 3585   2.245   4.257   7.385 -1.6842 -0.6912  1.0308
   49CHL1   C11 3586   2.210   4.120   7.205  0.4202  0.2627 -0.4589
   49CHL1  H11A 3587   2.194   4.010   7.199 -2.1674  0.6003 -0.7987
   49CHL1  H11B 3588   2.113   4.169   7.183  1.2955  2.0943 -0.4596
   49CHL1    C9 3589   2.321   4.171   7.105 -0.0680 -0.0566 -0.1715
   49CHL1    H9 3590   2.326   4.282   7.116  1.3583 -0.0839 -0.2882
   49CHL1   C10 3591   2.290   4.149   6.959  0.1319 -0.0627  0.1078
   49CHL1   C19 3592   2.257   3.997   6.944 -0.0449  0.3460 -0.1490
   49CHL1  H19A 3593   2.155   3.971   6.979  0.8019 -2.4764  0.5216
   49CHL1  H19B 3594   2.269   3.962   6.839 -3.5297  0.4733 -0.7173
   49CHL1  H19C 3595   2.331   3.937   7.001 -0.1776 -1.2471 -1.5637
   49CHL1    C1 3596   2.165   4.239   6.914  0.0984  0.4643 -0.3690
   49CHL1   H1A 3597   2.067   4.200   6.949  0.4892  0.2367  0.5159
   49CHL1   H1B 3598   2.182   4.340   6.955  0.1105  0.5734 -0.6396
   49CHL1    C2 3599   2.140   4.246   6.759  0.3274 -0.2749 -0.0811
   49CHL1   H2A 3600   2.059   4.315   6.728  1.9171  1.0481 -1.4818
   49CHL1   H2B 3601   2.103   4.146   6.729 -0.8905  0.4724 -1.1559
   49CHL1   C20 3602   2.387   4.075   7.651 -0.1092  0.0619 -0.3481
   49CHL1   H20 3603   2.375   3.965   7.646  0.9476 -0.0850  0.1860
   49CHL1   C21 3604   2.252   4.133   7.691 -0.1884 -0.5411  0.0934
   49CHL1  H21A 3605   2.213   4.080   7.780  1.1162 -2.2016 -0.2776
   49CHL1  H21B 3606   2.175   4.117   7.613 -0.7002  2.2509 -0.0665
   49CHL1  H21C 3607   2.265   4.238   7.723 -0.1781 -0.2793 -0.7381
   49CHL1   C22 3608   2.493   4.112   7.761  0.6547 -0.1723 -0.2594
   49CHL1  H22A 3609   2.594   4.069   7.742  1.4768  1.6306 -0.1547
   49CHL1  H22B 3610   2.503   4.223   7.766 -1.6156  0.0351  1.3557
   49CHL1   C23 3611   2.456   4.059   7.903 -0.5006  0.1141 -0.0925
   49CHL1  H23A 3612   2.357   4.098   7.934 -3.4514 -4.5664 -2.6784
   49CHL1  H23B 3613   2.443   3.949   7.902  0.0638 -0.0420  2.4476
   49CHL1   C24 3614   2.564   4.091   8.013  0.2335  0.2058 -0.6881
   49CHL1  H24A 3615   2.653   4.026   8.000  0.9776  0.5907  1.9735
   49CHL1  H24B 3616   2.602   4.195   8.012 -0.4321  0.4672  0.1955
   49CHL1   C25 3617   2.510   4.066   8.148 -0.2627  0.2134  0.3099
   49CHL1   H25 3618   2.462   3.966   8.154  1.2386 -0.4798  1.5014
   49CHL1   C26 3619   2.631   4.074   8.238 -0.5971  0.5928 -0.4783
   49CHL1  H26A 3620   2.685   4.169   8.221 -0.3517  0.6137  0.3494
   49CHL1  H26B 3621   2.609   4.065   8.347 -1.2020  1.9472 -0.4760
   49CHL1  H26C 3622   2.704   3.993   8.216 -2.0325 -1.4494  1.7196
   49CHL1   C27 3623   2.414   4.171   8.195 -0.1975 -0.1826  0.1709
   49CHL1  H27A 3624   2.451   4.270   8.160  1.9522 -0.9799  0.0597
   49CHL1  H27B 3625   2.311   4.166   8.154  0.1178 -0.0846 -0.6457
   49CHL1  H27C 3626   2.412   4.192   8.304 -0.0860  2.1342 -0.2162
   50CHL1    C3 3627   1.842   5.577   6.706  0.7451  0.4337 -0.2788
   50CHL1    H3 3628   1.916   5.660   6.716  1.2999  0.0198 -0.9014
   50CHL1    O3 3629   1.820   5.561   6.568  0.4069  0.4682  0.2434
   50CHL1   H3' 3630   1.740   5.508   6.564 -0.6306  1.9583  0.3451
   50CHL1    C4 3631   1.890   5.452   6.770 -0.7587 -0.1216  0.4762
   50CHL1   H4A 3632   1.820   5.367   6.754  0.6075 -1.6511  2.1609
   50CHL1   H4B 3633   1.982   5.423   6.716 -1.6348 -0.9516 -0.6197
   50CHL1    C5 3634   1.917   5.455   6.920  0.2977 -0.6601 -0.2913
   50CHL1    C6 3635   2.035   5.425   6.978 -0.3126  0.2638 -0.2750
   50CHL1    H6 3636   2.107   5.379   6.909  0.3507 -0.8821  1.1278
   50CHL1    C7 3637   2.068   5.438   7.120 -0.1800  0.1541 -0.2627
   50CHL1   H7A 3638   2.123   5.351   7.160 -0.2446  0.6868  1.0066
   50CHL1   H7B 3639   2.135   5.525   7.135  1.3233 -1.0196  0.0240
   50CHL1    C8 3640   1.944   5.457   7.211  0.7762  0.1693 -0.1721
   50CHL1    H8 3641   1.897   5.356   7.220 -1.6145  0.8888 -2.8864
   50CHL1   C14 3642   1.980   5.497   7.352 -0.0863 -0.4239 -0.6066
   50CHL1   H14 3643   2.029   5.595   7.336  2.4240 -1.6740 -0.9783
   50CHL1   C15 3644   2.091   5.424   7.429 -0.3659  0.2084  0.4848
   50CHL1  H15A 3645   2.077   5.315   7.415  2.1097  0.0269 -1.1834
   50CHL1  H15B 3646   2.192   5.456   7.396  0.4005 -0.6097  1.9395
   50CHL1   C16 3647   2.063   5.469   7.569  0.3162 -0.2688  0.3423
   50CHL1  H16A 3648   2.047   5.382   7.637 -0.4889 -0.2870  0.1422
   50CHL1  H16B 3649   2.134   5.546   7.606 -0.7430  2.1108 -2.2184
   50CHL1   C17 3650   1.927   5.551   7.571 -0.2909 -0.5580  0.7816
   50CHL1   H17 3651   1.960   5.657   7.566  1.9359 -1.0825  2.5863
   50CHL1   C13 3652   1.860   5.515   7.443 -1.1874 -0.2599 -0.2930
   50CHL1   C18 3653   1.776   5.379   7.460  0.5167  0.1669  0.0337
   50CHL1  H18A 3654   1.818   5.298   7.523  1.2332  0.5268  0.0322
   50CHL1  H18B 3655   1.681   5.407   7.511  1.5386  1.0516  1.5511
   50CHL1  H18C 3656   1.762   5.331   7.361  1.9809  2.1895 -1.2459
   50CHL1   C12 3657   1.763   5.623   7.383 -0.6399 -0.1596 -0.2149
   50CHL1  H12A 3658   1.673   5.628   7.448 -2.3462 -0.0529 -2.4628
   50CHL1  H12B 3659   1.812   5.722   7.373 -1.0909 -0.0218 -1.1221
   50CHL1   C11 3660   1.719   5.586   7.236 -0.8164  0.4910  1.4579
   50CHL1  H11A 3661   1.659   5.493   7.247  3.5976 -3.0751 -1.1124
   50CHL1  H11B 3662   1.661   5.675   7.202  2.2064  2.1578  0.3365
   50CHL1    C9 3663   1.842   5.545   7.149 -0.4120 -0.6022  0.5782
   50CHL1    H9 3664   1.894   5.643   7.145 -1.2478 -0.1642  0.0449
   50CHL1   C10 3665   1.798   5.515   7.006 -0.2075  0.0218  0.6293
   50CHL1   C19 3666   1.684   5.407   7.004 -0.2154  0.3850 -0.0525
   50CHL1  H19A 3667   1.591   5.451   7.046 -1.4669 -1.9575 -0.1870
   50CHL1  H19B 3668   1.657   5.392   6.897 -0.6758  0.8705 -0.0099
   50CHL1  H19C 3669   1.716   5.314   7.056 -1.5085  0.9333  1.8383
   50CHL1    C1 3670   1.748   5.639   6.937  0.7249 -0.4848  0.4147
   50CHL1   H1A 3671   1.664   5.688   6.990  1.6242 -0.2618  1.6768
   50CHL1   H1B 3672   1.829   5.715   6.942 -1.7753  2.2719  1.5052
   50CHL1    C2 3673   1.716   5.628   6.783 -0.1171  0.2909 -0.0181
   50CHL1   H2A 3674   1.693   5.731   6.746 -0.9276  0.9046  2.0856
   50CHL1   H2B 3675   1.635   5.563   6.744 -1.2491  2.1770 -0.9860
   50CHL1   C20 3676   1.859   5.545   7.707 -0.2600  0.2022  0.5290
   50CHL1   H20 3677   1.823   5.441   7.718 -1.2475  0.5518  0.7609
   50CHL1   C21 3678   1.734   5.642   7.713 -0.1212 -0.8511  0.3386
   50CHL1  H21A 3679   1.654   5.619   7.640  1.4148 -0.9434 -1.4071
   50CHL1  H21B 3680   1.769   5.746   7.694  1.1346 -0.9189  2.0566
   50CHL1  H21C 3681   1.690   5.642   7.815 -0.5552  0.6647  0.1810
   50CHL1   C22 3682   1.951   5.578   7.831  0.2332 -0.6963 -0.5210
   50CHL1  H22A 3683   2.048   5.523   7.829  1.9795  2.0996  1.2842
   50CHL1  H22B 3684   1.987   5.683   7.826  1.7381 -0.7736  4.3116
   50CHL1   C23 3685   1.900   5.553   7.975  0.1628 -0.1748  0.5377
   50CHL1  H23A 3686   1.816   5.625   7.982 -1.2603 -1.5961 -0.9231
   50CHL1  H23B 3687   1.867   5.447   7.983  3.0330 -1.0505  2.2515
   50CHL1   C24 3688   2.003   5.584   8.083  0.0694  0.4953  0.5660
   50CHL1  H24A 3689   2.090   5.514   8.083 -0.2780 -0.0468 -1.9991
   50CHL1  H24B 3690   2.045   5.685   8.065 -0.6440  1.0272  1.7755
   50CHL1   C25 3691   1.936   5.595   8.217  0.1784  0.3891  0.4800
   50CHL1   H25 3692   1.826   5.594   8.201 -0.2791 -1.7061  3.1242
   50CHL1   C26 3693   1.978   5.479   8.307  0.0566  0.1499  0.2473
   50CHL1  H26A 3694   1.953   5.384   8.254  0.2417  0.2101  0.0460
   50CHL1  H26B 3695   2.088   5.471   8.324 -0.0224 -1.1007  0.2883
   50CHL1  H26C 3696   1.923   5.475   8.403 -0.3589  0.6629  0.0336
   50CHL1   C27 3697   1.978   5.732   8.279 -0.4066  0.4177 -0.3100
   50CHL1  H27A 3698   1.939   5.825   8.232 -0.0141  1.7649  1.9167
   50CHL1  H27B 3699   1.935   5.726   8.381  1.4550  0.5040  0.5205
   50CHL1  H27C 3700   2.087   5.739   8.298 -0.2397  0.2381 -1.1375
   51CHL1    C3 3701   1.656   6.220   6.857  0.0197 -0.5214  0.1573
   51CHL1    H3 3702   1.742   6.150   6.866  0.3976 -0.2367 -1.0536
   51CHL1    O3 3703   1.611   6.229   6.725  0.1933 -0.4037 -0.0078
   51CHL1   H3' 3704   1.613   6.138   6.693  1.3411 -0.3632 -0.0922
   51CHL1    C4 3705   1.534   6.166   6.942  0.1044  0.3649 -0.3984
   51CHL1   H4A 3706   1.452   6.240   6.929  0.0205  0.9894  2.8668
   51CHL1   H4B 3707   1.505   6.070   6.893 -0.3867 -0.6962  1.8037
   51CHL1    C5 3708   1.570   6.163   7.087 -0.0809  0.1271  0.3890
   51CHL1    C6 3709   1.573   6.043   7.156  0.5384  1.0732  0.6823
   51CHL1    H6 3710   1.548   5.944   7.113 -1.0594  1.6610  0.1705
   51CHL1    C7 3711   1.605   6.037   7.298 -0.1775  0.2765 -0.3185
   51CHL1   H7A 3712   1.549   5.970   7.367 -2.1125  2.5532  0.4530
   51CHL1   H7B 3713   1.712   6.006   7.309 -0.0232  1.0747  0.6679
   51CHL1    C8 3714   1.604   6.172   7.375  0.3447 -0.7571  0.0436
   51CHL1    H8 3715   1.501   6.210   7.392  1.0184  1.5283 -0.5480
   51CHL1   C14 3716   1.679   6.163   7.509 -0.0525  0.5473  0.1370
   51CHL1   H14 3717   1.781   6.129   7.482 -0.3218 -2.2158  2.1537
   51CHL1   C15 3718   1.631   6.049   7.604 -0.5378  0.0382 -0.3774
   51CHL1  H15A 3719   1.520   6.048   7.611 -0.5128 -0.0771  0.0294
   51CHL1  H15B 3720   1.660   5.949   7.566  0.0051 -0.4664  1.3014
   51CHL1   C16 3721   1.692   6.084   7.742  0.9619 -0.8105 -0.1822
   51CHL1  H16A 3722   1.616   6.095   7.822  2.5974  1.0067  1.2073
   51CHL1  H16B 3723   1.762   6.003   7.772  1.6054  0.1255  0.9392
   51CHL1   C17 3724   1.759   6.224   7.718 -0.1834  0.2373 -0.3006
   51CHL1   H17 3725   1.865   6.203   7.692 -0.6671 -0.4011 -1.8700
   51CHL1   C13 3726   1.689   6.288   7.600 -0.1846 -0.1726  0.3154
   51CHL1   C18 3727   1.553   6.342   7.644  0.0961  0.0989 -0.3098
   51CHL1  H18A 3728   1.496   6.277   7.713 -0.1511 -0.3643 -0.9382
   51CHL1  H18B 3729   1.563   6.443   7.689 -2.0080  0.4685 -0.5651
   51CHL1  H18C 3730   1.482   6.357   7.559 -1.6207 -0.8341  0.9033
   51CHL1   C12 3731   1.761   6.388   7.512  0.3692 -0.0148  0.2161
   51CHL1  H12A 3732   1.763   6.494   7.547  0.6595  1.1884 -3.0367
   51CHL1  H12B 3733   1.867   6.357   7.517  0.2575 -0.5280 -0.4679
   51CHL1   C11 3734   1.695   6.401   7.376 -0.8697 -0.0490 -0.3287
   51CHL1  H11A 3735   1.590   6.435   7.387 -0.3863  1.3144  0.2997
   51CHL1  H11B 3736   1.749   6.477   7.316 -0.0782 -1.4698 -1.4739
   51CHL1    C9 3737   1.682   6.274   7.290  0.6398  0.7087 -0.4115
   51CHL1    H9 3738   1.786   6.237   7.279  0.3847 -1.0466  2.2717
   51CHL1   C10 3739   1.621   6.291   7.148 -0.7494 -0.2202  0.6898
   51CHL1   C19 3740   1.504   6.389   7.162  0.4522  0.5056  0.1079
   51CHL1  H19A 3741   1.544   6.492   7.168  1.7300  0.0247  0.0432
   51CHL1  H19B 3742   1.442   6.394   7.070 -0.2048  0.3452  0.5377
   51CHL1  H19C 3743   1.438   6.371   7.250 -0.2476 -0.9507 -0.6813
   51CHL1    C1 3744   1.738   6.341   7.063  0.1931  0.6900  0.1583
   51CHL1   H1A 3745   1.788   6.435   7.092 -0.5067  0.6673  1.4814
   51CHL1   H1B 3746   1.821   6.266   7.065  0.6308  1.1418 -0.5997
   51CHL1    C2 3747   1.704   6.356   6.913  0.1960 -0.3030  0.3469
   51CHL1   H2A 3748   1.795   6.393   6.860 -0.8240  1.6195 -0.1472
   51CHL1   H2B 3749   1.628   6.437   6.907 -0.6403 -1.1804 -2.9049
   51CHL1   C20 3750   1.765   6.314   7.845 -0.4311 -0.4037  0.1819
   51CHL1   H20 3751   1.658   6.334   7.863 -0.5848 -1.7523  0.8372
   51CHL1   C21 3752   1.849   6.432   7.817 -0.2974 -0.1706  0.5529
   51CHL1  H21A 3753   1.882   6.475   7.914 -0.7528 -1.5531  1.3436
   51CHL1  H21B 3754   1.793   6.504   7.754 -0.2592 -1.0651 -0.5402
   51CHL1  H21C 3755   1.945   6.403   7.769 -0.2402 -2.5557  1.9365
   51CHL1   C22 3756   1.817   6.238   7.966  0.4995  0.0879 -0.4828
   51CHL1  H22A 3757   1.745   6.154   7.974 -2.6637  2.6152 -0.6999
   51CHL1  H22B 3758   1.913   6.184   7.946 -0.5882 -1.5859 -1.4870
   51CHL1   C23 3759   1.841   6.310   8.100 -0.0797  0.3620 -0.5543
   51CHL1  H23A 3760   1.947   6.344   8.094  1.0230 -2.3430  1.2538
   51CHL1  H23B 3761   1.778   6.400   8.111 -0.7996 -0.1326 -0.5680
   51CHL1   C24 3762   1.817   6.215   8.223 -0.0470 -0.6158 -0.0615
   51CHL1  H24A 3763   1.716   6.172   8.210 -0.0486 -0.4079 -0.7448
   51CHL1  H24B 3764   1.896   6.137   8.214  1.5486  0.8636  0.4354
   51CHL1   C25 3765   1.830   6.279   8.362  0.2482 -1.3611  0.6359
   51CHL1   H25 3766   1.743   6.347   8.374  0.5337 -1.0233  0.8144
   51CHL1   C26 3767   1.809   6.160   8.461  0.4380 -0.1916  0.2168
   51CHL1  H26A 3768   1.816   6.192   8.567  0.2939 -3.4104  1.2991
   51CHL1  H26B 3769   1.710   6.117   8.433  1.3129 -1.5296 -0.9465
   51CHL1  H26C 3770   1.888   6.086   8.435 -1.6094 -1.6799 -2.2278
   51CHL1   C27 3771   1.952   6.370   8.396  0.2015  0.6380  0.3646
   51CHL1  H27A 3772   2.040   6.307   8.370 -1.1374 -0.1593 -2.5453
   51CHL1  H27B 3773   1.962   6.450   8.321 -0.1691  0.1937 -0.1697
   51CHL1  H27C 3774   1.950   6.407   8.501 -1.6322  0.9838  0.2343
   52CHL1    C3 3775   4.563   3.074   6.716  0.4349 -0.0118  0.3753
   52CHL1    H3 3776   4.517   3.173   6.737 -0.2562 -0.3975  0.6967
   52CHL1    O3 3777   4.583   3.072   6.581 -0.5731 -0.7808  0.3927
   52CHL1   H3' 3778   4.623   2.986   6.564 -1.4525 -1.0928 -0.1864
   52CHL1    C4 3779   4.702   3.072   6.780 -0.0723  0.1243 -0.1919
   52CHL1   H4A 3780   4.761   2.980   6.757  0.8183  0.2405  1.4822
   52CHL1   H4B 3781   4.760   3.160   6.747 -1.2142  0.6821 -0.7835
   52CHL1    C5 3782   4.703   3.069   6.931  0.1387 -0.4210 -0.6520
   52CHL1    C6 3783   4.761   3.162   7.005 -0.5093 -0.2790 -0.0809
   52CHL1    H6 3784   4.813   3.239   6.946  0.5965  1.1534  2.5507
   52CHL1    C7 3785   4.776   3.170   7.151 -0.4288 -0.0733  0.4879
   52CHL1   H7A 3786   4.884   3.176   7.174 -0.5644 -1.0284  1.4735
   52CHL1   H7B 3787   4.741   3.270   7.185 -0.1107  0.1013  0.2972
   52CHL1    C8 3788   4.720   3.039   7.216 -0.0926  0.0158  0.2458
   52CHL1    H8 3789   4.797   2.960   7.205  0.3040  0.4619 -0.2531
   52CHL1   C14 3790   4.682   3.068   7.362  0.7268  0.3547  0.3000
   52CHL1   H14 3791   4.596   3.137   7.349  0.3192 -0.2167 -0.1114
   52CHL1   C15 3792   4.777   3.142   7.453 -0.0262  0.2635 -0.0911
   52CHL1  H15A 3793   4.873   3.087   7.460  0.3862  1.0195  0.3758
   52CHL1  H15B 3794   4.800   3.242   7.409 -0.1512  0.0466 -0.6638
   52CHL1   C16 3795   4.721   3.132   7.593  0.0630 -0.4007 -0.3014
   52CHL1  H16A 3796   4.792   3.092   7.668 -0.1012  1.1261  0.7143
   52CHL1  H16B 3797   4.681   3.232   7.619 -2.6135 -0.8428 -2.1768
   52CHL1   C17 3798   4.597   3.027   7.586 -0.1504  0.5576  1.1727
   52CHL1   H17 3799   4.508   3.090   7.567 -0.4609 -0.0819  0.4214
   52CHL1   C13 3800   4.619   2.956   7.445  0.1378  0.0708 -0.3033
   52CHL1   C18 3801   4.727   2.836   7.452 -0.1490 -0.4464 -1.2070
   52CHL1  H18A 3802   4.819   2.863   7.509 -1.0112  0.9675 -0.4211
   52CHL1  H18B 3803   4.693   2.750   7.512 -1.4937  2.1909  2.1118
   52CHL1  H18C 3804   4.752   2.796   7.351 -1.3535 -1.3134 -1.1747
   52CHL1   C12 3805   4.493   2.905   7.369  0.8967 -0.1916  0.2571
   52CHL1  H12A 3806   4.437   2.823   7.419 -0.5381  1.3965  1.3484
   52CHL1  H12B 3807   4.428   2.994   7.362 -0.7583 -1.3506  0.2951
   52CHL1   C11 3808   4.524   2.865   7.223  0.1013  0.4267 -0.4404
   52CHL1  H11A 3809   4.586   2.773   7.219  1.9400  1.6016  0.0602
   52CHL1  H11B 3810   4.432   2.834   7.168  0.9965 -3.0689 -0.1863
   52CHL1    C9 3811   4.597   2.983   7.142  1.0948 -0.7480 -0.8829
   52CHL1    H9 3812   4.518   3.061   7.146  2.3824  0.6486 -1.9506
   52CHL1   C10 3813   4.618   2.958   6.991  0.7008  0.0047  0.3384
   52CHL1   C19 3814   4.705   2.827   6.977 -0.1910 -0.8600  0.0439
   52CHL1  H19A 3815   4.804   2.841   7.026 -0.3392  4.3442 -0.5532
   52CHL1  H19B 3816   4.652   2.738   7.016 -0.2470 -0.7394  0.2456
   52CHL1  H19C 3817   4.722   2.817   6.868  0.8339  2.1425 -0.1754
   52CHL1    C1 3818   4.476   2.949   6.919  0.7606 -0.1695  0.2887
   52CHL1   H1A 3819   4.430   2.853   6.950 -1.6508  1.1853  1.1246
   52CHL1   H1B 3820   4.416   3.035   6.954  0.3158 -0.9062  1.3889
   52CHL1    C2 3821   4.479   2.955   6.766  0.4320 -0.5621 -0.4582
   52CHL1   H2A 3822   4.377   2.953   6.722 -1.2587 -1.9041  3.0932
   52CHL1   H2B 3823   4.536   2.863   6.744  4.3888  1.3312  0.8968
   52CHL1   C20 3824   4.583   2.935   7.704 -0.1063 -0.0485 -0.5917
   52CHL1   H20 3825   4.677   2.881   7.727 -1.1524 -1.3949  0.7187
   52CHL1   C21 3826   4.481   2.823   7.678  0.3791 -0.3172  0.4968
   52CHL1  H21A 3827   4.466   2.759   7.767  2.0365 -0.8031  0.4464
   52CHL1  H21B 3828   4.526   2.761   7.598  1.1488 -1.2109  1.5982
   52CHL1  H21C 3829   4.395   2.879   7.633  0.5657 -0.3585  0.0811
   52CHL1   C22 3830   4.550   3.020   7.833 -0.2906 -0.3305 -0.2191
   52CHL1  H22A 3831   4.619   3.100   7.867 -1.5826  0.4306  0.6870
   52CHL1  H22B 3832   4.453   3.071   7.816 -0.1737  0.4710  1.3650
   52CHL1   C23 3833   4.518   2.931   7.959  0.2345  0.3886 -0.0832
   52CHL1  H23A 3834   4.420   2.885   7.935  0.4397  0.5647 -1.3236
   52CHL1  H23B 3835   4.596   2.854   7.982 -1.4265 -0.4803  3.2870
   52CHL1   C24 3836   4.516   3.018   8.092  0.7910  0.2056  0.3224
   52CHL1  H24A 3837   4.618   3.060   8.101  0.9232 -0.0403 -0.0075
   52CHL1  H24B 3838   4.456   3.110   8.072 -1.4557 -1.3632 -0.6865
   52CHL1   C25 3839   4.463   2.947   8.220 -0.5730 -0.3874 -0.3667
   52CHL1   H25 3840   4.368   2.894   8.196  0.2878 -2.8897  1.3049
   52CHL1   C26 3841   4.558   2.832   8.270  0.1232  0.0590  0.5284
   52CHL1  H26A 3842   4.646   2.884   8.315  1.5343 -0.5453 -1.4013
   52CHL1  H26B 3843   4.505   2.782   8.354 -1.0279  1.5959  0.7527
   52CHL1  H26C 3844   4.573   2.757   8.189 -0.0124  0.5704  0.0261
   52CHL1   C27 3845   4.448   3.051   8.335 -0.6034 -0.2460  0.5181
   52CHL1  H27A 3846   4.368   3.126   8.315  1.0141  0.7411 -3.2744
   52CHL1  H27B 3847   4.425   2.990   8.425 -0.3540 -0.7477  0.2407
   52CHL1  H27C 3848   4.547   3.097   8.355  0.1809 -2.4648  2.1182
   53CHL1    C3 3849   1.242   2.399   7.005  0.1168  0.2727 -0.5061
   53CHL1    H3 3850   1.153   2.462   7.023 -2.5972 -3.2921 -0.4039
   53CHL1    O3 3851   1.274   2.394   6.868 -0.5177 -0.2100 -0.4727
   53CHL1   H3' 3852   1.367   2.369   6.861 -0.6557 -1.0240  0.3652
   53CHL1    C4 3853   1.351   2.485   7.078  0.3015  0.9490  0.8183
   53CHL1   H4A 3854   1.442   2.426   7.054  0.2275  1.2321 -0.2044
   53CHL1   H4B 3855   1.353   2.574   7.013 -0.5153  1.0769  0.9539
   53CHL1    C5 3856   1.338   2.500   7.230 -0.3474 -0.4731 -0.0269
   53CHL1    C6 3857   1.349   2.618   7.284  0.3331  0.1163 -0.3867
   53CHL1    H6 3858   1.381   2.705   7.225 -0.3917 -0.4467 -1.6649
   53CHL1    C7 3859   1.348   2.628   7.441  0.0041 -0.4094  0.0035
   53CHL1   H7A 3860   1.434   2.684   7.482  0.4997  0.7120 -2.4057
   53CHL1   H7B 3861   1.267   2.693   7.481  0.1701 -2.1053  3.5425
   53CHL1    C8 3862   1.332   2.497   7.526 -0.4716  0.2106  0.0356
   53CHL1    H8 3863   1.437   2.469   7.546 -0.2325  0.8793 -0.2813
   53CHL1   C14 3864   1.258   2.522   7.658  0.1125 -0.5507 -0.2736
   53CHL1   H14 3865   1.150   2.535   7.636  0.1144  0.9663  0.4592
   53CHL1   C15 3866   1.304   2.631   7.753 -0.2204  0.0626  0.1561
   53CHL1  H15A 3867   1.415   2.637   7.756 -0.2581  1.0145 -0.1326
   53CHL1  H15B 3868   1.279   2.733   7.718  0.8334  0.4326  0.4454
   53CHL1   C16 3869   1.239   2.604   7.889  0.3167 -0.2161  0.6079
   53CHL1  H16A 3870   1.309   2.633   7.970 -0.7814 -0.3585  1.6363
   53CHL1  H16B 3871   1.150   2.669   7.904  0.7077  0.0436  1.9153
   53CHL1   C17 3872   1.193   2.453   7.883 -0.1456 -0.9689 -0.3032
   53CHL1   H17 3873   1.085   2.460   7.856 -0.5518 -1.1597  1.1735
   53CHL1   C13 3874   1.260   2.395   7.754  0.7795 -0.0824 -0.3118
   53CHL1   C18 3875   1.398   2.356   7.804 -0.2942  0.9943 -0.3609
   53CHL1  H18A 3876   1.446   2.432   7.869  1.4217  1.1283 -1.6969
   53CHL1  H18B 3877   1.385   2.259   7.856 -2.0775  0.0921 -2.3220
   53CHL1  H18C 3878   1.465   2.341   7.717  1.7429 -1.0501  1.4591
   53CHL1   C12 3879   1.184   2.284   7.671  1.2855  0.1089 -0.2780
   53CHL1  H12A 3880   1.182   2.196   7.739  2.1256 -0.0741 -0.4731
   53CHL1  H12B 3881   1.080   2.315   7.651  0.3499 -2.0984  0.8121
   53CHL1   C11 3882   1.258   2.250   7.539  0.4571 -1.7271  0.3466
   53CHL1  H11A 3883   1.354   2.197   7.558  1.5789  0.2547  0.4822
   53CHL1  H11B 3884   1.200   2.172   7.485 -1.0917  0.4148 -1.2544
   53CHL1    C9 3885   1.257   2.383   7.443 -0.7599 -0.4721 -0.1207
   53CHL1    H9 3886   1.151   2.416   7.435 -1.1918 -2.2078 -2.2689
   53CHL1   C10 3887   1.313   2.365   7.299 -0.1516  0.8573 -0.6646
   53CHL1   C19 3888   1.446   2.295   7.296  0.1322  0.0294 -0.1737
   53CHL1  H19A 3889   1.498   2.278   7.199  1.2762 -3.2510  0.8978
   53CHL1  H19B 3890   1.521   2.344   7.361 -0.5453 -0.8771  1.3519
   53CHL1  H19C 3891   1.447   2.194   7.341  0.1754 -0.3943 -1.0971
   53CHL1    C1 3892   1.215   2.271   7.229  0.0234 -0.4553  0.2317
   53CHL1   H1A 3893   1.220   2.167   7.267 -0.3358 -0.3391  0.6060
   53CHL1   H1B 3894   1.116   2.321   7.237  0.4809  0.8286 -1.5421
   53CHL1    C2 3895   1.233   2.259   7.076 -0.4344  0.1309 -0.2105
   53CHL1   H2A 3896   1.145   2.211   7.028 -1.2689  0.6135  0.8069
   53CHL1   H2B 3897   1.316   2.192   7.044  0.5588  1.0092  0.4696
   53CHL1   C20 3898   1.206   2.382   8.020  0.0009  0.4377 -0.9595
   53CHL1   H20 3899   1.314   2.372   8.044 -0.3100  0.0229  0.3484
   53CHL1   C21 3900   1.147   2.237   8.009  0.0052 -0.9173  0.5814
   53CHL1  H21A 3901   1.139   2.190   8.109  3.1520 -1.3638  0.7285
   53CHL1  H21B 3902   1.211   2.166   7.952 -0.8977 -0.9603 -0.4191
   53CHL1  H21C 3903   1.042   2.235   7.971 -1.2514 -2.4293  3.7015
   53CHL1   C22 3904   1.135   2.464   8.137  0.2585  0.1027  0.1597
   53CHL1  H22A 3905   1.168   2.570   8.140 -3.9207  1.5808  0.5912
   53CHL1  H22B 3906   1.028   2.469   8.108  0.0741 -0.8817  0.6202
   53CHL1   C23 3907   1.146   2.393   8.271 -0.2932  0.3068 -0.3991
   53CHL1  H23A 3908   1.090   2.298   8.285  1.6391 -0.7763  0.3429
   53CHL1  H23B 3909   1.252   2.358   8.276 -0.0415  0.8602 -1.5021
   53CHL1   C24 3910   1.129   2.495   8.386  0.3892  0.4428  1.1515
   53CHL1  H24A 3911   1.179   2.590   8.357  0.1103  0.9113  2.1720
   53CHL1  H24B 3912   1.021   2.520   8.381 -0.4335 -2.5340  1.8054
   53CHL1   C25 3913   1.166   2.455   8.525 -0.1024  0.8663 -0.6660
   53CHL1   H25 3914   1.276   2.435   8.523 -0.1595  0.4081  0.0785
   53CHL1   C26 3915   1.138   2.574   8.628  0.8336  0.2375  1.1129
   53CHL1  H26A 3916   1.032   2.584   8.660  0.1865 -0.3159 -0.7388
   53CHL1  H26B 3917   1.210   2.567   8.713  1.5452 -0.2854  0.4813
   53CHL1  H26C 3918   1.152   2.672   8.578 -0.9493  0.1139  0.3169
   53CHL1   C27 3919   1.103   2.324   8.567 -0.7640  0.1609  0.4951
   53CHL1  H27A 3920   0.995   2.348   8.571 -0.6173  0.7108  1.7804
   53CHL1  H27B 3921   1.119   2.235   8.503 -0.3048 -0.0481  0.8836
   53CHL1  H27C 3922   1.143   2.293   8.666  3.1048 -0.8417 -1.1860
   54CHL1    C3 3923   6.317   5.012   6.892  0.1700 -0.2467  0.1551
   54CHL1    H3 3924   6.233   4.943   6.916  0.2154  0.0994  1.3868
   54CHL1    O3 3925   6.326   5.016   6.747  0.1863 -0.1764 -0.3885
   54CHL1   H3' 3926   6.413   5.055   6.741 -0.3373  1.4219  1.2603
   54CHL1    C4 3927   6.304   5.154   6.959  0.2370  0.3188 -0.3411
   54CHL1   H4A 3928   6.399   5.210   6.945  0.1727  0.3462 -0.6675
   54CHL1   H4B 3929   6.226   5.196   6.893  1.3978 -1.3370 -2.9227
   54CHL1    C5 3930   6.272   5.148   7.108 -0.7192  0.3468  0.9311
   54CHL1    C6 3931   6.164   5.199   7.160  0.2760  0.6044  0.3352
   54CHL1    H6 3932   6.102   5.255   7.090 -1.5998 -0.1436  1.3369
   54CHL1    C7 3933   6.146   5.208   7.312  0.0852 -0.3420 -0.6550
   54CHL1   H7A 3934   6.106   5.307   7.342 -0.5965 -1.2862  1.8633
   54CHL1   H7B 3935   6.072   5.133   7.350  0.9567 -0.7037  0.3694
   54CHL1    C8 3936   6.275   5.185   7.396 -0.5879 -0.3871  0.1913
   54CHL1    H8 3937   6.330   5.282   7.392  0.0227 -0.7093  0.5493
   54CHL1   C14 3938   6.246   5.147   7.538  0.0751  0.2833 -0.1371
   54CHL1   H14 3939   6.179   5.060   7.523 -1.7840  1.6984 -0.3386
   54CHL1   C15 3940   6.144   5.231   7.609  0.0248 -0.0275  0.7405
   54CHL1  H15A 3941   6.162   5.340   7.596  2.6737 -0.5830 -1.0700
   54CHL1  H15B 3942   6.040   5.215   7.573 -0.0132  1.9044 -0.1213
   54CHL1   C16 3943   6.173   5.198   7.750 -0.8475  0.0401  0.2588
   54CHL1  H16A 3944   6.196   5.294   7.802 -1.9584  1.6768 -2.1299
   54CHL1  H16B 3945   6.092   5.156   7.813  0.4493 -1.9189  0.6972
   54CHL1   C17 3946   6.295   5.098   7.759 -0.8090  0.9619  0.3309
   54CHL1   H17 3947   6.234   5.006   7.747 -0.6356  0.8123  0.6126
   54CHL1   C13 3948   6.368   5.119   7.628  0.2465  0.1975 -0.0418
   54CHL1   C18 3949   6.458   5.245   7.636 -0.6728 -0.5878  0.2648
   54CHL1  H18A 3950   6.545   5.235   7.704 -0.0247 -0.5252 -0.5368
   54CHL1  H18B 3951   6.503   5.278   7.540  0.8813 -1.5407  0.6289
   54CHL1  H18C 3952   6.404   5.335   7.674 -0.1451  0.1624 -0.7228
   54CHL1   C12 3953   6.443   4.997   7.576 -0.5207  0.5212  0.2919
   54CHL1  H12A 3954   6.538   4.981   7.631  0.3206 -0.2839 -1.3254
   54CHL1  H12B 3955   6.371   4.913   7.574  0.8404 -0.6684 -1.0812
   54CHL1   C11 3956   6.470   5.022   7.425  0.7334 -0.3187  0.2868
   54CHL1  H11A 3957   6.548   5.101   7.423 -1.6975  2.2406 -1.4448
   54CHL1  H11B 3958   6.518   4.931   7.384  0.8172  0.1053 -0.5794
   54CHL1    C9 3959   6.350   5.059   7.337  0.2736 -0.4762  0.0244
   54CHL1    H9 3960   6.287   4.968   7.349 -0.0922 -0.4550 -1.5245
   54CHL1   C10 3961   6.383   5.078   7.186 -0.3647 -0.0306 -0.1264
   54CHL1   C19 3962   6.511   5.164   7.182  0.1335  0.3193  0.2099
   54CHL1  H19A 3963   6.590   5.106   7.235 -0.8986  0.8103  2.4054
   54CHL1  H19B 3964   6.553   5.189   7.083  3.0775  1.0815  1.5317
   54CHL1  H19C 3965   6.497   5.269   7.218  2.0719  0.3041  1.1646
   54CHL1    C1 3966   6.416   4.942   7.115 -0.2146  0.1792  0.4216
   54CHL1   H1A 3967   6.514   4.907   7.154 -0.1626  0.0841  0.2093
   54CHL1   H1B 3968   6.337   4.866   7.131  1.0189 -1.3254 -0.3201
   54CHL1    C2 3969   6.443   4.957   6.962  0.2887  0.1050  0.2792
   54CHL1   H2A 3970   6.476   4.857   6.927  3.2001  0.7366  0.9588
   54CHL1   H2B 3971   6.534   5.019   6.944  0.5075 -0.3496 -0.2158
   54CHL1   C20 3972   6.366   5.098   7.892 -0.2865 -0.1232  0.3569
   54CHL1   H20 3973   6.427   5.188   7.915 -1.3015  0.4479  0.8781
   54CHL1   C21 3974   6.467   4.980   7.893 -0.3862  0.7210 -0.2124
   54CHL1  H21A 3975   6.553   4.989   7.822 -1.8633 -2.2216 -2.6134
   54CHL1  H21B 3976   6.416   4.883   7.877  1.6389 -0.0688 -2.5665
   54CHL1  H21C 3977   6.525   4.976   7.988  1.6874 -2.5798 -1.4468
   54CHL1   C22 3978   6.270   5.097   8.012 -0.3411 -0.6374  0.3057
   54CHL1  H22A 3979   6.201   5.183   8.019 -0.1053 -0.1932 -2.1286
   54CHL1  H22B 3980   6.198   5.013   8.019 -2.1834  0.8688  0.2674
   54CHL1   C23 3981   6.356   5.109   8.140 -0.2834  0.0477 -0.8541
   54CHL1  H23A 3982   6.399   5.008   8.154 -3.2480 -1.3169 -0.8469
   54CHL1  H23B 3983   6.440   5.181   8.127  1.5688 -1.7690  0.5482
   54CHL1   C24 3984   6.269   5.139   8.266 -0.6145  0.6780  0.6310
   54CHL1  H24A 3985   6.232   5.242   8.252  0.3847  0.8482 -1.0581
   54CHL1  H24B 3986   6.182   5.072   8.283  0.6042 -1.1363  0.0487
   54CHL1   C25 3987   6.343   5.122   8.402 -0.2706  0.1062  0.2687
   54CHL1   H25 3988   6.374   5.015   8.408  2.1505  0.6287 -1.2521
   54CHL1   C26 3989   6.467   5.204   8.413 -0.4045  0.4299 -0.2897
   54CHL1  H26A 3990   6.429   5.309   8.417 -1.4046  0.1591 -1.9955
   54CHL1  H26B 3991   6.516   5.174   8.508  1.2166  0.8578 -0.9466
   54CHL1  H26C 3992   6.543   5.193   8.333 -1.3723  0.4792 -1.2303
   54CHL1   C27 3993   6.253   5.162   8.521  0.2698 -0.0638  0.1422
   54CHL1  H27A 3994   6.307   5.147   8.617  1.5058 -3.1732 -0.8950
   54CHL1  H27B 3995   6.215   5.266   8.511  0.4826  0.1013  0.9754
   54CHL1  H27C 3996   6.165   5.094   8.524 -0.8269  1.3129 -0.2633
   55CHL1    C3 3997   5.745   0.126   6.979 -0.3662 -0.5456 -0.5222
   55CHL1    H3 3998   5.796   0.212   7.028 -1.5366  0.0052 -0.2245
   55CHL1    O3 3999   5.748   0.141   6.836 -0.2346  0.2117 -0.0326
   55CHL1   H3' 4000   5.697   0.218   6.810 -0.0972  0.1581 -0.4640
   55CHL1    C4 4001   5.814   0.005   7.033  0.1833  0.0172  0.1746
   55CHL1   H4A 4002   5.770  -0.084   6.984  0.1264 -0.8826  1.7867
   55CHL1   H4B 4003   5.921   0.015   7.006  0.0569  0.3992 -0.1973
   55CHL1    C5 4004   5.802  -0.013   7.187 -0.3040  0.0069  0.1461
   55CHL1    C6 4005   5.906  -0.030   7.267 -0.2561  0.2097  0.1203
   55CHL1    H6 4006   6.008  -0.023   7.226 -0.2899 -0.2354 -0.0461
   55CHL1    C7 4007   5.905  -0.060   7.417  0.0032 -0.2058 -0.5663
   55CHL1   H7A 4008   5.977  -0.134   7.460 -0.9991 -0.4378  0.7874
   55CHL1   H7B 4009   5.916   0.039   7.466 -1.2975  1.3644 -3.2539
   55CHL1    C8 4010   5.752  -0.102   7.462 -0.0367 -0.0784 -0.4731
   55CHL1    H8 4011   5.720  -0.199   7.418 -2.3935  0.8715 -0.9726
   55CHL1   C14 4012   5.727  -0.095   7.610 -0.1786 -0.2715  0.0452
   55CHL1   H14 4013   5.732   0.012   7.637  0.7256 -0.8826  2.5983
   55CHL1   C15 4014   5.829  -0.169   7.699  0.3543 -0.4689 -0.7087
   55CHL1  H15A 4015   5.867  -0.263   7.653  1.5651 -0.3085 -0.0753
   55CHL1  H15B 4016   5.915  -0.112   7.739  0.2165 -0.2448 -0.7331
   55CHL1   C16 4017   5.744  -0.208   7.825 -0.5312  0.4448  0.2905
   55CHL1  H16A 4018   5.722  -0.317   7.822  1.1195  0.1082 -1.0509
   55CHL1  H16B 4019   5.787  -0.195   7.927 -0.3879 -0.3030  0.3353
   55CHL1   C17 4020   5.605  -0.150   7.810  0.6236 -0.7775  0.7987
   55CHL1   H17 4021   5.621  -0.042   7.832 -0.3898 -0.1242 -1.3757
   55CHL1   C13 4022   5.592  -0.140   7.653  0.2013 -0.0195 -0.1004
   55CHL1   C18 4023   5.549  -0.275   7.602 -0.2367  0.2386  0.4533
   55CHL1  H18A 4024   5.535  -0.269   7.492 -1.6578  0.1001  0.6006
   55CHL1  H18B 4025   5.623  -0.356   7.618  3.0409  2.5889 -1.6798
   55CHL1  H18C 4026   5.447  -0.308   7.632  0.1513 -0.3682  1.1427
   55CHL1   C12 4027   5.494  -0.034   7.595  0.6552  0.3689 -0.6496
   55CHL1  H12A 4028   5.388  -0.058   7.618 -0.9355  4.4056 -2.8954
   55CHL1  H12B 4029   5.494   0.065   7.645 -0.1179 -1.0836  2.4563
   55CHL1   C11 4030   5.503  -0.019   7.446 -1.0288 -0.3130 -0.1737
   55CHL1  H11A 4031   5.461  -0.106   7.392  0.3326 -2.5882  2.2588
   55CHL1  H11B 4032   5.442   0.070   7.416  1.3950  2.1008  1.5743
   55CHL1    C9 4033   5.646  -0.012   7.386 -0.2737  0.1682  0.3952
   55CHL1    H9 4034   5.678   0.089   7.419  1.0016 -0.6198  1.6750
   55CHL1   C10 4035   5.656  -0.023   7.230  0.2021  0.1059  0.2782
   55CHL1   C19 4036   5.592  -0.156   7.182  0.9358 -0.1153 -0.3918
   55CHL1  H19A 4037   5.482  -0.165   7.198  0.9913  0.9015  0.7610
   55CHL1  H19B 4038   5.609  -0.169   7.073  2.0762 -1.0965 -0.1193
   55CHL1  H19C 4039   5.649  -0.240   7.227 -0.0413 -0.6828 -0.1699
   55CHL1    C1 4040   5.575   0.098   7.173 -0.8703 -0.2635 -0.4024
   55CHL1   H1A 4041   5.466   0.100   7.191 -0.6976  1.6849  0.7272
   55CHL1   H1B 4042   5.607   0.191   7.225 -2.5369  0.1973 -0.1316
   55CHL1    C2 4043   5.598   0.123   7.020  0.0727  0.4574 -0.4958
   55CHL1   H2A 4044   5.557   0.221   6.988  2.2369  0.7022 -2.9242
   55CHL1   H2B 4045   5.539   0.040   6.976 -0.4112 -0.3369  1.5578
   55CHL1   C20 4046   5.498  -0.193   7.906  0.2376  0.1664 -0.2567
   55CHL1   H20 4047   5.465  -0.296   7.881 -0.9897 -0.0803  2.0851
   55CHL1   C21 4048   5.363  -0.118   7.881  0.0089  1.1706 -0.3153
   55CHL1  H21A 4049   5.292  -0.134   7.965  1.8257  0.0454  1.0622
   55CHL1  H21B 4050   5.309  -0.171   7.799 -0.6623 -0.2855  1.0189
   55CHL1  H21C 4051   5.377  -0.010   7.859 -0.9163  1.1337 -1.1442
   55CHL1   C22 4052   5.530  -0.182   8.058  1.0741 -0.0064  0.3219
   55CHL1  H22A 4053   5.627  -0.230   8.081  0.3818 -1.7630 -0.2368
   55CHL1  H22B 4054   5.531  -0.078   8.097 -0.4266 -0.2793  1.1688
   55CHL1   C23 4055   5.428  -0.265   8.140  0.6964  0.7294  0.5974
   55CHL1  H23A 4056   5.340  -0.197   8.141 -0.1011 -0.2720  0.2897
   55CHL1  H23B 4057   5.412  -0.363   8.091  1.0723  1.3780 -0.8872
   55CHL1   C24 4058   5.480  -0.278   8.279 -0.5798 -0.2694  0.8256
   55CHL1  H24A 4059   5.583  -0.320   8.268 -0.8954 -0.8515 -0.0375
   55CHL1  H24B 4060   5.490  -0.175   8.318  0.0672 -0.1748  0.4237
   55CHL1   C25 4061   5.399  -0.360   8.379 -0.1717  0.1155  0.2475
   55CHL1   H25 4062   5.453  -0.354   8.476  2.5753 -1.1856 -1.0823
   55CHL1   C26 4063   5.252  -0.312   8.393 -0.8091 -0.2868 -0.1468
   55CHL1  H26A 4064   5.246  -0.204   8.370 -0.3328 -0.8437 -3.3427
   55CHL1  H26B 4065   5.193  -0.344   8.304 -0.9451 -0.3279 -0.0429
   55CHL1  H26C 4066   5.202  -0.348   8.485  0.8964  0.1466  0.9962
   55CHL1   C27 4067   5.392  -0.509   8.343  0.2716 -0.4967 -0.3138
   55CHL1  H27A 4068   5.338  -0.518   8.246  0.2788 -0.5914 -0.3105
   55CHL1  H27B 4069   5.493  -0.553   8.329  0.5290 -0.9964  2.4600
   55CHL1  H27C 4070   5.340  -0.569   8.421  0.3447  0.6119  0.6104
   56CHL1    C3 4071   5.993   5.673   6.915  0.7659  0.1431 -0.1838
   56CHL1    H3 4072   5.947   5.574   6.896  1.4684 -0.2005 -0.1522
   56CHL1    O3 4073   6.048   5.736   6.802  0.1810  0.2213 -0.1348
   56CHL1   H3' 4074   6.069   5.824   6.833  2.4205 -0.1250 -0.5001
   56CHL1    C4 4075   5.889   5.758   6.973  0.3525  0.3221  0.5964
   56CHL1   H4A 4076   5.933   5.858   6.992 -2.1029  1.5655  0.1780
   56CHL1   H4B 4077   5.803   5.773   6.904  2.1133 -0.5353 -1.9242
   56CHL1    C5 4078   5.825   5.725   7.110 -0.5684  0.2100  0.5735
   56CHL1    C6 4079   5.692   5.713   7.135 -0.0695 -0.3921  0.4998
   56CHL1    H6 4080   5.619   5.729   7.054 -0.4514 -1.5451  0.5957
   56CHL1    C7 4081   5.635   5.692   7.274  0.5778  0.3580  0.2451
   56CHL1   H7A 4082   5.577   5.785   7.287  0.7766  0.4380  0.5861
   56CHL1   H7B 4083   5.572   5.601   7.282 -0.0473  0.6246 -1.3789
   56CHL1    C8 4084   5.738   5.687   7.386 -0.2572 -0.4163  0.2293
   56CHL1    H8 4085   5.763   5.792   7.413  1.2736 -0.6775 -0.0884
   56CHL1   C14 4086   5.686   5.616   7.507 -0.3794  0.1438  0.3120
   56CHL1   H14 4087   5.670   5.514   7.467  0.1496 -0.4313  1.5306
   56CHL1   C15 4088   5.547   5.656   7.563  0.4276  1.0773 -0.2402
   56CHL1  H15A 4089   5.543   5.767   7.560  2.0434  1.1822  0.4844
   56CHL1  H15B 4090   5.461   5.610   7.510  0.0561  1.0151  0.3964
   56CHL1   C16 4091   5.561   5.616   7.715  0.8853 -0.3491  0.3703
   56CHL1  H16A 4092   5.559   5.707   7.779 -0.0969  0.3457 -0.6139
   56CHL1  H16B 4093   5.483   5.545   7.751 -0.6352  0.6331 -0.8183
   56CHL1   C17 4094   5.698   5.542   7.732  0.0479  0.3251  0.3222
   56CHL1   H17 4095   5.676   5.436   7.708  2.1007  0.3278 -1.8967
   56CHL1   C13 4096   5.797   5.597   7.619 -0.4146 -0.2491 -0.2610
   56CHL1   C18 4097   5.847   5.730   7.671  0.0374  0.1313 -0.1918
   56CHL1  H18A 4098   5.764   5.780   7.725 -0.8458 -0.7576 -0.6994
   56CHL1  H18B 4099   5.929   5.704   7.742 -1.0500 -3.6123 -0.0574
   56CHL1  H18C 4100   5.901   5.796   7.600  0.2738 -0.6089 -0.7110
   56CHL1   C12 4101   5.901   5.506   7.570  0.5929 -0.6536 -0.3080
   56CHL1  H12A 4102   5.978   5.482   7.646  1.0934 -1.0233 -0.9259
   56CHL1  H12B 4103   5.862   5.407   7.538  2.6211 -1.4967 -0.3221
   56CHL1   C11 4104   5.966   5.572   7.448  0.2372 -0.6516  0.1827
   56CHL1  H11A 4105   6.014   5.662   7.490  0.5596 -0.1682 -1.1925
   56CHL1  H11B 4106   6.038   5.495   7.413 -1.2251 -1.6783 -0.7140
   56CHL1    C9 4107   5.864   5.611   7.337  0.1651 -0.1365  0.9566
   56CHL1    H9 4108   5.816   5.515   7.309 -0.9712  0.8623 -0.6835
   56CHL1   C10 4109   5.927   5.677   7.209 -0.0114  0.2499 -0.4090
   56CHL1   C19 4110   6.008   5.806   7.264  0.3511  0.3079  0.2574
   56CHL1  H19A 4111   6.106   5.776   7.308  0.8308  0.9349 -0.3641
   56CHL1  H19B 4112   6.033   5.872   7.178  0.0193  0.0781 -0.0172
   56CHL1  H19C 4113   5.958   5.858   7.348  1.3997 -1.8003  2.2946
   56CHL1    C1 4114   6.029   5.574   7.144  0.5468 -0.0607  0.3026
   56CHL1   H1A 4115   6.108   5.547   7.217  0.3729  0.0678  0.5412
   56CHL1   H1B 4116   5.970   5.482   7.126  0.3933  0.1945 -0.5388
   56CHL1    C2 4117   6.099   5.632   7.019  0.1178 -0.0671  0.0840
   56CHL1   H2A 4118   6.169   5.567   6.962  1.5496  1.5873 -0.1583
   56CHL1   H2B 4119   6.150   5.727   7.048 -0.4565  1.0325 -2.2685
   56CHL1   C20 4120   5.747   5.542   7.882 -0.0332  0.1123  0.0384
   56CHL1   H20 4121   5.761   5.651   7.900 -2.7039  0.5402 -0.0066
   56CHL1   C21 4122   5.868   5.455   7.893  0.9985  0.1911 -0.1365
   56CHL1  H21A 4123   5.951   5.497   7.832  1.1969 -3.3196 -2.6434
   56CHL1  H21B 4124   5.852   5.350   7.860 -0.4959 -0.4087  2.2587
   56CHL1  H21C 4125   5.913   5.453   7.995  1.4986  0.6529 -0.3438
   56CHL1   C22 4126   5.631   5.496   7.978  0.0173  0.7182  0.1431
   56CHL1  H22A 4127   5.531   5.539   7.955 -1.7189 -2.0234  1.9205
   56CHL1  H22B 4128   5.620   5.388   7.958  1.3022  1.2144 -4.2477
   56CHL1   C23 4129   5.650   5.521   8.126  0.0863  0.1464  0.0968
   56CHL1  H23A 4130   5.756   5.498   8.149  0.1616  0.3792 -0.0246
   56CHL1  H23B 4131   5.645   5.629   8.151 -2.3414  0.5816 -1.8497
   56CHL1   C24 4132   5.556   5.436   8.218 -0.4300 -0.2307  1.4271
   56CHL1  H24A 4133   5.456   5.484   8.214 -0.0812  0.4362 -1.2253
   56CHL1  H24B 4134   5.549   5.333   8.176 -1.1155 -1.2604  3.8713
   56CHL1   C25 4135   5.602   5.444   8.360  0.3010  0.5283 -0.0938
   56CHL1   H25 4136   5.632   5.548   8.385  0.9998  0.0919  0.9342
   56CHL1   C26 4137   5.501   5.401   8.461 -0.0910  0.2350  0.9425
   56CHL1  H26A 4138   5.543   5.421   8.562  2.2726 -0.3224  0.1240
   56CHL1  H26B 4139   5.498   5.290   8.457 -0.5346  0.3017 -1.1952
   56CHL1  H26C 4140   5.401   5.447   8.444 -0.3179 -1.0157 -1.4938
   56CHL1   C27 4141   5.733   5.355   8.370  0.3695  0.1042  0.3083
   56CHL1  H27A 4142   5.796   5.357   8.279  0.7939  2.1786  0.5937
   56CHL1  H27B 4143   5.790   5.391   8.458  0.4529  3.6469 -1.0140
   56CHL1  H27C 4144   5.704   5.251   8.396  1.5477 -0.2555  0.2101
   57SAPC     N 4145   1.971   3.752  10.704 -0.0529 -0.3498 -0.0758
   57SAPC   C12 4146   1.861   3.851  10.743 -0.6295  0.6343 -0.3937
   57SAPC  H12A 4147   1.769   3.817  10.697  0.1672 -0.2064 -1.4381
   57SAPC  H12B 4148   1.887   3.946  10.700  2.4962  0.1805  0.2919
   57SAPC   C13 4149   2.019   3.772  10.560  0.4937  0.0124 -0.1036
   57SAPC  H13A 4150   1.933   3.783  10.496 -0.1926  0.8007  0.9178
   57SAPC  H13B 4151   2.069   3.867  10.547 -0.8004  0.6045 -0.9015
   57SAPC  H13C 4152   2.078   3.689  10.525  1.3084  0.3606  0.3954
   57SAPC   C14 4153   2.086   3.771  10.794  0.2254 -0.0270  0.1483
   57SAPC  H14A 4154   2.171   3.713  10.760  0.7398  0.6357  0.2748
   57SAPC  H14B 4155   2.122   3.873  10.789 -2.8681  1.1216 -0.8987
   57SAPC  H14C 4156   2.066   3.752  10.899 -1.3585  2.1527  0.3264
   57SAPC   C15 4157   1.913   3.618  10.712  0.1766  0.1882  0.0345
   57SAPC  H15A 4158   1.836   3.605  10.637 -1.4344  2.0437  1.2597
   57SAPC  H15B 4159   1.991   3.544  10.703 -0.0381 -0.0494  0.1168
   57SAPC  H15C 4160   1.867   3.607  10.809 -0.9177  1.1618 -0.3514
   57SAPC   C11 4161   1.831   3.869  10.895 -0.2043 -0.4184 -0.6450
   57SAPC  H11A 4162   1.772   3.962  10.908  0.1980 -0.2943  0.4027
   57SAPC  H11B 4163   1.917   3.903  10.956  0.7743  0.6990 -2.5564
   57SAPC     P 4164   1.617   3.742  10.974  0.1390 -0.2539  0.0659
   57SAPC   O13 4165   1.598   3.647  11.081 -0.1132 -0.1957 -0.7296
   57SAPC   O14 4166   1.550   3.870  10.997  0.0640  0.2643 -0.0609
   57SAPC   O12 4167   1.773   3.759  10.959 -0.1386  0.3978 -0.1602
   57SAPC   O11 4168   1.571   3.686  10.834  0.2524  0.1472 -0.3222
   57SAPC    C1 4169   1.546   3.564  10.778  0.4162  0.1160  0.3605
   57SAPC    HA 4170   1.609   3.540  10.690 -1.2306 -0.1990 -0.7641
   57SAPC    HB 4171   1.567   3.484  10.852  1.3070 -2.1108 -2.1650
   57SAPC    C2 4172   1.397   3.548  10.721 -0.3922  0.0388  0.6518
   57SAPC    HS 4173   1.380   3.440  10.707 -1.6101  0.4419 -1.2201
   57SAPC   O21 4174   1.380   3.623  10.599  0.0361 -0.7612  0.0501
   57SAPC   C21 4175   1.398   3.558  10.489 -0.6007 -0.8122 -0.2652
   57SAPC   O22 4176   1.440   3.443  10.486  0.3667  0.2905  0.6559
   57SAPC   C22 4177   1.350   3.634  10.367  0.3924 -0.2745 -0.2204
   57SAPC   H2R 4178   1.239   3.636  10.357  0.2906  0.7687  0.8380
   57SAPC   H2S 4179   1.383   3.740  10.377 -1.3712  0.5045 -1.9417
   57SAPC    C3 4180   1.300   3.603  10.826  0.0267  0.3150 -0.1727
   57SAPC    HX 4181   1.317   3.713  10.821  0.0064  0.2690 -2.0533
   57SAPC    HY 4182   1.324   3.553  10.922 -1.4774  1.1116  0.6630
   57SAPC   O31 4183   1.167   3.586  10.776 -0.5988  0.8208 -0.1860
   57SAPC   C31 4184   1.117   3.472  10.778  0.0581  0.0284  0.4251
   57SAPC   O32 4185   1.172   3.370  10.821  0.0180  0.6023 -0.1749
   57SAPC   C32 4186   0.978   3.479  10.705 -0.8954  0.7054  0.5942
   57SAPC   H2X 4187   0.977   3.571  10.643 -0.1061  0.8888  0.8430
   57SAPC   H2Y 4188   0.901   3.490  10.784 -1.5647 -0.3320  0.0962
   57SAPC   C23 4189   1.438   3.580  10.252 -0.1496 -0.1476 -0.9811
   57SAPC   H3R 4190   1.424   3.470  10.248 -1.5082 -0.0373 -0.0848
   57SAPC   H3S 4191   1.545   3.606  10.267 -0.4357 -0.3367  1.9104
   57SAPC   C24 4192   1.392   3.640  10.114  0.0789  0.1949  0.6293
   57SAPC   H4R 4193   1.282   3.621  10.110  0.3968 -2.3106  1.8870
   57SAPC   H4S 4194   1.439   3.582  10.032  1.8533  0.1507  1.6353
   57SAPC   C25 4195   1.414   3.791  10.107  0.0967 -0.2962  0.5653
   57SAPC   H5R 4196   1.485   3.833  10.180 -0.9628 -3.3399  3.6085
   57SAPC   C26 4197   1.336   3.875  10.042 -0.2130 -0.4531 -0.0366
   57SAPC   H6R 4198   1.348   3.983  10.055  1.1097 -0.5668 -0.1631
   57SAPC   C27 4199   1.219   3.843   9.950  0.4133  0.5355 -0.5635
   57SAPC   H7R 4200   1.128   3.805  10.003 -0.3388 -0.1721 -2.2917
   57SAPC   H7S 4201   1.241   3.756   9.885 -1.3542  0.3664 -1.0048
   57SAPC   C28 4202   1.176   3.955   9.858  0.3654 -0.9571 -1.0568
   57SAPC   H8R 4203   1.133   4.038   9.916 -1.4164 -1.1087 -2.0876
   57SAPC   C29 4204   1.176   3.960   9.727 -0.0054  1.1193  1.0452
   57SAPC   H9R 4205   1.146   4.053   9.676 -0.8742  0.4558  0.3026
   57SAPC  C210 4206   1.234   3.861   9.628  0.4467 -0.1350  0.0545
   57SAPC  H10R 4207   1.172   3.865   9.536 -1.1723 -1.5114  1.0225
   57SAPC  H10S 4208   1.243   3.758   9.667 -2.6439  0.2004  1.9851
   57SAPC  C211 4209   1.370   3.917   9.597 -0.0338 -0.1100 -0.3135
   57SAPC  H11R 4210   1.437   3.906   9.684 -2.9745 -0.4671  2.0724
   57SAPC  C212 4211   1.415   3.966   9.483 -0.5250  0.0320  0.5269
   57SAPC  H12R 4212   1.518   4.004   9.474 -0.4656  0.2234  1.7622
   57SAPC  C213 4213   1.333   3.976   9.353 -0.0353 -0.0765  0.2091
   57SAPC  H13R 4214   1.373   4.062   9.296 -1.3198  1.5430  1.6676
   57SAPC  H13S 4215   1.229   4.003   9.380 -0.7542 -2.4616  0.0786
   57SAPC  C214 4216   1.334   3.860   9.263  0.4213  0.1626  0.5027
   57SAPC  H14R 4217   1.387   3.769   9.294 -0.3349 -0.5168 -0.1635
   57SAPC  C215 4218   1.271   3.853   9.137  0.5467 -0.2400 -0.2242
   57SAPC  H15R 4219   1.278   3.764   9.072 -0.0683 -0.1944 -0.3586
   57SAPC  C216 4220   1.179   3.961   9.089 -0.3508 -1.0467 -0.3775
   57SAPC  H16R 4221   1.205   4.057   9.138  3.5278 -2.3017  0.4130
   57SAPC  H16S 4222   1.073   3.935   9.106  0.1539 -1.1355  3.3277
   57SAPC  C217 4223   1.201   3.982   8.936  0.3467 -0.1351 -0.4386
   57SAPC  H17R 4224   1.179   3.886   8.884  1.6127 -0.2244 -0.8580
   57SAPC  H17S 4225   1.302   4.025   8.916  1.3240 -2.6104 -1.2465
   57SAPC  C218 4226   1.079   4.084   8.890  0.2892  0.8810 -0.3861
   57SAPC  H18R 4227   1.126   4.184   8.880 -0.2735  1.1909  0.0572
   57SAPC  H18S 4228   0.997   4.091   8.964 -0.3022  0.6373 -1.0083
   57SAPC  C219 4229   1.010   4.034   8.766  0.9157  0.0099 -0.4022
   57SAPC  H19R 4230   1.091   3.997   8.700  0.4573 -0.9499 -0.4450
   57SAPC  H19S 4231   0.965   4.124   8.718  2.4441  1.1606  0.2372
   57SAPC  C220 4232   0.907   3.928   8.804 -0.6614 -0.3750 -0.1980
   57SAPC  H20R 4233   0.810   3.977   8.829 -0.3381  0.8991 -1.3194
   57SAPC  H20S 4234   0.955   3.862   8.879  3.5082  1.9579 -0.5262
   57SAPC  H20T 4235   0.897   3.866   8.713  0.0178  0.3210 -0.7585
   57SAPC   C33 4236   0.947   3.365  10.611  0.1313 -0.5271 -0.0139
   57SAPC   H3X 4237   0.843   3.370  10.573 -0.1194 -1.8741  0.4302
   57SAPC   H3Y 4238   0.945   3.268  10.666  0.5746  0.3201  1.5596
   57SAPC   C34 4239   1.039   3.357  10.490  0.1258 -0.3993 -0.0606
   57SAPC   H4X 4240   1.039   3.249  10.464  1.2311 -0.7003  1.0539
   57SAPC   H4Y 4241   1.142   3.379  10.528 -0.7362 -0.9664  2.9114
   57SAPC   C35 4242   0.997   3.441  10.370  0.0365 -0.3665  0.6983
   57SAPC   H5X 4243   1.019   3.547  10.392 -0.2433  0.5952 -2.9941
   57SAPC   H5Y 4244   0.887   3.430  10.358  0.3410 -2.2778 -0.7283
   57SAPC   C36 4245   1.069   3.401  10.241  0.6011  0.4328 -0.6979
   57SAPC   H6X 4246   1.042   3.298  10.208  0.5913  0.2640 -0.1679
   57SAPC   H6Y 4247   1.180   3.401  10.253  0.5327  0.5391 -0.0171
   57SAPC   C37 4248   1.029   3.498  10.127  0.2192  0.3456 -0.4087
   57SAPC   H7X 4249   1.040   3.607  10.143  0.5170  0.2857 -0.2049
   57SAPC   H7Y 4250   0.918   3.492  10.125  0.1449  0.7785  0.9536
   57SAPC   C38 4251   1.086   3.458   9.994  0.0235  0.8978  0.2351
   57SAPC   H8X 4252   1.066   3.352   9.970  0.1584  0.9103  0.0690
   57SAPC   H8Y 4253   1.196   3.473   9.994  0.1823  0.0865 -2.0597
   57SAPC   C39 4254   1.020   3.541   9.878 -0.0140  0.3926 -0.0292
   57SAPC   H9X 4255   1.010   3.648   9.904 -0.0790  0.5687 -0.7816
   57SAPC   H9Y 4256   0.921   3.497   9.855  0.0014  0.0145  0.5761
   57SAPC  C310 4257   1.114   3.525   9.757 -0.6061  0.0495 -0.7204
   57SAPC  H10X 4258   1.149   3.420   9.749 -0.7252 -0.0634  0.1191
   57SAPC  H10Y 4259   1.204   3.582   9.790 -1.3449  0.4223  0.7055
   57SAPC  C311 4260   1.056   3.576   9.632  0.6265  0.3518 -0.1397
   57SAPC  H11X 4261   1.039   3.685   9.650 -1.0967  0.2018 -0.7605
   57SAPC  H11Y 4262   0.958   3.528   9.619  1.2241 -1.2808  1.0786
   57SAPC  C312 4263   1.142   3.541   9.503  0.2226  0.1710  0.3301
   57SAPC  H12X 4264   1.133   3.431   9.492 -1.9244  0.0965  2.1533
   57SAPC  H12Y 4265   1.249   3.567   9.520 -0.1213  1.6872  0.2663
   57SAPC  C313 4266   1.106   3.609   9.376  0.3469 -0.0943  0.3730
   57SAPC  H13X 4267   1.188   3.582   9.306  0.0725 -1.5667  0.6065
   57SAPC  H13Y 4268   1.117   3.718   9.399  2.0625  0.0153 -0.7324
   57SAPC  C314 4269   0.960   3.578   9.332  0.0897  0.9265  0.2458
   57SAPC  H14X 4270   0.886   3.615   9.406  1.5435 -0.1596  2.3459
   57SAPC  H14Y 4271   0.944   3.468   9.338 -0.5344  1.1011  3.1898
   57SAPC  C315 4272   0.924   3.639   9.194 -0.3455 -0.1372 -0.0142
   57SAPC  H15X 4273   0.969   3.740   9.205 -0.1516 -0.3054  0.8126
   57SAPC  H15Y 4274   0.814   3.650   9.185 -0.5013 -1.2905  0.3480
   57SAPC  C316 4275   0.986   3.566   9.073  0.3384  0.5350 -0.2866
   57SAPC  H16X 4276   1.094   3.571   9.097  0.5427  1.2219 -1.3168
   57SAPC  H16Y 4277   0.970   3.620   8.977  2.3813  0.7518 -0.5401
   57SAPC  C317 4278   0.953   3.416   9.051  0.1282  0.4203 -0.1097
   57SAPC  H17X 4279   0.854   3.394   9.095  0.4810 -0.4095  0.2943
   57SAPC  H17Y 4280   1.023   3.374   9.126  0.1213  0.0989 -0.2833
   57SAPC  C318 4281   0.969   3.348   8.917  0.7952 -0.2080 -0.6304
   57SAPC  H18X 4282   0.874   3.359   8.861 -0.0301 -0.4282  0.6766
   57SAPC  H18Y 4283   0.995   3.241   8.931 -0.4958 -0.3957  0.5768
   57SAPC  H18Z 4284   1.056   3.379   8.855  0.7120 -1.3493 -1.3389
   58SAPC     N 4285   2.460   4.301  11.152  0.2831 -0.1548  0.0927
   58SAPC   C12 4286   2.354   4.288  11.042 -0.2416 -0.1311 -0.6633
   58SAPC  H12A 4287   2.286   4.371  11.050  0.7530  0.4991  2.9772
   58SAPC  H12B 4288   2.297   4.197  11.057 -2.0151  1.1410  0.7382
   58SAPC   C13 4289   2.553   4.414  11.133  0.2470  0.6401 -0.2778
   58SAPC  H13A 4290   2.606   4.398  11.041  0.9239 -1.1464  0.3803
   58SAPC  H13B 4291   2.500   4.508  11.126 -0.5058  0.1466 -1.4673
   58SAPC  H13C 4292   2.627   4.418  11.212 -1.4585  2.4607  1.3385
   58SAPC   C14 4293   2.385   4.319  11.285 -0.1982  0.3193  0.3874
   58SAPC  H14A 4294   2.465   4.330  11.357  2.8342  2.0725 -2.9366
   58SAPC  H14B 4295   2.312   4.398  11.274 -0.7013 -0.4075 -2.2757
   58SAPC  H14C 4296   2.339   4.224  11.311  0.9272  0.1175  1.7604
   58SAPC   C15 4297   2.545   4.182  11.165  0.2917  0.5577  0.3513
   58SAPC  H15A 4298   2.575   4.141  11.070 -3.5838  0.6709 -1.0785
   58SAPC  H15B 4299   2.633   4.203  11.225 -0.1177 -1.0002  1.5628
   58SAPC  H15C 4300   2.488   4.103  11.212  0.9035  1.3312  2.5012
   58SAPC   C11 4301   2.399   4.287  10.892 -0.3006 -0.8443  0.1008
   58SAPC  H11A 4302   2.470   4.372  10.880 -1.5167  0.4477  1.6535
   58SAPC  H11B 4303   2.314   4.318  10.826  0.7967  2.0033 -0.1456
   58SAPC     P 4304   2.376   4.028  10.832 -0.1757 -0.2936 -0.2073
   58SAPC   O13 4305   2.464   3.917  10.818  0.0814  0.0599  0.1913
   58SAPC   O14 4306   2.272   4.014  10.935 -0.1759  0.2009  0.5696
   58SAPC   O12 4307   2.457   4.161  10.855 -0.8153 -0.1373 -0.8689
   58SAPC   O11 4308   2.307   4.051  10.693  0.2751 -0.8833  0.0678
   58SAPC    C1 4309   2.368   4.073  10.572 -0.4719  0.0173 -0.1848
   58SAPC    HA 4310   2.322   4.164  10.527 -0.6060 -1.4679 -3.2716
   58SAPC    HB 4311   2.478   4.068  10.586 -0.5264 -1.8384 -0.1764
   58SAPC    C2 4312   2.352   3.959  10.463  0.2373  0.2350 -0.1030
   58SAPC    HS 4313   2.434   3.976  10.389  1.8479 -0.8501  1.3523
   58SAPC   O21 4314   2.222   3.973  10.411 -0.2665 -0.3278 -0.3170
   58SAPC   C21 4315   2.208   4.070  10.313  0.4283  0.1954 -0.4895
   58SAPC   O22 4316   2.300   4.117  10.253 -0.4172 -0.2203  0.3587
   58SAPC   C22 4317   2.059   4.083  10.286  0.2784 -0.7028  0.1809
   58SAPC   H2R 4318   2.006   3.994  10.326 -0.5162 -0.6880 -0.8067
   58SAPC   H2S 4319   2.014   4.164  10.347 -0.8640 -1.8161  0.8631
   58SAPC    C3 4320   2.365   3.811  10.517 -0.6010  0.0128 -0.5232
   58SAPC    HX 4321   2.294   3.810  10.602 -0.4475 -1.4868 -0.3914
   58SAPC    HY 4322   2.467   3.792  10.555 -0.4338 -0.9426 -1.4161
   58SAPC   O31 4323   2.339   3.697  10.428 -0.1889 -0.6738 -0.6127
   58SAPC   C31 4324   2.422   3.674  10.325 -0.1431  0.0346 -0.5277
   58SAPC   O32 4325   2.522   3.735  10.296 -0.3645  0.2668  0.5126
   58SAPC   C32 4326   2.364   3.560  10.247  0.1642 -0.5551  0.4505
   58SAPC   H2X 4327   2.256   3.582  10.240  0.3661 -0.0161 -1.7095
   58SAPC   H2Y 4328   2.379   3.474  10.316  3.1287  1.2842  2.3302
   58SAPC   C23 4329   2.014   4.090  10.132 -0.6378 -0.1541  0.8424
   58SAPC   H3R 4330   2.077   4.170  10.087 -0.7018 -1.2837 -1.3927
   58SAPC   H3S 4331   1.905   4.109  10.132 -0.4803  1.4719 -2.2121
   58SAPC   C24 4332   2.039   3.954  10.060 -0.4736 -0.2399 -0.2808
   58SAPC   H4R 4333   1.955   3.936   9.988 -0.3841  0.3450 -0.5409
   58SAPC   H4S 4334   2.048   3.881  10.143 -1.4201  2.1509  2.0897
   58SAPC   C25 4335   2.167   3.957   9.980 -0.2080 -0.1646 -0.0824
   58SAPC   H5R 4336   2.248   3.915  10.041  0.2476 -1.6390 -1.6087
   58SAPC   C26 4337   2.191   4.023   9.860 -0.8048 -0.3822 -0.1785
   58SAPC   H6R 4338   2.292   4.011   9.819 -1.3646 -1.1893 -1.3933
   58SAPC   C27 4339   2.101   4.107   9.772 -0.0707 -0.3758 -0.9529
   58SAPC   H7R 4340   2.138   4.211   9.755 -0.3372 -0.5139 -2.5949
   58SAPC   H7S 4341   2.004   4.123   9.824  0.6827  1.2803  0.0181
   58SAPC   C28 4342   2.062   4.039   9.646  0.1167  0.0621  0.4120
   58SAPC   H8R 4343   2.025   3.936   9.659  1.9275 -0.6815 -0.0268
   58SAPC   C29 4344   2.071   4.097   9.524 -0.3553  0.1233 -0.6791
   58SAPC   H9R 4345   2.042   4.041   9.434 -2.4290  1.3501 -0.8536
   58SAPC  C210 4346   2.118   4.239   9.493 -0.1783 -1.0295  0.8655
   58SAPC  H10R 4347   2.166   4.284   9.583  1.7546 -0.5223 -0.3697
   58SAPC  H10S 4348   2.026   4.298   9.476  0.0018 -0.4161  1.9080
   58SAPC  C211 4349   2.214   4.259   9.381 -0.0475 -0.4338  0.6643
   58SAPC  H11R 4350   2.296   4.185   9.370  0.5345  0.5778 -3.1369
   58SAPC  C212 4351   2.216   4.365   9.285 -0.9870  0.7602 -0.4789
   58SAPC  H12R 4352   2.284   4.350   9.200 -1.3179 -3.5127 -0.2144
   58SAPC  C213 4353   2.117   4.477   9.282 -0.4314 -0.2162 -0.3879
   58SAPC  H13R 4354   2.014   4.436   9.295 -0.4250 -0.0153  0.3584
   58SAPC  H13S 4355   2.119   4.539   9.190  0.8669 -1.1249 -1.0067
   58SAPC  C214 4356   2.144   4.564   9.406 -0.0934 -0.4327 -0.4305
   58SAPC  H14R 4357   2.225   4.536   9.475 -0.0660  1.2780  0.2763
   58SAPC  C215 4358   2.085   4.681   9.427  0.5730  0.1578  0.0323
   58SAPC  H15R 4359   2.110   4.749   9.509 -0.8547  0.0971  0.5494
   58SAPC  C216 4360   1.977   4.734   9.349 -0.2368 -0.0411  0.3377
   58SAPC  H16R 4361   1.888   4.758   9.410 -0.1016  2.1186 -0.2152
   58SAPC  H16S 4362   1.940   4.674   9.263 -1.1968  0.3988  0.4342
   58SAPC  C217 4363   2.031   4.858   9.283 -0.3774 -0.6805  0.1283
   58SAPC  H17R 4364   2.096   4.825   9.200 -0.8915  0.4887 -0.7648
   58SAPC  H17S 4365   2.086   4.933   9.345 -1.6101  0.0839  0.3519
   58SAPC  C218 4366   1.913   4.933   9.223 -0.4686 -0.5911 -0.2655
   58SAPC  H18R 4367   1.865   4.981   9.311 -1.1664 -0.4390 -0.7218
   58SAPC  H18S 4368   1.850   4.863   9.165  0.5859 -0.8971 -1.0756
   58SAPC  C219 4369   1.956   5.060   9.142 -0.2848 -0.3445 -0.3975
   58SAPC  H19R 4370   1.979   5.037   9.036  1.8280 -3.0773  0.5535
   58SAPC  H19S 4371   2.045   5.106   9.191  0.2121  0.5097 -2.0247
   58SAPC  C220 4372   1.846   5.167   9.162  0.2954 -0.5810  1.0401
   58SAPC  H20R 4373   1.873   5.271   9.133 -0.4026 -0.2036  1.7279
   58SAPC  H20S 4374   1.794   5.184   9.259  1.0606  1.9678  1.0830
   58SAPC  H20T 4375   1.760   5.155   9.093  0.4915  1.4253  0.3746
   58SAPC   C33 4376   2.416   3.541  10.105 -0.6646 -0.1503  0.1427
   58SAPC   H3X 4377   2.371   3.447  10.066 -1.5507  0.2639  0.1628
   58SAPC   H3Y 4378   2.526   3.521  10.112  0.1009  3.3536 -0.0699
   58SAPC   C34 4379   2.402   3.659  10.007 -0.0690 -0.2426 -0.3001
   58SAPC   H4X 4380   2.453   3.746  10.053 -0.2768 -0.7446  0.9447
   58SAPC   H4Y 4381   2.296   3.690   9.998  0.1365  0.5606 -0.0289
   58SAPC   C35 4382   2.459   3.638   9.865 -0.5394  0.3196 -0.6394
   58SAPC   H5X 4383   2.570   3.630   9.866 -0.3170  2.5596 -1.4075
   58SAPC   H5Y 4384   2.443   3.737   9.817 -2.6954  1.6489  2.4830
   58SAPC   C36 4385   2.402   3.524   9.770 -0.0418 -0.5660  0.7726
   58SAPC   H6X 4386   2.297   3.502   9.800 -0.8723  1.2558 -0.6428
   58SAPC   H6Y 4387   2.463   3.434   9.792 -1.6853 -1.5476  1.5377
   58SAPC   C37 4388   2.429   3.549   9.627  0.0047 -0.4300 -0.0968
   58SAPC   H7X 4389   2.538   3.568   9.617  0.0691 -0.4902  0.4920
   58SAPC   H7Y 4390   2.386   3.644   9.588 -0.2883 -0.5746 -0.1270
   58SAPC   C38 4391   2.385   3.438   9.536 -0.0497  0.5958  0.4753
   58SAPC   H8X 4392   2.280   3.418   9.569 -0.3264 -0.0839 -0.7296
   58SAPC   H8Y 4393   2.444   3.347   9.561 -0.5320  0.9867  3.4386
   58SAPC   C39 4394   2.398   3.472   9.382  0.0959  0.1574  0.1584
   58SAPC   H9X 4395   2.504   3.502   9.364 -0.4323  0.7396 -2.3423
   58SAPC   H9Y 4396   2.331   3.559   9.367 -1.5235 -1.1888 -0.7425
   58SAPC  C310 4397   2.341   3.369   9.277 -0.2144 -0.5153 -0.0892
   58SAPC  H10X 4398   2.234   3.351   9.302  0.0582 -1.3467  0.5544
   58SAPC  H10Y 4399   2.406   3.280   9.292 -0.2727 -0.4414  0.6392
   58SAPC  C311 4400   2.364   3.417   9.137  0.6671 -0.2208 -0.9264
   58SAPC  H11X 4401   2.473   3.423   9.116  0.5788  0.0029 -1.3235
   58SAPC  H11Y 4402   2.341   3.524   9.116  2.2001 -0.0972 -2.1710
   58SAPC  C312 4403   2.319   3.333   9.026 -0.1973 -0.4289  0.1415
   58SAPC  H12X 4404   2.350   3.227   9.041  2.0472 -0.3516 -2.8083
   58SAPC  H12Y 4405   2.378   3.363   8.936 -0.3546 -0.2447  0.0977
   58SAPC  C313 4406   2.167   3.342   9.021  0.2688 -0.4362 -0.3097
   58SAPC  H13X 4407   2.127   3.445   9.029 -2.5551 -1.4749  0.0373
   58SAPC  H13Y 4408   2.134   3.278   9.106  0.7401  0.3851  0.4996
   58SAPC  C314 4409   2.102   3.294   8.892 -0.8065  0.6501  0.0243
   58SAPC  H14X 4410   2.118   3.186   8.876 -2.5677  0.7206 -2.8960
   58SAPC  H14Y 4411   2.166   3.334   8.811  1.8105  0.8299  2.0384
   58SAPC  C315 4412   1.949   3.323   8.890  0.1078  0.9507  0.4781
   58SAPC  H15X 4413   1.941   3.425   8.934 -1.3028 -0.1983  3.0844
   58SAPC  H15Y 4414   1.895   3.250   8.954  0.7385  0.5685  0.5907
   58SAPC  C316 4415   1.908   3.335   8.749 -0.2494 -0.2454 -0.0959
   58SAPC  H16X 4416   1.945   3.247   8.691 -1.5978 -2.0780  1.6674
   58SAPC  H16Y 4417   1.951   3.431   8.713 -0.9097 -0.0545 -0.3892
   58SAPC  C317 4418   1.754   3.346   8.732  0.4891  0.5950  0.9213
   58SAPC  H17X 4419   1.723   3.449   8.759 -2.5620  0.1607 -0.5217
   58SAPC  H17Y 4420   1.710   3.283   8.812 -0.9182  0.1534 -0.1714
   58SAPC  C318 4421   1.710   3.296   8.596  0.9052 -0.1270 -0.6055
   58SAPC  H18X 4422   1.735   3.188   8.591 -0.2232 -0.5051  1.0741
   58SAPC  H18Y 4423   1.750   3.366   8.519 -1.9223  4.6375  1.7812
   58SAPC  H18Z 4424   1.600   3.304   8.585  0.6914 -1.3462  0.4290
   59SAPC     N 4425   4.287   3.881  10.899  0.1666 -0.0737  0.0947
   59SAPC   C12 4426   4.135   3.892  10.850 -0.4994 -0.1028  0.3155
   59SAPC  H12A 4427   4.123   3.802  10.792 -0.9488 -0.8128  1.4870
   59SAPC  H12B 4428   4.133   3.975  10.781 -1.0153  0.6644  1.2351
   59SAPC   C13 4429   4.296   3.775  10.992  0.6085 -0.3286 -0.2221
   59SAPC  H13A 4430   4.386   3.751  11.046  0.4671  0.8967  0.5949
   59SAPC  H13B 4431   4.212   3.768  11.060  0.4396 -1.6955 -0.5385
   59SAPC  H13C 4432   4.272   3.689  10.932 -0.9830 -1.4429  1.8794
   59SAPC   C14 4433   4.380   3.846  10.790  0.5168  0.0168 -0.4186
   59SAPC  H14A 4434   4.368   3.742  10.762 -1.1513 -0.0531  0.4772
   59SAPC  H14B 4435   4.363   3.913  10.707  0.8221  2.7208  1.5654
   59SAPC  H14C 4436   4.481   3.859  10.826  0.0397 -0.0512  1.0022
   59SAPC   C15 4437   4.329   4.009  10.963 -0.2463 -0.2698 -0.4488
   59SAPC  H15A 4438   4.429   4.002  11.004 -0.6732 -1.6138  0.4051
   59SAPC  H15B 4439   4.330   4.092  10.893 -1.1093  1.1458  1.1526
   59SAPC  H15C 4440   4.262   4.032  11.045 -0.1901 -2.1297  0.1552
   59SAPC   C11 4441   4.029   3.898  10.954  0.1253 -0.2117  0.6373
   59SAPC  H11A 4442   3.928   3.901  10.908 -0.5598 -2.4004  1.8257
   59SAPC  H11B 4443   4.044   3.988  11.016 -0.7619 -0.1007  0.7096
   59SAPC     P 4444   3.983   3.641  11.008 -0.0399 -0.0965 -0.1150
   59SAPC   O13 4445   4.088   3.554  11.066  0.4991 -1.0312  0.1641
   59SAPC   O14 4446   3.846   3.631  11.055  0.7396 -0.0119 -0.2218
   59SAPC   O12 4447   4.017   3.791  11.050 -0.3205 -0.0856 -0.4290
   59SAPC   O11 4448   3.988   3.634  10.857 -0.7452 -0.4604 -0.3713
   59SAPC    C1 4449   3.905   3.556  10.776  0.3670  0.2887  0.4100
   59SAPC    HA 4450   3.945   3.457  10.744 -1.2429 -0.4292  0.5271
   59SAPC    HB 4451   3.815   3.527  10.833  0.4082 -1.7153 -0.4665
   59SAPC    C2 4452   3.853   3.624  10.646  0.5451  0.0930 -0.4542
   59SAPC    HS 4453   3.796   3.545  10.592 -0.8816  0.3804  0.5732
   59SAPC   O21 4454   3.962   3.681  10.576 -0.4590  0.3195  0.3116
   59SAPC   C21 4455   4.008   3.603  10.475  0.2628  0.5826  0.6431
   59SAPC   O22 4456   3.970   3.487  10.449 -0.3408  0.1449 -0.3793
   59SAPC   C22 4457   4.126   3.668  10.411  0.4026 -0.1075  0.2326
   59SAPC   H2R 4458   4.217   3.627  10.461  1.0028  1.1995  0.2573
   59SAPC   H2S 4459   4.130   3.647  10.303 -1.3338  1.0338 -0.1027
   59SAPC    C3 4460   3.745   3.731  10.676  0.2877 -0.2587 -0.0494
   59SAPC    HX 4461   3.796   3.808  10.738  0.0004 -1.2088  1.4232
   59SAPC    HY 4462   3.675   3.682  10.747 -1.3988  1.5600 -0.3674
   59SAPC   O31 4463   3.682   3.777  10.553  0.0658 -0.6041  0.0346
   59SAPC   C31 4464   3.754   3.868  10.484 -0.6585 -0.2204  0.1171
   59SAPC   O32 4465   3.853   3.921  10.529 -0.0310  0.5854  0.4199
   59SAPC   C32 4466   3.681   3.908  10.350 -0.4690  0.0211  0.2514
   59SAPC   H2X 4467   3.598   3.978  10.375 -0.9846 -1.1841  2.1228
   59SAPC   H2Y 4468   3.648   3.810  10.309 -2.9418  0.8169  0.1412
   59SAPC   C23 4469   4.143   3.824  10.424  0.1203  0.1185 -0.0556
   59SAPC   H3R 4470   4.117   3.849  10.529 -2.9405 -1.8577 -0.2022
   59SAPC   H3S 4471   4.067   3.877  10.363  0.4174 -1.0773 -1.5162
   59SAPC   C24 4472   4.276   3.884  10.375  0.1536  0.0156  0.7721
   59SAPC   H4R 4473   4.281   3.989  10.411  1.3258  0.0508  0.5339
   59SAPC   H4S 4474   4.267   3.897  10.265  1.4350  0.0068  0.6574
   59SAPC   C25 4475   4.407   3.817  10.411  0.3371  0.1345 -0.0357
   59SAPC   H5R 4476   4.418   3.806  10.520 -1.0060 -1.4843 -0.0239
   59SAPC   C26 4477   4.506   3.789  10.330 -0.5387  0.2325  0.2343
   59SAPC   H6R 4478   4.591   3.745  10.384  1.1085  3.1129  0.1614
   59SAPC   C27 4479   4.517   3.821  10.183  0.1911  0.7745  0.3207
   59SAPC   H7R 4480   4.451   3.910  10.180 -0.1199  0.5644  0.7918
   59SAPC   H7S 4481   4.472   3.742  10.119 -1.2766  1.5367  0.3812
   59SAPC   C28 4482   4.661   3.855  10.156  0.1030  0.9490 -0.6846
   59SAPC   H8R 4483   4.730   3.853  10.242 -2.3309  2.5609  1.4594
   59SAPC   C29 4484   4.710   3.883  10.032 -0.9135 -0.0588  0.2403
   59SAPC   H9R 4485   4.819   3.899  10.030 -0.8150 -0.6500  0.7125
   59SAPC  C210 4486   4.648   3.891   9.894 -0.5249  0.1663  0.1116
   59SAPC  H10R 4487   4.539   3.867   9.903 -0.1314 -1.2278  1.6038
   59SAPC  H10S 4488   4.699   3.816   9.830 -1.0760 -0.4335  0.3540
   59SAPC  C211 4489   4.653   4.032   9.830  0.1098 -0.1607 -0.6001
   59SAPC  H11R 4490   4.578   4.101   9.871  0.5780  1.0848 -1.7457
   59SAPC  C212 4491   4.714   4.074   9.723  0.5382 -0.1514  0.2774
   59SAPC  H12R 4492   4.708   4.183   9.706 -0.7385 -0.4429 -1.3540
   59SAPC  C213 4493   4.796   3.985   9.634 -0.3781 -0.3843 -0.2921
   59SAPC  H13R 4494   4.823   4.038   9.540 -2.4683  1.0125 -0.1596
   59SAPC  H13S 4495   4.732   3.901   9.600  0.5479 -1.2425  0.0178
   59SAPC  C214 4496   4.919   3.924   9.703  0.0807 -0.6190  0.5787
   59SAPC  H14R 4497   4.990   3.999   9.741 -0.0194  0.6856 -1.6226
   59SAPC  C215 4498   4.965   3.791   9.715  0.4996  0.2122 -0.1157
   59SAPC  H15R 4499   5.054   3.755   9.770 -1.0546 -2.4608  0.8733
   59SAPC  C216 4500   4.889   3.678   9.654  0.6244 -0.0201 -0.4919
   59SAPC  H16R 4501   4.783   3.704   9.634  0.5930 -0.9366 -1.5690
   59SAPC  H16S 4502   4.879   3.588   9.718 -0.2838  0.4186 -0.0005
   59SAPC  C217 4503   4.959   3.626   9.525 -0.4846 -0.3141 -0.4073
   59SAPC  H17R 4504   4.941   3.705   9.448  0.0484 -1.6925 -1.9948
   59SAPC  H17S 4505   4.908   3.535   9.488  0.0127 -3.0022  4.6128
   59SAPC  C218 4506   5.108   3.589   9.537 -0.5241 -0.2846  0.3940
   59SAPC  H18R 4507   5.161   3.653   9.610  0.5864 -1.2069  0.4303
   59SAPC  H18S 4508   5.165   3.585   9.442 -0.3143 -0.6516  0.5325
   59SAPC  C219 4509   5.116   3.447   9.590 -0.5295 -0.0353 -0.4615
   59SAPC  H19R 4510   5.050   3.393   9.519 -0.8196  3.2118 -2.9183
   59SAPC  H19S 4511   5.080   3.446   9.695 -2.6036 -0.8189 -1.1264
   59SAPC  C220 4512   5.258   3.397   9.605 -0.3116  0.5608  0.3200
   59SAPC  H20R 4513   5.291   3.430   9.705  0.0211  0.9931  0.0706
   59SAPC  H20S 4514   5.318   3.431   9.518  2.3351 -4.4265 -0.1448
   59SAPC  H20T 4515   5.255   3.286   9.612  2.1906  0.4090 -0.1824
   59SAPC   C33 4516   3.778   3.973  10.248  0.5092 -0.0019  0.8335
   59SAPC   H3X 4517   3.879   3.927  10.241  0.2614 -0.3133 -1.6282
   59SAPC   H3Y 4518   3.792   4.078  10.281  0.6199  0.2363  0.0517
   59SAPC   C34 4519   3.725   3.970  10.103 -0.5116 -0.0845  0.6486
   59SAPC   H4X 4520   3.640   4.042  10.098  0.2445  1.1034  3.2335
   59SAPC   H4Y 4521   3.689   3.868  10.078  0.3279  0.2209 -2.1989
   59SAPC   C35 4522   3.832   4.005   9.990  0.2371  0.0069 -0.0629
   59SAPC   H5X 4523   3.917   3.934   9.989  1.8066  1.6933 -3.3544
   59SAPC   H5Y 4524   3.877   4.102  10.022  0.2410 -0.3172  0.9458
   59SAPC   C36 4525   3.767   4.007   9.852 -0.0689  0.0950  0.2254
   59SAPC   H6X 4526   3.674   4.066   9.857  0.3381  0.9496 -1.5048
   59SAPC   H6Y 4527   3.738   3.905   9.820 -0.0737  0.3849 -0.7429
   59SAPC   C37 4528   3.868   4.071   9.754 -0.0315 -0.5196 -0.5836
   59SAPC   H7X 4529   3.944   3.992   9.738  1.1691  0.3445  0.6402
   59SAPC   H7Y 4530   3.912   4.163   9.799  0.7067 -2.2775  2.5910
   59SAPC   C38 4531   3.809   4.091   9.618 -0.6709  0.7664 -0.1473
   59SAPC   H8X 4532   3.729   4.167   9.630  1.3810  2.6934  3.0179
   59SAPC   H8Y 4533   3.750   4.000   9.594  0.3623 -0.9366  3.1426
   59SAPC   C39 4534   3.906   4.122   9.505 -0.1417  0.0099  0.2482
   59SAPC   H9X 4535   3.984   4.043   9.502  0.4702  0.6162 -0.1727
   59SAPC   H9Y 4536   3.948   4.225   9.500  1.7565 -0.7408  0.2516
   59SAPC  C310 4537   3.834   4.103   9.372  0.4532 -0.2154  0.1472
   59SAPC  H10X 4538   3.760   4.186   9.365 -0.0967 -0.4529  2.4018
   59SAPC  H10Y 4539   3.779   4.008   9.385  1.0281 -0.4364  1.0349
   59SAPC  C311 4540   3.925   4.089   9.249  0.1902  0.5335 -0.0179
   59SAPC  H11X 4541   3.980   3.995   9.273 -0.8992 -0.5771 -1.6805
   59SAPC  H11Y 4542   3.997   4.173   9.239  0.0365  0.8209  1.1748
   59SAPC  C312 4543   3.856   4.063   9.118 -0.0240 -0.1541  0.3715
   59SAPC  H12X 4544   3.767   4.001   9.142 -1.1623  1.6537  0.9881
   59SAPC  H12Y 4545   3.925   4.007   9.050  0.6836  2.5462 -1.3307
   59SAPC  C313 4546   3.824   4.198   9.050 -0.2504 -0.2037 -0.0458
   59SAPC  H13X 4547   3.915   4.262   9.047  1.9116 -3.0741 -2.2259
   59SAPC  H13Y 4548   3.738   4.244   9.103  0.6240  1.3719  0.0839
   59SAPC  C314 4549   3.785   4.188   8.903 -0.0242  0.3632  0.9373
   59SAPC  H14X 4550   3.718   4.100   8.889  0.9590 -0.4784  1.4236
   59SAPC  H14Y 4551   3.881   4.182   8.848 -0.0331  2.1555  0.6650
   59SAPC  C315 4552   3.727   4.316   8.852 -0.4200 -0.7469 -0.0070
   59SAPC  H15X 4553   3.794   4.401   8.878 -1.6345  0.5369 -0.9391
   59SAPC  H15Y 4554   3.634   4.335   8.911 -0.5147 -0.5355 -0.2245
   59SAPC  C316 4555   3.695   4.331   8.706 -0.2349  0.4062  0.0573
   59SAPC  H16X 4556   3.783   4.325   8.639  0.0029 -0.1096  0.4023
   59SAPC  H16Y 4557   3.658   4.434   8.691  1.5934  0.7732 -2.6226
   59SAPC  C317 4558   3.584   4.243   8.659  0.1352  0.5945 -0.9264
   59SAPC  H17X 4559   3.620   4.138   8.652  0.3983  0.3044  2.7917
   59SAPC  H17Y 4560   3.560   4.266   8.553  2.0142 -1.0654 -1.7901
   59SAPC  C318 4561   3.448   4.258   8.732  0.2495 -0.7812 -0.8684
   59SAPC  H18X 4562   3.461   4.272   8.841  1.0582 -3.0457 -0.6094
   59SAPC  H18Y 4563   3.394   4.161   8.717 -0.6713 -0.9980  2.9671
   59SAPC  H18Z 4564   3.396   4.343   8.683  1.3662 -0.1226 -0.9264
   60SAPC     N 4565   5.567   2.858  10.918  0.1366 -0.7453  0.5675
   60SAPC   C12 4566   5.653   2.736  10.898 -0.6673  0.0767  0.3900
   60SAPC  H12A 4567   5.581   2.659  10.878  0.7201 -1.6880  1.7931
   60SAPC  H12B 4568   5.684   2.703  10.996 -0.6797 -0.8779  0.0766
   60SAPC   C13 4569   5.625   2.955  11.014 -0.3412 -0.2584 -0.7242
   60SAPC  H13A 4570   5.561   3.041  11.011  0.0835  0.0941 -0.0449
   60SAPC  H13B 4571   5.624   2.927  11.119  0.0930 -0.8254 -0.8628
   60SAPC  H13C 4572   5.723   2.994  10.991  0.1975  0.4810  2.3211
   60SAPC   C14 4573   5.554   2.926  10.786  0.0480  0.4014 -0.2139
   60SAPC  H14A 4574   5.646   2.976  10.761 -0.5855  1.0047 -1.4501
   60SAPC  H14B 4575   5.537   2.863  10.699  1.8082  0.1706 -0.4293
   60SAPC  H14C 4576   5.472   2.995  10.800 -0.5272 -0.1182 -0.9111
   60SAPC   C15 4577   5.439   2.809  10.971 -0.2665 -0.2521  0.3971
   60SAPC  H15A 4578   5.372   2.890  10.996 -0.4340 -0.0585 -0.6118
   60SAPC  H15B 4579   5.400   2.743  10.895 -1.8428  0.1070  0.8584
   60SAPC  H15C 4580   5.455   2.746  11.057  1.5498  0.0694  0.3450
   60SAPC   C11 4581   5.774   2.743  10.798 -1.0533 -0.1690  0.3684
   60SAPC  H11A 4582   5.746   2.749  10.690 -1.3386  0.1201  0.4578
   60SAPC  H11B 4583   5.823   2.644  10.786 -0.0051  0.6584 -3.8171
   60SAPC     P 4584   5.923   2.961  10.758 -0.4121  0.1794  0.4728
   60SAPC   O13 4585   5.829   3.070  10.748  0.3760 -0.6499 -0.1933
   60SAPC   O14 4586   6.062   3.002  10.799 -0.7488  0.1063 -0.1931
   60SAPC   O12 4587   5.870   2.848  10.838  0.5795  0.4864 -0.1799
   60SAPC   O11 4588   5.929   2.907  10.606  0.1531 -0.5255  0.3793
   60SAPC    C1 4589   6.033   2.805  10.585  0.2071  0.1460  0.1158
   60SAPC    HA 4590   6.134   2.840  10.613  0.1690  1.6272 -1.4815
   60SAPC    HB 4591   6.012   2.709  10.638 -3.5335  0.4713 -0.5025
   60SAPC    C2 4592   6.022   2.767  10.433 -0.8078 -0.4425  0.3884
   60SAPC    HS 4593   6.040   2.861  10.377  2.3473 -1.7052 -0.9759
   60SAPC   O21 4594   5.899   2.700  10.400  0.3678  0.4301 -0.0645
   60SAPC   C21 4595   5.875   2.719  10.274  0.0775  0.2059  0.9215
   60SAPC   O22 4596   5.934   2.788  10.192  0.1645  0.7443 -0.0820
   60SAPC   C22 4597   5.753   2.638  10.238  0.3025 -0.4639 -0.0861
   60SAPC   H2R 4598   5.763   2.533  10.273  0.7403 -0.1741  0.6790
   60SAPC   H2S 4599   5.660   2.676  10.285  0.3499 -0.1869 -0.2102
   60SAPC    C3 4600   6.151   2.679  10.404 -0.2979 -0.0165 -0.2678
   60SAPC    HX 4601   6.140   2.584  10.460 -1.2654 -0.3730 -1.0536
   60SAPC    HY 4602   6.235   2.729  10.459 -2.3085  0.5031  2.5550
   60SAPC   O31 4603   6.172   2.644  10.262  0.3047 -0.0586 -0.0081
   60SAPC   C31 4604   6.268   2.716  10.201 -0.4407 -0.4810  0.1336
   60SAPC   O32 4605   6.320   2.817  10.253  0.4793 -0.4290 -0.0874
   60SAPC   C32 4606   6.306   2.657  10.066  0.0215 -0.7127  0.3961
   60SAPC   H2X 4607   6.222   2.599  10.022  0.7517 -1.6510  0.2007
   60SAPC   H2Y 4608   6.394   2.588  10.069 -0.6159 -1.5015  1.1776
   60SAPC   C23 4609   5.716   2.619  10.095 -0.9113 -1.0933 -0.0857
   60SAPC   H3R 4610   5.789   2.563  10.032 -2.8729 -0.1028 -3.4813
   60SAPC   H3S 4611   5.711   2.713  10.037 -0.0329 -0.8898  0.1471
   60SAPC   C24 4612   5.590   2.532  10.072  0.0407  0.0830 -0.3591
   60SAPC   H4R 4613   5.549   2.539   9.969 -1.4206  3.3493  0.3217
   60SAPC   H4S 4614   5.506   2.579  10.126 -0.2298  1.0547 -1.5927
   60SAPC   C25 4615   5.627   2.392  10.121 -0.2726  0.0276  0.4999
   60SAPC   H5R 4616   5.621   2.385  10.230 -0.3228  0.2053  0.5090
   60SAPC   C26 4617   5.650   2.289  10.043 -0.5356  0.4402  0.3111
   60SAPC   H6R 4618   5.666   2.191  10.091  1.4959  0.4651 -0.2033
   60SAPC   C27 4619   5.653   2.273   9.887  0.1951 -0.3310 -0.2016
   60SAPC   H7R 4620   5.625   2.365   9.832  1.8497  1.2008  1.3753
   60SAPC   H7S 4621   5.585   2.198   9.842  0.5560  0.6462 -2.5170
   60SAPC   C28 4622   5.798   2.244   9.843  0.3616  0.1788 -0.1914
   60SAPC   H8R 4623   5.866   2.331   9.849  1.5397 -0.3682 -3.4952
   60SAPC   C29 4624   5.847   2.135   9.780 -0.2338  0.4980 -0.4373
   60SAPC   H9R 4625   5.951   2.132   9.744 -0.0709  0.3415  0.0297
   60SAPC  C210 4626   5.771   2.009   9.736 -0.2724  0.8770  0.6577
   60SAPC  H10R 4627   5.725   2.037   9.639 -0.0350 -1.3869 -0.1577
   60SAPC  H10S 4628   5.688   1.975   9.802  0.0819 -3.4569 -0.7979
   60SAPC  C211 4629   5.858   1.885   9.714  0.5184 -0.5674 -0.1754
   60SAPC  H11R 4630   5.857   1.818   9.801 -2.7173  1.1065  1.2833
   60SAPC  C212 4631   5.923   1.849   9.599  0.2598 -0.3376 -0.3707
   60SAPC  H12R 4632   5.977   1.753   9.599  0.4272 -0.2487 -1.2030
   60SAPC  C213 4633   5.922   1.911   9.468  0.1349 -0.1613 -0.3869
   60SAPC  H13R 4634   6.020   1.887   9.422  0.1275 -1.1536  0.0915
   60SAPC  H13S 4635   5.914   2.021   9.475  0.8422 -0.0702 -0.8823
   60SAPC  C214 4636   5.808   1.852   9.389 -0.0492  0.5826 -0.2471
   60SAPC  H14R 4637   5.743   1.775   9.432 -0.4063  0.9623 -0.1101
   60SAPC  C215 4638   5.794   1.886   9.257 -0.1197  0.6803  0.6230
   60SAPC  H15R 4639   5.703   1.837   9.219  0.0224 -1.4268  2.7551
   60SAPC  C216 4640   5.872   1.989   9.181 -0.1049 -0.0120  0.7988
   60SAPC  H16R 4641   5.919   2.057   9.255 -0.5314  1.1089  0.0650
   60SAPC  H16S 4642   5.810   2.060   9.122  0.1939  2.2558  3.0174
   60SAPC  C217 4643   5.972   1.921   9.086  0.2053 -0.8751 -0.7026
   60SAPC  H17R 4644   5.912   1.861   9.014 -0.0300 -0.7965 -0.5731
   60SAPC  H17S 4645   6.043   1.853   9.138  0.4358  1.2610  1.9905
   60SAPC  C218 4646   6.051   2.015   9.003 -0.0878  0.2375 -0.3774
   60SAPC  H18R 4647   6.112   2.077   9.072 -0.2798  1.2950 -1.1242
   60SAPC  H18S 4648   5.978   2.082   8.953  2.2680  2.8262 -0.6147
   60SAPC  C219 4649   6.129   1.953   8.890 -0.2865 -0.2440 -0.1282
   60SAPC  H19R 4650   6.067   1.882   8.831 -2.3043  1.1858  0.1945
   60SAPC  H19S 4651   6.195   1.882   8.946 -0.8414 -0.8707 -0.2604
   60SAPC  C220 4652   6.210   2.058   8.806  1.1790 -0.3516 -0.5187
   60SAPC  H20R 4653   6.256   2.010   8.717 -0.8177 -1.5356 -0.9711
   60SAPC  H20S 4654   6.278   2.111   8.876 -0.2243  0.1528  0.5103
   60SAPC  H20T 4655   6.140   2.136   8.768  0.9676 -1.2587 -2.0833
   60SAPC   C33 4656   6.349   2.777   9.969  0.1646 -0.2008 -0.2160
   60SAPC   H3X 4657   6.434   2.831  10.015  1.0981 -0.8076 -1.1637
   60SAPC   H3Y 4658   6.263   2.847   9.969  0.3647  0.0550 -0.9072
   60SAPC   C34 4659   6.375   2.740   9.822  0.2816  0.3740  0.2754
   60SAPC   H4X 4660   6.277   2.720   9.774  1.2284  0.9499 -2.0029
   60SAPC   H4Y 4661   6.423   2.640   9.832 -0.7973 -0.1474  0.3806
   60SAPC   C35 4662   6.447   2.855   9.754 -0.5825  0.0133  0.0741
   60SAPC   H5X 4663   6.546   2.873   9.801 -0.0841  1.6097 -1.4779
   60SAPC   H5Y 4664   6.395   2.953   9.763 -0.4597 -0.0248  1.4273
   60SAPC   C36 4665   6.453   2.826   9.603 -0.0523  0.1988  0.0524
   60SAPC   H6X 4666   6.437   2.918   9.543  1.0743  1.2191  1.2388
   60SAPC   H6Y 4667   6.370   2.757   9.577 -0.3531  0.3866  0.5086
   60SAPC   C37 4668   6.583   2.773   9.555 -0.4305  0.5598  0.2195
   60SAPC   H7X 4669   6.616   2.680   9.607  2.0105  1.8663  1.2028
   60SAPC   H7Y 4670   6.658   2.846   9.594 -0.4671  0.2617  0.8632
   60SAPC   C38 4671   6.594   2.752   9.399 -0.2475  0.1890  0.4871
   60SAPC   H8X 4672   6.500   2.705   9.363  1.0615 -1.6285 -0.8095
   60SAPC   H8Y 4673   6.669   2.673   9.375  0.9207  2.0624 -2.7476
   60SAPC   C39 4674   6.636   2.874   9.316 -0.0489  1.0644  0.5986
   60SAPC   H9X 4675   6.736   2.913   9.344 -0.3213  1.4468  1.0460
   60SAPC   H9Y 4676   6.558   2.953   9.317 -1.9153 -0.6482 -1.0160
   60SAPC  C310 4677   6.650   2.844   9.163 -0.8182  0.1945  0.1304
   60SAPC  H10X 4678   6.550   2.838   9.116 -0.2216  1.9947 -1.4896
   60SAPC  H10Y 4679   6.713   2.754   9.144  3.9896  3.8003 -4.0470
   60SAPC  C311 4680   6.719   2.955   9.090  0.3655  0.5159 -0.6440
   60SAPC  H11X 4681   6.815   2.992   9.130 -1.4012  2.4418  2.1979
   60SAPC  H11Y 4682   6.658   3.045   9.112  1.2976  0.8413  0.6730
   60SAPC  C312 4683   6.727   2.920   8.942 -0.4547 -0.0246  0.3327
   60SAPC  H12X 4684   6.623   2.896   8.914 -0.3703 -1.6806  1.3710
   60SAPC  H12Y 4685   6.795   2.833   8.944  1.6321  1.5259  0.6408
   60SAPC  C313 4686   6.781   3.041   8.855 -0.5575 -0.7337 -0.6668
   60SAPC  H13X 4687   6.724   3.136   8.868  1.0290  0.5747 -2.5740
   60SAPC  H13Y 4688   6.770   3.026   8.746  1.7978 -0.1452 -1.0400
   60SAPC  C314 4689   6.929   3.071   8.869 -0.0770 -0.9694  0.1970
   60SAPC  H14X 4690   6.958   3.086   8.975  1.6682 -0.1729 -0.3634
   60SAPC  H14Y 4691   6.953   3.164   8.813 -2.3089 -0.4679 -0.0403
   60SAPC  C315 4692   7.023   2.963   8.809 -0.1425  0.7179 -0.0700
   60SAPC  H15X 4693   6.996   2.951   8.702  0.7895  3.4130 -0.7033
   60SAPC  H15Y 4694   7.008   2.866   8.860 -1.3822  0.7016 -0.4399
   60SAPC  C316 4695   7.166   3.003   8.815  0.0144 -0.4773 -0.0590
   60SAPC  H16X 4696   7.233   2.917   8.797  2.4176  1.1548  0.5877
   60SAPC  H16Y 4697   7.194   3.048   8.913  0.1613  1.0803 -0.7774
   60SAPC  C317 4698   7.214   3.112   8.711 -0.4860  0.4553 -0.0263
   60SAPC  H17X 4699   7.183   3.212   8.746 -1.1377 -0.6162  2.7535
   60SAPC  H17Y 4700   7.162   3.086   8.616  0.2372  0.4893 -0.4499
   60SAPC  C318 4701   7.368   3.106   8.684 -0.3691  0.1030  0.0215
   60SAPC  H18X 4702   7.377   3.135   8.578  0.9383 -0.8447 -0.1435
   60SAPC  H18Y 4703   7.412   3.004   8.682 -1.0266 -0.2252  1.1457
   60SAPC  H18Z 4704   7.432   3.168   8.750  1.4124  0.4337 -1.9444
   61SAPC     N 4705   5.823   0.734  10.972  0.2979  0.2493  0.3960
   61SAPC   C12 4706   5.797   0.653  10.840 -0.0349 -0.3604  0.0943
   61SAPC  H12A 4707   5.879   0.582  10.839 -0.4125 -0.8210 -2.4024
   61SAPC  H12B 4708   5.824   0.718  10.758  3.8795 -1.9679 -0.1212
   61SAPC   C13 4709   5.834   0.632  11.082 -0.3751  0.2151 -0.1676
   61SAPC  H13A 4710   5.733   0.593  11.081 -0.3398  0.0983 -1.4834
   61SAPC  H13B 4711   5.911   0.558  11.061 -0.8910  0.0691 -1.6548
   61SAPC  H13C 4712   5.846   0.686  11.175 -2.5581  1.5785 -0.6186
   61SAPC   C14 4713   5.954   0.794  10.955 -0.0701  0.6165  0.3791
   61SAPC  H14A 4714   6.045   0.736  10.958 -0.1981  0.3270 -0.7232
   61SAPC  H14B 4715   5.972   0.829  10.854 -0.7985 -1.6208 -0.5980
   61SAPC  H14C 4716   5.962   0.885  11.013  0.0697 -0.8292  2.7640
   61SAPC   C15 4717   5.710   0.838  10.988 -0.3579 -0.8065  0.1934
   61SAPC  H15A 4718   5.709   0.919  10.917 -1.3643 -1.0248 -0.0542
   61SAPC  H15B 4719   5.611   0.796  10.997  0.3308 -3.1515 -2.1810
   61SAPC  H15C 4720   5.728   0.895  11.078  0.0026 -1.9393  0.8582
   61SAPC   C11 4721   5.658   0.595  10.808 -0.1423 -0.1392  0.4123
   61SAPC  H11A 4722   5.677   0.542  10.712 -2.0617  0.0226 -0.0994
   61SAPC  H11B 4723   5.582   0.674  10.792  1.0822  0.8775 -0.6291
   61SAPC     P 4724   5.481   0.503  10.983 -0.3079  0.1308 -0.0482
   61SAPC   O13 4725   5.484   0.394  11.082 -0.8365 -0.2323 -0.4495
   61SAPC   O14 4726   5.448   0.636  11.031  0.2292 -0.6118 -0.6166
   61SAPC   O12 4727   5.617   0.499  10.906  0.5447 -0.1665 -0.3811
   61SAPC   O11 4728   5.381   0.476  10.863  0.0712  0.3063 -0.3067
   61SAPC    C1 4729   5.336   0.337  10.836  0.5370 -0.3537  0.5622
   61SAPC    HA 4730   5.298   0.282  10.924  1.1355 -1.2648  0.2642
   61SAPC    HB 4731   5.256   0.346  10.759  1.3006 -0.6889 -0.2917
   61SAPC    C2 4732   5.440   0.251  10.770  0.2108  0.2035  0.6379
   61SAPC    HS 4733   5.526   0.269  10.837 -0.4226  1.5721  1.0985
   61SAPC   O21 4734   5.471   0.301  10.635  0.2935  0.5196 -0.8733
   61SAPC   C21 4735   5.598   0.269  10.597  0.4843 -0.0435  0.5232
   61SAPC   O22 4736   5.682   0.228  10.673  0.1555 -0.0488 -0.0717
   61SAPC   C22 4737   5.618   0.317  10.449 -0.5462 -0.5711  0.2932
   61SAPC   H2R 4738   5.596   0.236  10.376 -1.1592 -0.2436  0.1026
   61SAPC   H2S 4739   5.555   0.406  10.426  0.5088 -0.0630 -0.6872
   61SAPC    C3 4740   5.397   0.098  10.772 -0.3672  0.1099 -0.2798
   61SAPC    HX 4741   5.396   0.059  10.876 -0.6717  0.7990 -0.0146
   61SAPC    HY 4742   5.470   0.039  10.714 -0.3924 -2.5706  2.2285
   61SAPC   O31 4743   5.266   0.084  10.715  0.0934 -0.2344  0.3712
   61SAPC   C31 4744   5.230  -0.041  10.681  0.5428 -0.0842  1.0493
   61SAPC   O32 4745   5.303  -0.140  10.684 -0.2154 -0.7746  0.2079
   61SAPC   C32 4746   5.088  -0.035  10.623  0.0031  0.2413 -0.2680
   61SAPC   H2X 4747   5.081   0.062  10.570  1.6557  1.2623  1.2515
   61SAPC   H2Y 4748   5.022  -0.026  10.712 -4.0293  2.2324 -3.1351
   61SAPC   C23 4749   5.771   0.361  10.424  0.5629 -0.5423  0.5576
   61SAPC   H3R 4750   5.838   0.274  10.442  1.4924  0.1999  0.7645
   61SAPC   H3S 4751   5.792   0.440  10.500 -0.3764 -0.6861  0.9892
   61SAPC   C24 4752   5.796   0.425  10.288  0.0200  0.0013  0.8772
   61SAPC   H4R 4753   5.902   0.456  10.298  0.8995 -2.2066 -0.8341
   61SAPC   H4S 4754   5.744   0.523  10.279  0.0593 -0.0422  0.1278
   61SAPC   C25 4755   5.764   0.336  10.171  0.2892  0.2776  0.2801
   61SAPC   H5R 4756   5.762   0.227  10.191  1.0777  0.1058 -0.5332
   61SAPC   C26 4757   5.728   0.368  10.047 -0.4161  0.2863 -0.3505
   61SAPC   H6R 4758   5.689   0.284   9.988  0.5693 -0.4665  0.0510
   61SAPC   C27 4759   5.694   0.511  10.000 -0.3092  0.6212 -0.4840
   61SAPC   H7R 4760   5.756   0.530   9.910  0.9115 -0.6887  0.0382
   61SAPC   H7S 4761   5.737   0.592  10.064 -1.4819  0.5250  0.4576
   61SAPC   C28 4762   5.547   0.524   9.982 -0.4064  0.7052 -0.0648
   61SAPC   H8R 4763   5.496   0.574  10.066  0.8234  1.2674  0.3705
   61SAPC   C29 4764   5.480   0.496   9.872  0.0053  0.5776 -0.1934
   61SAPC   H9R 4765   5.373   0.520   9.871 -0.3012 -0.1160  3.3074
   61SAPC  C210 4766   5.539   0.438   9.749 -0.5305  0.0910  0.6900
   61SAPC  H10R 4767   5.469   0.366   9.702  1.7917 -0.9145 -1.5152
   61SAPC  H10S 4768   5.636   0.390   9.775  0.5789  2.0108  0.3068
   61SAPC  C211 4769   5.562   0.540   9.641  0.6140  0.3435 -0.0273
   61SAPC  H11R 4770   5.586   0.645   9.666  2.6433 -0.1577  0.3351
   61SAPC  C212 4771   5.561   0.504   9.513  0.5799 -0.3669  0.3985
   61SAPC  H12R 4772   5.577   0.580   9.435  2.1525 -3.5237 -2.6684
   61SAPC  C213 4773   5.544   0.361   9.448 -0.8411  0.6123 -0.2866
   61SAPC  H13R 4774   5.481   0.359   9.356 -0.2474 -2.8512 -0.7766
   61SAPC  H13S 4775   5.520   0.282   9.522  3.2463  0.2972  0.9629
   61SAPC  C214 4776   5.686   0.315   9.419 -0.2639  0.6774  0.0120
   61SAPC  H14R 4777   5.733   0.290   9.515  0.3506  0.8152 -0.2525
   61SAPC  C215 4778   5.741   0.273   9.302 -0.1652 -0.6927  0.5711
   61SAPC  H15R 4779   5.846   0.242   9.310  0.7193  1.2681 -1.9652
   61SAPC  C216 4780   5.675   0.274   9.168 -0.3155  0.4327 -0.1556
   61SAPC  H16R 4781   5.564   0.277   9.177 -0.2804  0.6924  0.2448
   61SAPC  H16S 4782   5.704   0.184   9.110 -0.3933  1.2673 -1.5348
   61SAPC  C217 4783   5.725   0.386   9.078  0.1802  0.0319 -0.7900
   61SAPC  H17R 4784   5.702   0.481   9.132  0.5597  0.5986 -1.6000
   61SAPC  H17S 4785   5.687   0.389   8.974 -0.4629 -0.8099 -0.5861
   61SAPC  C218 4786   5.880   0.381   9.043  0.3484 -0.0066 -0.3312
   61SAPC  H18R 4787   5.892   0.294   8.975 -0.9215 -1.0450  0.7232
   61SAPC  H18S 4788   5.932   0.379   9.142 -2.7099  1.7570  1.4788
   61SAPC  C219 4789   5.940   0.503   8.971 -0.1843 -0.1772 -0.4291
   61SAPC  H19R 4790   5.910   0.596   9.025  1.2895  0.4137 -0.5593
   61SAPC  H19S 4791   5.888   0.511   8.874 -1.3343 -0.6120  0.1422
   61SAPC  C220 4792   6.094   0.501   8.963 -0.2443 -0.3160 -0.5653
   61SAPC  H20R 4793   6.128   0.416   8.900 -2.7087 -0.3331 -1.9637
   61SAPC  H20S 4794   6.137   0.501   9.066  0.0817 -0.4167 -0.6997
   61SAPC  H20T 4795   6.133   0.597   8.923 -0.1475  0.6246  1.6412
   61SAPC   C33 4796   5.048  -0.162  10.541 -0.2069 -0.1311  0.1908
   61SAPC   H3X 4797   4.939  -0.179  10.554 -0.9121  2.5479 -1.3808
   61SAPC   H3Y 4798   5.100  -0.249  10.588 -0.9774 -0.5038  0.3726
   61SAPC   C34 4799   5.057  -0.163  10.387  0.3526 -0.0504  0.2145
   61SAPC   H4X 4800   5.098  -0.066  10.351  1.6229 -0.4611  0.4714
   61SAPC   H4Y 4801   4.952  -0.170  10.352 -0.8229  0.4207  3.2999
   61SAPC   C35 4802   5.130  -0.276  10.326  0.2755 -0.2297  0.8822
   61SAPC   H5X 4803   5.119  -0.381  10.359 -0.7410 -0.6741 -0.7334
   61SAPC   H5Y 4804   5.235  -0.242  10.342 -0.0078  0.6513  0.9043
   61SAPC   C36 4805   5.121  -0.265  10.166  0.1418  0.3669 -0.8671
   61SAPC   H6X 4806   5.132  -0.159  10.136  5.5123  0.3005 -0.0433
   61SAPC   H6Y 4807   5.029  -0.319  10.136  0.4085 -0.6778  0.1119
   61SAPC   C37 4808   5.235  -0.329  10.095  0.3825  0.2134  0.2733
   61SAPC   H7X 4809   5.240  -0.438  10.113  2.6451  0.2137 -0.0453
   61SAPC   H7Y 4810   5.331  -0.290  10.136  0.8087  1.9687 -2.1443
   61SAPC   C38 4811   5.226  -0.298   9.943  0.3639 -0.7758 -0.6005
   61SAPC   H8X 4812   5.235  -0.187   9.939 -2.3352 -0.3425  1.8395
   61SAPC   H8Y 4813   5.132  -0.328   9.893 -1.7451  1.5438  1.6590
   61SAPC   C39 4814   5.345  -0.343   9.863 -0.8528 -0.6249 -0.4067
   61SAPC   H9X 4815   5.340  -0.454   9.866  2.2360 -0.8450 -0.8722
   61SAPC   H9Y 4816   5.435  -0.313   9.921 -1.3776  2.7511 -1.1497
   61SAPC  C310 4817   5.359  -0.308   9.715  0.1138 -0.5736  0.0554
   61SAPC  H10X 4818   5.447  -0.360   9.673  0.8619 -0.2329  1.1590
   61SAPC  H10Y 4819   5.370  -0.197   9.706  2.1999 -0.6610  1.0002
   61SAPC  C311 4820   5.235  -0.338   9.626 -0.4381 -1.0731 -1.0719
   61SAPC  H11X 4821   5.143  -0.285   9.658  0.5148 -1.5133  3.0039
   61SAPC  H11Y 4822   5.207  -0.444   9.641 -0.1961 -0.9789  0.1968
   61SAPC  C312 4823   5.254  -0.300   9.478  0.2887 -0.1026 -0.6049
   61SAPC  H12X 4824   5.316  -0.381   9.435 -1.0324  0.2959 -3.4475
   61SAPC  H12Y 4825   5.301  -0.200   9.466  0.1616 -0.0948 -1.0278
   61SAPC  C313 4826   5.127  -0.285   9.400 -0.4407  0.5880 -0.9217
   61SAPC  H13X 4827   5.078  -0.188   9.423  0.2399  0.8722 -0.6386
   61SAPC  H13Y 4828   5.054  -0.364   9.427 -0.2710  1.1440  1.3458
   61SAPC  C314 4829   5.157  -0.314   9.255 -0.1227  0.1968  0.1081
   61SAPC  H14X 4830   5.176  -0.421   9.230  0.7154  0.5751 -0.9874
   61SAPC  H14Y 4831   5.241  -0.245   9.235  0.7621 -0.8685  0.0140
   61SAPC  C315 4832   5.039  -0.287   9.159  0.0991  0.2512 -0.6892
   61SAPC  H15X 4833   5.007  -0.181   9.169 -1.1762 -0.2022  0.2377
   61SAPC  H15Y 4834   4.956  -0.342   9.208  0.3460  0.2793 -0.2315
   61SAPC  C316 4835   5.066  -0.333   9.015  0.9202 -0.4502  0.2694
   61SAPC  H16X 4836   5.107  -0.436   9.019  0.1260 -0.8228 -0.6766
   61SAPC  H16Y 4837   5.145  -0.264   8.977  1.7468 -1.1155  0.7516
   61SAPC  C317 4838   4.943  -0.311   8.917 -0.0837 -0.3875 -0.4128
   61SAPC  H17X 4839   4.910  -0.205   8.906 -0.4993 -0.4242  0.3972
   61SAPC  H17Y 4840   4.853  -0.352   8.967 -0.0938  0.4227  0.2696
   61SAPC  C318 4841   4.959  -0.383   8.787 -0.4064 -0.1273  0.1756
   61SAPC  H18X 4842   4.983  -0.310   8.706  0.1286  0.2229  0.6448
   61SAPC  H18Y 4843   4.862  -0.429   8.759 -0.7295  0.6286  0.0088
   61SAPC  H18Z 4844   5.033  -0.463   8.808 -0.4436  0.1178  1.2593
   62SAPC     N 4845   3.439   5.342  11.215 -0.2447 -0.5470  0.0405
   62SAPC   C12 4846   3.339   5.375  11.097 -0.3516 -0.0405 -0.3478
   62SAPC  H12A 4847   3.401   5.418  11.020  0.7884  1.2466  1.2176
   62SAPC  H12B 4848   3.261   5.446  11.121 -2.2674 -1.8097 -1.0054
   62SAPC   C13 4849   3.557   5.267  11.160 -0.7051 -0.2447  0.0021
   62SAPC  H13A 4850   3.602   5.332  11.087  0.9960  0.7146  1.8113
   62SAPC  H13B 4851   3.630   5.259  11.239 -0.2564  2.1931 -0.0908
   62SAPC  H13C 4852   3.536   5.170  11.118  2.8965 -2.3100  2.3877
   62SAPC   C14 4853   3.501   5.471  11.269  0.2557  1.0925 -0.1523
   62SAPC  H14A 4854   3.552   5.516  11.185 -0.9450 -0.8723 -2.0454
   62SAPC  H14B 4855   3.428   5.539  11.310  1.2384  2.9606 -1.3704
   62SAPC  H14C 4856   3.565   5.462  11.355 -1.1104 -1.6746  0.6814
   62SAPC   C15 4857   3.372   5.270  11.331 -0.1000  0.6243  0.4220
   62SAPC  H15A 4858   3.440   5.239  11.408 -0.5668 -1.3365  0.1091
   62SAPC  H15B 4859   3.291   5.329  11.371 -0.5064 -0.1963  0.8144
   62SAPC  H15C 4860   3.320   5.181  11.298 -1.0907  0.9032  1.1866
   62SAPC   C11 4861   3.255   5.265  11.033 -0.4952  0.1566 -0.6179
   62SAPC  H11A 4862   3.173   5.312  10.975  0.2808 -0.0818 -1.9698
   62SAPC  H11B 4863   3.201   5.198  11.102 -0.7478  0.3327 -0.6416
   62SAPC     P 4864   3.291   5.112  10.819 -0.3141 -0.1317 -0.2871
   62SAPC   O13 4865   3.398   5.022  10.774 -0.2392  0.4651 -0.3072
   62SAPC   O14 4866   3.163   5.040  10.847 -0.1596 -0.3869 -0.0926
   62SAPC   O12 4867   3.337   5.188  10.948 -0.2726  0.3021 -0.7346
   62SAPC   O11 4868   3.261   5.230  10.709 -0.1217  0.5033  0.4768
   62SAPC    C1 4869   3.376   5.296  10.654  0.1729  0.1905  0.2429
   62SAPC    HA 4870   3.431   5.362  10.724 -0.2471  1.3302 -0.4791
   62SAPC    HB 4871   3.458   5.235  10.609  0.3942 -0.2985  1.2860
   62SAPC    C2 4872   3.331   5.402  10.544  0.9306 -0.1353  0.1396
   62SAPC    HS 4873   3.296   5.341  10.458 -0.6318 -0.3425  0.8842
   62SAPC   O21 4874   3.430   5.500  10.514 -0.6054 -0.0313 -0.3837
   62SAPC   C21 4875   3.502   5.459  10.412 -0.4478  0.6211  0.3603
   62SAPC   O22 4876   3.486   5.361  10.347  0.1520  0.1652  0.4233
   62SAPC   C22 4877   3.623   5.556  10.389 -0.0005  0.5130  0.0129
   62SAPC   H2R 4878   3.604   5.636  10.463 -1.0827  0.4068 -0.1315
   62SAPC   H2S 4879   3.713   5.500  10.423 -0.5749 -1.4396 -1.4704
   62SAPC    C3 4880   3.207   5.479  10.601  0.0745 -0.0507 -0.5336
   62SAPC    HX 4881   3.250   5.534  10.687 -1.9248 -1.0676  1.2222
   62SAPC    HY 4882   3.133   5.408  10.645 -1.8473  2.7767  1.1499
   62SAPC   O31 4883   3.140   5.571  10.508  0.1758  0.6893  0.0303
   62SAPC   C31 4884   3.070   5.506  10.405  0.7243  0.0505  0.3326
   62SAPC   O32 4885   3.071   5.385  10.380  0.4241  0.6784 -0.4753
   62SAPC   C32 4886   2.985   5.615  10.334  0.2287 -0.1114 -0.5380
   62SAPC   H2X 4887   3.040   5.711  10.340  0.3999 -0.1462 -1.4549
   62SAPC   H2Y 4888   2.881   5.619  10.374  0.2391 -1.5580 -0.2895
   62SAPC   C23 4889   3.629   5.607  10.244 -0.5868 -0.3406  0.3003
   62SAPC   H3R 4890   3.532   5.660  10.233 -0.8289 -0.7929  0.2604
   62SAPC   H3S 4891   3.636   5.532  10.163 -0.3375 -0.8871  0.8163
   62SAPC   C24 4892   3.732   5.721  10.215  0.0707  0.3759 -0.7095
   62SAPC   H4R 4893   3.716   5.787  10.303 -2.6124  0.4379 -1.1602
   62SAPC   H4S 4894   3.702   5.772  10.121 -1.5399  2.5359  0.8681
   62SAPC   C25 4895   3.875   5.685  10.214 -0.2318  0.1672  0.2552
   62SAPC   H5R 4896   3.907   5.635  10.307 -0.1326  3.9032  2.4096
   62SAPC   C26 4897   3.962   5.677  10.111 -0.4337  0.2147 -0.6609
   62SAPC   H6R 4898   4.060   5.638  10.143  0.3355  2.5335  0.0491
   62SAPC   C27 4899   3.947   5.723   9.966 -0.7885  0.1276 -0.5004
   62SAPC   H7R 4900   3.857   5.787   9.967 -0.3423  0.7809 -1.1405
   62SAPC   H7S 4901   3.919   5.636   9.903  1.8641 -2.4487  1.5547
   62SAPC   C28 4902   4.068   5.797   9.907 -0.9350 -0.4911 -0.2242
   62SAPC   H8R 4903   4.132   5.858   9.973  1.2295 -3.2336  0.3568
   62SAPC   C29 4904   4.094   5.814   9.775 -0.6777 -0.5647  1.0167
   62SAPC   H9R 4905   4.185   5.870   9.748  0.7616 -2.6045  1.3496
   62SAPC  C210 4906   4.017   5.758   9.659  0.0103 -0.1441  0.4974
   62SAPC  H10R 4907   3.908   5.778   9.672 -0.5742 -1.7414 -1.4413
   62SAPC  H10S 4908   4.022   5.648   9.667 -0.2765 -0.4275 -2.1833
   62SAPC  C211 4909   4.082   5.802   9.529  0.4801  0.1071 -0.2627
   62SAPC  H11R 4910   4.189   5.826   9.540 -0.0019  2.1301  0.5456
   62SAPC  C212 4911   4.009   5.846   9.424 -0.5388 -0.0271 -0.5887
   62SAPC  H12R 4912   4.050   5.878   9.327  0.0357 -1.4840 -0.8627
   62SAPC  C213 4913   3.853   5.848   9.421 -0.5717 -0.1517 -0.3086
   62SAPC  H13R 4914   3.822   5.907   9.332  1.3268  1.4137  0.0153
   62SAPC  H13S 4915   3.819   5.908   9.508  0.9363 -0.5092  0.5664
   62SAPC  C214 4916   3.779   5.716   9.409 -0.0614  0.0157  0.2231
   62SAPC  H14R 4917   3.852   5.635   9.393  1.3234  1.4808 -1.2625
   62SAPC  C215 4918   3.649   5.700   9.435 -0.3823 -0.1309 -0.1201
   62SAPC  H15R 4919   3.607   5.598   9.436 -0.0344 -0.2939 -0.8356
   62SAPC  C216 4920   3.561   5.814   9.479 -0.3251 -0.7687  0.0051
   62SAPC  H16R 4921   3.462   5.790   9.435  0.0105 -2.2927  0.0036
   62SAPC  H16S 4922   3.605   5.912   9.450  1.9698 -1.3539  1.2701
   62SAPC  C217 4923   3.544   5.815   9.633  0.2892  0.7631 -0.2869
   62SAPC  H17R 4924   3.474   5.899   9.655 -0.3323 -0.3967  2.5248
   62SAPC  H17S 4925   3.641   5.846   9.679  1.1072 -0.8996 -0.8137
   62SAPC  C218 4926   3.488   5.686   9.682  0.0520  0.3243  0.2069
   62SAPC  H18R 4927   3.557   5.599   9.678 -0.4934 -0.1570  0.9139
   62SAPC  H18S 4928   3.405   5.654   9.615  0.1926  2.2369 -0.9406
   62SAPC  C219 4929   3.432   5.700   9.820  0.3789  0.3600  0.0835
   62SAPC  H19R 4930   3.392   5.599   9.843 -1.5398  1.6793  3.2016
   62SAPC  H19S 4931   3.348   5.773   9.823  0.3015  0.2382  2.8121
   62SAPC  C220 4932   3.539   5.723   9.919 -0.4096  0.2537 -1.1556
   62SAPC  H20R 4933   3.497   5.730  10.022 -0.7121 -0.3013 -1.2425
   62SAPC  H20S 4934   3.573   5.828   9.902 -0.7283  0.1408 -2.5669
   62SAPC  H20T 4935   3.626   5.653   9.916  0.8490  1.6791 -0.0177
   62SAPC   C33 4936   2.957   5.565  10.187  0.6759 -0.4124 -0.2299
   62SAPC   H3X 4937   2.891   5.475  10.191  2.4312 -1.7466  0.0672
   62SAPC   H3Y 4938   3.049   5.532  10.135  0.9893 -0.0390  0.0869
   62SAPC   C34 4939   2.888   5.681  10.107  0.0131  0.1322  0.4990
   62SAPC   H4X 4940   2.952   5.772  10.104  0.8179 -0.4342 -0.0510
   62SAPC   H4Y 4941   2.788   5.693  10.154 -0.4308 -2.8569  0.5136
   62SAPC   C35 4942   2.869   5.630   9.959 -0.4422  0.1067 -0.0847
   62SAPC   H5X 4943   2.773   5.671   9.919 -0.3002  0.3718 -0.1554
   62SAPC   H5Y 4944   2.876   5.519   9.956  3.4141  0.2257 -1.8201
   62SAPC   C36 4945   2.971   5.686   9.861  0.2173 -0.2875 -0.4269
   62SAPC   H6X 4946   3.075   5.660   9.891  0.2562 -1.7068 -1.6965
   62SAPC   H6Y 4947   2.956   5.796   9.853 -1.8970 -0.5227 -0.1228
   62SAPC   C37 4948   2.956   5.613   9.727 -0.3592  0.2908  0.2848
   62SAPC   H7X 4949   2.856   5.636   9.684 -0.2732  1.3507  0.6143
   62SAPC   H7Y 4950   2.966   5.504   9.742  1.3321  0.2844 -0.6564
   62SAPC   C38 4951   3.051   5.671   9.625 -0.0060 -0.4727 -0.5157
   62SAPC   H8X 4952   3.139   5.679   9.692 -1.3166  0.4903  1.1552
   62SAPC   H8Y 4953   3.027   5.774   9.591 -1.8828  0.0692  2.1551
   62SAPC   C39 4954   3.083   5.587   9.508 -0.3205  0.0506 -0.1125
   62SAPC   H9X 4955   3.099   5.479   9.523 -0.8508  0.2060  1.9235
   62SAPC   H9Y 4956   3.189   5.607   9.481  0.8363 -1.5700  2.7934
   62SAPC  C310 4957   2.982   5.612   9.394 -0.6325  0.3372  0.1661
   62SAPC  H10X 4958   2.982   5.722   9.375 -0.7945  0.3036 -0.0350
   62SAPC  H10Y 4959   2.880   5.585   9.431 -0.8886 -1.2847 -1.5874
   62SAPC  C311 4960   3.008   5.538   9.263  0.2836 -0.5045 -0.7142
   62SAPC  H11X 4961   2.912   5.501   9.221  0.1500 -1.4904  0.4104
   62SAPC  H11Y 4962   3.061   5.441   9.278  0.0588 -0.7968 -1.7323
   62SAPC  C312 4963   3.095   5.617   9.160 -0.3770  0.1548  0.2334
   62SAPC  H12X 4964   3.192   5.647   9.205 -0.2372 -1.0307  0.7454
   62SAPC  H12Y 4965   3.037   5.709   9.137 -0.3342  0.0321 -0.3918
   62SAPC  C313 4966   3.097   5.546   9.024 -0.1359 -0.8213  0.7001
   62SAPC  H13X 4967   2.994   5.525   8.990 -0.6887  0.1770  1.7331
   62SAPC  H13Y 4968   3.164   5.457   9.025  1.1738  0.0891 -0.6244
   62SAPC  C314 4969   3.166   5.638   8.925  0.0263 -0.1643 -0.5462
   62SAPC  H14X 4970   3.269   5.671   8.953 -0.0693  0.6886 -1.1840
   62SAPC  H14Y 4971   3.108   5.732   8.913  0.5182  0.3038  0.4879
   62SAPC  C315 4972   3.164   5.577   8.786 -0.6060 -0.1390 -0.0117
   62SAPC  H15X 4973   3.062   5.575   8.740 -0.4141 -2.2870 -0.4297
   62SAPC  H15Y 4974   3.189   5.469   8.796 -1.5890 -0.5350 -1.4032
   62SAPC  C316 4975   3.281   5.616   8.694 -0.1411  0.4256  0.0604
   62SAPC  H16X 4976   3.377   5.595   8.747 -0.2700  2.2010  1.0679
   62SAPC  H16Y 4977   3.272   5.726   8.692  0.6533  0.5032  0.0895
   62SAPC  C317 4978   3.278   5.570   8.551  0.2083  0.3012  0.9366
   62SAPC  H17X 4979   3.173   5.557   8.517  0.5732 -0.2485 -0.0278
   62SAPC  H17Y 4980   3.329   5.472   8.544 -1.0432 -0.2475 -2.2247
   62SAPC  C318 4981   3.336   5.660   8.449  0.2482 -0.3755  0.0495
   62SAPC  H18X 4982   3.277   5.754   8.440  1.2081  0.1099 -1.5947
   62SAPC  H18Y 4983   3.319   5.625   8.345  1.9693 -0.4577 -0.2321
   62SAPC  H18Z 4984   3.440   5.686   8.479  0.6533 -2.1914  0.3395
   63SAPC     N 4985   3.257   3.945   6.388 -0.2777  0.4298 -0.5305
   63SAPC   C12 4986   3.206   3.806   6.402 -0.0764 -0.2909  0.1563
   63SAPC  H12A 4987   3.098   3.804   6.414 -0.2664  2.5445 -0.3332
   63SAPC  H12B 4988   3.252   3.773   6.494 -0.6874  1.1445  1.0136
   63SAPC   C13 4989   3.400   3.943   6.366 -0.0897  0.0675  0.7882
   63SAPC  H13A 4990   3.448   4.039   6.350  1.9023 -1.1813 -1.2658
   63SAPC  H13B 4991   3.442   3.876   6.439  3.1708 -0.4067 -1.3455
   63SAPC  H13C 4992   3.421   3.893   6.273 -0.9678  2.5951 -0.8997
   63SAPC   C14 4993   3.192   4.011   6.268 -0.6192  0.0155 -0.0072
   63SAPC  H14A 4994   3.235   4.109   6.254  0.0753 -0.3989 -0.9409
   63SAPC  H14B 4995   3.220   3.956   6.179 -2.5305 -1.4498  0.2324
   63SAPC  H14C 4996   3.084   4.011   6.279 -0.4900  0.7780  1.4932
   63SAPC   C15 4997   3.237   4.024   6.513 -0.6234 -1.1521 -0.3022
   63SAPC  H15A 4998   3.294   4.116   6.513  0.0458 -1.4015  3.1854
   63SAPC  H15B 4999   3.136   4.042   6.546 -0.6332 -2.1678  0.2571
   63SAPC  H15C 5000   3.286   3.967   6.591 -1.8443 -0.6264  0.8987
   63SAPC   C11 5001   3.237   3.702   6.296 -1.1472  0.4079  0.0443
   63SAPC  H11A 5002   3.200   3.736   6.197 -0.6379  0.2661 -0.1970
   63SAPC  H11B 5003   3.172   3.612   6.308 -0.7590  0.0758 -0.2786
   63SAPC     P 5004   3.420   3.552   6.383  0.0780 -0.2672  0.2149
   63SAPC   O13 5005   3.349   3.430   6.340 -0.0876 -0.2555 -0.3053
   63SAPC   O14 5006   3.569   3.544   6.382 -0.4177 -0.4991 -0.0614
   63SAPC   O12 5007   3.375   3.664   6.288 -0.0785  0.4788 -0.4044
   63SAPC   O11 5008   3.371   3.603   6.530 -0.0823  0.8696 -0.3445
   63SAPC    C1 5009   3.393   3.504   6.630  0.1340  0.8548 -0.2590
   63SAPC    HA 5010   3.361   3.403   6.598 -1.9473  2.0901 -2.3876
   63SAPC    HB 5011   3.500   3.501   6.661 -0.2016 -1.0974  0.8383
   63SAPC    C2 5012   3.316   3.541   6.761  0.1006  0.0615  1.1000
   63SAPC    HS 5013   3.207   3.540   6.740  0.1514  0.4571  0.8130
   63SAPC   O21 5014   3.353   3.665   6.816 -0.5933  0.2680 -0.3379
   63SAPC   C21 5015   3.288   3.771   6.785  0.1133  0.4228  0.3052
   63SAPC   O22 5016   3.197   3.779   6.705  0.2168 -0.0170  0.9835
   63SAPC   C22 5017   3.335   3.889   6.875  0.0535 -0.6695  0.1926
   63SAPC   H2R 5018   3.442   3.912   6.858 -0.6562  2.1336 -1.0361
   63SAPC   H2S 5019   3.285   3.984   6.846  1.0911  0.3458  1.6041
   63SAPC    C3 5020   3.329   3.424   6.866  0.3951 -0.1850 -0.1296
   63SAPC    HX 5021   3.434   3.414   6.900  0.4336 -0.6456 -0.3770
   63SAPC    HY 5022   3.284   3.338   6.812 -1.4949  0.0004  1.0407
   63SAPC   O31 5023   3.251   3.457   6.984 -0.2607  0.9437  0.3060
   63SAPC   C31 5024   3.278   3.364   7.080 -0.4528  0.2870 -0.5471
   63SAPC   O32 5025   3.337   3.259   7.065  0.4078  0.0328  0.7611
   63SAPC   C32 5026   3.229   3.407   7.218 -0.3785  0.6439  0.4360
   63SAPC   H2X 5027   3.141   3.344   7.246  1.2069 -1.9153 -0.0394
   63SAPC   H2Y 5028   3.196   3.513   7.210  1.4711  1.1473 -1.3610
   63SAPC   C23 5029   3.287   3.886   7.022  0.0076 -0.4446  1.1474
   63SAPC   H3R 5030   3.177   3.871   7.026 -0.3947  1.3519 -0.7380
   63SAPC   H3S 5031   3.308   3.982   7.074  0.0650  0.3479 -0.2605
   63SAPC   C24 5032   3.350   3.776   7.110 -0.1243 -0.0661 -0.0831
   63SAPC   H4R 5033   3.351   3.673   7.068  1.6398 -0.6696  1.3131
   63SAPC   H4S 5034   3.287   3.764   7.201 -0.3431 -2.1770 -0.4636
   63SAPC   C25 5035   3.487   3.811   7.154  0.0721  0.3656  0.2017
   63SAPC   H5R 5036   3.572   3.767   7.100  1.1183  0.5141  1.6497
   63SAPC   C26 5037   3.505   3.894   7.260 -0.4331  0.1507  0.4435
   63SAPC   H6R 5038   3.608   3.917   7.290  0.1980 -2.3500  0.4418
   63SAPC   C27 5039   3.399   3.959   7.349 -0.3336 -0.1276  0.5067
   63SAPC   H7R 5040   3.363   3.878   7.416 -1.0009  0.3932  0.7843
   63SAPC   H7S 5041   3.310   3.988   7.289 -0.3465  0.7744  0.9558
   63SAPC   C28 5042   3.424   4.082   7.424  0.2584  0.3158 -0.8833
   63SAPC   H8R 5043   3.504   4.142   7.378  0.0382  2.0977  0.9177
   63SAPC   C29 5044   3.371   4.122   7.546 -0.1735 -1.2163  0.3780
   63SAPC   H9R 5045   3.401   4.222   7.581  0.6716  0.1499 -3.7099
   63SAPC  C210 5046   3.266   4.049   7.627  1.2400 -0.1597  0.5682
   63SAPC  H10R 5047   3.312   3.997   7.714  0.3109 -0.9975  0.5805
   63SAPC  H10S 5048   3.217   3.963   7.576  0.0628  0.2227  1.0141
   63SAPC  C211 5049   3.150   4.137   7.682 -0.8372 -0.8908  0.4562
   63SAPC  H11R 5050   3.073   4.163   7.607  2.2235  0.0654 -2.6246
   63SAPC  C212 5051   3.139   4.194   7.807 -0.6064  0.0888 -0.4607
   63SAPC  H12R 5052   3.049   4.252   7.831 -1.4441 -1.1458 -0.5294
   63SAPC  C213 5053   3.239   4.177   7.914 -0.2850 -0.7100  0.7707
   63SAPC  H13R 5054   3.207   4.247   7.994 -0.7700  0.6274 -0.5393
   63SAPC  H13S 5055   3.336   4.222   7.884 -0.0635  0.4646  3.0424
   63SAPC  C214 5056   3.264   4.043   7.979  0.0014 -0.2334 -0.5969
   63SAPC  H14R 5057   3.369   4.021   7.957 -0.0103 -0.1708 -0.7202
   63SAPC  C215 5058   3.190   3.983   8.073 -0.4756 -0.0948 -0.2161
   63SAPC  H15R 5059   3.220   3.890   8.124  1.3668  0.0446 -0.9705
   63SAPC  C216 5060   3.055   4.031   8.129 -0.2971  0.4648 -0.2672
   63SAPC  H16R 5061   2.964   3.978   8.094 -0.4420  0.7371 -0.2971
   63SAPC  H16S 5062   3.037   4.138   8.106 -0.6660  0.3104 -0.7191
   63SAPC  C217 5063   3.048   4.044   8.283 -0.5807  0.1671 -0.7227
   63SAPC  H17R 5064   3.058   3.940   8.322 -1.2862  0.2158 -0.4038
   63SAPC  H17S 5065   2.955   4.090   8.323  1.1705  1.1637  2.5865
   63SAPC  C218 5066   3.155   4.131   8.353  0.0128  0.2976  0.0809
   63SAPC  H18R 5067   3.178   4.223   8.294  4.7130 -0.3455  0.4914
   63SAPC  H18S 5068   3.249   4.071   8.351  1.6678  2.7102 -1.3750
   63SAPC  C219 5069   3.124   4.167   8.502  0.2899  0.1184 -0.6226
   63SAPC  H19R 5070   3.024   4.214   8.512 -0.7163 -1.9456 -0.6305
   63SAPC  H19S 5071   3.195   4.245   8.536 -0.3505  0.7010 -0.5983
   63SAPC  C220 5072   3.137   4.054   8.597 -0.1152  0.6996  0.0052
   63SAPC  H20R 5073   3.082   4.076   8.691 -1.1639 -0.6435 -0.2646
   63SAPC  H20S 5074   3.242   4.028   8.622  0.3403  2.7466  0.4745
   63SAPC  H20T 5075   3.088   3.963   8.558 -0.4233  0.3078  1.2466
   63SAPC   C33 5076   3.349   3.411   7.312  0.3555 -0.1759  0.1030
   63SAPC   H3X 5077   3.444   3.448   7.268  0.6025  0.4975  1.1572
   63SAPC   H3Y 5078   3.376   3.312   7.353  1.6037  0.2539  0.3574
   63SAPC   C34 5079   3.311   3.500   7.439  0.0621  0.0499 -0.0076
   63SAPC   H4X 5080   3.222   3.458   7.489 -2.3693  2.3716 -2.0830
   63SAPC   H4Y 5081   3.281   3.602   7.406  0.4811 -0.3349 -1.7124
   63SAPC   C35 5082   3.429   3.523   7.526 -0.7807 -0.3349 -0.1759
   63SAPC   H5X 5083   3.500   3.596   7.481 -1.0709  0.0569  0.0019
   63SAPC   H5Y 5084   3.477   3.427   7.556 -0.0843 -0.1530 -0.6841
   63SAPC   C36 5085   3.384   3.600   7.655 -0.2469  0.4852  0.7456
   63SAPC   H6X 5086   3.303   3.533   7.693  0.3317 -1.0908 -0.6614
   63SAPC   H6Y 5087   3.343   3.700   7.630  0.7115  0.7328  0.1196
   63SAPC   C37 5088   3.491   3.595   7.767  0.0074  0.9253 -0.2445
   63SAPC   H7X 5089   3.570   3.668   7.739 -1.2901  2.7639  0.6978
   63SAPC   H7Y 5090   3.532   3.493   7.785  1.0442  1.1768 -1.1083
   63SAPC   C38 5091   3.424   3.629   7.898 -0.2876  0.6929 -0.1597
   63SAPC   H8X 5092   3.354   3.547   7.924  2.3208 -0.8145  2.6998
   63SAPC   H8Y 5093   3.354   3.715   7.885 -2.0684 -0.7075 -0.3420
   63SAPC   C39 5094   3.520   3.639   8.010 -0.6459  0.7301  0.3753
   63SAPC   H9X 5095   3.599   3.715   7.993  0.1536  0.0692  1.0412
   63SAPC   H9Y 5096   3.574   3.542   8.024 -0.3053  1.2163  2.8766
   63SAPC  C310 5097   3.461   3.666   8.150 -0.0134  0.4420  0.3935
   63SAPC  H10X 5098   3.394   3.581   8.175  1.1707 -0.3180  1.1123
   63SAPC  H10Y 5099   3.403   3.761   8.151  1.2004  1.1966  0.5608
   63SAPC  C311 5100   3.568   3.662   8.258  0.3185 -0.0176  0.2216
   63SAPC  H11X 5101   3.653   3.725   8.222 -0.9401  1.9620  0.5293
   63SAPC  H11Y 5102   3.586   3.556   8.285 -3.8549 -1.2406 -1.0236
   63SAPC  C312 5103   3.517   3.742   8.379 -0.0845 -0.0617 -0.2547
   63SAPC  H12X 5104   3.429   3.689   8.421 -1.0734  1.4518 -0.3185
   63SAPC  H12Y 5105   3.487   3.845   8.351  0.9760  0.3857  0.2105
   63SAPC  C313 5106   3.623   3.739   8.486  0.6231 -0.0997  0.3521
   63SAPC  H13X 5107   3.709   3.791   8.440  0.1854  0.0427 -0.3137
   63SAPC  H13Y 5108   3.654   3.635   8.509  0.0905 -0.3696 -0.1416
   63SAPC  C314 5109   3.597   3.803   8.622 -0.5947  0.1080  0.3236
   63SAPC  H14X 5110   3.578   3.912   8.619 -1.6563 -0.0298  1.2260
   63SAPC  H14Y 5111   3.698   3.796   8.668  0.1087  0.0361 -1.1696
   63SAPC  C315 5112   3.477   3.740   8.693 -0.0978  0.5896 -0.1383
   63SAPC  H15X 5113   3.493   3.630   8.704  0.2685  0.6104 -0.4112
   63SAPC  H15Y 5114   3.388   3.748   8.627 -0.7745 -0.0147  0.6824
   63SAPC  C316 5115   3.452   3.812   8.823  0.7705 -0.0714 -0.4956
   63SAPC  H16X 5116   3.358   3.771   8.865  1.1671  0.6434  1.1957
   63SAPC  H16Y 5117   3.424   3.919   8.808  0.0903 -0.4850 -2.5227
   63SAPC  C317 5118   3.565   3.803   8.928 -0.1748  1.0261  0.2264
   63SAPC  H17X 5119   3.649   3.865   8.891 -0.1737  2.0603  1.8309
   63SAPC  H17Y 5120   3.570   3.693   8.940 -5.1089  0.2951 -1.9164
   63SAPC  C318 5121   3.522   3.860   9.062 -0.1526  0.6938 -0.5690
   63SAPC  H18X 5122   3.497   3.968   9.060  1.0111  1.0947  2.1551
   63SAPC  H18Y 5123   3.603   3.865   9.138  0.1244 -0.2555 -0.7927
   63SAPC  H18Z 5124   3.426   3.822   9.105 -0.9686  1.0957 -1.9825
   64SAPC     N 5125   5.799   5.024   5.999 -0.3042  0.3149 -0.3218
   64SAPC   C12 5126   5.695   4.974   6.104 -0.1794 -0.1148  0.3545
   64SAPC  H12A 5127   5.621   4.923   6.044  2.3439 -0.8659 -2.3681
   64SAPC  H12B 5128   5.652   5.059   6.154 -3.0912 -1.0055 -0.4084
   64SAPC   C13 5129   5.902   5.110   6.066 -0.6405  0.3839  0.6584
   64SAPC  H13A 5130   5.854   5.188   6.123  0.5854  1.2653  0.5157
   64SAPC  H13B 5131   5.953   5.049   6.138 -0.7275 -1.2177 -0.5650
   64SAPC  H13C 5132   5.969   5.149   5.991  0.6194 -2.5421  0.1389
   64SAPC   C14 5133   5.867   4.902   5.948  0.0347 -0.2916  0.2334
   64SAPC  H14A 5134   5.797   4.827   5.916  2.8973 -2.5773 -1.2243
   64SAPC  H14B 5135   5.931   4.922   5.863  0.7089 -2.1554  0.2527
   64SAPC  H14C 5136   5.917   4.858   6.032  1.4537 -0.6731 -0.7684
   64SAPC   C15 5137   5.722   5.107   5.904  0.2020 -0.2477 -0.4446
   64SAPC  H15A 5138   5.646   5.050   5.853  0.8634  0.8764 -2.8303
   64SAPC  H15B 5139   5.675   5.190   5.956  1.4076 -0.1509  0.5302
   64SAPC  H15C 5140   5.782   5.150   5.825  0.3221 -0.0142 -0.2319
   64SAPC   C11 5141   5.737   4.877   6.218 -0.1414  0.1450 -0.3533
   64SAPC  H11A 5142   5.653   4.868   6.291  3.9972  0.3245  5.0803
   64SAPC  H11B 5143   5.808   4.933   6.283  0.1052  0.4022 -0.8407
   64SAPC     P 5144   5.678   4.629   6.147 -0.0388 -0.3315 -0.0916
   64SAPC   O13 5145   5.542   4.686   6.116 -0.4652 -0.3722  0.4194
   64SAPC   O14 5146   5.739   4.537   6.054 -0.6879  0.1047 -0.1244
   64SAPC   O12 5147   5.773   4.749   6.169  0.4272  0.3296 -0.3141
   64SAPC   O11 5148   5.668   4.578   6.291 -0.3481 -0.7296 -0.5791
   64SAPC    C1 5149   5.775   4.564   6.390 -0.3870 -0.4528 -0.1442
   64SAPC    HA 5150   5.866   4.543   6.330 -1.1723  1.0266 -1.9670
   64SAPC    HB 5151   5.791   4.656   6.451 -1.2884  0.0686 -0.6624
   64SAPC    C2 5152   5.761   4.441   6.481  0.3588 -0.1085 -0.6856
   64SAPC    HS 5153   5.716   4.356   6.426  0.9909 -1.9159  1.4662
   64SAPC   O21 5154   5.683   4.470   6.598 -0.1648  0.7106 -0.2769
   64SAPC   C21 5155   5.553   4.444   6.592 -0.5968 -0.0463 -0.3704
   64SAPC   O22 5156   5.499   4.380   6.506 -0.2972 -0.2868  0.7647
   64SAPC   C22 5157   5.475   4.502   6.712 -0.6148  0.3126  0.3628
   64SAPC   H2R 5158   5.553   4.554   6.772  3.5832 -2.8864 -1.7418
   64SAPC   H2S 5159   5.398   4.572   6.674  0.7943  2.3790  1.1418
   64SAPC    C3 5160   5.901   4.395   6.518  0.4294 -0.7635 -0.6069
   64SAPC    HX 5161   5.948   4.365   6.422  0.9814 -2.6574  0.1927
   64SAPC    HY 5162   5.906   4.301   6.577 -0.6704 -0.5825 -0.2153
   64SAPC   O31 5163   5.980   4.503   6.581  0.0769  0.1483  0.2554
   64SAPC   C31 5164   6.031   4.475   6.698 -0.4441 -0.0416 -0.2688
   64SAPC   O32 5165   6.016   4.372   6.761  0.2493 -0.0497  0.3113
   64SAPC   C32 5166   6.108   4.595   6.751  0.1095  0.2949 -0.2491
   64SAPC   H2X 5167   6.072   4.623   6.852 -0.1634 -0.0479 -0.2469
   64SAPC   H2Y 5168   6.111   4.678   6.677  1.1320 -0.5558 -1.1978
   64SAPC   C23 5169   5.421   4.396   6.807  0.0247 -0.2932  0.1377
   64SAPC   H3R 5170   5.505   4.337   6.849  0.8010  1.1295  0.6424
   64SAPC   H3S 5171   5.370   4.320   6.744 -0.7134  0.2785  0.0379
   64SAPC   C24 5172   5.346   4.457   6.929  0.1375  0.1398 -0.4528
   64SAPC   H4R 5173   5.256   4.511   6.895 -1.3515 -0.8862  1.5919
   64SAPC   H4S 5174   5.409   4.529   6.985 -1.9501  0.4328  1.6938
   64SAPC   C25 5175   5.291   4.347   7.020 -0.4003  0.5060  0.2878
   64SAPC   H5R 5176   5.234   4.267   6.971 -0.4182 -1.0595  2.7240
   64SAPC   C26 5177   5.299   4.342   7.155 -0.0960  0.2846  0.6609
   64SAPC   H6R 5178   5.241   4.260   7.200 -0.3960  0.1866  0.1018
   64SAPC   C27 5179   5.366   4.436   7.252  0.3209 -0.4562  1.0152
   64SAPC   H7R 5180   5.431   4.512   7.202  0.0275  0.3207  1.7849
   64SAPC   H7S 5181   5.428   4.378   7.323  0.1314  0.5877  2.0650
   64SAPC   C28 5182   5.257   4.509   7.323  0.1862 -0.0363 -0.1388
   64SAPC   H8R 5183   5.211   4.581   7.254 -2.2202 -0.3872  0.9807
   64SAPC   C29 5184   5.228   4.501   7.458  0.1421  0.0789  0.7303
   64SAPC   H9R 5185   5.146   4.569   7.486  1.5308  2.2244 -0.1279
   64SAPC  C210 5186   5.306   4.435   7.566 -0.7578 -0.0606 -0.4803
   64SAPC  H10R 5187   5.401   4.483   7.595  0.0221 -3.4503  3.4772
   64SAPC  H10S 5188   5.335   4.332   7.536 -1.4469 -0.6502  0.8282
   64SAPC  C211 5189   5.217   4.426   7.689  0.1567 -0.1019 -0.9478
   64SAPC  H11R 5190   5.114   4.391   7.673  0.2382 -0.1381 -1.3892
   64SAPC  C212 5191   5.259   4.452   7.818  0.5772  0.0033  0.3559
   64SAPC  H12R 5192   5.177   4.444   7.891 -0.6424  0.7219 -0.8804
   64SAPC  C213 5193   5.394   4.500   7.873 -0.0382  0.3760  0.0429
   64SAPC  H13R 5194   5.444   4.566   7.799  2.7803 -1.4195  0.2392
   64SAPC  H13S 5195   5.458   4.410   7.874  0.8585  0.9367 -1.8058
   64SAPC  C214 5196   5.383   4.558   8.016  0.3523  0.0099  0.4806
   64SAPC  H14R 5197   5.374   4.667   8.026 -0.4307  0.0220 -0.2506
   64SAPC  C215 5198   5.368   4.492   8.131 -0.1768  0.0031  0.1142
   64SAPC  H15R 5199   5.356   4.555   8.220 -0.9306 -0.7612  0.5664
   64SAPC  C216 5200   5.351   4.341   8.164 -1.2442  0.0626  0.1418
   64SAPC  H16R 5201   5.330   4.281   8.074 -0.7643 -0.1815  0.1939
   64SAPC  H16S 5202   5.263   4.321   8.230 -1.5498 -0.3319 -0.3789
   64SAPC  C217 5203   5.470   4.272   8.230  1.5868  0.0513 -0.3461
   64SAPC  H17R 5204   5.492   4.301   8.335  2.7597 -2.3882  0.1685
   64SAPC  H17S 5205   5.563   4.300   8.174  1.3216  2.3674  0.2867
   64SAPC  C218 5206   5.449   4.116   8.237  0.3550 -0.2395  0.1777
   64SAPC  H18R 5207   5.457   4.068   8.137  2.5940  2.4742 -1.0708
   64SAPC  H18S 5208   5.350   4.082   8.276 -0.0916 -1.7021 -2.0244
   64SAPC  C219 5209   5.554   4.058   8.331  0.2279  0.4367  0.1575
   64SAPC  H19R 5210   5.558   4.108   8.430 -2.2337  3.4783 -1.1347
   64SAPC  H19S 5211   5.658   4.068   8.292  1.6536 -1.1041  3.1996
   64SAPC  C220 5212   5.546   3.901   8.353  0.6723 -0.0010 -0.3101
   64SAPC  H20R 5213   5.548   3.852   8.253  3.3044 -0.1733 -0.2363
   64SAPC  H20S 5214   5.462   3.891   8.424 -0.5093 -1.0853 -1.7963
   64SAPC  H20T 5215   5.641   3.870   8.401  0.0532 -0.5134  0.5993
   64SAPC   C33 5216   6.250   4.552   6.775 -0.5207 -0.3272 -0.4540
   64SAPC   H3X 5217   6.300   4.650   6.784 -1.3105 -0.0484  1.1488
   64SAPC   H3Y 5218   6.301   4.494   6.695  0.2549 -0.3698  0.0620
   64SAPC   C34 5219   6.267   4.484   6.914 -0.0379  0.2442  0.2510
   64SAPC   H4X 5220   6.344   4.404   6.905  0.9015  1.1713 -0.0390
   64SAPC   H4Y 5221   6.170   4.436   6.939  0.3019 -0.5844  0.0211
   64SAPC   C35 5222   6.286   4.583   7.034  0.0339  0.0804 -0.1636
   64SAPC   H5X 5223   6.215   4.668   7.030  0.6686  0.7114  1.2022
   64SAPC   H5Y 5224   6.387   4.628   7.037  0.5243 -1.0291  0.6384
   64SAPC   C36 5225   6.277   4.508   7.174  0.1033 -0.0316  0.9505
   64SAPC   H6X 5226   6.336   4.415   7.162  0.3793  0.1763  0.6643
   64SAPC   H6Y 5227   6.171   4.476   7.179  1.1139 -3.9036  0.4383
   64SAPC   C37 5228   6.329   4.588   7.294 -0.5442 -0.1994 -0.0309
   64SAPC   H7X 5229   6.270   4.680   7.315  3.3364  2.7839 -1.1185
   64SAPC   H7Y 5230   6.429   4.633   7.280 -0.1043 -1.5271 -1.5178
   64SAPC   C38 5231   6.339   4.511   7.429  0.2063  0.2882  0.3091
   64SAPC   H8X 5232   6.398   4.418   7.416  1.5771  0.8346  2.2407
   64SAPC   H8Y 5233   6.234   4.476   7.435  0.5037 -0.5329  0.7825
   64SAPC   C39 5234   6.384   4.586   7.555  0.1266 -0.5502  0.0657
   64SAPC   H9X 5235   6.303   4.658   7.580 -0.1600 -0.9934  0.4396
   64SAPC   H9Y 5236   6.476   4.646   7.539  0.8808 -1.3196  1.3233
   64SAPC  C310 5237   6.400   4.497   7.670  0.0701  0.4856 -0.2474
   64SAPC  H10X 5238   6.491   4.439   7.647 -0.0633  0.5184 -0.9012
   64SAPC  H10Y 5239   6.306   4.438   7.680 -1.1818  2.4246  0.0825
   64SAPC  C311 5240   6.409   4.584   7.795  0.0307 -0.1895  0.1822
   64SAPC  H11X 5241   6.323   4.655   7.793 -0.5049 -0.8487 -0.7775
   64SAPC  H11Y 5242   6.499   4.646   7.777  0.1186 -0.8494 -1.9385
   64SAPC  C312 5243   6.425   4.516   7.931 -0.6572  0.1280 -0.1024
   64SAPC  H12X 5244   6.530   4.481   7.926  0.8119  3.8922  0.7320
   64SAPC  H12Y 5245   6.346   4.438   7.922 -1.0880  0.2259  2.1170
   64SAPC  C313 5246   6.409   4.612   8.061 -0.2832  0.1978  0.3039
   64SAPC  H13X 5247   6.313   4.661   8.032 -1.2116 -2.0367 -0.6494
   64SAPC  H13Y 5248   6.498   4.678   8.072 -0.3913  0.1393  1.5737
   64SAPC  C314 5249   6.392   4.545   8.196  0.7454 -1.1772  0.0505
   64SAPC  H14X 5250   6.476   4.473   8.208 -0.2593 -2.4035  0.0383
   64SAPC  H14Y 5251   6.301   4.481   8.190  0.0731 -0.3888  1.3657
   64SAPC  C315 5252   6.401   4.640   8.315  0.7049  0.5087  1.0602
   64SAPC  H15X 5253   6.326   4.717   8.289  0.1981 -0.5083 -0.6302
   64SAPC  H15Y 5254   6.503   4.684   8.311  2.3836 -3.0942 -0.9486
   64SAPC  C316 5255   6.394   4.567   8.454  0.3522  0.2014  0.1729
   64SAPC  H16X 5256   6.311   4.494   8.453  0.1846  0.3897  0.2991
   64SAPC  H16Y 5257   6.368   4.640   8.533  1.0220  1.0923 -0.4093
   64SAPC  C317 5258   6.534   4.527   8.499 -0.2977  0.0097 -0.0950
   64SAPC  H17X 5259   6.571   4.449   8.430  0.0414 -1.4266  1.6235
   64SAPC  H17Y 5260   6.523   4.467   8.592  1.8351 -2.3193 -1.2325
   64SAPC  C318 5261   6.647   4.634   8.509 -0.8310  0.9902 -0.3811
   64SAPC  H18X 5262   6.679   4.672   8.411  1.1440 -1.6564 -0.8644
   64SAPC  H18Y 5263   6.732   4.580   8.557 -0.2433  0.5332 -1.9019
   64SAPC  H18Z 5264   6.611   4.714   8.578 -2.4984  0.3884 -0.4899
   65SAPC     N 5265   5.889   6.538   6.153 -0.0253 -0.6601  0.7244
   65SAPC   C12 5266   5.895   6.419   6.252 -0.1815 -0.1542  0.1174
   65SAPC  H12A 5267   5.994   6.416   6.295 -0.4341 -1.0682  0.6665
   65SAPC  H12B 5268   5.880   6.329   6.194 -0.2423  0.3647 -0.6917
   65SAPC   C13 5269   6.022   6.544   6.081 -0.4791  0.1304 -0.1177
   65SAPC  H13A 5270   6.012   6.619   6.004  0.6800  0.5020  0.0847
   65SAPC  H13B 5271   6.108   6.567   6.141 -0.3470 -2.2124  0.6966
   65SAPC  H13C 5272   6.035   6.450   6.029  0.3845  0.1285  0.0990
   65SAPC   C14 5273   5.781   6.525   6.040 -0.2311  0.8387 -0.0193
   65SAPC  H14A 5274   5.681   6.529   6.079  0.3143 -0.5412  1.6967
   65SAPC  H14B 5275   5.796   6.607   5.972  2.5345 -0.3458 -0.9989
   65SAPC  H14C 5276   5.785   6.425   5.998 -0.6973 -0.0077  1.8583
   65SAPC   C15 5277   5.874   6.674   6.223  0.4453  0.1100  0.1557
   65SAPC  H15A 5278   5.961   6.689   6.285  0.9585  0.8603 -0.7179
   65SAPC  H15B 5279   5.870   6.753   6.150 -0.0451  2.2493  2.3721
   65SAPC  H15C 5280   5.787   6.690   6.285 -1.8933  5.0518 -3.7137
   65SAPC   C11 5281   5.797   6.430   6.371 -0.2964 -0.7035 -0.2051
   65SAPC  H11A 5282   5.821   6.527   6.421 -0.2490 -0.7906 -0.0581
   65SAPC  H11B 5283   5.823   6.343   6.434  1.0103 -0.9687 -1.0689
   65SAPC     P 5284   5.594   6.305   6.274  0.4132 -0.2853 -0.3712
   65SAPC   O13 5285   5.496   6.344   6.167 -0.4521 -0.0534  0.0679
   65SAPC   O14 5286   5.705   6.213   6.226  0.0866 -0.6398 -0.4317
   65SAPC   O12 5287   5.653   6.433   6.333 -0.7383 -0.0637 -0.3880
   65SAPC   O11 5288   5.512   6.250   6.399  0.2873  0.2979 -0.5035
   65SAPC    C1 5289   5.576   6.194   6.514 -0.0056 -0.8773 -0.5803
   65SAPC    HA 5290   5.617   6.094   6.486  2.2368  0.4615 -2.4153
   65SAPC    HB 5291   5.653   6.268   6.544 -0.4714 -0.2333 -0.9500
   65SAPC    C2 5292   5.478   6.178   6.636  0.7968  0.0743 -0.3208
   65SAPC    HS 5293   5.443   6.283   6.650  0.2178 -0.0314 -0.9188
   65SAPC   O21 5294   5.561   6.126   6.741  0.3792 -0.2150  0.1958
   65SAPC   C21 5295   5.610   6.215   6.829  0.2840 -0.7069  0.1250
   65SAPC   O22 5296   5.577   6.335   6.828 -0.5092 -0.2823 -0.3770
   65SAPC   C22 5297   5.701   6.148   6.935  0.5333  0.8359  0.7116
   65SAPC   H2R 5298   5.759   6.068   6.883 -1.7949 -0.1320 -0.5197
   65SAPC   H2S 5299   5.780   6.214   6.978  1.0167  0.2296  0.7872
   65SAPC    C3 5300   5.362   6.075   6.603 -0.5302 -0.3384 -0.9258
   65SAPC    HX 5301   5.410   5.974   6.605  0.7215  0.2185  2.1453
   65SAPC    HY 5302   5.324   6.098   6.501 -1.7834 -1.0092 -0.6342
   65SAPC   O31 5303   5.251   6.093   6.690  0.3798  0.4406  0.1627
   65SAPC   C31 5304   5.159   5.995   6.683  1.2116  0.8863  0.1829
   65SAPC   O32 5305   5.165   5.906   6.600  0.1105  0.1086 -0.0827
   65SAPC   C32 5306   5.052   5.994   6.787 -0.1029 -0.3784  0.1281
   65SAPC   H2X 5307   5.097   5.943   6.874 -0.0623  0.7792  0.8122
   65SAPC   H2Y 5308   4.959   5.942   6.755 -1.7807  2.3331  0.2374
   65SAPC   C23 5309   5.614   6.090   7.055 -0.3905 -0.2925  0.6193
   65SAPC   H3R 5310   5.688   6.048   7.125  0.7771  0.3926 -0.1699
   65SAPC   H3S 5311   5.541   6.013   7.022 -2.3961  1.5293  0.5374
   65SAPC   C24 5312   5.531   6.193   7.139 -0.0169  0.8961  0.4002
   65SAPC   H4R 5313   5.485   6.259   7.061  1.5408 -0.2882 -1.5972
   65SAPC   H4S 5314   5.604   6.252   7.198 -1.8009  1.7047  1.9332
   65SAPC   C25 5315   5.422   6.137   7.234  0.1208 -0.3242  0.2550
   65SAPC   H5R 5316   5.326   6.121   7.182 -0.5525  1.9245  0.6811
   65SAPC   C26 5317   5.437   6.109   7.366  0.3204  0.2987  1.0221
   65SAPC   H6R 5318   5.352   6.070   7.423  1.3211  0.3792  2.6494
   65SAPC   C27 5319   5.574   6.121   7.441  0.7146  0.3333  0.1866
   65SAPC   H7R 5320   5.568   6.225   7.481  0.6363  0.1309  0.7060
   65SAPC   H7S 5321   5.663   6.115   7.374  1.1375 -0.5016  0.7984
   65SAPC   C28 5322   5.603   6.031   7.559  0.1348  1.0472  0.0726
   65SAPC   H8R 5323   5.678   5.955   7.534 -0.9330  0.0457 -0.1864
   65SAPC   C29 5324   5.560   6.035   7.688  0.9098  0.5504 -0.1786
   65SAPC   H9R 5325   5.588   5.959   7.762 -2.0239 -0.9059 -0.4198
   65SAPC  C210 5326   5.463   6.134   7.744 -0.3009 -0.8991 -0.9195
   65SAPC  H10R 5327   5.370   6.081   7.773 -1.4239  2.0328  1.3454
   65SAPC  H10S 5328   5.420   6.202   7.666 -0.0739  2.3747  1.5712
   65SAPC  C211 5329   5.503   6.223   7.857 -0.4025 -0.4449 -0.0775
   65SAPC  H11R 5330   5.540   6.317   7.816  1.8841 -2.1969 -2.3547
   65SAPC  C212 5331   5.513   6.189   7.986  0.3052 -0.3126  0.0468
   65SAPC  H12R 5332   5.557   6.262   8.056 -0.4531  1.5377 -1.3171
   65SAPC  C213 5333   5.469   6.057   8.044  0.5937 -0.3311  0.1033
   65SAPC  H13R 5334   5.381   6.007   7.998  0.0632 -0.9766  1.7167
   65SAPC  H13S 5335   5.447   6.083   8.150  0.2003 -1.0050  0.1937
   65SAPC  C214 5336   5.588   5.963   8.051 -0.7342  0.0030  0.0017
   65SAPC  H14R 5337   5.580   5.879   7.979 -2.0677  0.0739  0.0418
   65SAPC  C215 5338   5.697   5.960   8.124 -1.3693  0.0442  0.2668
   65SAPC  H15R 5339   5.774   5.883   8.109 -0.0677  1.3332  0.0838
   65SAPC  C216 5340   5.734   6.069   8.227 -0.3086 -0.6005 -0.0033
   65SAPC  H16R 5341   5.646   6.129   8.259  0.3086  0.8397 -0.8913
   65SAPC  H16S 5342   5.811   6.137   8.186 -0.2810 -0.8883 -0.4289
   65SAPC  C217 5343   5.803   5.999   8.349  0.0376 -0.2014  0.3386
   65SAPC  H17R 5344   5.885   5.934   8.312 -0.2129 -0.9369  1.0387
   65SAPC  H17S 5345   5.724   5.935   8.395 -2.4956  2.2718 -0.2827
   65SAPC  C218 5346   5.844   6.085   8.463 -0.0547  0.1862  0.2155
   65SAPC  H18R 5347   5.917   6.161   8.430  0.2632 -0.4021 -0.4586
   65SAPC  H18S 5348   5.891   6.015   8.535 -0.0343 -1.4517 -1.3200
   65SAPC  C219 5349   5.736   6.160   8.544  0.1060 -0.3859  0.8525
   65SAPC  H19R 5350   5.655   6.100   8.591 -0.3160  0.3627  1.0970
   65SAPC  H19S 5351   5.691   6.226   8.468  3.6308  0.3299 -0.8148
   65SAPC  C220 5352   5.787   6.250   8.660  1.1994 -0.2522  0.3508
   65SAPC  H20R 5353   5.867   6.311   8.613  0.1049  0.5553 -0.5321
   65SAPC  H20S 5354   5.821   6.177   8.736  0.1001  0.1224  1.2402
   65SAPC  H20T 5355   5.705   6.320   8.688  1.8218  1.6767 -2.2719
   65SAPC   C33 5356   5.006   6.131   6.829 -0.8068  0.9869  0.3288
   65SAPC   H3X 5357   4.970   6.191   6.743 -1.9132 -1.8152 -1.3142
   65SAPC   H3Y 5358   5.096   6.183   6.868 -0.2886 -1.5687  2.9586
   65SAPC   C34 5359   4.900   6.123   6.936  0.2420 -0.2430  0.7504
   65SAPC   H4X 5360   4.930   6.052   7.015  0.1229 -1.0188  0.1148
   65SAPC   H4Y 5361   4.815   6.077   6.881  1.8257 -0.2943 -1.8544
   65SAPC   C35 5362   4.844   6.256   6.984 -0.0701 -0.3552  0.1923
   65SAPC   H5X 5363   4.771   6.286   6.906 -0.3659  0.5049  0.7900
   65SAPC   H5Y 5364   4.922   6.333   7.002  0.5814 -1.2465  1.3413
   65SAPC   C36 5365   4.770   6.240   7.120 -0.0019 -0.3904 -0.3428
   65SAPC   H6X 5366   4.689   6.171   7.090 -1.8707  1.4616  0.2001
   65SAPC   H6Y 5367   4.719   6.337   7.140 -2.3453 -1.0446 -2.7112
   65SAPC   C37 5368   4.853   6.195   7.233 -0.4973  0.7326  0.1107
   65SAPC   H7X 5369   4.945   6.256   7.225  0.4747 -0.7005 -0.0886
   65SAPC   H7Y 5370   4.886   6.089   7.223  1.3043  1.0991  1.7309
   65SAPC   C38 5371   4.798   6.227   7.370 -0.1804  0.1315 -0.5262
   65SAPC   H8X 5372   4.692   6.194   7.383  0.3313 -1.6166 -0.5617
   65SAPC   H8Y 5373   4.806   6.337   7.386 -0.8404 -0.1647  2.3607
   65SAPC   C39 5374   4.889   6.173   7.490  0.2541 -0.0666 -0.4427
   65SAPC   H9X 5375   4.993   6.213   7.492  0.3946 -0.3179 -1.6876
   65SAPC   H9Y 5376   4.899   6.063   7.474 -0.7161 -0.3418  0.7451
   65SAPC  C310 5377   4.836   6.198   7.628 -0.3712  0.1327  0.2748
   65SAPC  H10X 5378   4.734   6.153   7.633  0.0657 -0.9678 -0.3178
   65SAPC  H10Y 5379   4.826   6.308   7.644 -4.4167  0.3810 -2.4381
   65SAPC  C311 5380   4.921   6.138   7.742 -0.3320  0.3226  0.7218
   65SAPC  H11X 5381   5.024   6.179   7.749 -0.8640  1.4820  2.3409
   65SAPC  H11Y 5382   4.918   6.028   7.726 -0.5321  0.2163  1.4544
   65SAPC  C312 5383   4.841   6.148   7.868 -0.2117 -0.4480 -0.0061
   65SAPC  H12X 5384   4.736   6.114   7.855 -0.3722  0.4730 -1.2901
   65SAPC  H12Y 5385   4.825   6.255   7.894  1.8307  0.3371 -1.7115
   65SAPC  C313 5386   4.905   6.075   7.981 -0.3048  0.2132  0.0552
   65SAPC  H13X 5387   5.006   6.119   7.967  0.8005 -2.8344 -2.9243
   65SAPC  H13Y 5388   4.927   5.966   7.969  0.3574  0.5147 -1.8425
   65SAPC  C314 5389   4.844   6.100   8.119 -0.7368 -0.2699  0.7123
   65SAPC  H14X 5390   4.752   6.040   8.133 -0.8130 -0.6578 -1.1666
   65SAPC  H14Y 5391   4.819   6.208   8.113  1.1217  0.2330  1.2311
   65SAPC  C315 5392   4.939   6.077   8.229 -0.8044 -0.3692 -0.5023
   65SAPC  H15X 5393   5.038   6.123   8.208 -0.7972 -0.0981  0.0915
   65SAPC  H15Y 5394   4.950   5.967   8.240  1.6571 -0.1330  0.0337
   65SAPC  C316 5395   4.895   6.133   8.370 -0.1381  0.8036 -0.6016
   65SAPC  H16X 5396   4.850   6.234   8.361 -1.4649  0.8241  3.7917
   65SAPC  H16Y 5397   4.989   6.135   8.429 -0.7852 -0.6485  0.5495
   65SAPC  C317 5398   4.793   6.060   8.456 -0.6396 -0.3094 -0.2118
   65SAPC  H17X 5399   4.837   5.963   8.489  0.4456  0.6451  1.2855
   65SAPC  H17Y 5400   4.700   6.020   8.410  0.5887 -2.2729 -1.1342
   65SAPC  C318 5401   4.758   6.122   8.594 -0.8420 -0.0186 -0.0956
   65SAPC  H18X 5402   4.705   6.047   8.657 -0.7354  0.3092  0.3847
   65SAPC  H18Y 5403   4.708   6.220   8.579  1.8920  1.4399 -0.2877
   65SAPC  H18Z 5404   4.852   6.142   8.649 -0.0957  1.2199 -1.7285
   66SAPC     N 5405   4.610   5.128   5.715 -0.1789 -0.1183  0.4005
   66SAPC   C12 5406   4.485   5.112   5.797  0.4383  0.3563  0.3039
   66SAPC  H12A 5407   4.418   5.052   5.736  0.4309 -0.7897  1.3870
   66SAPC  H12B 5408   4.430   5.203   5.813 -0.2642  0.1119 -0.6271
   66SAPC   C13 5409   4.601   5.226   5.604  0.0794 -0.4922  0.2055
   66SAPC  H13A 5410   4.511   5.207   5.546  0.1463 -2.3765  0.6443
   66SAPC  H13B 5411   4.615   5.327   5.639  3.0467 -0.9283  0.5686
   66SAPC  H13C 5412   4.681   5.210   5.533 -1.4769 -0.5552 -1.6070
   66SAPC   C14 5413   4.718   5.189   5.808  0.4567  0.0897  0.2346
   66SAPC  H14A 5414   4.728   5.139   5.903 -0.0354 -2.6608 -1.0690
   66SAPC  H14B 5415   4.818   5.187   5.767  0.6972 -0.9261  0.8386
   66SAPC  H14C 5416   4.702   5.294   5.831 -0.5297  0.1088 -0.4738
   66SAPC   C15 5417   4.652   4.997   5.662  0.5584  0.0938  0.5806
   66SAPC  H15A 5418   4.742   5.006   5.603  1.6852 -1.5835  1.9096
   66SAPC  H15B 5419   4.660   4.930   5.747  1.0149 -0.7025 -0.0716
   66SAPC  H15C 5420   4.578   4.953   5.596 -1.1158  4.2969 -0.6347
   66SAPC   C11 5421   4.494   5.030   5.930 -0.0532  0.1613 -0.3235
   66SAPC  H11A 5422   4.403   5.041   5.993  0.7836 -0.7860  1.1095
   66SAPC  H11B 5423   4.570   5.078   5.994  1.5502 -0.8896 -1.3781
   66SAPC     P 5424   4.422   4.781   5.922  0.1101  0.4911 -0.0560
   66SAPC   O13 5425   4.295   4.815   5.846  0.2669  0.1080 -0.2363
   66SAPC   O14 5426   4.496   4.658   5.874  0.1230 -0.3114 -0.4210
   66SAPC   O12 5427   4.528   4.895   5.907  0.6513 -0.1230  0.0132
   66SAPC   O11 5428   4.391   4.753   6.077 -0.1892 -0.1919  0.1881
   66SAPC    C1 5429   4.487   4.745   6.181 -0.1872 -0.6238  0.1870
   66SAPC    HA 5430   4.494   4.641   6.219 -0.6718 -0.2322  1.4090
   66SAPC    HB 5431   4.583   4.792   6.149 -1.3683  0.5940 -1.7459
   66SAPC    C2 5432   4.439   4.832   6.296 -0.3552 -0.5783 -0.2570
   66SAPC    HS 5433   4.512   4.820   6.379 -0.0361 -2.7309 -0.7859
   66SAPC   O21 5434   4.309   4.787   6.347  0.0708 -0.3616 -0.2265
   66SAPC   C21 5435   4.293   4.795   6.479  0.6020 -0.2170 -0.4885
   66SAPC   O22 5436   4.382   4.806   6.564 -0.2858 -0.0327 -0.1444
   66SAPC   C22 5437   4.145   4.776   6.513  1.1922 -0.7681 -0.1987
   66SAPC   H2R 5438   4.091   4.867   6.480 -0.3049  0.1549  4.0990
   66SAPC   H2S 5439   4.111   4.685   6.458  1.8254 -2.0979  1.4969
   66SAPC    C3 5440   4.442   4.977   6.254 -0.0591 -0.1951  0.2561
   66SAPC    HX 5441   4.349   4.993   6.197 -0.3102  1.5236  1.0806
   66SAPC    HY 5442   4.526   5.007   6.188  0.4147 -2.6855 -0.3846
   66SAPC   O31 5443   4.447   5.059   6.379 -0.1024  0.4884  0.2950
   66SAPC   C31 5444   4.471   5.191   6.368 -0.4096 -0.4163 -0.4720
   66SAPC   O32 5445   4.487   5.249   6.265 -0.0253  0.1512 -0.5933
   66SAPC   C32 5446   4.475   5.246   6.510 -0.7106  0.1338  0.4099
   66SAPC   H2X 5447   4.550   5.190   6.569 -1.6069 -2.4012 -0.6932
   66SAPC   H2Y 5448   4.382   5.205   6.556 -0.8047  0.9835  1.0141
   66SAPC   C23 5449   4.103   4.782   6.670 -0.4696  0.1258  0.2139
   66SAPC   H3R 5450   4.142   4.885   6.686 -2.9782  1.4450 -1.4755
   66SAPC   H3S 5451   4.167   4.717   6.734 -0.6646  1.5006  1.8794
   66SAPC   C24 5452   3.952   4.750   6.699 -0.6219 -0.0030 -0.2308
   66SAPC   H4R 5453   3.896   4.793   6.614 -1.8233 -1.1917 -0.0652
   66SAPC   H4S 5454   3.940   4.812   6.791 -1.2075 -0.1429 -0.2129
   66SAPC   C25 5455   3.903   4.609   6.724  0.0032 -0.3242  0.8027
   66SAPC   H5R 5456   3.864   4.550   6.639  3.2509 -0.6358 -0.6406
   66SAPC   C26 5457   3.914   4.548   6.842 -0.7862 -0.5028 -0.8517
   66SAPC   H6R 5458   3.877   4.445   6.853 -0.8858 -0.3226  0.6557
   66SAPC   C27 5459   3.971   4.609   6.975  0.4228 -0.3491 -0.3584
   66SAPC   H7R 5460   3.891   4.593   7.050 -0.8044 -1.3195 -1.7998
   66SAPC   H7S 5461   3.993   4.718   6.971 -0.1215 -0.2182  0.1325
   66SAPC   C28 5462   4.101   4.535   6.996  0.5754 -0.7996 -0.2042
   66SAPC   H8R 5463   4.165   4.527   6.907  1.3881  0.6095  0.2146
   66SAPC   C29 5464   4.139   4.482   7.112 -0.1232  0.1521  0.2292
   66SAPC   H9R 5465   4.231   4.424   7.127 -0.6347 -1.0845 -1.2270
   66SAPC  C210 5466   4.040   4.496   7.225  0.2862 -0.1162  0.1846
   66SAPC  H10R 5467   3.952   4.435   7.197  1.6574 -0.6516 -3.5458
   66SAPC  H10S 5468   3.996   4.598   7.233  0.7808  0.0651  0.6769
   66SAPC  C211 5469   4.089   4.459   7.360  0.1734 -0.2006  0.5382
   66SAPC  H11R 5470   4.199   4.448   7.365  0.4716  0.2077 -2.9455
   66SAPC  C212 5471   4.015   4.416   7.468  0.5631  0.8526  0.3106
   66SAPC  H12R 5472   4.064   4.391   7.563 -1.3183 -1.4838  0.7724
   66SAPC  C213 5473   3.873   4.409   7.470  0.8992  0.2935 -0.8883
   66SAPC  H13R 5474   3.831   4.306   7.467 -0.8305  0.9409 -0.0337
   66SAPC  H13S 5475   3.830   4.459   7.381  1.6443  1.4037 -0.6408
   66SAPC  C214 5476   3.825   4.492   7.591  0.5812  0.3490  0.5431
   66SAPC  H14R 5477   3.845   4.599   7.583 -1.7091  0.7603 -0.7010
   66SAPC  C215 5478   3.739   4.444   7.686  0.0456 -0.3572  0.0688
   66SAPC  H15R 5479   3.705   4.510   7.767 -0.2285 -0.9866  0.4753
   66SAPC  C216 5480   3.692   4.306   7.702  0.1092  0.2035  0.5084
   66SAPC  H16R 5481   3.713   4.233   7.621 -0.5374 -0.9989  1.3880
   66SAPC  H16S 5482   3.581   4.305   7.712 -0.0184  1.2153 -0.5965
   66SAPC  C217 5483   3.748   4.258   7.837 -0.7920 -0.6213 -0.0259
   66SAPC  H17R 5484   3.763   4.339   7.911  2.9941 -1.6531  0.5818
   66SAPC  H17S 5485   3.855   4.233   7.817  0.1617 -1.0795  4.4788
   66SAPC  C218 5486   3.662   4.147   7.908  0.5037 -0.2606 -0.2233
   66SAPC  H18R 5487   3.674   4.053   7.850  0.5946  1.0072 -2.3240
   66SAPC  H18S 5488   3.556   4.178   7.906  0.0310 -1.5618  1.7490
   66SAPC  C219 5489   3.698   4.101   8.055 -0.1845 -0.2903  1.2264
   66SAPC  H19R 5490   3.707   4.188   8.122 -0.5885  0.5415  0.2374
   66SAPC  H19S 5491   3.792   4.042   8.047  1.1544  1.7023  1.5473
   66SAPC  C220 5492   3.599   4.018   8.126 -0.4025  0.8910  0.6959
   66SAPC  H20R 5493   3.561   3.937   8.060  2.8816 -0.2196 -0.0078
   66SAPC  H20S 5494   3.513   4.079   8.163 -0.0932  0.3393  2.4101
   66SAPC  H20T 5495   3.641   3.978   8.221  0.1624 -2.8281 -0.9740
   66SAPC   C33 5496   4.501   5.401   6.518  0.2807  0.2492 -0.5360
   66SAPC   H3X 5497   4.428   5.459   6.457  1.8260  1.3209 -1.4647
   66SAPC   H3Y 5498   4.598   5.433   6.473 -1.2485 -0.5930 -5.0078
   66SAPC   C34 5499   4.496   5.452   6.665  0.0605  0.6758  0.4723
   66SAPC   H4X 5500   4.536   5.555   6.674 -2.4020  1.6665  0.9696
   66SAPC   H4Y 5501   4.568   5.391   6.724  0.6475 -0.3641 -1.2468
   66SAPC   C35 5502   4.360   5.446   6.729 -0.3833 -0.6836 -0.0126
   66SAPC   H5X 5503   4.326   5.340   6.732 -0.0821 -0.9256 -2.6278
   66SAPC   H5Y 5504   4.288   5.498   6.662 -1.7754 -0.3450  1.6699
   66SAPC   C36 5505   4.355   5.516   6.859  0.3563 -0.0060 -0.0968
   66SAPC   H6X 5506   4.249   5.543   6.878  0.5811  1.0947 -0.3520
   66SAPC   H6Y 5507   4.413   5.611   6.858  0.9897 -0.3952 -0.5415
   66SAPC   C37 5508   4.398   5.427   6.970 -0.4831 -0.4186 -0.4167
   66SAPC   H7X 5509   4.507   5.409   6.964 -0.1007  1.4646  0.1013
   66SAPC   H7Y 5510   4.343   5.331   6.958  0.9330 -1.4899  1.2892
   66SAPC   C38 5511   4.362   5.503   7.100 -0.1212  0.2944  0.1122
   66SAPC   H8X 5512   4.253   5.526   7.105 -0.0967  0.3433  0.4185
   66SAPC   H8Y 5513   4.414   5.601   7.092 -2.3680  1.4932 -1.0091
   66SAPC   C39 5514   4.402   5.429   7.222  0.0310 -0.5567 -0.6601
   66SAPC   H9X 5515   4.507   5.393   7.226 -0.0732 -1.3586 -3.3485
   66SAPC   H9Y 5516   4.351   5.332   7.239  1.2109 -1.0608  0.1855
   66SAPC  C310 5517   4.390   5.525   7.342 -0.1983 -0.1800 -0.3613
   66SAPC  H10X 5518   4.283   5.552   7.349 -0.0062  0.7901 -0.9022
   66SAPC  H10Y 5519   4.449   5.619   7.331 -0.9290  0.2292 -0.8144
   66SAPC  C311 5520   4.417   5.472   7.487 -0.6120 -0.3734 -0.1537
   66SAPC  H11X 5521   4.528   5.469   7.494 -0.5930  1.5132  0.6922
   66SAPC  H11Y 5522   4.378   5.368   7.491  0.0678 -0.6358 -0.1707
   66SAPC  C312 5523   4.371   5.567   7.596  0.6179 -1.0076 -0.9286
   66SAPC  H12X 5524   4.272   5.603   7.562 -0.1062  1.3847  3.0415
   66SAPC  H12Y 5525   4.443   5.652   7.595 -2.3801  1.8460  1.6852
   66SAPC  C313 5526   4.359   5.493   7.733  0.0600  0.1513  0.5389
   66SAPC  H13X 5527   4.455   5.440   7.745  1.0950  1.7284 -0.3966
   66SAPC  H13Y 5528   4.281   5.419   7.705 -0.7153  1.0702  0.1911
   66SAPC  C314 5529   4.323   5.598   7.847  0.5625 -0.0387  0.3868
   66SAPC  H14X 5530   4.244   5.668   7.812  0.9913  0.8113  1.0976
   66SAPC  H14Y 5531   4.414   5.651   7.880  1.9154 -1.9231 -0.1435
   66SAPC  C315 5532   4.280   5.529   7.978  0.5591  0.1590 -0.3554
   66SAPC  H15X 5533   4.366   5.476   8.024 -0.6094 -2.1169 -0.6026
   66SAPC  H15Y 5534   4.214   5.445   7.947  2.3066 -2.4992  2.5321
   66SAPC  C316 5535   4.216   5.635   8.076 -0.8825 -0.3923 -0.1469
   66SAPC  H16X 5536   4.130   5.685   8.025 -0.1702  1.5898  0.4931
   66SAPC  H16Y 5537   4.279   5.724   8.099 -0.0852 -0.8041 -0.7047
   66SAPC  C317 5538   4.159   5.566   8.198  0.3018 -0.2313 -0.2615
   66SAPC  H17X 5539   4.242   5.521   8.255  0.8118 -2.2084 -2.4124
   66SAPC  H17Y 5540   4.093   5.482   8.166  0.0250 -0.2116  0.2380
   66SAPC  C318 5541   4.069   5.657   8.285 -0.1074 -0.2849 -0.2760
   66SAPC  H18X 5542   3.987   5.683   8.216  0.4487  0.5024 -0.6441
   66SAPC  H18Y 5543   4.123   5.750   8.312 -1.0462 -0.3493  2.0882
   66SAPC  H18Z 5544   4.028   5.611   8.378  1.2688 -0.9356  0.0316
   67SAPC     N 5545   5.208   6.082   6.082  0.1099  0.1507  0.3244
   67SAPC   C12 5546   5.210   6.224   6.017  0.1904 -0.3005  1.1469
   67SAPC  H12A 5547   5.184   6.198   5.915 -1.0757  1.7406  0.8977
   67SAPC  H12B 5548   5.315   6.250   6.015  0.4611 -1.3896  0.3963
   67SAPC   C13 5549   5.078   6.018   6.063 -0.4095  0.6033  0.1644
   67SAPC  H13A 5550   5.089   5.917   6.100 -2.4414  0.2215 -0.1680
   67SAPC  H13B 5551   4.999   6.066   6.119 -1.3872 -1.8335  1.0109
   67SAPC  H13C 5552   5.028   6.026   5.968 -1.7538 -1.1881  0.6540
   67SAPC   C14 5553   5.299   5.998   6.002 -0.4758 -0.2657  0.1319
   67SAPC  H14A 5554   5.241   5.955   5.921  0.6337 -0.7953 -0.4008
   67SAPC  H14B 5555   5.392   6.048   5.979  0.9656 -1.9462  1.9319
   67SAPC  H14C 5556   5.332   5.915   6.063 -0.6840 -0.1922  0.3477
   67SAPC   C15 5557   5.244   6.094   6.225 -0.3926 -0.1060  0.1829
   67SAPC  H15A 5558   5.339   6.145   6.237  0.4323 -1.3406 -0.8479
   67SAPC  H15B 5559   5.166   6.142   6.282 -2.2681 -0.5691 -1.8928
   67SAPC  H15C 5560   5.263   5.998   6.271  1.6563 -0.7688 -1.8485
   67SAPC   C11 5561   5.113   6.326   6.073 -0.4113  0.5545  0.2254
   67SAPC  H11A 5562   5.145   6.427   6.040  1.5541  0.4395  1.5787
   67SAPC  H11B 5563   5.124   6.336   6.183  0.1235  3.4251  0.0078
   67SAPC     P 5564   4.869   6.383   6.116 -0.4370  0.3185 -0.1456
   67SAPC   O13 5565   4.900   6.530   6.088  0.2623 -0.8803  0.0020
   67SAPC   O14 5566   4.737   6.334   6.080 -0.5885 -0.1005 -0.1324
   67SAPC   O12 5567   4.980   6.301   6.033  0.5158  0.4602 -0.6373
   67SAPC   O11 5568   4.892   6.353   6.268  0.2809 -0.2091 -0.3726
   67SAPC    C1 5569   4.852   6.227   6.327 -0.4400 -0.2196 -0.7625
   67SAPC    HA 5570   4.808   6.152   6.257 -0.5005 -0.1306 -0.8190
   67SAPC    HB 5571   4.936   6.168   6.372 -0.5188  0.5471  0.4257
   67SAPC    C2 5572   4.745   6.247   6.440  0.6609  0.1360 -0.2617
   67SAPC    HS 5573   4.669   6.313   6.395  0.5176 -0.0570 -0.3043
   67SAPC   O21 5574   4.800   6.315   6.556 -0.2036  0.3437  0.1219
   67SAPC   C21 5575   4.772   6.446   6.565 -0.3933 -0.4672  0.7204
   67SAPC   O22 5576   4.714   6.508   6.473  0.3666  0.4596 -0.0585
   67SAPC   C22 5577   4.835   6.510   6.691 -0.2224  0.2153  0.4531
   67SAPC   H2R 5578   4.767   6.475   6.771 -0.2545 -1.0039 -0.0844
   67SAPC   H2S 5579   4.938   6.473   6.706  1.3680  4.0130  0.1551
   67SAPC    C3 5580   4.670   6.116   6.484  0.6316 -0.8101 -0.6973
   67SAPC    HX 5581   4.753   6.055   6.525  1.2748  0.7246  0.3592
   67SAPC    HY 5582   4.630   6.064   6.394  1.1212  0.9501 -1.9699
   67SAPC   O31 5583   4.565   6.141   6.594  0.4415 -0.5440  0.1975
   67SAPC   C31 5584   4.543   6.044   6.677 -1.0001  1.6169  0.1528
   67SAPC   O32 5585   4.607   5.938   6.666  0.3303 -0.1216  0.7719
   67SAPC   C32 5586   4.461   6.081   6.797 -0.1377  0.1636  0.3037
   67SAPC   H2X 5587   4.354   6.060   6.777 -0.1480  2.1756 -2.2276
   67SAPC   H2Y 5588   4.484   6.188   6.819  1.0196 -0.0151  0.0671
   67SAPC   C23 5589   4.843   6.662   6.686 -0.3900  0.1536 -0.5496
   67SAPC   H3R 5590   4.754   6.708   6.637 -0.6447  0.8351  0.5144
   67SAPC   H3S 5591   4.931   6.688   6.623  0.4887  0.6033  0.8246
   67SAPC   C24 5592   4.854   6.713   6.832 -0.3254  0.6915 -0.2365
   67SAPC   H4R 5593   4.934   6.652   6.878 -0.5003 -0.5637 -1.5147
   67SAPC   H4S 5594   4.767   6.681   6.894  1.7241 -3.0738  0.9727
   67SAPC   C25 5595   4.884   6.857   6.847 -0.3580  0.5676 -0.1309
   67SAPC   H5R 5596   4.991   6.879   6.831 -0.1457  0.5523  1.1811
   67SAPC   C26 5597   4.794   6.949   6.878 -0.6481 -0.0918  0.7184
   67SAPC   H6R 5598   4.819   7.055   6.889 -0.0676 -0.1920  0.3960
   67SAPC   C27 5599   4.642   6.938   6.876 -0.5152  0.6445 -0.0410
   67SAPC   H7R 5600   4.616   6.844   6.930  0.2150 -0.2949 -1.2554
   67SAPC   H7S 5601   4.606   6.910   6.774 -0.8336 -0.0132  0.2471
   67SAPC   C28 5602   4.567   7.056   6.926 -0.0588 -0.4525  0.5753
   67SAPC   H8R 5603   4.622   7.150   6.943  0.2924 -0.8189  1.5474
   67SAPC   C29 5604   4.442   7.051   6.971  0.7428 -0.1058  0.1938
   67SAPC   H9R 5605   4.382   7.137   7.005 -1.5786 -1.2466 -0.8490
   67SAPC  C210 5606   4.370   6.922   6.987  0.2861  0.0780  0.2785
   67SAPC  H10R 5607   4.393   6.891   7.091 -0.4511 -0.7100  0.2232
   67SAPC  H10S 5608   4.413   6.839   6.926  0.3297  0.0515  0.3459
   67SAPC  C211 5609   4.223   6.944   6.968  0.1902 -0.1086  0.2822
   67SAPC  H11R 5610   4.198   6.982   6.867  4.5078  1.4947 -0.3877
   67SAPC  C212 5611   4.120   6.945   7.060  0.9281  0.2537  0.3334
   67SAPC  H12R 5612   4.020   6.971   7.024  1.5352  0.0429 -1.6437
   67SAPC  C213 5613   4.140   6.892   7.203  0.5009  0.8734  0.2797
   67SAPC  H13R 5614   4.142   6.978   7.272  1.3322  1.0174  0.0799
   67SAPC  H13S 5615   4.240   6.843   7.208 -1.0306 -2.9785 -2.0227
   67SAPC  C214 5616   4.030   6.789   7.229 -1.1015 -0.8460 -0.7544
   67SAPC  H14R 5617   4.010   6.718   7.147  1.9245 -1.0580 -1.4027
   67SAPC  C215 5618   3.964   6.787   7.350 -0.8769 -0.2578  0.3924
   67SAPC  H15R 5619   3.898   6.702   7.375 -1.6001  0.6309  1.5775
   67SAPC  C216 5620   3.993   6.879   7.465 -0.2052 -0.5185 -0.7207
   67SAPC  H16R 5621   3.907   6.884   7.535  0.2654  1.9967 -0.2029
   67SAPC  H16S 5622   4.001   6.982   7.424 -2.1293 -0.6061 -1.4658
   67SAPC  C217 5623   4.123   6.858   7.549  0.9020  0.8587  0.6455
   67SAPC  H17R 5624   4.143   6.937   7.624 -2.5982  1.3290  1.2580
   67SAPC  H17S 5625   4.216   6.846   7.489 -0.4202  2.2291 -1.8173
   67SAPC  C218 5626   4.110   6.731   7.640 -0.3536 -0.1346 -0.4901
   67SAPC  H18R 5627   4.204   6.725   7.697 -0.8754 -0.1081  0.3862
   67SAPC  H18S 5628   4.099   6.639   7.579 -2.3928 -0.9981  1.0560
   67SAPC  C219 5629   3.991   6.735   7.746  0.4740  0.3571  0.4607
   67SAPC  H19R 5630   3.898   6.717   7.689  2.2341  0.2857 -2.6339
   67SAPC  H19S 5631   4.000   6.840   7.781 -0.2397  1.0517 -1.3134
   67SAPC  C220 5632   4.010   6.629   7.851 -0.0220  0.4995 -0.3288
   67SAPC  H20R 5633   3.916   6.626   7.910  0.1230  1.2405 -0.0489
   67SAPC  H20S 5634   4.091   6.648   7.924 -0.8249  1.0005  0.4453
   67SAPC  H20T 5635   4.042   6.529   7.813 -1.3980 -0.1989  0.2506
   67SAPC   C33 5636   4.494   5.999   6.928 -0.5257  0.0420 -0.4685
   67SAPC   H3X 5637   4.599   6.023   6.956  0.1640 -1.2833 -1.7764
   67SAPC   H3Y 5638   4.482   5.892   6.899 -0.2920 -0.4288  1.0799
   67SAPC   C34 5639   4.403   6.028   7.050  0.4688 -0.2355  0.4277
   67SAPC   H4X 5640   4.302   5.985   7.028  0.8177 -1.1373  0.5325
   67SAPC   H4Y 5641   4.396   6.138   7.059 -2.6386 -0.1359 -1.5939
   67SAPC   C35 5642   4.452   5.984   7.182 -0.6444 -1.0028  0.2973
   67SAPC   H5X 5643   4.557   6.020   7.189  0.2184 -2.5057 -2.9208
   67SAPC   H5Y 5644   4.467   5.874   7.182 -0.1162 -0.9560  1.4341
   67SAPC   C36 5645   4.367   6.023   7.307 -0.2857  1.1187 -0.1309
   67SAPC   H6X 5646   4.272   5.971   7.286 -0.2842  0.7255  0.8246
   67SAPC   H6Y 5647   4.342   6.131   7.303  0.3114  1.2902  0.5603
   67SAPC   C37 5648   4.428   5.987   7.446 -0.1279  0.3871 -0.0315
   67SAPC   H7X 5649   4.517   6.048   7.473 -1.2234  0.8027  3.1271
   67SAPC   H7Y 5650   4.456   5.880   7.442 -0.6561  0.2541 -0.3561
   67SAPC   C38 5651   4.332   6.002   7.559 -0.1905 -0.3631  0.5912
   67SAPC   H8X 5652   4.255   5.924   7.547 -1.2619  0.8280 -0.5514
   67SAPC   H8Y 5653   4.278   6.099   7.557  0.6687  0.2446  3.0460
   67SAPC   C39 5654   4.396   5.986   7.691 -0.4904 -0.5035 -0.7263
   67SAPC   H9X 5655   4.478   6.060   7.703 -0.6113 -0.3438 -0.8840
   67SAPC   H9Y 5656   4.441   5.885   7.700 -1.3904 -0.7082  2.6285
   67SAPC  C310 5657   4.289   6.006   7.806  0.0539  1.3924 -0.1760
   67SAPC  H10X 5658   4.206   5.934   7.789  0.5939  1.1302 -1.8217
   67SAPC  H10Y 5659   4.243   6.107   7.803 -1.4737  0.7693  0.8175
   67SAPC  C311 5660   4.356   5.984   7.947  0.7001 -0.3253 -0.0589
   67SAPC  H11X 5661   4.432   5.904   7.933  0.6234 -0.8762  2.2422
   67SAPC  H11Y 5662   4.284   5.938   8.018  1.0037 -0.7401 -0.0157
   67SAPC  C312 5663   4.415   6.116   8.008  0.3598 -0.1150  0.5878
   67SAPC  H12X 5664   4.353   6.205   7.983  0.2356 -0.8910 -2.1804
   67SAPC  H12Y 5665   4.503   6.140   7.943 -1.1026  1.2106 -1.0091
   67SAPC  C313 5666   4.468   6.094   8.151  0.3686 -0.2383 -0.2274
   67SAPC  H13X 5667   4.549   6.018   8.151 -1.0925 -1.9865  3.2291
   67SAPC  H13Y 5668   4.398   6.050   8.224 -1.3194  2.6960  0.0911
   67SAPC  C314 5669   4.522   6.228   8.217 -0.0033  0.2676  0.5423
   67SAPC  H14X 5670   4.602   6.271   8.155  0.9921 -1.2898  0.6906
   67SAPC  H14Y 5671   4.561   6.204   8.318  0.2195 -3.3820 -0.2503
   67SAPC  C315 5672   4.411   6.326   8.240  0.0013 -0.2332  0.1883
   67SAPC  H15X 5673   4.365   6.314   8.340 -1.9139 -0.6362 -0.6929
   67SAPC  H15Y 5674   4.336   6.299   8.162  3.4923 -3.0985 -2.5226
   67SAPC  C316 5675   4.460   6.474   8.249  0.7619  0.4091  0.0003
   67SAPC  H16X 5676   4.542   6.493   8.176  1.1967  0.5234  0.5031
   67SAPC  H16Y 5677   4.504   6.494   8.349 -0.1332  0.5026  0.3860
   67SAPC  C317 5678   4.339   6.576   8.232  0.4543  0.3641  0.7293
   67SAPC  H17X 5679   4.270   6.540   8.311  1.4382 -1.7806  0.6897
   67SAPC  H17Y 5680   4.287   6.562   8.135  3.3694 -3.6885 -0.5623
   67SAPC  C318 5681   4.383   6.722   8.263  0.3407  0.7339  0.1193
   67SAPC  H18X 5682   4.300   6.792   8.242  0.7941  0.6711 -2.1375
   67SAPC  H18Y 5683   4.467   6.761   8.201  0.3361  2.6349  1.2445
   67SAPC  H18Z 5684   4.411   6.728   8.370 -1.0158 -1.3789  0.6554
   68SAPC     N 5685   4.868   3.748   5.964  0.0165 -0.5952 -0.2414
   68SAPC   C12 5686   4.862   3.610   6.012 -0.1200  0.3454  0.1713
   68SAPC  H12A 5687   4.953   3.571   6.054 -0.5792 -1.3896 -0.3683
   68SAPC  H12B 5688   4.834   3.541   5.933 -0.1070  0.5581 -0.0219
   68SAPC   C13 5689   4.746   3.787   5.890 -0.5120  0.4393  0.0056
   68SAPC  H13A 5690   4.749   3.732   5.798  5.2402 -0.6812  0.5190
   68SAPC  H13B 5691   4.652   3.764   5.939  0.3941 -0.6706  1.2754
   68SAPC  H13C 5692   4.755   3.894   5.874  1.2263  0.4252  0.7021
   68SAPC   C14 5693   4.881   3.854   6.076 -0.6862 -0.3014 -0.1229
   68SAPC  H14A 5694   4.952   3.822   6.150  0.2440  0.1379 -0.8145
   68SAPC  H14B 5695   4.911   3.945   6.026 -0.7261 -0.9726 -1.3765
   68SAPC  H14C 5696   4.788   3.865   6.130 -0.7673  0.0030 -0.3228
   68SAPC   C15 5697   4.990   3.768   5.874 -0.0593 -0.0959  0.1331
   68SAPC  H15A 5698   4.989   3.868   5.834  0.4801  0.9272  2.5096
   68SAPC  H15B 5699   5.079   3.753   5.934  0.4376 -2.2003 -1.0131
   68SAPC  H15C 5700   4.995   3.689   5.800  0.6177 -0.4451  0.5422
   68SAPC   C11 5701   4.762   3.585   6.135 -0.7021 -0.5543  0.0368
   68SAPC  H11A 5702   4.813   3.625   6.225  1.2366  0.6444 -1.5054
   68SAPC  H11B 5703   4.752   3.476   6.150  3.0672 -1.2484 -1.3455
   68SAPC     P 5704   4.530   3.697   6.210  0.6670  0.0533 -0.3183
   68SAPC   O13 5705   4.552   3.844   6.202  0.1654 -0.0363 -0.2107
   68SAPC   O14 5706   4.397   3.638   6.188  0.0771  0.5741  0.6702
   68SAPC   O12 5707   4.635   3.634   6.113  0.1254  0.2072  0.2658
   68SAPC   O11 5708   4.568   3.651   6.355  0.2205 -0.3060 -0.2194
   68SAPC    C1 5709   4.524   3.524   6.402 -0.5730  0.8202  0.1299
   68SAPC    HA 5710   4.481   3.454   6.327 -1.1783 -3.5006  4.0175
   68SAPC    HB 5711   4.607   3.463   6.444 -1.9751 -0.6900  0.8646
   68SAPC    C2 5712   4.418   3.525   6.517 -1.1919 -0.3832  0.7383
   68SAPC    HS 5713   4.319   3.553   6.476 -0.3461  1.1796 -0.3283
   68SAPC   O21 5714   4.469   3.613   6.619  0.2314  0.7455 -0.1117
   68SAPC   C21 5715   4.408   3.732   6.638  0.3230  0.6727 -0.1467
   68SAPC   O22 5716   4.304   3.770   6.587  0.6797  0.0367  0.3214
   68SAPC   C22 5717   4.498   3.813   6.732 -0.1526 -0.5007 -0.2775
   68SAPC   H2R 5718   4.543   3.743   6.806 -0.4028 -3.0288 -2.3601
   68SAPC   H2S 5719   4.575   3.854   6.663 -1.0240 -1.3971 -1.8401
   68SAPC    C3 5720   4.408   3.388   6.576 -0.0073  0.2695 -0.1025
   68SAPC    HX 5721   4.512   3.363   6.608 -0.3225  1.1176  1.6824
   68SAPC    HY 5722   4.390   3.307   6.502  2.1051  0.6924 -1.1879
   68SAPC   O31 5723   4.330   3.375   6.697 -0.0835 -0.2849  0.3143
   68SAPC   C31 5724   4.198   3.391   6.688  0.1416 -0.0374  0.2695
   68SAPC   O32 5725   4.135   3.422   6.586  0.0020  0.4392  0.1601
   68SAPC   C32 5726   4.130   3.369   6.826  0.5896  0.8816  0.3769
   68SAPC   H2X 5727   4.081   3.270   6.831 -0.4923  1.4645  1.7230
   68SAPC   H2Y 5728   4.067   3.459   6.845 -0.2921  0.3248  0.1053
   68SAPC   C23 5729   4.419   3.925   6.798  0.8546 -0.0209  1.0766
   68SAPC   H3R 5730   4.368   3.889   6.890  2.4361  1.4226  2.5883
   68SAPC   H3S 5731   4.330   3.956   6.740  0.9574  1.5886  1.7217
   68SAPC   C24 5732   4.510   4.037   6.850 -0.6539 -0.3207 -0.3273
   68SAPC   H4R 5733   4.586   4.065   6.773 -0.8881 -0.0334 -0.4552
   68SAPC   H4S 5734   4.567   4.004   6.939  1.1386  1.6517 -0.6593
   68SAPC   C25 5735   4.433   4.153   6.896  1.0452  0.6125  0.0298
   68SAPC   H5R 5736   4.370   4.191   6.814  1.0090 -3.1609 -1.8739
   68SAPC   C26 5737   4.413   4.205   7.021 -0.4926 -0.0705 -0.2809
   68SAPC   H6R 5738   4.356   4.299   7.030 -1.4010 -0.6624  0.4352
   68SAPC   C27 5739   4.490   4.162   7.147 -0.3578 -0.4657  0.8280
   68SAPC   H7R 5740   4.528   4.253   7.197  0.2091  1.1579 -2.2712
   68SAPC   H7S 5741   4.586   4.107   7.131 -1.0198 -1.3195 -0.3748
   68SAPC   C28 5742   4.411   4.074   7.245 -1.0331  0.0609 -0.6203
   68SAPC   H8R 5743   4.360   3.989   7.197  2.6302 -1.5965 -1.9760
   68SAPC   C29 5744   4.377   4.103   7.376 -0.1345 -0.1002  0.4009
   68SAPC   H9R 5745   4.327   4.022   7.431  0.0823 -0.5780 -0.0904
   68SAPC  C210 5746   4.432   4.215   7.460 -0.1438  0.3132  0.1757
   68SAPC  H10R 5747   4.365   4.303   7.466 -1.0428 -0.2269 -1.2892
   68SAPC  H10S 5748   4.524   4.248   7.406  0.5149 -3.0258 -1.0068
   68SAPC  C211 5749   4.482   4.184   7.598  0.1786  0.0611 -0.6719
   68SAPC  H11R 5750   4.585   4.145   7.598  0.2118  0.1427 -0.1277
   68SAPC  C212 5751   4.412   4.170   7.712 -0.3177 -0.5360 -0.2247
   68SAPC  H12R 5752   4.472   4.169   7.804  4.5871  1.8147 -2.9996
   68SAPC  C213 5753   4.267   4.205   7.731  0.2824 -0.2972  0.6773
   68SAPC  H13R 5754   4.223   4.137   7.808 -0.1899  0.7280  1.3338
   68SAPC  H13S 5755   4.207   4.192   7.638  0.7280  1.6505  0.0740
   68SAPC  C214 5756   4.247   4.347   7.787 -0.9248 -0.2842 -0.5821
   68SAPC  H14R 5757   4.285   4.432   7.728 -0.9797  0.3167  0.2352
   68SAPC  C215 5758   4.169   4.382   7.894 -0.9661  0.2958 -1.2921
   68SAPC  H15R 5759   4.148   4.488   7.912  2.3496  1.1330 -1.7198
   68SAPC  C216 5760   4.089   4.277   7.976 -0.1910 -1.2331 -0.2116
   68SAPC  H16R 5761   4.075   4.175   7.937  0.0366 -1.7938  1.1137
   68SAPC  H16S 5762   3.986   4.317   7.964 -0.4964 -1.8863  0.1690
   68SAPC  C217 5763   4.122   4.270   8.123 -0.0334 -0.1845 -0.0735
   68SAPC  H17R 5764   4.126   4.375   8.160 -0.5959 -0.1234 -0.1652
   68SAPC  H17S 5765   4.222   4.224   8.129  0.8021  1.0379 -2.8084
   68SAPC  C218 5766   4.032   4.193   8.208 -0.3450  0.1841  0.2371
   68SAPC  H18R 5767   4.023   4.091   8.165  0.4746  0.1702  0.0669
   68SAPC  H18S 5768   3.933   4.242   8.213 -1.1667 -1.5166  2.0956
   68SAPC  C219 5769   4.087   4.178   8.348  0.3489  0.4336  0.2589
   68SAPC  H19R 5770   4.186   4.127   8.351  0.7200  1.1649  1.3566
   68SAPC  H19S 5771   4.015   4.119   8.409  1.4299 -2.0400 -0.7376
   68SAPC  C220 5772   4.109   4.308   8.410 -0.4573 -1.2792 -0.3326
   68SAPC  H20R 5773   4.025   4.382   8.408  1.4837  1.1056  0.9682
   68SAPC  H20S 5774   4.195   4.362   8.366 -0.1161 -1.9396 -0.4799
   68SAPC  H20T 5775   4.135   4.284   8.515 -0.1488  2.0098  0.4818
   68SAPC   C33 5776   4.237   3.356   6.937 -0.2927  0.4743 -0.1569
   68SAPC   H3X 5777   4.288   3.453   6.957  0.0008  0.6600 -1.6790
   68SAPC   H3Y 5778   4.326   3.295   6.913 -1.2957 -1.4505  0.7874
   68SAPC   C34 5779   4.185   3.305   7.074 -0.2382 -0.0290 -0.9297
   68SAPC   H4X 5780   4.163   3.197   7.063  1.1486 -0.2456 -1.7621
   68SAPC   H4Y 5781   4.094   3.359   7.109 -0.6002 -0.2089 -1.5829
   68SAPC   C35 5782   4.297   3.304   7.181 -0.0019  0.3110 -0.4903
   68SAPC   H5X 5783   4.331   3.409   7.191 -4.2218  1.6318  4.3207
   68SAPC   H5Y 5784   4.370   3.225   7.152  0.7598 -0.8846  3.9955
   68SAPC   C36 5785   4.235   3.281   7.324 -0.5264  0.3285  0.0773
   68SAPC   H6X 5786   4.195   3.178   7.325  1.4196 -0.5372  2.8970
   68SAPC   H6Y 5787   4.149   3.349   7.342 -1.7306 -1.1865  0.1950
   68SAPC   C37 5788   4.327   3.320   7.439 -0.0904  0.0693 -0.3354
   68SAPC   H7X 5789   4.347   3.427   7.458  1.3545 -0.5927  2.3225
   68SAPC   H7Y 5790   4.423   3.269   7.413  0.0475  0.2818 -0.2413
   68SAPC   C38 5791   4.290   3.261   7.577 -0.0484  0.0460  0.1740
   68SAPC   H8X 5792   4.388   3.245   7.628 -0.0301 -0.0957  0.0953
   68SAPC   H8Y 5793   4.246   3.160   7.568 -2.3041  0.9790  0.1645
   68SAPC   C39 5794   4.212   3.359   7.667  0.6710 -0.4768  0.1568
   68SAPC   H9X 5795   4.111   3.380   7.625  0.7752 -1.1200 -0.4284
   68SAPC   H9Y 5796   4.263   3.454   7.694 -2.2529  0.4510  3.1836
   68SAPC  C310 5797   4.184   3.300   7.816 -0.2162  0.5306  0.7980
   68SAPC  H10X 5798   4.285   3.309   7.862 -0.6987  1.9046  1.6297
   68SAPC  H10Y 5799   4.161   3.193   7.794  1.7381  0.0039  1.1083
   68SAPC  C311 5800   4.081   3.376   7.903  0.6969  0.1579 -0.0430
   68SAPC  H11X 5801   4.001   3.405   7.832  0.2498  2.0311  1.1828
   68SAPC  H11Y 5802   4.123   3.469   7.946  1.2763 -0.1098 -0.0191
   68SAPC  C312 5803   4.032   3.274   8.013 -0.0512 -0.2559  0.7235
   68SAPC  H12X 5804   4.121   3.232   8.064 -0.9285 -1.1458  1.5659
   68SAPC  H12Y 5805   3.987   3.187   7.962  0.0790 -0.5250  1.0627
   68SAPC  C313 5806   3.941   3.324   8.133 -0.3635 -0.0257  0.6571
   68SAPC  H13X 5807   3.876   3.376   8.061  0.3577  1.9655  1.3832
   68SAPC  H13Y 5808   3.979   3.415   8.184  2.9672 -1.7868  1.6662
   68SAPC  C314 5809   3.879   3.224   8.224 -0.5371  0.3304 -0.1089
   68SAPC  H14X 5810   3.833   3.144   8.162 -1.3574  0.9741 -0.3530
   68SAPC  H14Y 5811   3.805   3.273   8.290  0.8722  1.2089  0.8590
   68SAPC  C315 5812   3.984   3.149   8.311  0.2541  0.7863 -0.2335
   68SAPC  H15X 5813   4.039   3.080   8.245  0.5323  0.1896  0.6048
   68SAPC  H15Y 5814   3.934   3.076   8.377 -1.5281  0.5830 -1.7239
   68SAPC  C316 5815   4.089   3.239   8.375 -0.0551 -0.2100  0.2007
   68SAPC  H16X 5816   4.124   3.321   8.309 -0.3001 -2.0916 -2.4529
   68SAPC  H16Y 5817   4.178   3.182   8.407  0.3795  0.7815  0.7965
   68SAPC  C317 5818   4.032   3.304   8.507  0.2828  0.1985 -0.5252
   68SAPC  H17X 5819   3.978   3.232   8.571  0.3956  1.3003  0.8460
   68SAPC  H17Y 5820   3.947   3.375   8.496  0.9542  1.4575  1.8184
   68SAPC  C318 5821   4.144   3.381   8.582  0.9350 -0.2729 -0.6519
   68SAPC  H18X 5822   4.098   3.444   8.660  4.1736 -1.4867  2.5148
   68SAPC  H18Y 5823   4.211   3.439   8.515 -1.2074  1.9743 -1.0079
   68SAPC  H18Z 5824   4.204   3.300   8.629 -0.9339 -1.6560 -0.5449
   69SLPC     N 5825   0.368   1.268  11.255 -0.0722 -0.2949  0.1709
   69SLPC   C13 5826   0.367   1.173  11.373 -0.0251 -1.0675 -0.0193
   69SLPC  H13A 5827   0.300   1.091  11.349 -2.1904  0.6273 -0.0756
   69SLPC  H13B 5828   0.466   1.136  11.395 -0.2563 -0.7659  1.6855
   69SLPC  H13C 5829   0.335   1.232  11.457 -0.6322  4.2173 -3.4898
   69SLPC   C14 5830   0.439   1.394  11.296 -0.0625 -0.4519  0.5036
   69SLPC  H14A 5831   0.427   1.469  11.219  0.1647  0.4256  1.3127
   69SLPC  H14B 5832   0.407   1.436  11.390  1.1249  1.3850  0.1228
   69SLPC  H14C 5833   0.545   1.373  11.305  0.2458  1.2972  1.3274
   69SLPC   C15 5834   0.232   1.320  11.238  0.2351  0.7747 -0.6018
   69SLPC  H15A 5835   0.238   1.411  11.181  2.9100  0.9903 -0.0949
   69SLPC  H15B 5836   0.173   1.249  11.182 -1.3289  2.0800 -0.6988
   69SLPC  H15C 5837   0.179   1.347  11.328  0.6924  0.3199 -0.1889
   69SLPC   C12 5838   0.417   1.200  11.120  1.1092 -0.1650 -0.6265
   69SLPC  H12A 5839   0.354   1.115  11.098 -1.2905  1.4382 -0.2980
   69SLPC  H12B 5840   0.511   1.158  11.153  1.7460  2.2697  0.9162
   69SLPC   C11 5841   0.433   1.294  10.996  0.0588  0.0637  0.5222
   69SLPC  H11A 5842   0.336   1.333  10.959  1.1799  1.7073 -0.8156
   69SLPC  H11B 5843   0.482   1.224  10.925  1.4177  1.1819  0.3125
   69SLPC     P 5844   0.613   1.479  10.916  0.1007 -0.1064 -0.0335
   69SLPC   O13 5845   0.589   1.619  10.905  0.1111 -0.3653  0.2264
   69SLPC   O14 5846   0.757   1.442  10.945 -0.7521  0.7638 -0.0458
   69SLPC   O12 5847   0.512   1.407  11.013  0.3818  0.6078  0.1577
   69SLPC   O11 5848   0.572   1.418  10.783  0.1756  0.1472 -0.5363
   69SLPC    C1 5849   0.650   1.424  10.664 -0.3067 -0.1722  0.2892
   69SLPC    HA 5850   0.757   1.436  10.693 -0.5022  1.1103  0.5144
   69SLPC    HB 5851   0.655   1.327  10.610 -1.5574 -0.2644  0.3183
   69SLPC    C2 5852   0.608   1.548  10.567  0.5293  0.2570  0.1495
   69SLPC    HS 5853   0.603   1.642  10.625 -2.7794  0.9056 -0.9780
   69SLPC   O21 5854   0.477   1.522  10.515 -0.4808  0.1118  1.4929
   69SLPC   C21 5855   0.415   1.617  10.442  0.3285 -0.1494  0.2727
   69SLPC   O22 5856   0.442   1.737  10.438 -0.2734  0.7234 -0.0935
   69SLPC   C22 5857   0.300   1.549  10.373  0.5942 -0.0418  0.4668
   69SLPC   H2R 5858   0.340   1.475  10.300  2.6712  0.1737  1.3105
   69SLPC   H2S 5859   0.236   1.507  10.453  1.8024 -0.1169  1.4266
   69SLPC    C3 5860   0.711   1.586  10.454  0.2563 -0.1484 -0.9664
   69SLPC    HX 5861   0.808   1.608  10.504  0.4349  0.8997 -1.7478
   69SLPC    HY 5862   0.684   1.682  10.405  1.3858  1.6141  1.6321
   69SLPC   O31 5863   0.738   1.476  10.364 -0.3633  0.3050  0.0230
   69SLPC   C31 5864   0.660   1.460  10.247  0.2387  0.0078 -0.6068
   69SLPC   O32 5865   0.585   1.545  10.209  0.3684 -0.4578  0.2939
   69SLPC   C32 5866   0.683   1.321  10.193  0.2008 -0.4742  0.2352
   69SLPC   H2X 5867   0.616   1.251  10.248 -2.7399  1.7440 -0.2889
   69SLPC   H2Y 5868   0.790   1.298  10.215 -0.3339 -2.7583  0.7136
   69SLPC   C23 5869   0.200   1.641  10.296  0.0011  0.1901  0.1729
   69SLPC   H3R 5870   0.167   1.725  10.361 -1.1280  1.3341 -1.7828
   69SLPC   H3S 5871   0.102   1.588  10.289 -0.4294  0.7812  1.4550
   69SLPC   C24 5872   0.260   1.703  10.170 -0.3712 -0.0834 -0.5423
   69SLPC   H4R 5873   0.370   1.720  10.180 -0.4371  0.5235 -0.8165
   69SLPC   H4S 5874   0.213   1.801  10.148 -2.1027 -0.8667 -0.4647
   69SLPC   C25 5875   0.234   1.609  10.046 -0.0500 -0.8975 -0.3560
   69SLPC   H5R 5876   0.123   1.600  10.034 -0.1055  0.6055 -1.2627
   69SLPC   H5S 5877   0.286   1.512  10.063 -0.2291 -0.9100  0.1386
   69SLPC   C26 5878   0.274   1.662   9.908 -0.9700 -0.4018 -0.6113
   69SLPC   H6R 5879   0.382   1.672   9.929 -0.3752 -1.7989 -2.7270
   69SLPC   H6S 5880   0.237   1.764   9.885  0.3777  0.0849 -0.6522
   69SLPC   C27 5881   0.256   1.565   9.791 -0.3357  0.6003 -0.0619
   69SLPC   H7R 5882   0.149   1.541   9.773 -0.3110  1.0136 -0.7869
   69SLPC   H7S 5883   0.314   1.475   9.820  1.7416  2.5538  2.3681
   69SLPC   C28 5884   0.326   1.614   9.664  1.4987  0.0420  0.6232
   69SLPC   H8R 5885   0.289   1.718   9.651  2.1077  0.4702  2.0250
   69SLPC   H8S 5886   0.291   1.562   9.573 -1.4659  2.3331  0.3122
   69SLPC   C29 5887   0.480   1.640   9.667  0.1232 -0.4481 -0.1006
   69SLPC   H9R 5888   0.537   1.651   9.760  0.4286 -2.5532  0.0033
   69SLPC  C210 5889   0.564   1.647   9.559 -0.4725 -0.3563  0.0245
   69SLPC  H10R 5890   0.672   1.654   9.576 -0.6396  0.2294  0.9238
   69SLPC  C211 5891   0.526   1.620   9.420  0.4440 -0.3023  0.2358
   69SLPC  H11R 5892   0.457   1.702   9.388 -1.1255 -2.2680 -1.7271
   69SLPC  H11S 5893   0.465   1.528   9.412 -0.0494 -0.1585  1.9575
   69SLPC  C212 5894   0.642   1.615   9.323 -0.1652 -0.0158  1.0121
   69SLPC  H12R 5895   0.742   1.624   9.368  2.6079 -2.1633 -3.9767
   69SLPC  C213 5896   0.646   1.603   9.191 -0.2330  0.1031  0.4275
   69SLPC  H13R 5897   0.742   1.604   9.138  0.1557 -0.4950  1.1024
   69SLPC  C214 5898   0.528   1.589   9.103 -0.2892  0.2198  0.4998
   69SLPC  H14R 5899   0.498   1.691   9.069  1.9966  1.7061  2.5921
   69SLPC  H14S 5900   0.440   1.546   9.154 -0.6633  0.4360  0.0471
   69SLPC  C215 5901   0.567   1.498   8.979 -0.0538 -0.0106 -0.6890
   69SLPC  H15R 5902   0.500   1.410   8.984 -1.6206  1.1214 -1.0285
   69SLPC  H15S 5903   0.671   1.457   8.982 -0.1958 -0.2955  1.7677
   69SLPC  C216 5904   0.534   1.561   8.846 -0.2806  0.3512  0.8663
   69SLPC  H16R 5905   0.615   1.634   8.828 -0.5917  0.0795 -2.0234
   69SLPC  H16S 5906   0.432   1.606   8.841 -0.0179  0.7607 -1.9327
   69SLPC  C217 5907   0.556   1.472   8.727 -0.8580  0.2171  0.5819
   69SLPC  H17R 5908   0.469   1.403   8.726 -0.8816  0.2399  1.0319
   69SLPC  H17S 5909   0.646   1.407   8.727 -0.3381  0.7610 -2.3380
   69SLPC  C218 5910   0.558   1.540   8.577 -0.6589  0.1739  0.5705
   69SLPC  H18R 5911   0.646   1.607   8.563 -0.5978  0.1691  0.9200
   69SLPC  H18S 5912   0.460   1.588   8.557 -0.2775  1.3656  1.4396
   69SLPC  H18T 5913   0.578   1.463   8.499  3.6037  0.3678  1.2408
   69SLPC   C33 5914   0.639   1.315  10.047 -0.4025 -0.0142 -0.3759
   69SLPC   H3X 5915   0.529   1.317  10.034 -0.3067  2.2191 -1.3378
   69SLPC   H3Y 5916   0.667   1.218  10.001  0.2696  0.1430 -0.3144
   69SLPC   C34 5917   0.727   1.402   9.956 -0.1617  0.3461 -0.2897
   69SLPC   H4X 5918   0.832   1.365   9.950 -0.6050 -0.9125 -0.6532
   69SLPC   H4Y 5919   0.726   1.505   9.996  0.4944  0.3751 -0.3448
   69SLPC   C35 5920   0.671   1.395   9.811 -0.0682  1.0958  0.5681
   69SLPC   H5X 5921   0.709   1.480   9.751  1.2593 -0.9735 -1.7155
   69SLPC   H5Y 5922   0.561   1.415   9.815 -0.1093  1.0277 -0.0720
   69SLPC   C36 5923   0.709   1.263   9.734 -0.5914 -0.3266  0.2152
   69SLPC   H6X 5924   0.621   1.196   9.749 -0.0071 -0.7717  1.8184
   69SLPC   H6Y 5925   0.801   1.224   9.781 -1.1585 -0.4703  1.2349
   69SLPC   C37 5926   0.732   1.289   9.587  1.2345 -0.4482 -0.5832
   69SLPC   H7X 5927   0.817   1.358   9.568  1.4516 -0.3777  0.5724
   69SLPC   H7Y 5928   0.640   1.342   9.556  1.2421 -0.2233 -0.2266
   69SLPC   C38 5929   0.726   1.165   9.503  0.1424  0.1436 -0.5158
   69SLPC   H8X 5930   0.650   1.103   9.555 -2.1319  3.4824  0.4616
   69SLPC   H8Y 5931   0.825   1.115   9.511 -0.6064 -1.3484 -0.2164
   69SLPC   C39 5932   0.701   1.206   9.363 -0.7224 -0.1144  0.7055
   69SLPC   H9X 5933   0.783   1.276   9.338 -1.4148  0.9609  1.3653
   69SLPC   H9Y 5934   0.607   1.262   9.348 -1.7968 -2.1172 -0.5622
   69SLPC  C310 5935   0.688   1.090   9.262 -0.4589 -0.0006  0.1447
   69SLPC  H10X 5936   0.613   1.013   9.291  1.5983 -2.6261 -0.9982
   69SLPC  H10Y 5937   0.787   1.039   9.256 -0.8667 -0.6419 -1.9980
   69SLPC  C311 5938   0.656   1.144   9.124  0.3803 -0.2890  0.3563
   69SLPC  H11X 5939   0.739   1.208   9.089  0.5863 -0.6974  0.0881
   69SLPC  H11Y 5940   0.572   1.216   9.134  0.6681  0.3654 -1.6391
   69SLPC  C312 5941   0.622   1.035   9.028  0.2621 -0.4512 -0.3475
   69SLPC  H12X 5942   0.515   1.004   9.034 -0.2123  1.0450 -0.7892
   69SLPC  H12Y 5943   0.675   0.939   9.047  1.5643 -0.1016 -2.0801
   69SLPC  C313 5944   0.662   1.073   8.881 -0.1886  0.5444 -0.5137
   69SLPC  H13X 5945   0.766   1.112   8.885 -0.4638  1.2542 -0.1189
   69SLPC  H13Y 5946   0.598   1.160   8.856 -0.8555  0.5267  1.0152
   69SLPC  C314 5947   0.643   0.959   8.776  0.0908  0.4730  0.1412
   69SLPC  H14X 5948   0.537   0.927   8.780  0.4599 -1.4485 -2.4358
   69SLPC  H14Y 5949   0.699   0.867   8.802  0.4694  1.2660  2.2585
   69SLPC  C315 5950   0.685   1.002   8.634  0.1716 -0.1511 -0.6073
   69SLPC  H15X 5951   0.775   1.068   8.638 -0.4690  0.7119  0.3389
   69SLPC  H15Y 5952   0.598   1.061   8.599 -0.8767 -1.5983 -0.5422
   69SLPC  C316 5953   0.695   0.886   8.539  0.2778  0.8661  0.0667
   69SLPC  H16X 5954   0.591   0.852   8.518  0.2928 -0.9782  2.4943
   69SLPC  H16Y 5955   0.763   0.808   8.579 -0.2247 -0.0728 -0.8672
   69SLPC  C317 5956   0.760   0.913   8.405  0.3810 -0.3200  0.4128
   69SLPC  H17X 5957   0.704   1.000   8.366  1.4840  0.5940  0.8247
   69SLPC  H17Y 5958   0.727   0.833   8.335 -2.5232  2.2209 -1.4021
   69SLPC  C318 5959   0.905   0.947   8.421  0.2598  0.5827  0.2261
   69SLPC  H18X 5960   0.967   0.859   8.449  0.7261  0.8501  0.0575
   69SLPC  H18Y 5961   0.937   1.025   8.494  2.3644  0.5480 -0.5776
   69SLPC  H18Z 5962   0.943   0.987   8.325 -0.5219  0.9660  0.0718
   70SLPC     N 5963   1.401   4.788  11.302  0.3042  0.1789 -0.1725
   70SLPC   C13 5964   1.428   4.862  11.424  0.4838  0.2508  0.4977
   70SLPC  H13A 5965   1.338   4.889  11.477 -0.4277  0.7567 -1.2065
   70SLPC  H13B 5966   1.487   4.812  11.499  2.2561 -0.7680 -1.4511
   70SLPC  H13C 5967   1.490   4.947  11.401  2.0526 -1.2619 -1.2716
   70SLPC   C14 5968   1.305   4.674  11.331 -0.2325  0.3228 -0.0175
   70SLPC  H14A 5969   1.292   4.616  11.241 -2.8124 -1.0161  1.1076
   70SLPC  H14B 5970   1.350   4.612  11.408  0.1973 -1.2527 -1.4745
   70SLPC  H14C 5971   1.207   4.709  11.362 -1.2127 -1.9882 -0.3132
   70SLPC   C15 5972   1.528   4.724  11.262 -0.2761  0.0603  0.0021
   70SLPC  H15A 5973   1.587   4.679  11.341  2.1077  0.0243 -1.6884
   70SLPC  H15B 5974   1.509   4.653  11.183  1.9657  0.8653 -1.3431
   70SLPC  H15C 5975   1.598   4.798  11.227  0.0211  1.4525  3.1576
   70SLPC   C12 5976   1.354   4.879  11.193  0.2513  0.7977  0.2263
   70SLPC  H12A 5977   1.436   4.948  11.185  2.4822 -1.6198  1.0224
   70SLPC  H12B 5978   1.267   4.929  11.234 -0.2188 -0.5847  0.9644
   70SLPC   C11 5979   1.325   4.830  11.054 -0.0334 -0.2630 -0.0276
   70SLPC  H11A 5980   1.393   4.744  11.036  1.2992  0.1796  2.4038
   70SLPC  H11B 5981   1.360   4.907  10.982  1.9084 -1.1049 -0.0626
   70SLPC     P 5982   1.079   4.902  11.002 -0.3047 -0.1566  0.0627
   70SLPC   O13 5983   0.954   4.827  10.971  0.5859  0.0767  0.0751
   70SLPC   O14 5984   1.078   4.996  11.115 -0.0174 -0.0694 -0.6693
   70SLPC   O12 5985   1.191   4.792  11.034  0.2633  0.3154  0.0205
   70SLPC   O11 5986   1.133   4.974  10.869  0.1123 -0.0146  0.3373
   70SLPC    C1 5987   1.184   4.906  10.755  0.5258  0.5261 -0.2019
   70SLPC    HA 5988   1.294   4.893  10.767  0.3133 -0.8561  0.3829
   70SLPC    HB 5989   1.138   4.805  10.755  0.1512  0.5890  3.0358
   70SLPC    C2 5990   1.138   4.978  10.625 -0.3038 -0.4366 -0.8597
   70SLPC    HS 5991   1.182   4.928  10.536 -0.6310 -0.6086 -0.9234
   70SLPC   O21 5992   1.148   5.126  10.628  0.0390 -0.2025  0.0134
   70SLPC   C21 5993   1.185   5.179  10.508 -0.2439 -0.5630  0.0290
   70SLPC   O22 5994   1.209   5.109  10.408  0.0726  0.1227 -0.7726
   70SLPC   C22 5995   1.206   5.333  10.510  0.0153  0.3987 -0.4706
   70SLPC   H2R 5996   1.136   5.363  10.590  0.1858  0.5794 -0.3897
   70SLPC   H2S 5997   1.313   5.344  10.536 -0.2219 -1.3775  1.4652
   70SLPC    C3 5998   0.988   4.948  10.615 -0.1833 -0.0242 -0.5375
   70SLPC    HX 5999   0.932   4.995  10.699 -1.3818 -1.2699 -0.6028
   70SLPC    HY 6000   0.976   4.840  10.639 -0.7949  0.3720  1.0412
   70SLPC   O31 6001   0.934   4.981  10.483 -0.4478  0.0807 -0.4614
   70SLPC   C31 6002   0.844   5.076  10.486 -0.6829  0.4870 -0.6935
   70SLPC   O32 6003   0.787   5.126  10.590 -0.9135  0.5674  0.4221
   70SLPC   C32 6004   0.784   5.078  10.341 -0.2779 -0.2709 -0.0924
   70SLPC   H2X 6005   0.715   4.992  10.327 -0.1704 -0.3402 -0.1955
   70SLPC   H2Y 6006   0.874   5.074  10.276 -0.2374  0.4087 -0.0886
   70SLPC   C23 6007   1.185   5.401  10.378 -0.0077 -0.7767 -0.0712
   70SLPC   H3R 6008   1.229   5.343  10.294 -0.9162  1.7601 -2.4486
   70SLPC   H3S 6009   1.238   5.497  10.390 -0.4642 -0.5688  0.3114
   70SLPC   C24 6010   1.035   5.419  10.344  0.0814  0.1673  0.5209
   70SLPC   H4R 6011   0.978   5.478  10.419 -1.3700  0.3693 -0.6935
   70SLPC   H4S 6012   0.984   5.321  10.338  0.5759 -0.0331 -0.8995
   70SLPC   C25 6013   1.025   5.479  10.196 -0.6820 -0.3405  0.1041
   70SLPC   H5R 6014   1.081   5.575  10.206  2.1378 -1.5013 -2.5745
   70SLPC   H5S 6015   0.916   5.500  10.187 -1.1594 -0.4466  4.0346
   70SLPC   C26 6016   1.093   5.398  10.090  0.7646  0.5348 -0.6112
   70SLPC   H6R 6017   1.046   5.297  10.082  1.0606  0.2546  0.9620
   70SLPC   H6S 6018   1.202   5.386  10.109  0.2955 -0.8443  1.5476
   70SLPC   C27 6019   1.087   5.468   9.954 -0.8147 -0.0151 -0.2002
   70SLPC   H7R 6020   1.131   5.570   9.957 -1.4443  0.2479  0.2579
   70SLPC   H7S 6021   0.981   5.469   9.921 -1.1049 -0.5464  0.6874
   70SLPC   C28 6022   1.171   5.385   9.852 -0.5044  0.6108  0.2374
   70SLPC   H8R 6023   1.264   5.344   9.897  0.1632  0.1844 -1.4742
   70SLPC   H8S 6024   1.189   5.447   9.762 -1.4218 -0.1458 -0.4900
   70SLPC   C29 6025   1.087   5.269   9.809  0.5931  0.6625  0.2550
   70SLPC   H9R 6026   1.020   5.225   9.885  0.3087 -0.8643 -0.8204
   70SLPC  C210 6027   1.089   5.205   9.691 -0.1153  0.0945  0.1595
   70SLPC  H10R 6028   1.019   5.121   9.680  0.9042 -1.0294  1.7454
   70SLPC  C211 6029   1.181   5.249   9.577  0.1744  0.3076  0.4040
   70SLPC  H11R 6030   1.188   5.159   9.513  1.9342  1.4444 -1.1141
   70SLPC  H11S 6031   1.286   5.277   9.603  0.2312 -0.2266  0.7762
   70SLPC  C212 6032   1.132   5.368   9.494  0.6447  0.3956  0.1537
   70SLPC  H12R 6033   1.166   5.465   9.534 -3.1379  1.5416  1.0149
   70SLPC  C213 6034   1.057   5.371   9.381  0.4303  0.9041 -0.1267
   70SLPC  H13R 6035   1.033   5.469   9.336 -3.6010 -0.4576 -1.4390
   70SLPC  C214 6036   0.979   5.264   9.311  0.4868 -0.0927 -0.5151
   70SLPC  H14R 6037   0.872   5.290   9.304  0.0594 -1.0534  1.6329
   70SLPC  H14S 6038   0.977   5.160   9.352  1.4317 -0.6888 -1.8982
   70SLPC  C215 6039   1.031   5.255   9.167 -0.4132 -0.9538 -0.5716
   70SLPC  H15R 6040   1.016   5.155   9.121  0.4914 -0.8582 -1.0952
   70SLPC  H15S 6041   1.142   5.261   9.162 -0.3921  1.0538  0.9796
   70SLPC  C216 6042   0.987   5.372   9.079 -0.1906 -0.4125  0.1883
   70SLPC  H16R 6043   1.020   5.464   9.131 -0.4631 -0.2532  0.0827
   70SLPC  H16S 6044   0.876   5.384   9.079 -0.3055 -0.8870 -2.5273
   70SLPC  C217 6045   1.030   5.365   8.936 -0.4066 -0.2553  0.3984
   70SLPC  H17R 6046   1.138   5.340   8.931  0.3120  2.3061  1.3514
   70SLPC  H17S 6047   1.007   5.462   8.886  1.5647  1.7776  3.0986
   70SLPC  C218 6048   0.960   5.270   8.840  0.4358 -0.4013 -0.3655
   70SLPC  H18R 6049   0.975   5.170   8.886  1.8758 -0.5917 -1.1678
   70SLPC  H18S 6050   1.000   5.281   8.736  2.3214  0.4961  0.4038
   70SLPC  H18T 6051   0.850   5.284   8.833  0.2480 -1.9512 -0.9665
   70SLPC   C33 6052   0.687   5.195  10.299 -0.0480  0.0913 -0.9418
   70SLPC   H3X 6053   0.744   5.291  10.299  1.1990 -0.5840  1.1167
   70SLPC   H3Y 6054   0.613   5.210  10.381  1.3344  1.2462  0.1433
   70SLPC   C34 6055   0.610   5.165  10.173  0.2386 -0.0186 -0.3797
   70SLPC   H4X 6056   0.535   5.247  10.175 -1.6456 -1.6849  1.3349
   70SLPC   H4Y 6057   0.560   5.066  10.170  2.3897 -1.2866  2.0767
   70SLPC   C35 6058   0.697   5.173  10.044 -0.0212  0.1723 -0.1250
   70SLPC   H5X 6059   0.782   5.102  10.052  0.6185  0.8058 -1.1308
   70SLPC   H5Y 6060   0.750   5.270  10.049 -1.7826  1.1223  2.8060
   70SLPC   C36 6061   0.618   5.172   9.907 -0.0817  0.5608  0.5089
   70SLPC   H6X 6062   0.545   5.256   9.915 -0.6909  0.0764  0.0879
   70SLPC   H6Y 6063   0.555   5.081   9.907  2.0373 -0.9647 -0.1249
   70SLPC   C37 6064   0.713   5.172   9.785  0.4022  0.2475 -0.1638
   70SLPC   H7X 6065   0.780   5.084   9.789 -0.8546 -0.7014  1.9036
   70SLPC   H7Y 6066   0.780   5.261   9.787  0.0216  0.6252 -2.3073
   70SLPC   C38 6067   0.620   5.162   9.660  0.1237  0.3778 -0.5358
   70SLPC   H8X 6068   0.560   5.252   9.632 -1.0051 -0.2244 -0.1050
   70SLPC   H8Y 6069   0.541   5.090   9.690  0.4733 -0.5993 -1.8795
   70SLPC   C39 6070   0.681   5.117   9.525  0.2747  0.4162 -0.1032
   70SLPC   H9X 6071   0.756   5.035   9.535 -0.8707 -0.4781  1.6450
   70SLPC   H9Y 6072   0.733   5.200   9.473  3.8612 -1.0020  0.8811
   70SLPC  C310 6073   0.581   5.050   9.421  0.3205 -0.0559 -0.2044
   70SLPC  H10X 6074   0.496   5.117   9.396 -1.3545 -1.9210  0.2380
   70SLPC  H10Y 6075   0.531   4.962   9.467 -2.0211 -0.5963 -3.4271
   70SLPC  C311 6076   0.651   5.011   9.288 -0.7183 -0.6044 -0.3695
   70SLPC  H11X 6077   0.731   4.936   9.309  0.3942 -0.1788 -2.7150
   70SLPC  H11Y 6078   0.701   5.098   9.241 -2.5308  1.8885  2.0531
   70SLPC  C312 6079   0.553   4.959   9.183  0.0818  0.1468  0.2363
   70SLPC  H12X 6080   0.475   5.037   9.167  0.5010  0.6634  0.6481
   70SLPC  H12Y 6081   0.503   4.861   9.198  0.8049 -0.5222 -1.4904
   70SLPC  C313 6082   0.621   4.937   9.046  0.6351 -0.2545  0.5864
   70SLPC  H13X 6083   0.675   4.841   9.062 -0.4060 -0.9424  0.1150
   70SLPC  H13Y 6084   0.691   5.017   9.015 -1.7680  1.4564 -0.7545
   70SLPC  C314 6085   0.528   4.917   8.928 -0.3071  0.0421  0.9901
   70SLPC  H14X 6086   0.472   5.001   8.882  0.2029  0.3020  0.8426
   70SLPC  H14Y 6087   0.447   4.845   8.955 -1.0197  0.6472  0.5102
   70SLPC  C315 6088   0.609   4.871   8.804 -0.1347  0.1500 -0.2690
   70SLPC  H15X 6089   0.529   4.838   8.734 -0.8453 -0.6409  0.8850
   70SLPC  H15Y 6090   0.674   4.786   8.835 -0.8779 -0.5516 -0.5908
   70SLPC  C316 6091   0.695   4.980   8.734  0.5060  0.1150 -0.3735
   70SLPC  H16X 6092   0.760   5.009   8.819 -0.4982 -0.4698  0.6144
   70SLPC  H16Y 6093   0.639   5.061   8.682  2.7605  1.4928 -0.7989
   70SLPC  C317 6094   0.786   4.924   8.625  0.0652  0.2575 -0.3586
   70SLPC  H17X 6095   0.719   4.894   8.542  3.0926 -2.5300 -2.0159
   70SLPC  H17Y 6096   0.841   4.830   8.649  0.4610  0.3998 -0.7071
   70SLPC  C318 6097   0.883   5.025   8.572 -0.1697 -0.4363  0.3248
   70SLPC  H18X 6098   0.930   4.981   8.482 -1.3431 -0.9838 -0.0480
   70SLPC  H18Y 6099   0.958   5.049   8.651 -1.1893  0.0505  1.1852
   70SLPC  H18Z 6100   0.829   5.119   8.543  0.4155 -0.4639 -0.8963
   71SLPC     N 6101   0.395   4.245  10.652 -0.1313 -0.4001 -0.7121
   71SLPC   C13 6102   0.313   4.162  10.558 -0.0542  0.2635 -0.1367
   71SLPC  H13A 6103   0.222   4.208  10.521  0.2740  0.4547 -0.7229
   71SLPC  H13B 6104   0.380   4.132  10.478  0.8556 -0.7061  0.9506
   71SLPC  H13C 6105   0.283   4.073  10.612  0.4633 -0.3419 -0.8159
   71SLPC   C14 6106   0.298   4.289  10.753 -0.8163 -0.0127  0.0336
   71SLPC  H14A 6107   0.257   4.205  10.807  0.1811 -1.5936 -1.5766
   71SLPC  H14B 6108   0.347   4.356  10.822  0.8227  1.6699 -2.5791
   71SLPC  H14C 6109   0.214   4.337  10.706 -0.4391 -0.2993 -0.9535
   71SLPC   C15 6110   0.449   4.364  10.580  0.2163 -0.3862  0.8953
   71SLPC  H15A 6111   0.543   4.334  10.537  0.1971  0.1367  0.4807
   71SLPC  H15B 6112   0.379   4.396  10.504  1.4095  1.9762  0.7141
   71SLPC  H15C 6113   0.471   4.443  10.650 -2.7111 -1.0486  2.7453
   71SLPC   C12 6114   0.503   4.156  10.716 -0.1623  0.4464 -0.1787
   71SLPC  H12A 6115   0.456   4.069  10.760  1.3277 -0.7873 -0.9019
   71SLPC  H12B 6116   0.538   4.210  10.803 -0.4449 -0.6509  0.6479
   71SLPC   C11 6117   0.632   4.116  10.641  0.6024 -0.3339  1.1936
   71SLPC  H11A 6118   0.596   4.060  10.552  0.2615  0.0316  1.0985
   71SLPC  H11B 6119   0.699   4.054  10.704 -0.3355  0.4262  3.0293
   71SLPC     P 6120   0.807   4.298  10.690  0.0022  0.1928 -0.2301
   71SLPC   O13 6121   0.742   4.341  10.816  0.3506  0.0317 -0.3176
   71SLPC   O14 6122   0.916   4.205  10.704  0.0421  0.0621 -0.9715
   71SLPC   O12 6123   0.702   4.237  10.592 -0.3006  0.3049  1.0924
   71SLPC   O11 6124   0.869   4.431  10.615  0.2253 -0.1699  0.4283
   71SLPC    C1 6125   0.925   4.414  10.486 -0.3175 -0.3045  0.0983
   71SLPC    HA 6126   1.022   4.466  10.485 -0.0286 -0.8337 -0.9550
   71SLPC    HB 6127   0.950   4.308  10.460  0.7012  0.0110 -0.2544
   71SLPC    C2 6128   0.841   4.471  10.375  0.8698 -0.8311  0.2969
   71SLPC    HS 6129   0.743   4.419  10.377  0.7382 -0.6728 -0.9283
   71SLPC   O21 6130   0.903   4.460  10.246 -0.1005  0.0238 -0.1090
   71SLPC   C21 6131   0.835   4.426  10.144  0.0361  0.1692  0.1446
   71SLPC   O22 6132   0.720   4.384  10.138 -0.2384  0.8094 -0.0821
   71SLPC   C22 6133   0.925   4.445  10.027 -0.2146 -0.5921 -0.4118
   71SLPC   H2R 6134   0.856   4.446   9.940  0.2556  1.0190 -0.8078
   71SLPC   H2S 6135   0.958   4.550  10.046 -1.3081 -0.4952  1.1935
   71SLPC    C3 6136   0.813   4.619  10.406 -0.2354 -0.7203  0.4999
   71SLPC    HX 6137   0.911   4.664  10.435  1.3178 -2.4513 -1.6957
   71SLPC    HY 6138   0.750   4.634  10.496 -0.0742  0.7929  0.3897
   71SLPC   O31 6139   0.760   4.690  10.289 -0.2802 -0.7483  0.4189
   71SLPC   C31 6140   0.637   4.721  10.283  1.0605  0.2993  0.7448
   71SLPC   O32 6141   0.557   4.685  10.363 -0.5700  0.1325  0.1524
   71SLPC   C32 6142   0.603   4.785  10.146  0.2298  0.7428 -0.1892
   71SLPC   H2X 6143   0.673   4.869  10.122  1.5776  0.3156  2.0252
   71SLPC   H2Y 6144   0.494   4.800  10.136 -0.2499 -2.9531 -2.3554
   71SLPC   C23 6145   1.029   4.339  10.019 -0.0827  0.5786 -0.5441
   71SLPC   H3R 6146   0.975   4.243  10.035  1.5305 -0.3911 -0.6033
   71SLPC   H3S 6147   1.110   4.356  10.094 -0.7734  1.9422 -0.0770
   71SLPC   C24 6148   1.092   4.338   9.876 -0.7631  0.6291 -0.3584
   71SLPC   H4R 6149   1.017   4.302   9.802  0.0917  2.6047 -2.2986
   71SLPC   H4S 6150   1.189   4.284   9.870 -0.0724  1.7722  0.2028
   71SLPC   C25 6151   1.129   4.484   9.830 -0.5934  0.1795  0.6452
   71SLPC   H5R 6152   1.185   4.526   9.916  0.7863 -0.5890  0.1605
   71SLPC   H5S 6153   1.035   4.537   9.803 -1.3127 -0.8742  1.0296
   71SLPC   C26 6154   1.228   4.471   9.710  0.3593 -0.7165  0.5017
   71SLPC   H6R 6155   1.326   4.427   9.737 -0.0821 -0.4696  2.6936
   71SLPC   H6S 6156   1.255   4.575   9.680 -0.4720 -0.2402  1.3474
   71SLPC   C27 6157   1.152   4.429   9.586  1.2364 -0.4382 -0.7990
   71SLPC   H7R 6158   1.070   4.503   9.575 -0.2249 -1.9677 -0.5761
   71SLPC   H7S 6159   1.104   4.329   9.596  0.2865 -0.5330 -4.6614
   71SLPC   C28 6160   1.231   4.432   9.459 -0.4941  0.6715  0.3320
   71SLPC   H8R 6161   1.318   4.366   9.480 -1.4511 -0.9251 -0.5829
   71SLPC   H8S 6162   1.278   4.532   9.451  0.0258  0.3763 -0.3712
   71SLPC   C29 6163   1.159   4.388   9.338  0.0846 -0.7029 -0.0481
   71SLPC   H9R 6164   1.065   4.332   9.352 -0.5409  0.6022  1.1715
   71SLPC  C210 6165   1.196   4.412   9.212 -1.2561  0.3766  0.0480
   71SLPC  H10R 6166   1.132   4.382   9.127 -1.4864 -2.2788  1.0757
   71SLPC  C211 6167   1.323   4.487   9.173  0.4086 -0.1699 -0.1824
   71SLPC  H11R 6168   1.391   4.479   9.260 -1.6315  0.7022  1.5592
   71SLPC  H11S 6169   1.303   4.597   9.180  5.1246  0.8120  1.5627
   71SLPC  C212 6170   1.401   4.445   9.049 -0.2096  0.0231  0.1393
   71SLPC  H12R 6171   1.411   4.335   9.047  0.0866  0.0337  0.7332
   71SLPC  C213 6172   1.464   4.522   8.959  0.3114 -0.3220 -0.4799
   71SLPC  H13R 6173   1.520   4.477   8.875  2.4175 -1.1364  1.2614
   71SLPC  C214 6174   1.459   4.671   8.961  0.3646 -0.0957 -0.3207
   71SLPC  H14R 6175   1.411   4.710   9.053  0.4659 -1.9607  0.5772
   71SLPC  H14S 6176   1.397   4.699   8.873  0.3434 -0.8368 -0.5536
   71SLPC  C215 6177   1.597   4.726   8.939  0.9653  0.0196 -0.4651
   71SLPC  H15R 6178   1.670   4.673   9.005 -0.3762 -1.5040 -0.1340
   71SLPC  H15S 6179   1.588   4.832   8.970 -0.3724 -0.3329  0.4149
   71SLPC  C216 6180   1.629   4.716   8.793  0.4374 -0.1211 -0.1267
   71SLPC  H16R 6181   1.536   4.753   8.743  0.4797  0.0733 -0.0583
   71SLPC  H16S 6182   1.638   4.607   8.770  0.9472  0.2424 -1.7800
   71SLPC  C217 6183   1.751   4.790   8.747 -0.5206  0.3076 -0.7580
   71SLPC  H17R 6184   1.778   4.773   8.640 -0.3571  1.9043 -0.9998
   71SLPC  H17S 6185   1.838   4.748   8.802  0.2631  2.9102  0.1360
   71SLPC  C218 6186   1.749   4.940   8.775  0.9322 -0.5869  0.8380
   71SLPC  H18R 6187   1.834   4.997   8.732 -0.7828  0.9829 -0.6469
   71SLPC  H18S 6188   1.756   4.980   8.878  0.9125  1.9962 -0.0883
   71SLPC  H18T 6189   1.654   4.977   8.731  0.6903 -0.7573  1.2110
   71SLPC   C33 6190   0.627   4.679  10.035  0.0449 -0.2458 -0.4697
   71SLPC   H3X 6191   0.591   4.581  10.074  2.3098 -1.2558 -0.7130
   71SLPC   H3Y 6192   0.737   4.661  10.029  0.3240  1.3543 -0.5566
   71SLPC   C34 6193   0.564   4.721   9.899 -0.2289  0.3485  0.1087
   71SLPC   H4X 6194   0.595   4.824   9.871 -3.3362  1.2723 -0.2448
   71SLPC   H4Y 6195   0.456   4.710   9.878 -0.5031  0.3881  1.3944
   71SLPC   C35 6196   0.631   4.629   9.793 -0.3440  0.4874  0.0369
   71SLPC   H5X 6197   0.608   4.525   9.824  3.5390 -0.3949  0.3830
   71SLPC   H5Y 6198   0.739   4.655   9.788 -0.6262  1.4781 -1.4850
   71SLPC   C36 6199   0.583   4.661   9.652  0.0334  0.1481 -0.8063
   71SLPC   H6X 6200   0.588   4.769   9.626  0.8835  0.6028  1.0525
   71SLPC   H6Y 6201   0.478   4.626   9.664  0.0553  0.2324 -0.3548
   71SLPC   C37 6202   0.652   4.596   9.539 -0.1036 -0.2301 -0.2885
   71SLPC   H7X 6203   0.682   4.490   9.551 -0.9309 -0.6046 -1.3546
   71SLPC   H7Y 6204   0.743   4.651   9.507 -1.1852  0.5863 -2.1053
   71SLPC   C38 6205   0.565   4.592   9.416  0.3891 -0.9879 -0.3646
   71SLPC   H8X 6206   0.551   4.700   9.396 -0.5254 -1.3440 -1.7340
   71SLPC   H8Y 6207   0.465   4.547   9.436 -0.1285  0.9485  1.9121
   71SLPC   C39 6208   0.639   4.532   9.295 -0.2322 -0.0129 -0.2034
   71SLPC   H9X 6209   0.661   4.426   9.319 -0.7106 -0.0947 -0.1176
   71SLPC   H9Y 6210   0.738   4.577   9.271 -0.3160  1.4616  1.9315
   71SLPC  C310 6211   0.560   4.545   9.165 -0.0679 -0.0108  0.6098
   71SLPC  H10X 6212   0.529   4.648   9.139 -1.9238 -0.6130  0.2725
   71SLPC  H10Y 6213   0.472   4.480   9.185  0.9508 -1.7197 -0.2276
   71SLPC  C311 6214   0.632   4.480   9.043  0.3086  0.3834  0.2967
   71SLPC  H11X 6215   0.645   4.372   9.064  2.0727  0.3767 -0.6155
   71SLPC  H11Y 6216   0.731   4.529   9.034 -0.5784  2.1588 -0.2785
   71SLPC  C312 6217   0.555   4.488   8.912  0.7171 -0.1517 -1.0913
   71SLPC  H12X 6218   0.540   4.595   8.887  0.8391  0.0623 -0.2560
   71SLPC  H12Y 6219   0.453   4.447   8.927  0.7969 -0.3561 -1.0996
   71SLPC  C313 6220   0.624   4.414   8.799 -0.1133 -0.2884 -0.6650
   71SLPC  H13X 6221   0.648   4.311   8.835 -0.8198 -0.7747 -1.5397
   71SLPC  H13Y 6222   0.708   4.478   8.765 -0.8213  0.7734 -0.4461
   71SLPC  C314 6223   0.524   4.400   8.683 -0.8243 -0.4346  0.4006
   71SLPC  H14X 6224   0.421   4.368   8.707 -1.6937  1.3933 -0.6848
   71SLPC  H14Y 6225   0.576   4.332   8.613  1.7725  1.6576  0.1108
   71SLPC  C315 6226   0.503   4.531   8.604 -0.5519 -0.2478  0.8917
   71SLPC  H15X 6227   0.604   4.574   8.588  0.0432 -1.7958  0.3246
   71SLPC  H15Y 6228   0.444   4.590   8.678 -1.8728  1.2563 -1.2527
   71SLPC  C316 6229   0.423   4.514   8.472  1.2600  0.5885 -0.0604
   71SLPC  H16X 6230   0.486   4.457   8.401  0.5988  1.6952 -1.5843
   71SLPC  H16Y 6231   0.410   4.622   8.447  1.9112  0.6650 -0.1046
   71SLPC  C317 6232   0.281   4.448   8.491 -0.7298 -0.5153  0.4147
   71SLPC  H17X 6233   0.239   4.496   8.582  2.5620  0.0327  1.7642
   71SLPC  H17Y 6234   0.290   4.339   8.507  0.0053 -0.8295 -1.7115
   71SLPC  C318 6235   0.177   4.468   8.373 -1.3403 -0.0177 -1.1884
   71SLPC  H18X 6236   0.152   4.573   8.343 -0.1227  0.5521 -0.2788
   71SLPC  H18Y 6237   0.084   4.412   8.395 -0.3220 -1.2645  0.1218
   71SLPC  H18Z 6238   0.217   4.419   8.283  0.5999 -1.6108  0.4591
   72SLPC     N 6239   0.891   3.937  11.092  0.5791 -0.0727 -0.3290
   72SLPC   C13 6240   0.897   4.091  11.121  0.9146  0.4749 -0.0592
   72SLPC  H13A 6241   0.897   4.103  11.228  0.5981 -2.1922  0.3106
   72SLPC  H13B 6242   0.990   4.130  11.081  1.0838  1.2957  1.0678
   72SLPC  H13C 6243   0.818   4.145  11.071  0.6963  1.1686  0.9949
   72SLPC   C14 6244   0.776   3.878  11.162 -1.1220  0.5400  0.0779
   72SLPC  H14A 6245   0.782   3.771  11.153  0.8520  0.6303  0.0157
   72SLPC  H14B 6246   0.764   3.899  11.268  2.3222 -0.7880  0.8499
   72SLPC  H14C 6247   0.678   3.892  11.118 -1.0896  0.3916 -0.0421
   72SLPC   C15 6248   1.016   3.875  11.144  0.0942 -0.1329  0.5215
   72SLPC  H15A 6249   1.016   3.880  11.252  2.3944  1.5077  0.5219
   72SLPC  H15B 6250   1.040   3.776  11.108 -0.2465 -0.4220  1.0764
   72SLPC  H15C 6251   1.105   3.931  11.121  0.4820 -1.4328 -1.3235
   72SLPC   C12 6252   0.883   3.914  10.945 -0.0063  0.2683  0.6687
   72SLPC  H12A 6253   0.970   3.954  10.896 -0.5408  0.2718 -0.3176
   72SLPC  H12B 6254   0.802   3.970  10.901  0.0735 -0.5764 -0.6304
   72SLPC   C11 6255   0.848   3.771  10.881 -0.4923 -0.0032  0.1904
   72SLPC  H11A 6256   0.916   3.695  10.924 -2.0086 -0.8359  1.2194
   72SLPC  H11B 6257   0.871   3.794  10.775  0.6516  3.5022  1.0578
   72SLPC     P 6258   0.580   3.789  10.859 -0.3954  0.3906  0.0724
   72SLPC   O13 6259   0.464   3.703  10.880 -1.1898 -0.0961 -0.5976
   72SLPC   O14 6260   0.572   3.928  10.901 -0.0714 -0.3728  0.5691
   72SLPC   O12 6261   0.714   3.734  10.916  0.5502  0.2390 -0.0965
   72SLPC   O11 6262   0.612   3.799  10.701 -0.2790  0.5766 -0.1437
   72SLPC    C1 6263   0.651   3.676  10.627  1.2988 -0.7497 -0.0928
   72SLPC    HA 6264   0.751   3.638  10.655  1.2878 -1.1672 -0.5954
   72SLPC    HB 6265   0.575   3.601  10.659  1.0946 -0.6677 -0.3789
   72SLPC    C2 6266   0.652   3.701  10.475 -0.6324  0.6976  1.4056
   72SLPC    HS 6267   0.723   3.627  10.434  1.5712  2.4775  1.8619
   72SLPC   O21 6268   0.687   3.835  10.436  0.3994  0.6317  0.2124
   72SLPC   C21 6269   0.820   3.849  10.458 -0.7433 -0.1571 -0.2899
   72SLPC   O22 6270   0.894   3.761  10.501  0.0555  0.1416  0.6514
   72SLPC   C22 6271   0.874   3.996  10.444  0.2171  0.6362  0.9778
   72SLPC   H2R 6272   0.786   4.062  10.435 -0.5913 -0.5113  0.1344
   72SLPC   H2S 6273   0.933   4.017  10.536  4.0228 -0.3569 -1.0214
   72SLPC    C3 6274   0.516   3.657  10.415 -0.1483  1.0036 -0.1949
   72SLPC    HX 6275   0.433   3.700  10.475 -1.5650 -1.9804  0.1126
   72SLPC    HY 6276   0.502   3.548  10.427 -0.4763  1.1481  0.7958
   72SLPC   O31 6277   0.507   3.687  10.275  0.3552 -0.6269 -0.0880
   72SLPC   C31 6278   0.584   3.609  10.198  0.2172 -0.6786  0.4865
   72SLPC   O32 6279   0.638   3.506  10.231  0.6520 -0.1917 -0.5385
   72SLPC   C32 6280   0.605   3.670  10.062  1.1084 -0.8357  0.0976
   72SLPC   H2X 6281   0.710   3.704  10.058  0.8951 -0.0752  0.7169
   72SLPC   H2Y 6282   0.541   3.760  10.049 -1.2036 -2.3540  0.2110
   72SLPC   C23 6283   0.980   4.002  10.331 -0.0337 -0.2525  0.3935
   72SLPC   H3R 6284   1.077   3.954  10.356 -0.8443 -3.8367 -2.4898
   72SLPC   H3S 6285   0.996   4.110  10.311  0.3016 -0.2215  0.8081
   72SLPC   C24 6286   0.930   3.942  10.199 -1.1440 -1.0688  0.2096
   72SLPC   H4R 6287   0.925   3.833  10.216  3.0620 -1.9047 -2.3188
   72SLPC   H4S 6288   1.014   3.948  10.126  1.2650 -1.2700  2.7997
   72SLPC   C25 6289   0.797   4.001  10.154 -0.1017  0.1336 -0.1858
   72SLPC   H5R 6290   0.789   4.107  10.185 -0.1552  0.5752 -1.6222
   72SLPC   H5S 6291   0.719   3.942  10.207  1.6931 -3.4126 -1.1859
   72SLPC   C26 6292   0.775   4.005  10.000  0.5348 -0.6101  0.2903
   72SLPC   H6R 6293   0.766   3.902   9.959 -2.0084 -0.4749  0.3644
   72SLPC   H6S 6294   0.853   4.061   9.944 -0.3359 -0.3626 -0.7193
   72SLPC   C27 6295   0.643   4.081   9.972  0.0047 -1.8331  0.1365
   72SLPC   H7R 6296   0.638   4.175  10.032 -1.8233  0.2131 -2.9035
   72SLPC   H7S 6297   0.554   4.029  10.013 -0.9708  0.5274  1.2070
   72SLPC   C28 6298   0.626   4.127   9.824  0.2173  0.8849 -0.9580
   72SLPC   H8R 6299   0.711   4.195   9.804 -0.0039  1.2491 -0.6768
   72SLPC   H8S 6300   0.532   4.185   9.813 -0.5490  0.0266  0.5894
   72SLPC   C29 6301   0.615   4.000   9.737 -0.3729  0.2171  0.4960
   72SLPC   H9R 6302   0.546   3.923   9.774 -0.4429  0.7058  1.4319
   72SLPC  C210 6303   0.697   3.969   9.633 -0.8842  0.6165 -0.0637
   72SLPC  H10R 6304   0.682   3.880   9.570  0.1961  2.6902 -3.4932
   72SLPC  C211 6305   0.818   4.051   9.589 -0.0476  0.1775 -0.0154
   72SLPC  H11R 6306   0.875   4.070   9.682 -1.7212 -0.5279  1.2099
   72SLPC  H11S 6307   0.777   4.149   9.558  0.9873  0.4402 -0.5942
   72SLPC  C212 6308   0.891   3.979   9.483  0.5755  0.1247 -0.0163
   72SLPC  H12R 6309   0.942   3.889   9.520  2.7205  1.4219  0.3427
   72SLPC  C213 6310   0.884   4.012   9.351  0.2139  0.2210  0.1913
   72SLPC  H13R 6311   0.944   3.942   9.291  0.1897 -0.7551  1.2749
   72SLPC  C214 6312   0.811   4.134   9.291  0.1394 -0.3092 -0.1289
   72SLPC  H14R 6313   0.866   4.182   9.207 -1.2809  1.2593 -0.2152
   72SLPC  H14S 6314   0.805   4.218   9.363  3.2937 -0.5148  0.5436
   72SLPC  C215 6315   0.674   4.096   9.241  0.3317  0.1758  0.4063
   72SLPC  H15R 6316   0.636   4.199   9.222  0.9623  0.0986 -1.4962
   72SLPC  H15S 6317   0.608   4.049   9.317 -0.5887  0.8950  0.0814
   72SLPC  C216 6318   0.670   4.031   9.099 -0.1006  0.0818 -0.3920
   72SLPC  H16R 6319   0.745   3.949   9.107  0.5307  0.6949  0.0250
   72SLPC  H16S 6320   0.704   4.105   9.024 -1.7575  0.1470 -1.1085
   72SLPC  C217 6321   0.535   3.979   9.064  0.4272  0.3148 -0.8242
   72SLPC  H17R 6322   0.465   4.064   9.080 -1.0783 -0.9055 -0.7564
   72SLPC  H17S 6323   0.507   3.894   9.129  3.3047 -1.8586 -2.1435
   72SLPC  C218 6324   0.516   3.935   8.918 -0.4774  0.0663  0.4123
   72SLPC  H18R 6325   0.409   3.912   8.899 -0.4912 -0.5333  1.1589
   72SLPC  H18S 6326   0.583   3.861   8.870 -1.3932 -0.5609  0.0718
   72SLPC  H18T 6327   0.532   4.024   8.854 -2.0716  0.3676  0.4081
   72SLPC   C33 6328   0.596   3.571   9.942  0.4457 -0.2017 -0.7063
   72SLPC   H3X 6329   0.493   3.529   9.940  0.3782 -0.1597  0.6167
   72SLPC   H3Y 6330   0.661   3.487   9.975  1.4318  0.7307 -0.1973
   72SLPC   C34 6331   0.625   3.627   9.805 -0.2014  0.0572 -0.0356
   72SLPC   H4X 6332   0.733   3.652   9.802  0.4749 -2.5043  0.1076
   72SLPC   H4Y 6333   0.579   3.724   9.776 -1.4070 -0.7410 -0.8870
   72SLPC   C35 6334   0.590   3.530   9.698  0.3249  0.2830  0.4514
   72SLPC   H5X 6335   0.482   3.508   9.712  0.4578 -1.1954 -0.5331
   72SLPC   H5Y 6336   0.655   3.439   9.703  0.6144  0.5246  1.1829
   72SLPC   C36 6337   0.600   3.591   9.552 -0.3102 -0.3771  0.8816
   72SLPC   H6X 6338   0.706   3.622   9.538 -0.2497 -0.2641  1.5542
   72SLPC   H6Y 6339   0.539   3.684   9.552  3.0146  1.9853  0.7897
   72SLPC   C37 6340   0.543   3.491   9.450  0.0608 -0.7987  0.4932
   72SLPC   H7X 6341   0.440   3.464   9.482 -0.8394 -1.0427 -2.2885
   72SLPC   H7Y 6342   0.597   3.395   9.436  0.0420 -0.7071 -0.2794
   72SLPC   C38 6343   0.529   3.546   9.298 -0.6896  0.6020  0.1078
   72SLPC   H8X 6344   0.623   3.532   9.241 -0.7787  1.1299 -0.1773
   72SLPC   H8Y 6345   0.501   3.654   9.309 -2.0548  0.3236 -0.3801
   72SLPC   C39 6346   0.419   3.479   9.225  0.0008  0.4723 -0.5426
   72SLPC   H9X 6347   0.319   3.489   9.272  0.3337 -0.3808  0.3675
   72SLPC   H9Y 6348   0.448   3.372   9.237 -0.0316  0.6939  1.8497
   72SLPC  C310 6349   0.401   3.512   9.076  0.3081 -0.2253  0.1978
   72SLPC  H10X 6350   0.359   3.614   9.064  0.4038 -0.3970 -2.1027
   72SLPC  H10Y 6351   0.328   3.439   9.036 -0.3926  0.3530  0.4171
   72SLPC  C311 6352   0.531   3.516   8.987 -0.4700 -0.2774  0.7390
   72SLPC  H11X 6353   0.588   3.426   9.021 -0.2535  0.2150  1.7250
   72SLPC  H11Y 6354   0.596   3.601   9.016 -1.5421  0.7027  0.3224
   72SLPC  C312 6355   0.515   3.511   8.832  0.1321  0.2186  0.4238
   72SLPC  H12X 6356   0.463   3.606   8.807  1.7424  0.6729 -1.4708
   72SLPC  H12Y 6357   0.457   3.422   8.801  2.2058 -0.6741 -1.1435
   72SLPC  C313 6358   0.649   3.507   8.752  0.3293  0.3071 -0.0158
   72SLPC  H13X 6359   0.683   3.403   8.772 -2.5375 -0.8805 -0.7742
   72SLPC  H13Y 6360   0.720   3.573   8.805  0.8832 -0.2420 -0.0624
   72SLPC  C314 6361   0.633   3.539   8.602 -0.1583 -0.2313 -0.0811
   72SLPC  H14X 6362   0.584   3.637   8.584 -0.8685 -0.5785 -0.0831
   72SLPC  H14Y 6363   0.557   3.473   8.556  1.0646 -1.3200 -0.5908
   72SLPC  C315 6364   0.758   3.526   8.530 -0.0970  0.1695  0.3611
   72SLPC  H15X 6365   0.749   3.541   8.420 -0.3995  0.0095  0.3634
   72SLPC  H15Y 6366   0.794   3.421   8.534 -0.1357 -0.0279 -2.4724
   72SLPC  C316 6367   0.876   3.613   8.585  0.5987  0.5136 -0.8691
   72SLPC  H16X 6368   0.908   3.580   8.686  0.5769  1.3656 -0.5784
   72SLPC  H16Y 6369   0.839   3.718   8.586  1.3464  0.7782 -0.0045
   72SLPC  C317 6370   1.005   3.593   8.496  0.8447 -0.5112  0.4412
   72SLPC  H17X 6371   0.977   3.630   8.396  0.1658 -2.1150  0.0086
   72SLPC  H17Y 6372   1.026   3.484   8.483 -0.1330 -0.7939  1.0903
   72SLPC  C318 6373   1.119   3.665   8.562 -0.1158 -0.5866  0.3363
   72SLPC  H18X 6374   1.152   3.632   8.663  0.1655 -1.2229  0.0403
   72SLPC  H18Y 6375   1.092   3.773   8.564  1.0897 -0.2547 -0.6058
   72SLPC  H18Z 6376   1.206   3.662   8.493 -0.7444  1.8491 -0.6871
   73SLPC     N 6377   1.995   6.187  10.920 -0.1100 -0.6104 -0.5610
   73SLPC   C13 6378   1.985   6.312  11.013  0.8235  0.2336  0.4447
   73SLPC  H13A 6379   2.011   6.404  10.962  1.6725 -0.4211 -0.3461
   73SLPC  H13B 6380   1.878   6.309  11.023  0.2435  0.6365 -3.6856
   73SLPC  H13C 6381   2.039   6.301  11.106  1.5557  2.2466  0.3125
   73SLPC   C14 6382   1.889   6.201  10.817 -0.0524  0.1637  0.2527
   73SLPC  H14A 6383   1.794   6.196  10.868 -0.1448  0.2897  0.0962
   73SLPC  H14B 6384   1.893   6.299  10.772 -3.0607  0.1930 -0.1302
   73SLPC  H14C 6385   1.891   6.138  10.729 -0.4414  1.2291 -0.5425
   73SLPC   C15 6386   1.957   6.065  10.997 -0.1210 -0.3643  0.0382
   73SLPC  H15A 6387   1.852   6.071  11.022 -0.6437 -2.9337 -1.1915
   73SLPC  H15B 6388   1.969   5.979  10.932  0.1010 -0.6520  0.4516
   73SLPC  H15C 6389   2.007   6.050  11.092 -0.0848  1.3510  0.3185
   73SLPC   C12 6390   2.132   6.166  10.863 -0.2066 -0.2059 -0.6904
   73SLPC  H12A 6391   2.144   6.063  10.833  1.4993  0.1487 -1.3576
   73SLPC  H12B 6392   2.207   6.187  10.938 -1.5747 -0.0006  0.6432
   73SLPC   C11 6393   2.174   6.249  10.736  0.2726 -0.0592  0.1238
   73SLPC  H11A 6394   2.108   6.216  10.653 -0.6654  0.0520  0.8169
   73SLPC  H11B 6395   2.275   6.217  10.701  0.5159  0.5718  0.2252
   73SLPC     P 6396   2.288   6.474  10.812  0.0243  0.1723 -0.1597
   73SLPC   O13 6397   2.231   6.605  10.836  0.1537 -0.2644  0.0019
   73SLPC   O14 6398   2.358   6.415  10.924  1.1596 -0.2724 -0.2911
   73SLPC   O12 6399   2.170   6.388  10.756 -0.3802 -0.0775  0.2652
   73SLPC   O11 6400   2.390   6.475  10.696  0.2420 -0.2794 -0.1419
   73SLPC    C1 6401   2.352   6.522  10.561  0.1755  0.4239  0.5620
   73SLPC    HA 6402   2.245   6.511  10.532  0.4643  0.1228 -0.4080
   73SLPC    HB 6403   2.367   6.632  10.548 -0.2567  0.2685 -1.5297
   73SLPC    C2 6404   2.432   6.442  10.452 -0.2067  0.2522  0.0956
   73SLPC    HS 6405   2.380   6.350  10.419  0.4517 -0.6790  1.5678
   73SLPC   O21 6406   2.570   6.412  10.486  0.1399 -0.5758  0.0222
   73SLPC   C21 6407   2.590   6.288  10.521  0.3365 -0.1801 -0.4883
   73SLPC   O22 6408   2.509   6.197  10.523  1.3733 -0.8544  0.2821
   73SLPC   C22 6409   2.747   6.278  10.539  0.0241  0.2837 -0.4799
   73SLPC   H2R 6410   2.784   6.382  10.530 -1.3623  0.6922 -1.8967
   73SLPC   H2S 6411   2.759   6.234  10.640 -1.2702  0.6501 -0.1517
   73SLPC    C3 6412   2.425   6.544  10.332  0.4548  0.3064 -0.7850
   73SLPC    HX 6413   2.473   6.640  10.358 -0.6828  1.4517 -2.6455
   73SLPC    HY 6414   2.320   6.581  10.325  0.4201  0.0496 -1.7568
   73SLPC   O31 6415   2.473   6.493  10.208 -0.2244  0.0163 -0.5116
   73SLPC   C31 6416   2.599   6.494  10.178  0.0167 -0.2876  0.4897
   73SLPC   O32 6417   2.694   6.535  10.245 -0.1274 -0.6333 -0.0707
   73SLPC   C32 6418   2.620   6.449  10.027  0.5256 -0.2783 -0.4072
   73SLPC   H2X 6419   2.533   6.495   9.974  1.4638 -0.2735 -1.9780
   73SLPC   H2Y 6420   2.591   6.342  10.031  1.6710 -0.5625  1.3129
   73SLPC   C23 6421   2.807   6.173  10.441 -0.2816 -0.0253 -0.3939
   73SLPC   H3R 6422   2.731   6.093  10.426  0.6798 -1.0427  0.0336
   73SLPC   H3S 6423   2.891   6.130  10.500  0.8710  1.2352 -1.0506
   73SLPC   C24 6424   2.854   6.225  10.308  0.0941  0.2424 -0.3292
   73SLPC   H4R 6425   2.934   6.302  10.319  2.0905 -1.8077  0.2641
   73SLPC   H4S 6426   2.772   6.275  10.253 -2.6914 -0.8156  2.5386
   73SLPC   C25 6427   2.907   6.124  10.203 -0.2685  0.7539 -0.0666
   73SLPC   H5R 6428   2.829   6.067  10.148 -0.3093 -0.4253  1.1676
   73SLPC   H5S 6429   2.969   6.045  10.251 -1.5567 -0.1588  0.1575
   73SLPC   C26 6430   3.001   6.191  10.104  0.3053  0.4141 -0.0651
   73SLPC   H6R 6431   3.086   6.252  10.142 -0.8685  1.9146  0.2508
   73SLPC   H6S 6432   2.939   6.255  10.037 -0.2144 -0.2320 -0.2074
   73SLPC   C27 6433   3.064   6.085  10.008 -0.5006  0.5041  0.6613
   73SLPC   H7R 6434   3.000   6.000   9.977  2.6577 -0.9800 -2.4867
   73SLPC   H7S 6435   3.149   6.044  10.066 -1.4954 -3.4121 -0.3349
   73SLPC   C28 6436   3.113   6.140   9.869 -0.6308 -0.1047  0.5757
   73SLPC   H8R 6437   3.169   6.233   9.893 -0.4741  0.6687 -2.3860
   73SLPC   H8S 6438   3.019   6.178   9.822  0.3008  1.7108  0.0824
   73SLPC   C29 6439   3.201   6.047   9.786 -0.0259  0.2595 -0.5178
   73SLPC   H9R 6440   3.262   5.983   9.852  1.3247  1.4127 -0.5931
   73SLPC  C210 6441   3.228   6.028   9.656 -0.2903 -0.5819  0.5812
   73SLPC  H10R 6442   3.284   5.943   9.614 -2.2258 -1.6787  0.0908
   73SLPC  C211 6443   3.163   6.127   9.560  0.4126  0.5476 -0.0787
   73SLPC  H11R 6444   3.247   6.196   9.538  0.2863  1.1259  1.1950
   73SLPC  H11S 6445   3.082   6.189   9.605  0.3282 -0.9983  2.0565
   73SLPC  C212 6446   3.112   6.073   9.432 -0.5579  0.0455  0.2270
   73SLPC  H12R 6447   3.013   6.024   9.429 -0.7141  0.2531  1.4219
   73SLPC  C213 6448   3.171   6.071   9.315  0.3068 -0.3855  0.7169
   73SLPC  H13R 6449   3.127   6.016   9.231 -0.0105  0.1400  0.5341
   73SLPC  C214 6450   3.306   6.126   9.269  0.3055 -0.0176 -0.0655
   73SLPC  H14R 6451   3.376   6.113   9.355  0.2168 -2.9172 -0.3153
   73SLPC  H14S 6452   3.294   6.235   9.257  1.5035  0.4394  2.2264
   73SLPC  C215 6453   3.367   6.067   9.138  0.3774 -0.1332 -1.0194
   73SLPC  H15R 6454   3.469   6.111   9.134 -0.5652  2.2833 -0.1709
   73SLPC  H15S 6455   3.304   6.104   9.055 -0.7262  1.8385  0.6124
   73SLPC  C216 6456   3.380   5.911   9.143  0.5062 -0.0678 -0.0975
   73SLPC  H16R 6457   3.276   5.874   9.135 -0.3846  1.7028  2.2733
   73SLPC  H16S 6458   3.400   5.875   9.245  1.2346 -0.5689 -0.4101
   73SLPC  C217 6459   3.483   5.852   9.044  0.4493 -0.3141 -0.4346
   73SLPC  H17R 6460   3.467   5.890   8.941  3.2451  0.6687 -0.5868
   73SLPC  H17S 6461   3.466   5.742   9.050  2.3174 -0.7528 -2.1024
   73SLPC  C218 6462   3.626   5.895   9.084 -0.4140 -0.1999  0.0940
   73SLPC  H18R 6463   3.646   5.993   9.036  2.7743  0.2234  1.9656
   73SLPC  H18S 6464   3.698   5.814   9.058  1.2062 -0.6741  4.9782
   73SLPC  H18T 6465   3.644   5.907   9.193 -2.1608 -0.0310  0.3900
   73SLPC   C33 6466   2.762   6.461   9.963  0.1052  0.0374  0.1381
   73SLPC   H3X 6467   2.828   6.437  10.049 -1.3261 -2.4043  0.6453
   73SLPC   H3Y 6468   2.779   6.565   9.927  1.4331  0.1805  1.0964
   73SLPC   C34 6469   2.794   6.382   9.836  0.5902 -0.7017  0.1629
   73SLPC   H4X 6470   2.768   6.275   9.851 -0.2612 -0.3875  0.9833
   73SLPC   H4Y 6471   2.902   6.390   9.813  0.6333  2.3594  1.0045
   73SLPC   C35 6472   2.730   6.448   9.708 -0.0862  0.6987  0.0462
   73SLPC   H5X 6473   2.737   6.558   9.717  1.6492  0.6701 -0.3800
   73SLPC   H5Y 6474   2.626   6.410   9.704  1.2002 -3.2498 -1.2658
   73SLPC   C36 6475   2.800   6.415   9.576  0.6446  0.3319 -0.1097
   73SLPC   H6X 6476   2.813   6.306   9.563 -0.6592  0.3182 -1.6074
   73SLPC   H6Y 6477   2.903   6.455   9.591  1.4947 -1.5010 -0.7266
   73SLPC   C37 6478   2.737   6.477   9.457  0.0695 -0.8775 -0.5960
   73SLPC   H7X 6479   2.701   6.581   9.474  0.4341 -0.7600 -0.5347
   73SLPC   H7Y 6480   2.655   6.417   9.413  1.0955 -2.0314 -0.9677
   73SLPC   C38 6481   2.836   6.495   9.343  0.5837  0.2930  0.4989
   73SLPC   H8X 6482   2.884   6.400   9.309  0.5736  0.9975 -1.6470
   73SLPC   H8Y 6483   2.922   6.550   9.386  0.3105 -0.8186  2.5896
   73SLPC   C39 6484   2.788   6.575   9.216 -0.1196 -0.0817 -0.0375
   73SLPC   H9X 6485   2.731   6.663   9.252  0.5134 -0.2912  1.5278
   73SLPC   H9Y 6486   2.718   6.507   9.163 -0.5981  0.6642 -0.3827
   73SLPC  C310 6487   2.896   6.623   9.112 -0.7149  0.1415 -0.8797
   73SLPC  H10X 6488   2.960   6.695   9.168 -0.9167 -1.5909  1.7822
   73SLPC  H10Y 6489   2.849   6.686   9.034 -0.1651 -0.1265 -1.4396
   73SLPC  C311 6490   2.981   6.515   9.042  0.0864 -0.2145 -0.3382
   73SLPC  H11X 6491   3.016   6.445   9.121 -2.0058  0.8616  1.6769
   73SLPC  H11Y 6492   3.073   6.566   9.006  2.3507 -0.5425  4.1908
   73SLPC  C312 6493   2.909   6.450   8.914  0.0152  0.0892  0.4619
   73SLPC  H12X 6494   2.870   6.536   8.855 -0.7492 -0.3470  0.3143
   73SLPC  H12Y 6495   2.825   6.382   8.939  0.4099 -1.6908 -2.5382
   73SLPC  C313 6496   3.017   6.369   8.836  0.4003  0.1453 -0.1965
   73SLPC  H13X 6497   2.999   6.260   8.844  0.0639  0.2658  0.7168
   73SLPC  H13Y 6498   3.121   6.381   8.872  0.9636  0.5607 -1.8576
   73SLPC  C314 6499   3.014   6.406   8.692  0.0434 -0.1578 -0.0122
   73SLPC  H14X 6500   3.045   6.512   8.686  1.2756 -0.3826  1.6027
   73SLPC  H14Y 6501   2.907   6.406   8.661  0.2240  0.2141 -0.6434
   73SLPC  C315 6502   3.101   6.313   8.607  0.1339 -0.5307  0.7653
   73SLPC  H15X 6503   3.051   6.214   8.600  2.3252 -1.6291 -0.8538
   73SLPC  H15Y 6504   3.199   6.306   8.658  0.5380  0.0549  0.0848
   73SLPC  C316 6505   3.121   6.359   8.460  0.2457 -0.0888  0.3510
   73SLPC  H16X 6506   3.178   6.283   8.403  1.2745  1.4028 -0.6835
   73SLPC  H16Y 6507   3.174   6.457   8.453  0.0460 -0.0938 -2.7925
   73SLPC  C317 6508   2.987   6.390   8.379 -0.3354  0.5442  0.2208
   73SLPC  H17X 6509   2.922   6.469   8.422 -1.3544 -0.3630  0.3770
   73SLPC  H17Y 6510   2.936   6.292   8.368  1.3336 -0.2887 -0.4987
   73SLPC  C318 6511   3.021   6.449   8.242  0.6482  0.0532  0.7580
   73SLPC  H18X 6512   3.104   6.391   8.197 -0.2478 -0.6638 -0.0292
   73SLPC  H18Y 6513   3.043   6.557   8.234 -2.8688  0.8341 -0.4826
   73SLPC  H18Z 6514   2.934   6.424   8.176  2.8275 -1.7585 -1.6358
   74SLPC     N 6515   4.986   2.428  10.899  0.3077  0.3108 -0.2349
   74SLPC   C13 6516   4.870   2.524  10.911 -0.6476 -0.5190  0.3253
   74SLPC  H13A 6517   4.868   2.554  11.014  0.9363  0.3924  0.1292
   74SLPC  H13B 6518   4.881   2.619  10.860  1.4577 -0.6930  0.3471
   74SLPC  H13C 6519   4.774   2.479  10.888 -1.4109  0.3653  1.6745
   74SLPC   C14 6520   4.947   2.310  10.987 -0.3659  0.2333 -0.1147
   74SLPC  H14A 6521   4.850   2.272  10.957 -0.1066 -1.3442  0.9307
   74SLPC  H14B 6522   5.012   2.225  10.973 -1.1835 -0.4083 -0.1285
   74SLPC  H14C 6523   4.950   2.333  11.092  1.7081 -1.4631  0.2762
   74SLPC   C15 6524   5.111   2.494  10.951  0.0443 -0.1249  0.0841
   74SLPC  H15A 6525   5.191   2.422  10.967 -0.5789 -0.5502  1.4352
   74SLPC  H15B 6526   5.141   2.574  10.885  4.4493 -1.0904  0.5677
   74SLPC  H15C 6527   5.088   2.535  11.048 -0.9555  1.7260 -0.8960
   74SLPC   C12 6528   5.001   2.383  10.757 -0.0807 -0.0173 -0.7916
   74SLPC  H12A 6529   5.027   2.468  10.696  1.8084  0.5442  0.7049
   74SLPC  H12B 6530   4.914   2.341  10.709  0.0546 -0.7098 -0.4486
   74SLPC   C11 6531   5.105   2.270  10.721  0.7160 -0.3151 -0.7908
   74SLPC  H11A 6532   5.204   2.309  10.752 -0.3759  2.7145 -0.8239
   74SLPC  H11B 6533   5.107   2.261  10.610 -1.6505 -0.7492 -0.8459
   74SLPC     P 6534   4.972   2.038  10.732 -0.1129 -0.0588  0.0893
   74SLPC   O13 6535   4.961   1.923  10.821  0.4751 -0.3002 -0.6918
   74SLPC   O14 6536   4.843   2.110  10.691 -0.2839  0.7274 -0.1919
   74SLPC   O12 6537   5.080   2.142  10.793  0.5012 -0.7453  0.2327
   74SLPC   O11 6538   5.046   1.992  10.605 -0.2032 -0.0358 -0.6897
   74SLPC    C1 6539   5.053   2.049  10.477 -0.1525 -0.4871 -0.3690
   74SLPC    HA 6540   5.001   2.147  10.477  0.8940  0.0827  0.4424
   74SLPC    HB 6541   5.158   2.065  10.447  0.2892 -0.4894  1.0747
   74SLPC    C2 6542   4.981   1.961  10.375  0.3735  0.1858  0.3794
   74SLPC    HS 6543   4.892   1.921  10.429 -0.7147 -0.2778 -1.6449
   74SLPC   O21 6544   5.060   1.864  10.310 -0.0416 -0.3104  0.2112
   74SLPC   C21 6545   4.983   1.764  10.262 -0.6203  0.4181 -0.0356
   74SLPC   O22 6546   4.864   1.755  10.283  0.1446 -0.1188  0.0365
   74SLPC   C22 6547   5.070   1.673  10.179  0.0049 -0.3164  0.4755
   74SLPC   H2R 6548   5.143   1.734  10.121 -1.3986  0.7620 -0.2217
   74SLPC   H2S 6549   5.133   1.613  10.248  0.9206 -0.7450 -0.6934
   74SLPC    C3 6550   4.925   2.060  10.266  0.1844  0.2127 -0.2407
   74SLPC    HX 6551   4.865   2.144  10.306 -1.1623 -0.2711 -1.1616
   74SLPC    HY 6552   4.860   2.004  10.194  0.2380  1.0536 -0.9692
   74SLPC   O31 6553   5.030   2.123  10.191  0.1177  0.2838 -0.5980
   74SLPC   C31 6554   5.052   2.085  10.067 -0.2720  0.0996  0.4990
   74SLPC   O32 6555   4.975   2.019  10.003  0.7506 -0.0507  0.1703
   74SLPC   C32 6556   5.191   2.131  10.017 -0.2269 -0.1502  0.2344
   74SLPC   H2X 6557   5.255   2.057  10.070 -0.2475 -0.0022  0.4711
   74SLPC   H2Y 6558   5.211   2.225  10.074 -0.0597 -0.4951  0.7498
   74SLPC   C23 6559   5.005   1.571  10.097  0.9439  0.0923 -0.0621
   74SLPC   H3R 6560   4.931   1.510  10.153 -1.0894  1.9974 -0.4951
   74SLPC   H3S 6561   5.076   1.497  10.057  1.4589  0.4986  0.0931
   74SLPC   C24 6562   4.931   1.639   9.982 -0.0896  1.1414 -0.7505
   74SLPC   H4R 6563   4.890   1.733  10.026  1.8295  0.5632  2.6487
   74SLPC   H4S 6564   4.850   1.576   9.941  0.0482  0.8486 -0.5745
   74SLPC   C25 6565   5.025   1.646   9.863 -0.3475 -0.5053 -0.3056
   74SLPC   H5R 6566   5.101   1.564   9.859  0.0656 -0.4102  3.0254
   74SLPC   H5S 6567   5.078   1.742   9.879 -0.8646 -0.2895  0.1311
   74SLPC   C26 6568   4.957   1.649   9.718 -0.7401  0.1370 -0.4561
   74SLPC   H6R 6569   4.867   1.714   9.723 -0.8606 -0.1267  2.4470
   74SLPC   H6S 6570   4.911   1.550   9.704 -1.0054  0.1424  0.3135
   74SLPC   C27 6571   5.053   1.696   9.605  1.0234  0.2806 -0.0088
   74SLPC   H7R 6572   5.158   1.667   9.626  0.3656 -2.0407  0.3797
   74SLPC   H7S 6573   5.048   1.807   9.607 -2.1823  0.2262  1.2178
   74SLPC   C28 6574   5.026   1.645   9.465 -0.0477 -0.3935 -0.1755
   74SLPC   H8R 6575   5.085   1.710   9.397 -1.7093  0.3194 -1.0056
   74SLPC   H8S 6576   4.918   1.660   9.443 -0.0757 -2.6052 -1.8681
   74SLPC   C29 6577   5.064   1.509   9.438 -0.2039  0.2126  0.8278
   74SLPC   H9R 6578   5.163   1.481   9.477 -0.1322 -3.4643 -1.5048
   74SLPC  C210 6579   4.992   1.418   9.370 -0.2962 -0.1489 -0.4979
   74SLPC  H10R 6580   5.039   1.319   9.364 -0.6083 -0.3313 -0.0687
   74SLPC  C211 6581   4.855   1.429   9.307 -0.2114 -0.8619  0.0188
   74SLPC  H11R 6582   4.868   1.475   9.206 -2.4150  1.3754  0.6514
   74SLPC  H11S 6583   4.796   1.510   9.354  0.1775  0.0386 -0.9940
   74SLPC  C212 6584   4.786   1.290   9.300  1.1298  0.3138 -0.0246
   74SLPC  H12R 6585   4.761   1.250   9.201 -1.1177 -1.8029  1.2793
   74SLPC  C213 6586   4.733   1.228   9.407  0.5573 -0.9500 -0.1723
   74SLPC  H13R 6587   4.678   1.134   9.397 -0.9261 -0.0544 -0.8525
   74SLPC  C214 6588   4.736   1.287   9.547 -0.2124  0.1431  0.4237
   74SLPC  H14R 6589   4.631   1.316   9.566 -0.1537  2.7625 -2.5314
   74SLPC  H14S 6590   4.796   1.380   9.548  0.0777  0.0248 -1.7960
   74SLPC  C215 6591   4.782   1.185   9.646  0.5867 -0.6711  0.6526
   74SLPC  H15R 6592   4.877   1.141   9.609 -0.7664 -0.5930 -3.4347
   74SLPC  H15S 6593   4.711   1.101   9.655  0.6845 -0.8572 -0.2798
   74SLPC  C216 6594   4.812   1.231   9.782 -0.5393 -0.1506 -0.3541
   74SLPC  H16R 6595   4.851   1.335   9.770 -0.0841 -0.3420 -0.5571
   74SLPC  H16S 6596   4.878   1.159   9.835  0.5663 -0.3509 -1.9081
   74SLPC  C217 6597   4.683   1.242   9.858  0.2989 -0.0300  0.3054
   74SLPC  H17R 6598   4.639   1.141   9.874 -3.7120  1.3895 -0.6549
   74SLPC  H17S 6599   4.610   1.300   9.798  0.0000  0.1799  0.8668
   74SLPC  C218 6600   4.693   1.309   9.999 -0.1823 -0.1289  0.7538
   74SLPC  H18R 6601   4.762   1.241  10.053  1.2408  0.3151 -0.4151
   74SLPC  H18S 6602   4.596   1.315  10.052 -1.1529  2.6269 -1.1003
   74SLPC  H18T 6603   4.740   1.409  10.010  0.6052 -0.5645  1.4876
   74SLPC   C33 6604   5.222   2.147   9.868  0.0906  0.3601  0.7900
   74SLPC   H3X 6605   5.308   2.217   9.853  0.1940 -0.2431 -1.9070
   74SLPC   H3Y 6606   5.135   2.197   9.821  0.7145  1.2608  0.5467
   74SLPC   C34 6607   5.234   2.007   9.800 -0.0578 -0.4140  0.2503
   74SLPC   H4X 6608   5.138   1.951   9.791  0.8310 -2.8211  3.8619
   74SLPC   H4Y 6609   5.295   1.942   9.866  0.4064 -0.0724  0.1600
   74SLPC   C35 6610   5.297   2.039   9.659  0.3018 -0.0533 -0.3931
   74SLPC   H5X 6611   5.355   2.133   9.672 -0.0512 -0.0513  1.4914
   74SLPC   H5Y 6612   5.210   2.053   9.590 -1.1261  2.2353  1.7002
   74SLPC   C36 6613   5.390   1.930   9.607  0.1100  0.6898 -0.3603
   74SLPC   H6X 6614   5.323   1.842   9.612  1.9950 -0.8329 -0.9370
   74SLPC   H6Y 6615   5.475   1.900   9.671 -0.9865 -2.1537 -0.0982
   74SLPC   C37 6616   5.429   1.938   9.464  0.4157 -0.0246  0.0845
   74SLPC   H7X 6617   5.350   1.910   9.392  0.8606  0.2277 -0.5169
   74SLPC   H7Y 6618   5.517   1.873   9.446  1.0585  0.9882 -0.5322
   74SLPC   C38 6619   5.457   2.077   9.403 -0.0578 -0.0906 -0.1519
   74SLPC   H8X 6620   5.559   2.094   9.444  0.2740  0.0768 -1.0301
   74SLPC   H8Y 6621   5.380   2.153   9.431  0.4172  0.5045 -0.4499
   74SLPC   C39 6622   5.458   2.077   9.248 -0.1529  0.0884  0.0316
   74SLPC   H9X 6623   5.349   2.061   9.228 -0.5126  0.3854  1.6023
   74SLPC   H9Y 6624   5.510   1.986   9.214  2.8549  1.1507  1.4821
   74SLPC  C310 6625   5.512   2.204   9.186  0.8263  0.1652 -0.5934
   74SLPC  H10X 6626   5.485   2.182   9.081  0.8582  0.0414 -0.5753
   74SLPC  H10Y 6627   5.620   2.208   9.212  0.5027  0.4476  0.7837
   74SLPC  C311 6628   5.443   2.333   9.246 -0.3798 -0.5643  0.3883
   74SLPC  H11X 6629   5.449   2.333   9.357 -0.5750  1.4883  0.4468
   74SLPC  H11Y 6630   5.337   2.343   9.214  0.5483  3.4231 -2.1455
   74SLPC  C312 6631   5.507   2.461   9.191 -0.2121 -0.3711  0.3357
   74SLPC  H12X 6632   5.616   2.463   9.213 -0.0686  2.0523 -0.2791
   74SLPC  H12Y 6633   5.463   2.538   9.258 -2.5615 -2.2034  1.0266
   74SLPC  C313 6634   5.466   2.486   9.046 -1.1092  0.2512 -0.1174
   74SLPC  H13X 6635   5.359   2.517   9.054 -0.5979  1.6947  2.0519
   74SLPC  H13Y 6636   5.470   2.389   8.993  1.2831 -1.7055  3.2412
   74SLPC  C314 6637   5.552   2.584   8.959 -0.4688 -0.1884 -0.1141
   74SLPC  H14X 6638   5.535   2.688   8.993  0.5619  1.1093 -3.1941
   74SLPC  H14Y 6639   5.529   2.578   8.851  2.4784  1.4407 -0.9394
   74SLPC  C315 6640   5.703   2.540   8.964  0.1840  0.3586 -0.4664
   74SLPC  H15X 6641   5.718   2.439   8.920  2.5571 -0.0260  1.0977
   74SLPC  H15Y 6642   5.744   2.548   9.067  1.5248 -2.5288 -0.6648
   74SLPC  C316 6643   5.786   2.645   8.888  0.0383 -0.1739  0.1390
   74SLPC  H16X 6644   5.894   2.623   8.898  0.6673  1.9890 -1.2495
   74SLPC  H16Y 6645   5.775   2.753   8.913 -0.0094  0.5917 -2.8720
   74SLPC  C317 6646   5.767   2.653   8.732  0.4113  0.6113 -0.6471
   74SLPC  H17X 6647   5.659   2.677   8.721  0.9407  2.4334 -2.3084
   74SLPC  H17Y 6648   5.779   2.551   8.690 -1.4242  1.6542 -4.0638
   74SLPC  C318 6649   5.856   2.750   8.661 -0.7241  0.0339 -0.1352
   74SLPC  H18X 6650   5.818   2.746   8.556 -1.0548 -0.7770  0.0102
   74SLPC  H18Y 6651   5.964   2.724   8.656 -0.1109  1.4298  3.1755
   74SLPC  H18Z 6652   5.845   2.855   8.695 -1.0011  0.3059 -1.0252
   75SLPC     N 6653   1.447   6.642   6.193  0.0890  0.0104 -0.8500
   75SLPC   C13 6654   1.333   6.734   6.218 -0.5567  0.3423 -0.3151
   75SLPC  H13A 6655   1.361   6.813   6.287 -0.4127  0.6186 -0.6886
   75SLPC  H13B 6656   1.300   6.773   6.123 -2.7111 -0.2014  0.1589
   75SLPC  H13C 6657   1.254   6.672   6.256 -0.0617 -0.9766 -1.3821
   75SLPC   C14 6658   1.417   6.559   6.076  0.3890 -0.5284  0.7251
   75SLPC  H14A 6659   1.478   6.475   6.047  1.4393 -0.2649  2.0800
   75SLPC  H14B 6660   1.315   6.525   6.082  0.1759  0.0757  0.6113
   75SLPC  H14C 6661   1.419   6.624   5.989  1.7142  1.2913  2.0163
   75SLPC   C15 6662   1.460   6.553   6.313  0.7990  0.2029 -0.4367
   75SLPC  H15A 6663   1.542   6.483   6.308 -0.1029 -0.8529 -0.9768
   75SLPC  H15B 6664   1.476   6.616   6.399 -0.1683  1.6702 -1.2843
   75SLPC  H15C 6665   1.368   6.498   6.325  0.1186  1.3146 -0.4339
   75SLPC   C12 6666   1.581   6.707   6.174  0.1383 -1.0602 -0.0307
   75SLPC  H12A 6667   1.571   6.781   6.097 -0.5062 -2.3629 -1.2443
   75SLPC  H12B 6668   1.642   6.629   6.131  0.0100 -1.8784  1.1996
   75SLPC   C11 6669   1.643   6.781   6.302  0.4814  0.7653  0.0867
   75SLPC  H11A 6670   1.745   6.810   6.267  0.7654 -0.1960  0.0929
   75SLPC  H11B 6671   1.653   6.704   6.381 -0.8671  0.5292  0.0356
   75SLPC     P 6672   1.480   6.920   6.471 -0.0413  0.2429  0.5446
   75SLPC   O13 6673   1.344   6.962   6.434  0.4199 -0.8302 -0.2439
   75SLPC   O14 6674   1.494   6.797   6.555 -0.3942 -0.0827 -0.0904
   75SLPC   O12 6675   1.558   6.889   6.340  0.3115  0.2945  0.4130
   75SLPC   O11 6676   1.550   7.029   6.546 -0.4789 -0.4476 -0.3806
   75SLPC    C1 6677   1.693   7.049   6.558  0.2902  0.5158  0.0241
   75SLPC    HA 6678   1.746   7.029   6.462 -0.8489  0.7178 -0.6696
   75SLPC    HB 6679   1.710   7.156   6.581 -0.6598  1.4427 -3.0349
   75SLPC    C2 6680   1.766   6.964   6.662  0.3288 -0.1295  0.1573
   75SLPC    HS 6681   1.743   6.857   6.643  3.3366 -1.0863  1.3850
   75SLPC   O21 6682   1.735   7.014   6.794  0.0018 -0.9081  0.3470
   75SLPC   C21 6683   1.736   6.916   6.881 -0.2550 -0.5813  0.2870
   75SLPC   O22 6684   1.735   6.799   6.861 -0.6545  0.3204  0.5767
   75SLPC   C22 6685   1.741   6.982   7.019 -0.0201 -0.5198  0.2684
   75SLPC   H2R 6686   1.765   7.090   7.006 -1.9522 -0.2794 -1.9991
   75SLPC   H2S 6687   1.638   6.976   7.059 -1.1489 -1.6935 -2.5666
   75SLPC    C3 6688   1.922   6.968   6.632 -0.4281 -0.1240  0.1628
   75SLPC    HX 6689   1.951   7.073   6.651  1.5118 -0.8237  1.2988
   75SLPC    HY 6690   1.951   6.953   6.526  3.2636  0.0171  1.0249
   75SLPC   O31 6691   2.001   6.885   6.720  0.2654  0.1286  0.5177
   75SLPC   C31 6692   2.008   6.762   6.683 -0.9873 -0.9190 -0.3832
   75SLPC   O32 6693   1.963   6.717   6.578 -0.3185 -0.5399  0.1377
   75SLPC   C32 6694   2.074   6.697   6.799 -0.0429 -0.4023  0.4662
   75SLPC   H2X 6695   2.080   6.766   6.887 -0.8487  0.5623 -0.2147
   75SLPC   H2Y 6696   2.176   6.663   6.771  0.4780  1.1416  0.3776
   75SLPC   C23 6697   1.843   6.916   7.104 -0.3570  0.3841  0.1523
   75SLPC   H3R 6698   1.859   6.981   7.193 -1.1020  0.4227  0.2649
   75SLPC   H3S 6699   1.939   6.894   7.053 -0.6103  1.9303 -1.0553
   75SLPC   C24 6700   1.788   6.785   7.157 -0.1937  0.0443 -0.1921
   75SLPC   H4R 6701   1.797   6.705   7.080  0.0669 -0.2666  0.1550
   75SLPC   H4S 6702   1.678   6.792   7.169 -0.1520  0.7174 -0.1595
   75SLPC   C25 6703   1.859   6.758   7.288 -0.4410 -0.0835  0.1672
   75SLPC   H5R 6704   1.963   6.796   7.275 -0.1094 -1.1980 -0.6389
   75SLPC   H5S 6705   1.873   6.650   7.310 -0.6130 -0.5814 -1.8876
   75SLPC   C26 6706   1.801   6.816   7.414  0.6783 -0.3695 -0.5612
   75SLPC   H6R 6707   1.710   6.763   7.449  0.9592  0.0020  0.7981
   75SLPC   H6S 6708   1.771   6.923   7.408  0.1812 -0.1712  3.2739
   75SLPC   C27 6709   1.891   6.796   7.537 -0.3936  0.1202 -0.4964
   75SLPC   H7R 6710   1.996   6.824   7.514  0.0827 -0.9501  0.2847
   75SLPC   H7S 6711   1.894   6.691   7.573  0.9054  0.1248 -0.5379
   75SLPC   C28 6712   1.863   6.869   7.663 -0.0224 -0.2706 -0.0383
   75SLPC   H8R 6713   1.863   6.976   7.632 -2.2804 -0.8173 -2.2040
   75SLPC   H8S 6714   1.950   6.870   7.733  0.4240 -0.7285 -0.5784
   75SLPC   C29 6715   1.737   6.818   7.737 -0.0620 -0.6022 -0.2866
   75SLPC   H9R 6716   1.652   6.800   7.669  0.1652 -1.2646 -0.4013
   75SLPC  C210 6717   1.727   6.781   7.869  0.1096  0.2229  0.4108
   75SLPC  H10R 6718   1.637   6.733   7.909  0.6542 -1.0902  0.1021
   75SLPC  C211 6719   1.842   6.785   7.963 -0.0041 -0.2681 -0.1532
   75SLPC  H11R 6720   1.855   6.892   7.992 -0.2385 -0.3751  0.3478
   75SLPC  H11S 6721   1.933   6.758   7.906  0.2853 -1.9141  1.0166
   75SLPC  C212 6722   1.835   6.699   8.086  0.5039 -0.0512 -0.6376
   75SLPC  H12R 6723   1.865   6.594   8.073 -1.8270 -0.6518 -1.8235
   75SLPC  C213 6724   1.779   6.737   8.203 -0.4145  0.4990  0.5261
   75SLPC  H13R 6725   1.767   6.662   8.283 -0.3177  1.0674  1.0886
   75SLPC  C214 6726   1.717   6.871   8.238 -0.5155  0.1996 -0.3532
   75SLPC  H14R 6727   1.627   6.899   8.178  0.5342  0.3022 -1.9558
   75SLPC  H14S 6728   1.787   6.951   8.208 -1.0408  0.1905 -1.6931
   75SLPC  C215 6729   1.686   6.881   8.381 -0.2016  0.4700 -1.2591
   75SLPC  H15R 6730   1.665   6.987   8.407  1.1656  0.1811  1.2979
   75SLPC  H15S 6731   1.772   6.842   8.440  0.2380 -1.3099 -2.9520
   75SLPC  C216 6732   1.559   6.794   8.421 -0.4890  0.0803 -0.1586
   75SLPC  H16R 6733   1.578   6.692   8.382 -0.3603  0.0923 -0.1260
   75SLPC  H16S 6734   1.467   6.824   8.366  0.2290 -3.0450 -3.4010
   75SLPC  C217 6735   1.531   6.789   8.566 -1.1149  0.5859 -0.9809
   75SLPC  H17R 6736   1.615   6.750   8.626 -0.9184  1.4365 -0.6875
   75SLPC  H17S 6737   1.444   6.728   8.598  0.0517 -2.0445 -2.5005
   75SLPC  C218 6738   1.493   6.927   8.627 -1.0738 -0.2877  0.3049
   75SLPC  H18R 6739   1.485   6.907   8.736  0.0438  0.1634  0.4825
   75SLPC  H18S 6740   1.408   6.978   8.577  1.6391  3.0204 -1.3245
   75SLPC  H18T 6741   1.585   6.988   8.628 -0.3275 -1.3575 -0.3292
   75SLPC   C33 6742   1.999   6.571   6.858 -0.3203  0.5496  0.1115
   75SLPC   H3X 6743   1.898   6.594   6.898  0.2634  0.5616  1.6465
   75SLPC   H3Y 6744   1.979   6.506   6.770  0.4537 -0.3579  0.5930
   75SLPC   C34 6745   2.085   6.488   6.952  0.3505 -0.4934 -0.0384
   75SLPC   H4X 6746   2.192   6.509   6.928  0.1683  0.8984  0.2837
   75SLPC   H4Y 6747   2.054   6.382   6.958 -0.3248 -0.2694  0.7017
   75SLPC   C35 6748   2.071   6.545   7.100  0.3242  0.1439  0.4349
   75SLPC   H5X 6749   1.962   6.553   7.118 -0.4509 -2.7668 -2.1264
   75SLPC   H5Y 6750   2.130   6.639   7.107  0.1771  0.3182 -0.4699
   75SLPC   C36 6751   2.110   6.454   7.221 -0.3649  0.0857 -0.8977
   75SLPC   H6X 6752   2.204   6.396   7.205 -0.4971 -0.9705  1.6686
   75SLPC   H6Y 6753   2.043   6.367   7.239 -0.9083  0.8077  0.7700
   75SLPC   C37 6754   2.132   6.531   7.364 -0.0685  0.1257  0.7839
   75SLPC   H7X 6755   2.041   6.586   7.395 -0.2422 -0.2664  0.9827
   75SLPC   H7Y 6756   2.217   6.601   7.348 -0.1287  0.0499  0.0993
   75SLPC   C38 6757   2.163   6.431   7.467 -0.3551 -0.4988 -1.0144
   75SLPC   H8X 6758   2.252   6.372   7.437 -1.2218 -2.4688  0.0809
   75SLPC   H8Y 6759   2.079   6.359   7.468 -0.8549  0.0796  0.2383
   75SLPC   C39 6760   2.190   6.486   7.604  0.1117  0.2052 -0.3688
   75SLPC   H9X 6761   2.113   6.550   7.652  0.6480  1.0259 -0.5804
   75SLPC   H9Y 6762   2.270   6.561   7.589 -1.3687  1.4711 -2.4444
   75SLPC  C310 6763   2.240   6.372   7.696 -0.1124 -0.2464 -0.9290
   75SLPC  H10X 6764   2.325   6.321   7.645  2.2696  0.9509  1.5542
   75SLPC  H10Y 6765   2.150   6.308   7.706  0.1723 -0.4103  0.9112
   75SLPC  C311 6766   2.314   6.420   7.826 -0.4852  0.2439 -0.1198
   75SLPC  H11X 6767   2.397   6.487   7.795  1.0494 -1.2500  0.5959
   75SLPC  H11Y 6768   2.357   6.327   7.869 -0.6773  0.8957  1.5606
   75SLPC  C312 6769   2.221   6.483   7.928 -0.2916  0.8249 -0.3294
   75SLPC  H12X 6770   2.120   6.437   7.934 -0.7505  1.8348 -0.0685
   75SLPC  H12Y 6771   2.202   6.586   7.891 -0.1954  0.9159 -0.1245
   75SLPC  C313 6772   2.288   6.498   8.065 -0.1361 -0.3455  0.2223
   75SLPC  H13X 6773   2.392   6.536   8.060 -0.5808  1.1320  1.4808
   75SLPC  H13Y 6774   2.283   6.399   8.115 -1.5359 -0.3906  0.0468
   75SLPC  C314 6775   2.202   6.580   8.163 -0.8281  0.3258  0.4792
   75SLPC  H14X 6776   2.095   6.550   8.160 -0.8981  0.6623 -0.8092
   75SLPC  H14Y 6777   2.192   6.688   8.137 -1.5528  0.3144  0.6625
   75SLPC  C315 6778   2.255   6.572   8.311  0.3974 -0.3386  0.4897
   75SLPC  H15X 6779   2.362   6.600   8.301  0.7982 -2.0185 -0.4578
   75SLPC  H15Y 6780   2.252   6.470   8.355 -1.9654 -1.2304 -1.5099
   75SLPC  C316 6781   2.191   6.673   8.417 -0.6206 -0.1627  0.2214
   75SLPC  H16X 6782   2.083   6.650   8.405 -0.4709 -0.2570 -1.1492
   75SLPC  H16Y 6783   2.217   6.778   8.388 -2.9156  0.7236  1.1168
   75SLPC  C317 6784   2.225   6.628   8.564  0.0130  0.1595  1.0008
   75SLPC  H17X 6785   2.336   6.632   8.574 -0.0035  1.0751  0.8435
   75SLPC  H17Y 6786   2.199   6.520   8.576  0.7151  0.1155  2.3737
   75SLPC  C318 6787   2.162   6.713   8.672  0.4375 -0.6689 -0.1983
   75SLPC  H18X 6788   2.174   6.668   8.773 -2.6593  0.1638  0.6478
   75SLPC  H18Y 6789   2.056   6.734   8.646  0.6859  0.6085 -0.2485
   75SLPC  H18Z 6790   2.209   6.813   8.668 -3.3147  1.3161  0.8095
   76SLPC     N 6791   3.498   6.002   5.928 -0.0986 -0.1511 -0.1199
   76SLPC   C13 6792   3.625   5.954   5.874  0.6480  0.2938  0.3713
   76SLPC  H13A 6793   3.681   5.900   5.950 -0.4447 -0.5370  0.6122
   76SLPC  H13B 6794   3.612   5.887   5.790 -1.1549  1.0113  0.0492
   76SLPC  H13C 6795   3.686   6.039   5.846 -1.6301  1.1559 -2.4807
   76SLPC   C14 6796   3.417   5.884   5.967 -0.2389 -0.1841  0.0474
   76SLPC  H14A 6797   3.404   5.812   5.887  0.1937  0.1579 -0.3377
   76SLPC  H14B 6798   3.472   5.824   6.038  0.3076  1.1364  0.7751
   76SLPC  H14C 6799   3.322   5.920   6.004 -0.7420  0.3831 -1.6864
   76SLPC   C15 6800   3.421   6.078   5.820 -1.0439  0.6136  0.6246
   76SLPC  H15A 6801   3.399   6.015   5.735 -0.1149  0.9234  0.1406
   76SLPC  H15B 6802   3.329   6.113   5.865 -1.9068  0.3437 -0.8811
   76SLPC  H15C 6803   3.469   6.168   5.785 -1.0334  0.6275  0.6755
   76SLPC   C12 6804   3.511   6.090   6.057  0.0993 -0.2077 -0.1802
   76SLPC  H12A 6805   3.584   6.167   6.037 -1.9615  1.8902 -0.0393
   76SLPC  H12B 6806   3.549   6.021   6.131 -0.8685 -1.1275 -0.5009
   76SLPC   C11 6807   3.389   6.153   6.121 -0.3773  1.3907 -0.0542
   76SLPC  H11A 6808   3.321   6.184   6.038  1.3211  1.1904 -1.5886
   76SLPC  H11B 6809   3.419   6.240   6.184 -0.3500  0.7904  0.7718
   76SLPC     P 6810   3.178   6.046   6.246  0.0572 -0.0962  0.1184
   76SLPC   O13 6811   3.100   6.075   6.126 -0.8418  0.4825 -0.3406
   76SLPC   O14 6812   3.140   5.912   6.300 -0.7181 -0.3008 -0.1783
   76SLPC   O12 6813   3.331   6.056   6.208 -0.0260  0.5451 -0.0963
   76SLPC   O11 6814   3.152   6.151   6.353 -0.2152 -0.8397 -0.3768
   76SLPC    C1 6815   3.253   6.190   6.445 -0.4854 -0.3219 -0.4135
   76SLPC    HA 6816   3.348   6.202   6.388 -0.2574 -0.6860 -0.1076
   76SLPC    HB 6817   3.229   6.288   6.492  1.8201 -0.7417  1.8272
   76SLPC    C2 6818   3.277   6.095   6.563  0.1603 -0.0833  0.3831
   76SLPC    HS 6819   3.320   6.003   6.518  0.0922  0.1176 -0.1003
   76SLPC   O21 6820   3.145   6.068   6.609 -0.2757  0.6751 -0.8466
   76SLPC   C21 6821   3.121   5.940   6.648  0.1394 -0.6123 -0.5194
   76SLPC   O22 6822   3.206   5.855   6.664  0.5362 -0.3072  0.3503
   76SLPC   C22 6823   2.979   5.907   6.653  0.3383  0.6605  0.7201
   76SLPC   H2R 6824   2.946   5.871   6.553 -0.0530  0.1957  1.0129
   76SLPC   H2S 6825   2.964   5.822   6.723  1.0692 -0.3005 -0.2654
   76SLPC    C3 6826   3.372   6.148   6.677  0.2666  0.0172  0.1546
   76SLPC    HX 6827   3.317   6.239   6.710 -1.3268 -0.3320 -1.3790
   76SLPC    HY 6828   3.469   6.175   6.630  0.9251  0.3393  1.6403
   76SLPC   O31 6829   3.399   6.054   6.781  0.2444 -0.2422 -0.2883
   76SLPC   C31 6830   3.439   6.103   6.898 -0.1738 -0.1477 -0.7595
   76SLPC   O32 6831   3.441   6.218   6.940 -0.4451 -0.3725  0.4317
   76SLPC   C32 6832   3.492   5.987   6.983  0.2478  0.3551 -0.0791
   76SLPC   H2X 6833   3.571   5.935   6.925  0.2931  0.2761  0.0510
   76SLPC   H2Y 6834   3.402   5.926   7.007 -1.1006  0.7204 -3.6447
   76SLPC   C23 6835   2.874   6.022   6.671  0.0706 -0.4204 -0.1175
   76SLPC   H3R 6836   2.775   5.973   6.675 -0.8127  1.3105  0.7309
   76SLPC   H3S 6837   2.881   6.094   6.587 -0.1871 -1.5581 -1.1373
   76SLPC   C24 6838   2.898   6.110   6.794 -0.4551 -0.4823  0.7270
   76SLPC   H4R 6839   2.831   6.199   6.790  1.1428  0.7483  0.2074
   76SLPC   H4S 6840   2.997   6.160   6.780 -1.1469  0.7247 -0.0362
   76SLPC   C25 6841   2.900   6.047   6.930 -0.0699  0.4388 -0.0127
   76SLPC   H5R 6842   2.964   5.957   6.925 -2.3677 -1.2102 -2.9954
   76SLPC   H5S 6843   2.801   6.000   6.946  0.4262 -0.1556  1.4347
   76SLPC   C26 6844   2.938   6.139   7.048 -0.5313  0.1260  0.1564
   76SLPC   H6R 6845   2.850   6.203   7.074 -1.0330 -0.5370  0.1091
   76SLPC   H6S 6846   3.033   6.193   7.031 -0.3669 -0.4271 -0.6842
   76SLPC   C27 6847   2.971   6.058   7.178 -0.1557  0.5134 -0.1793
   76SLPC   H7R 6848   3.059   5.997   7.147 -0.9610 -0.9208  0.2640
   76SLPC   H7S 6849   2.891   5.982   7.187  0.4897 -0.7561 -3.6209
   76SLPC   C28 6850   2.997   6.140   7.304  0.4087 -0.3230 -0.0258
   76SLPC   H8R 6851   2.904   6.199   7.316  0.8973  0.5908 -0.6175
   76SLPC   H8S 6852   3.013   6.074   7.392  1.1876 -1.2869 -0.8685
   76SLPC   C29 6853   3.122   6.217   7.290  0.5998  0.8373 -0.3207
   76SLPC   H9R 6854   3.149   6.243   7.186  0.6045 -1.6031 -0.9985
   76SLPC  C210 6855   3.214   6.240   7.385 -0.3435  0.5142  0.0009
   76SLPC  H10R 6856   3.310   6.284   7.354 -0.9882  1.1743 -1.0972
   76SLPC  C211 6857   3.211   6.194   7.526  0.2557 -0.0390 -0.1040
   76SLPC  H11R 6858   3.305   6.202   7.585 -1.6026 -1.2605  3.3230
   76SLPC  H11S 6859   3.180   6.087   7.536 -2.2177  0.6609  0.3762
   76SLPC  C212 6860   3.104   6.269   7.599  0.1216  0.4068  0.4608
   76SLPC  H12R 6861   3.084   6.372   7.568 -1.2262  0.1813  0.5231
   76SLPC  C213 6862   3.038   6.220   7.707 -0.1169  0.0093 -0.1568
   76SLPC  H13R 6863   2.960   6.280   7.755  1.6486  0.1529  2.7333
   76SLPC  C214 6864   3.050   6.092   7.782  0.2185 -0.1397 -0.3751
   76SLPC  H14R 6865   3.071   6.008   7.712 -0.4960 -0.0739 -0.6805
   76SLPC  H14S 6866   2.962   6.065   7.843  0.9662  1.6606  1.6345
   76SLPC  C215 6867   3.182   6.094   7.861  0.3864  0.1829  0.2174
   76SLPC  H15R 6868   3.268   6.115   7.794 -0.3280 -1.1734 -1.1859
   76SLPC  H15S 6869   3.203   5.995   7.906  1.3457  0.6443  0.8237
   76SLPC  C216 6870   3.176   6.196   7.973 -0.1373 -0.3548  0.1964
   76SLPC  H16R 6871   3.084   6.189   8.035  1.0591  0.8985  2.2205
   76SLPC  H16S 6872   3.180   6.302   7.941 -1.9450  0.2088  1.6688
   76SLPC  C217 6873   3.291   6.194   8.079  0.7375 -0.2495  0.3112
   76SLPC  H17R 6874   3.293   6.291   8.133 -1.2855  0.0656 -0.1003
   76SLPC  H17S 6875   3.385   6.191   8.020 -1.0491 -0.5869 -2.7563
   76SLPC  C218 6876   3.271   6.075   8.178  0.1141  0.4952  0.5227
   76SLPC  H18R 6877   3.358   6.063   8.246  0.4856  0.4376  0.0442
   76SLPC  H18S 6878   3.256   5.979   8.124  0.8521  2.0448 -2.6845
   76SLPC  H18T 6879   3.172   6.079   8.227 -1.1312 -2.4854 -1.4048
   76SLPC   C33 6880   3.540   6.022   7.130 -0.1520 -0.4567  0.7575
   76SLPC   H3X 6881   3.463   6.076   7.188 -0.1547  0.1035  0.2416
   76SLPC   H3Y 6882   3.635   6.080   7.123 -1.1349  1.0957 -0.3834
   76SLPC   C34 6883   3.564   5.898   7.219  0.4393  0.1036 -0.4599
   76SLPC   H4X 6884   3.640   5.820   7.198 -0.6084 -1.0520 -0.1091
   76SLPC   H4Y 6885   3.468   5.842   7.214  0.9503 -1.0247  1.4889
   76SLPC   C35 6886   3.582   5.937   7.364  0.6324 -0.0432  0.0427
   76SLPC   H5X 6887   3.498   6.008   7.378  2.5989  2.7976 -1.4025
   76SLPC   H5Y 6888   3.666   6.009   7.381 -0.8742  1.9237 -0.4680
   76SLPC   C36 6889   3.571   5.818   7.461  0.3431  0.1540 -0.3767
   76SLPC   H6X 6890   3.665   5.762   7.448  0.4034 -0.0445  0.8468
   76SLPC   H6Y 6891   3.492   5.747   7.428  1.4762 -0.5918 -1.5948
   76SLPC   C37 6892   3.555   5.834   7.611  0.8566  0.2642  0.0428
   76SLPC   H7X 6893   3.498   5.743   7.641  0.9388 -0.4584 -1.8220
   76SLPC   H7Y 6894   3.479   5.913   7.626 -1.2299 -1.4474 -0.9740
   76SLPC   C38 6895   3.692   5.859   7.680  0.9777  0.1342  0.5754
   76SLPC   H8X 6896   3.743   5.952   7.646 -0.8922  1.3785  1.0030
   76SLPC   H8Y 6897   3.758   5.775   7.649 -0.5356 -1.1367  0.6952
   76SLPC   C39 6898   3.688   5.835   7.831 -0.0560 -0.6015 -0.7541
   76SLPC   H9X 6899   3.788   5.819   7.878  0.0091  1.1686 -0.2228
   76SLPC   H9Y 6900   3.637   5.738   7.844 -4.0663  1.5541  1.4937
   76SLPC  C310 6901   3.611   5.937   7.917  0.2997  0.6964 -0.5279
   76SLPC  H10X 6902   3.514   5.949   7.866  0.3420  0.6843 -0.6117
   76SLPC  H10Y 6903   3.661   6.036   7.912 -0.4541  1.0153 -2.8835
   76SLPC  C311 6904   3.588   5.896   8.070 -0.7976  0.6422 -0.5968
   76SLPC  H11X 6905   3.517   5.811   8.080  1.5717 -1.3613  0.3591
   76SLPC  H11Y 6906   3.552   5.982   8.130  0.8761  0.5571  0.5739
   76SLPC  C312 6907   3.722   5.850   8.143  0.1256  0.6773 -0.5399
   76SLPC  H12X 6908   3.793   5.934   8.154  1.5429 -0.5333 -0.1993
   76SLPC  H12Y 6909   3.769   5.758   8.102  1.3227 -1.2050  4.3621
   76SLPC  C313 6910   3.690   5.810   8.289  0.5303  0.0110 -0.6990
   76SLPC  H13X 6911   3.791   5.779   8.324  0.5029  1.2825  0.6153
   76SLPC  H13Y 6912   3.618   5.728   8.311  2.2609 -1.8085 -1.4918
   76SLPC  C314 6913   3.638   5.932   8.367 -0.4164 -0.0563 -0.1552
   76SLPC  H14X 6914   3.528   5.931   8.379 -0.1220 -0.0557  3.7721
   76SLPC  H14Y 6915   3.658   6.028   8.314  0.1655 -1.2415 -2.2068
   76SLPC  C315 6916   3.684   5.935   8.510  0.1104  0.1804 -0.1295
   76SLPC  H15X 6917   3.795   5.945   8.504 -0.0386  2.6482  0.2432
   76SLPC  H15Y 6918   3.656   5.841   8.561  0.0096  1.2918  1.9969
   76SLPC  C316 6919   3.622   6.051   8.589 -0.2926 -0.2687 -0.0735
   76SLPC  H16X 6920   3.511   6.064   8.586  0.0759  4.4988 -2.0763
   76SLPC  H16Y 6921   3.665   6.147   8.555  0.7363 -0.3149  1.0303
   76SLPC  C317 6922   3.656   6.048   8.742  0.4388 -0.1477 -0.6008
   76SLPC  H17X 6923   3.616   5.961   8.797  0.0123  0.2697 -0.2399
   76SLPC  H17Y 6924   3.605   6.135   8.789 -3.0936 -1.7914 -1.0402
   76SLPC  C318 6925   3.801   6.046   8.773  1.1094 -0.1690 -0.2048
   76SLPC  H18X 6926   3.815   6.052   8.883  0.0134 -1.7619  0.0613
   76SLPC  H18Y 6927   3.854   6.133   8.728  0.6491  0.1604 -0.1226
   76SLPC  H18Z 6928   3.851   5.955   8.733 -0.0952 -0.8515 -0.1890
   77SLPC     N 6929   5.542   1.413   5.922  0.2018  0.2408 -0.7677
   77SLPC   C13 6930   5.572   1.466   6.059 -0.1307 -0.2069  0.5649
   77SLPC  H13A 6931   5.653   1.537   6.068  0.4534 -0.6853 -0.7031
   77SLPC  H13B 6932   5.486   1.514   6.102 -0.6696  0.7424 -1.4622
   77SLPC  H13C 6933   5.607   1.380   6.115 -0.6503 -1.2046 -0.6128
   77SLPC   C14 6934   5.671   1.445   5.838  0.9902  0.1341  0.0836
   77SLPC  H14A 6935   5.753   1.386   5.875  1.0438  0.9689  1.3610
   77SLPC  H14B 6936   5.656   1.437   5.731  1.7222 -0.0770 -0.0036
   77SLPC  H14C 6937   5.699   1.548   5.855  0.4085 -0.1934  3.9351
   77SLPC   C15 6938   5.430   1.500   5.862 -1.2149 -0.1863 -0.4649
   77SLPC  H15A 6939   5.460   1.599   5.830 -0.5931 -0.3759 -0.4970
   77SLPC  H15B 6940   5.395   1.451   5.773  1.4836  0.4675 -2.0033
   77SLPC  H15C 6941   5.344   1.516   5.925  0.5613  0.8636  1.8644
   77SLPC   C12 6942   5.511   1.267   5.921  0.3298 -0.5307 -0.4645
   77SLPC  H12A 6943   5.468   1.242   5.826  3.5116 -0.5698 -2.0471
   77SLPC  H12B 6944   5.433   1.251   5.994 -0.0704  1.7993 -0.2913
   77SLPC   C11 6945   5.626   1.163   5.950 -0.3015 -0.0056  0.1028
   77SLPC  H11A 6946   5.709   1.186   5.880  0.2454  3.8923  1.7492
   77SLPC  H11B 6947   5.589   1.060   5.931  2.0406 -0.7061 -0.9856
   77SLPC     P 6948   5.583   1.109   6.201 -0.1931 -0.4549 -0.3748
   77SLPC   O13 6949   5.440   1.131   6.172  0.2212 -0.5288  0.6735
   77SLPC   O14 6950   5.625   0.971   6.219 -0.3404  0.3572 -0.1719
   77SLPC   O12 6951   5.672   1.170   6.089  0.8887  0.3033  0.4818
   77SLPC   O11 6952   5.627   1.194   6.329 -0.1259 -0.0238  0.5707
   77SLPC    C1 6953   5.751   1.166   6.397 -0.4728  0.4969  0.1032
   77SLPC    HA 6954   5.830   1.156   6.320 -0.8927  1.3413 -0.4560
   77SLPC    HB 6955   5.787   1.253   6.456  0.4672  0.6156 -0.6165
   77SLPC    C2 6956   5.735   1.049   6.496  0.3161 -0.5153  0.1183
   77SLPC    HS 6957   5.689   0.964   6.442  0.8742 -1.2140  0.7089
   77SLPC   O21 6958   5.660   1.086   6.611 -0.3087  0.8315  0.8617
   77SLPC   C21 6959   5.614   0.991   6.683  0.4265 -0.6536 -0.0191
   77SLPC   O22 6960   5.618   0.869   6.651 -0.6837  0.0572  0.2392
   77SLPC   C22 6961   5.557   1.039   6.820  0.8404 -0.1577  0.4904
   77SLPC   H2R 6962   5.528   1.146   6.817  0.0299 -0.3795  0.4050
   77SLPC   H2S 6963   5.465   0.981   6.840 -0.3509  1.5604  0.1781
   77SLPC    C3 6964   5.874   0.997   6.535 -0.4114  0.7385  0.0398
   77SLPC    HX 6965   5.942   0.977   6.449  3.9817  1.1614  3.0452
   77SLPC    HY 6966   5.878   0.895   6.578  0.9139  0.4328 -0.7336
   77SLPC   O31 6967   5.951   1.093   6.605 -0.6756  0.2495 -0.5458
   77SLPC   C31 6968   5.996   1.047   6.727  0.3858 -0.6610  0.0117
   77SLPC   O32 6969   5.947   0.950   6.785  0.5734  0.5468 -0.4558
   77SLPC   C32 6970   6.135   1.101   6.760 -0.2212 -0.2413 -0.4284
   77SLPC   H2X 6971   6.154   1.207   6.733  0.1014 -0.3099 -0.4692
   77SLPC   H2Y 6972   6.207   1.046   6.696 -0.1349  0.8385 -1.2799
   77SLPC   C23 6973   5.668   1.036   6.932  0.1542  0.2056  0.3005
   77SLPC   H3R 6974   5.738   1.121   6.921  0.6863 -0.1534  0.8045
   77SLPC   H3S 6975   5.729   0.943   6.917  1.2674  0.6182  1.9408
   77SLPC   C24 6976   5.617   1.049   7.072 -0.4802  0.0865  0.7637
   77SLPC   H4R 6977   5.573   0.953   7.108 -3.4643 -0.1114 -2.7317
   77SLPC   H4S 6978   5.526   1.113   7.075 -0.0310  0.9608 -2.0415
   77SLPC   C25 6979   5.723   1.067   7.191 -0.7016  0.1157  0.4194
   77SLPC   H5R 6980   5.774   1.166   7.190  0.3046 -0.3901 -0.8825
   77SLPC   H5S 6981   5.803   0.991   7.181  1.3432  2.2206 -0.1487
   77SLPC   C26 6982   5.661   1.048   7.321 -0.2472 -0.0408 -0.7554
   77SLPC   H6R 6983   5.599   0.956   7.326  0.9912 -0.8576  0.5584
   77SLPC   H6S 6984   5.587   1.131   7.332  0.8191  0.7068  1.5140
   77SLPC   C27 6985   5.745   1.050   7.447  0.1067 -0.1261  0.0646
   77SLPC   H7R 6986   5.811   1.138   7.433  2.1289 -1.6153 -0.1704
   77SLPC   H7S 6987   5.816   0.966   7.436  0.1054 -0.1515  0.2551
   77SLPC   C28 6988   5.680   1.056   7.580  0.8829 -0.0735 -0.5109
   77SLPC   H8R 6989   5.591   1.120   7.563 -1.1815 -1.9741  2.1410
   77SLPC   H8S 6990   5.757   1.098   7.648 -1.3270  2.7251  0.4312
   77SLPC   C29 6991   5.633   0.914   7.621 -0.7326 -0.5898 -0.8692
   77SLPC   H9R 6992   5.539   0.885   7.572 -2.3395  0.8538  1.1804
   77SLPC  C210 6993   5.684   0.834   7.718  0.1711  0.3885  1.2294
   77SLPC  H10R 6994   5.639   0.734   7.726 -1.0584  0.6335 -1.5229
   77SLPC  C211 6995   5.804   0.868   7.801 -0.0961  0.1588  1.3176
   77SLPC  H11R 6996   5.856   0.961   7.772  0.4729 -0.1799  1.2432
   77SLPC  H11S 6997   5.873   0.782   7.785 -0.7293  0.0080 -0.9831
   77SLPC  C212 6998   5.761   0.878   7.946  0.0956 -0.1560 -0.2049
   77SLPC  H12R 6999   5.656   0.902   7.970  0.9411  1.6075  2.0296
   77SLPC  C213 7000   5.831   0.840   8.052  0.1111  0.1026  0.1991
   77SLPC  H13R 7001   5.791   0.850   8.154  1.0561 -1.8338  0.8133
   77SLPC  C214 7002   5.972   0.786   8.045  0.1540 -0.5976 -0.0102
   77SLPC  H14R 7003   6.050   0.855   8.085 -1.2279  0.0970  1.5980
   77SLPC  H14S 7004   6.002   0.763   7.941 -1.0245 -2.8025  0.0854
   77SLPC  C215 7005   5.988   0.652   8.118  0.6589  0.3208  0.0717
   77SLPC  H15R 7006   6.089   0.607   8.129 -0.1736 -1.8592 -0.7383
   77SLPC  H15S 7007   5.933   0.575   8.060 -0.3414 -1.3325  3.0325
   77SLPC  C216 7008   5.926   0.649   8.260  0.4735  0.2471 -0.7803
   77SLPC  H16R 7009   5.820   0.621   8.244  0.8050 -1.4428 -0.2500
   77SLPC  H16S 7010   5.931   0.751   8.302 -0.5284  0.4272 -1.0877
   77SLPC  C217 7011   5.977   0.540   8.352  0.5476 -0.3777  0.2709
   77SLPC  H17R 7012   6.009   0.458   8.284  3.2824  0.9947 -0.2320
   77SLPC  H17S 7013   5.899   0.501   8.421 -1.1108 -0.8931 -1.7794
   77SLPC  C218 7014   6.101   0.584   8.434 -0.1744 -0.2453  0.4076
   77SLPC  H18R 7015   6.120   0.515   8.520  0.6408  0.4595  0.8055
   77SLPC  H18S 7016   6.092   0.687   8.474  1.1746  0.0125  0.0767
   77SLPC  H18T 7017   6.181   0.581   8.357  0.1736 -0.3448  0.7693
   77SLPC   C33 7018   6.168   1.067   6.914 -0.1176  0.7759  0.0413
   77SLPC   H3X 7019   6.276   1.085   6.930 -0.2570  2.6356 -0.8380
   77SLPC   H3Y 7020   6.159   0.957   6.925 -1.5262  0.9709  1.2042
   77SLPC   C34 7021   6.102   1.154   7.021 -0.2158 -1.2389  0.7185
   77SLPC   H4X 7022   5.994   1.140   6.997 -0.1098  0.9622 -1.4324
   77SLPC   H4Y 7023   6.135   1.260   7.024 -1.9598 -0.6843  3.5674
   77SLPC   C35 7024   6.145   1.098   7.159 -0.0616 -0.1563 -0.3601
   77SLPC   H5X 7025   6.255   1.084   7.158 -0.0799 -0.3516 -1.4007
   77SLPC   H5Y 7026   6.096   0.999   7.172 -0.1986 -0.1953 -1.1207
   77SLPC   C36 7027   6.103   1.203   7.268 -0.6117  0.5762  0.6308
   77SLPC   H6X 7028   6.000   1.238   7.241 -0.3846  0.6898 -0.1096
   77SLPC   H6Y 7029   6.177   1.286   7.265  1.6743 -1.3898 -0.1006
   77SLPC   C37 7030   6.089   1.147   7.411 -0.3124  0.5094 -0.5370
   77SLPC   H7X 7031   6.039   1.049   7.398 -0.1390  0.4917 -1.0681
   77SLPC   H7Y 7032   6.028   1.220   7.470 -1.0619 -0.3384 -0.2346
   77SLPC   C38 7033   6.225   1.124   7.498  0.1174 -0.2191  0.5528
   77SLPC   H8X 7034   6.265   1.228   7.498 -0.7526  0.1331  1.2087
   77SLPC   H8Y 7035   6.297   1.054   7.451 -1.7359 -0.4925 -2.0747
   77SLPC   C39 7036   6.202   1.086   7.644 -0.0486 -0.2939  0.7275
   77SLPC   H9X 7037   6.204   0.976   7.665 -0.4371 -0.4751 -0.1631
   77SLPC   H9Y 7038   6.105   1.136   7.664 -0.3742 -0.9404  0.8088
   77SLPC  C310 7039   6.307   1.154   7.734  0.3496 -0.5617  0.2511
   77SLPC  H10X 7040   6.293   1.264   7.731 -0.8308 -0.6533  1.4168
   77SLPC  H10Y 7041   6.414   1.131   7.713  0.2967 -0.6155  0.0376
   77SLPC  C311 7042   6.286   1.103   7.878  0.2012 -0.0845  0.3412
   77SLPC  H11X 7043   6.186   1.144   7.905  0.3932  0.7794 -0.2149
   77SLPC  H11Y 7044   6.372   1.146   7.934 -0.4179  1.2542  0.3071
   77SLPC  C312 7045   6.282   0.947   7.896  0.0529 -0.2283 -0.0465
   77SLPC  H12X 7046   6.342   0.903   7.813 -0.2247  2.0817 -1.5931
   77SLPC  H12Y 7047   6.182   0.920   7.857 -0.1111  1.7774 -1.1688
   77SLPC  C313 7048   6.312   0.900   8.036 -0.9196  0.3174 -0.0688
   77SLPC  H13X 7049   6.264   0.803   8.057 -2.0866  0.9988  0.5169
   77SLPC  H13Y 7050   6.263   0.985   8.090 -1.4642  0.4971 -0.8280
   77SLPC  C314 7051   6.466   0.900   8.062  0.4836 -0.4132  0.1516
   77SLPC  H14X 7052   6.506   1.004   8.055 -2.3062  0.8774  1.4142
   77SLPC  H14Y 7053   6.511   0.832   7.988  1.2346 -1.0630  1.1755
   77SLPC  C315 7054   6.484   0.841   8.195 -0.4630  0.2550 -0.1651
   77SLPC  H15X 7055   6.426   0.750   8.220  2.4684 -1.9785 -0.9665
   77SLPC  H15Y 7056   6.469   0.926   8.265 -1.4768 -0.5311  0.6023
   77SLPC  C316 7057   6.631   0.803   8.222 -0.4155  0.3043  1.1704
   77SLPC  H16X 7058   6.702   0.888   8.219  0.2590 -0.2698  0.4362
   77SLPC  H16Y 7059   6.662   0.741   8.134 -0.1716  2.0712 -0.0325
   77SLPC  C317 7060   6.654   0.724   8.351 -0.0072 -0.5356 -0.2866
   77SLPC  H17X 7061   6.590   0.634   8.359 -1.2675  0.4572  1.5023
   77SLPC  H17Y 7062   6.604   0.783   8.431 -2.2968 -2.7148  0.0298
   77SLPC  C318 7063   6.796   0.696   8.401 -0.5757  0.0139  0.0109
   77SLPC  H18X 7064   6.851   0.629   8.330 -0.0123  0.6727 -0.1885
   77SLPC  H18Y 7065   6.796   0.662   8.507 -2.8952 -3.5201 -0.9259
   77SLPC  H18Z 7066   6.858   0.788   8.400  1.5693 -1.2678  2.5100
   78SLPC     N 7067   0.716   6.232   5.772 -0.0171  0.4184  0.0123
   78SLPC   C13 7068   0.657   6.107   5.829  0.4970 -0.2431 -0.7775
   78SLPC  H13A 7069   0.746   6.052   5.853  2.3092  2.5985 -0.4374
   78SLPC  H13B 7070   0.603   6.135   5.919  2.4192  2.6226 -0.3526
   78SLPC  H13C 7071   0.592   6.050   5.764  0.5846 -0.8215 -0.3565
   78SLPC   C14 7072   0.788   6.205   5.645 -0.3084  0.3155 -0.2458
   78SLPC  H14A 7073   0.714   6.198   5.568 -1.0323  2.7124  0.1578
   78SLPC  H14B 7074   0.861   6.280   5.621  2.2749 -0.4630  4.0412
   78SLPC  H14C 7075   0.840   6.110   5.644 -0.9869 -0.0973  0.9868
   78SLPC   C15 7076   0.812   6.289   5.865  0.1417 -0.3667 -0.6685
   78SLPC  H15A 7077   0.764   6.363   5.926 -2.7552  0.4162 -3.6191
   78SLPC  H15B 7078   0.855   6.210   5.926  0.6610  0.8505  0.5888
   78SLPC  H15C 7079   0.897   6.335   5.817  0.7132  1.1653  1.6400
   78SLPC   C12 7080   0.605   6.331   5.745  0.1551 -0.0223  0.3877
   78SLPC  H12A 7081   0.555   6.310   5.652 -0.6861 -0.8016  0.9986
   78SLPC  H12B 7082   0.650   6.428   5.734 -0.7468  0.2774 -0.9529
   78SLPC   C11 7083   0.499   6.343   5.851  0.6043  0.6586  0.6902
   78SLPC  H11A 7084   0.451   6.245   5.870  2.2301  0.1156  2.2105
   78SLPC  H11B 7085   0.421   6.405   5.800  0.5704 -1.7905 -2.5327
   78SLPC     P 7086   0.457   6.394   6.096  0.0825 -0.0459  0.0212
   78SLPC   O13 7087   0.390   6.529   6.099 -0.2896  0.8012 -0.0966
   78SLPC   O14 7088   0.375   6.277   6.093  0.3915  0.8056  1.0011
   78SLPC   O12 7089   0.553   6.395   5.972 -0.4282 -0.4215  0.3850
   78SLPC   O11 7090   0.548   6.390   6.222 -0.3906 -0.0284  0.0525
   78SLPC    C1 7091   0.690   6.415   6.217  0.5667 -0.5830 -0.4991
   78SLPC    HA 7092   0.744   6.328   6.174 -1.3104 -1.9275 -0.2450
   78SLPC    HB 7093   0.710   6.511   6.164  0.2112  1.4658  2.7569
   78SLPC    C2 7094   0.740   6.434   6.360  0.3099 -0.1016 -0.1360
   78SLPC    HS 7095   0.839   6.485   6.356  1.2624 -1.7216  1.4982
   78SLPC   O21 7096   0.751   6.304   6.421  0.3713  0.4948  0.0384
   78SLPC   C21 7097   0.854   6.272   6.480 -0.2685  0.1962  0.0090
   78SLPC   O22 7098   0.942   6.349   6.524 -0.0874 -0.4643 -0.8064
   78SLPC   C22 7099   0.859   6.122   6.497 -0.0308 -0.0301  0.7525
   78SLPC   H2R 7100   0.814   6.088   6.401  1.2778  0.4502 -0.0531
   78SLPC   H2S 7101   0.962   6.081   6.499 -0.1326 -0.3110  0.3824
   78SLPC    C3 7102   0.666   6.534   6.454  0.7142 -0.1394  0.3673
   78SLPC    HX 7103   0.570   6.484   6.477 -0.6110  1.8154 -0.7009
   78SLPC    HY 7104   0.641   6.614   6.381 -1.2232 -1.9872 -1.1383
   78SLPC   O31 7105   0.744   6.587   6.562  0.6474  0.1741  0.5845
   78SLPC   C31 7106   0.730   6.527   6.676  0.6181  0.0348  0.4340
   78SLPC   O32 7107   0.667   6.428   6.697  0.0825  0.2029  0.6898
   78SLPC   C32 7108   0.809   6.611   6.782 -0.9567  0.1720 -0.5113
   78SLPC   H2X 7109   0.740   6.683   6.831  1.9977  2.5831  0.3795
   78SLPC   H2Y 7110   0.874   6.685   6.732 -1.1152  0.0128 -0.9585
   78SLPC   C23 7111   0.778   6.079   6.614 -0.2922  0.0058 -0.5361
   78SLPC   H3R 7112   0.767   5.969   6.609 -2.2554  0.1040  0.6526
   78SLPC   H3S 7113   0.673   6.114   6.605 -0.4602 -0.1072  0.7356
   78SLPC   C24 7114   0.843   6.111   6.746 -0.3072 -0.9599  0.4105
   78SLPC   H4R 7115   0.880   6.216   6.749 -1.2090 -0.6451  0.9855
   78SLPC   H4S 7116   0.945   6.067   6.755  0.2707  0.1288 -0.4501
   78SLPC   C25 7117   0.751   6.067   6.860 -0.3282 -1.0006  0.2706
   78SLPC   H5R 7118   0.812   6.041   6.949 -0.0960 -2.5214 -0.3085
   78SLPC   H5S 7119   0.696   5.974   6.833 -0.8165 -0.5031 -0.5124
   78SLPC   C26 7120   0.652   6.178   6.906 -0.4893 -0.1018  0.1808
   78SLPC   H6R 7121   0.602   6.229   6.821  1.1280 -0.2824 -0.9393
   78SLPC   H6S 7122   0.716   6.253   6.958  1.1681 -2.0836  1.1309
   78SLPC   C27 7123   0.545   6.128   7.004  0.1108 -0.1908  0.3809
   78SLPC   H7R 7124   0.568   6.028   7.046 -1.0126 -0.2981  0.7698
   78SLPC   H7S 7125   0.445   6.108   6.958 -0.5019 -1.6064  2.2056
   78SLPC   C28 7126   0.517   6.225   7.118 -0.5491 -0.7015 -0.9066
   78SLPC   H8R 7127   0.611   6.252   7.171 -0.5609 -1.1421 -0.6572
   78SLPC   H8S 7128   0.460   6.158   7.186  0.4323  0.2357  0.8971
   78SLPC   C29 7129   0.439   6.340   7.061 -0.3937  0.0484  1.1336
   78SLPC   H9R 7130   0.345   6.319   7.008  0.9926 -0.4131 -1.2733
   78SLPC  C210 7131   0.469   6.469   7.074 -0.2328 -0.0504  0.0030
   78SLPC  H10R 7132   0.409   6.547   7.026  1.2120  0.2538 -1.4086
   78SLPC  C211 7133   0.588   6.531   7.151  0.3402 -0.2841  0.1444
   78SLPC  H11R 7134   0.606   6.635   7.114  0.6795  0.0182  1.1291
   78SLPC  H11S 7135   0.689   6.490   7.128  0.1902 -0.4934 -0.1500
   78SLPC  C212 7136   0.562   6.547   7.300  0.2036  0.6080 -0.2106
   78SLPC  H12R 7137   0.483   6.615   7.334  1.0737  0.6209  1.9511
   78SLPC  C213 7138   0.638   6.486   7.399 -0.1618  0.5148  0.7251
   78SLPC  H13R 7139   0.612   6.494   7.506  0.2656 -3.4532  1.2764
   78SLPC  C214 7140   0.757   6.405   7.378 -0.3267  0.2424 -0.0859
   78SLPC  H14R 7141   0.840   6.478   7.369  0.6903 -0.6802  1.4404
   78SLPC  H14S 7142   0.758   6.335   7.291 -0.1743  0.9333 -0.6491
   78SLPC  C215 7143   0.788   6.305   7.490 -0.0056  0.0147 -0.0605
   78SLPC  H15R 7144   0.897   6.286   7.478  0.0114  0.8272 -1.3244
   78SLPC  H15S 7145   0.736   6.209   7.476  0.2937  0.0027 -1.1661
   78SLPC  C216 7146   0.769   6.359   7.639 -0.0574  0.5100 -0.6794
   78SLPC  H16R 7147   0.662   6.361   7.670  0.4697  1.1461  1.2522
   78SLPC  H16S 7148   0.805   6.464   7.648 -1.8979  1.0480  1.4004
   78SLPC  C217 7149   0.848   6.266   7.743 -0.1123  0.5610 -0.2240
   78SLPC  H17R 7150   0.957   6.277   7.727  0.8347 -3.1876  2.3415
   78SLPC  H17S 7151   0.814   6.163   7.721  1.6303 -0.1765  0.3758
   78SLPC  C218 7152   0.816   6.300   7.891  0.2584  0.3194  0.0651
   78SLPC  H18R 7153   0.712   6.270   7.917  0.8797  0.2811  2.9294
   78SLPC  H18S 7154   0.836   6.409   7.896  1.7578  0.0127  2.1229
   78SLPC  H18T 7155   0.891   6.246   7.953  0.2601 -2.0215 -1.8049
   78SLPC   C33 7156   0.881   6.530   6.889  0.2606  0.2456  0.0765
   78SLPC   H3X 7157   0.828   6.437   6.919 -0.7415  0.7585 -0.0463
   78SLPC   H3Y 7158   0.894   6.591   6.981 -2.8174  3.0725 -1.1600
   78SLPC   C34 7159   1.026   6.504   6.847  0.0695  0.4153 -0.2924
   78SLPC   H4X 7160   1.078   6.599   6.821  2.4478 -1.1744 -1.7657
   78SLPC   H4Y 7161   1.026   6.453   6.748 -1.1613  0.6652 -0.4426
   78SLPC   C35 7162   1.106   6.428   6.951  0.9189  0.3549 -0.1097
   78SLPC   H5X 7163   1.099   6.496   7.038  0.0558  0.6974 -0.4390
   78SLPC   H5Y 7164   1.210   6.411   6.916  1.1615  1.0646  0.2459
   78SLPC   C36 7165   1.049   6.288   7.000  0.1982  0.1403  0.0201
   78SLPC   H6X 7166   1.040   6.219   6.913  1.6352  2.2073 -1.9066
   78SLPC   H6Y 7167   0.944   6.299   7.035 -1.1664 -2.4533 -2.7657
   78SLPC   C37 7168   1.124   6.231   7.119  0.1417  0.6320 -0.2948
   78SLPC   H7X 7169   1.118   6.307   7.200 -2.6239  1.9529 -1.6104
   78SLPC   H7Y 7170   1.231   6.208   7.101  0.3813  1.1616  0.3855
   78SLPC   C38 7171   1.046   6.096   7.159  0.1395 -0.3612 -0.0275
   78SLPC   H8X 7172   1.026   6.031   7.072 -0.9234  0.7669 -0.6666
   78SLPC   H8Y 7173   0.946   6.128   7.197 -0.0092  0.3401 -0.9668
   78SLPC   C39 7174   1.122   6.023   7.274  0.1057 -0.0244  0.8426
   78SLPC   H9X 7175   1.229   6.015   7.247 -0.2324 -1.2635 -0.2516
   78SLPC   H9Y 7176   1.082   5.919   7.265 -0.5236  0.2469  0.3980
   78SLPC  C310 7177   1.101   6.080   7.409 -0.2059 -0.5307 -0.0672
   78SLPC  H10X 7178   0.992   6.088   7.425  0.1185 -0.1300  2.4549
   78SLPC  H10Y 7179   1.131   6.185   7.431 -2.4244  0.5916 -2.0184
   78SLPC  C311 7180   1.161   5.992   7.518  0.1493  0.7235  0.1037
   78SLPC  H11X 7181   1.269   5.973   7.505  0.4606  3.1117 -1.3439
   78SLPC  H11Y 7182   1.122   5.888   7.517  2.3062 -0.1471 -1.4567
   78SLPC  C312 7183   1.126   6.050   7.653 -0.0964  0.1960 -0.2644
   78SLPC  H12X 7184   1.016   6.064   7.663 -0.0319  0.6647 -0.1937
   78SLPC  H12Y 7185   1.172   6.150   7.664  0.7879 -0.4402  2.6635
   78SLPC  C313 7186   1.192   5.971   7.771 -0.1592 -0.4316  0.2615
   78SLPC  H13X 7187   1.300   5.974   7.743 -0.6780 -1.4253 -2.0294
   78SLPC  H13Y 7188   1.169   5.862   7.775 -1.0594 -0.2243  2.5685
   78SLPC  C314 7189   1.168   6.040   7.899 -0.1109 -0.6611  0.1286
   78SLPC  H14X 7190   1.132   6.144   7.886  0.9073 -0.6121 -2.8161
   78SLPC  H14Y 7191   1.264   6.052   7.953 -0.6056 -0.0333  0.8945
   78SLPC  C315 7192   1.078   5.972   7.998  0.4915 -1.2493  0.2359
   78SLPC  H15X 7193   1.103   5.865   8.012  1.7436 -1.0334 -0.2532
   78SLPC  H15Y 7194   0.976   5.967   7.954 -0.5900  2.3699  1.9457
   78SLPC  C316 7195   1.069   6.049   8.130  0.3698 -0.2643 -0.2769
   78SLPC  H16X 7196   1.049   6.154   8.101 -1.0359 -0.7830 -1.3454
   78SLPC  H16Y 7197   1.169   6.045   8.177 -0.0244  0.6334  0.6798
   78SLPC  C317 7198   0.962   6.000   8.220  0.3446  0.8266  0.3367
   78SLPC  H17X 7199   1.018   5.972   8.311 -0.7879  3.5192  1.9840
   78SLPC  H17Y 7200   0.908   5.908   8.189  0.9689  0.6832 -0.3598
   78SLPC  C318 7201   0.863   6.111   8.272 -0.0304 -0.2544  0.4101
   78SLPC  H18X 7202   0.797   6.150   8.191  0.4352 -2.8676 -1.3408
   78SLPC  H18Y 7203   0.932   6.197   8.288 -0.6128  0.9840 -2.9102
   78SLPC  H18Z 7204   0.792   6.081   8.352 -2.2098 -1.2250 -1.7297
   79SLPC     N 7205   0.366   3.502   6.034 -0.3204  0.3248  0.1598
   79SLPC   C13 7206   0.468   3.477   6.147  0.2054  0.7562  0.3739
   79SLPC  H13A 7207   0.524   3.391   6.113 -3.8434 -1.6529 -0.9170
   79SLPC  H13B 7208   0.531   3.562   6.169  0.9723 -0.1876  2.0234
   79SLPC  H13C 7209   0.419   3.445   6.238  1.2033  1.6187  1.2519
   79SLPC   C14 7210   0.317   3.368   5.991 -0.4753 -0.0905 -0.3107
   79SLPC  H14A 7211   0.397   3.297   5.977  0.5616  0.5922  1.8795
   79SLPC  H14B 7212   0.246   3.329   6.063 -1.1276  1.5357 -0.0482
   79SLPC  H14C 7213   0.272   3.376   5.893 -0.8164  1.6775 -0.0321
   79SLPC   C15 7214   0.443   3.566   5.919 -0.2848 -0.0294 -0.7745
   79SLPC  H15A 7215   0.477   3.664   5.950  1.2277 -1.2376  1.7537
   79SLPC  H15B 7216   0.531   3.511   5.890 -0.2671 -0.6080  0.3209
   79SLPC  H15C 7217   0.379   3.589   5.835 -2.8940 -0.3288  1.0403
   79SLPC   C12 7218   0.266   3.605   6.080  0.0612  0.3838  0.1818
   79SLPC  H12A 7219   0.176   3.600   6.020 -0.5146 -0.6627  1.1124
   79SLPC  H12B 7220   0.309   3.704   6.083 -3.2867  2.1442 -2.4583
   79SLPC   C11 7221   0.206   3.574   6.222  0.5574 -0.1504 -1.0039
   79SLPC  H11A 7222   0.127   3.642   6.260 -1.5424 -2.5145 -0.9042
   79SLPC  H11B 7223   0.289   3.578   6.296 -1.5199 -0.8396  1.5143
   79SLPC     P 7224   0.001   3.415   6.180  0.1064  0.2283  0.3396
   79SLPC   O13 7225  -0.032   3.507   6.067  0.5241  0.3218 -0.3472
   79SLPC   O14 7226  -0.015   3.269   6.156 -0.6319 -0.1672  1.0456
   79SLPC   O12 7227   0.151   3.444   6.227 -0.7023  0.5679  0.3417
   79SLPC   O11 7228  -0.065   3.456   6.319  0.2594 -0.0141  0.2808
   79SLPC    C1 7229  -0.165   3.549   6.322  0.4312  0.5775 -0.6990
   79SLPC    HA 7230  -0.118   3.650   6.328  4.8787 -1.2724 -0.3249
   79SLPC    HB 7231  -0.239   3.551   6.239 -1.9364  0.7909  1.2844
   79SLPC    C2 7232  -0.269   3.525   6.440 -0.4065 -0.2900 -0.0214
   79SLPC    HS 7233  -0.341   3.609   6.440  0.3381  0.3501  0.3433
   79SLPC   O21 7234  -0.208   3.516   6.574 -0.1210  0.0462  0.1058
   79SLPC   C21 7235  -0.139   3.620   6.620  0.0310 -0.5825 -0.5262
   79SLPC   O22 7236  -0.136   3.729   6.568  0.2189 -0.4023  0.6999
   79SLPC   C22 7237  -0.063   3.581   6.746  0.3865  0.2979  0.1376
   79SLPC   H2R 7238  -0.120   3.496   6.790  0.4518  0.2520  0.1335
   79SLPC   H2S 7239   0.035   3.549   6.705  1.3706  3.6386 -0.3795
   79SLPC    C3 7240  -0.347   3.395   6.410  0.5719  0.4307  0.4164
   79SLPC    HX 7241  -0.291   3.313   6.359 -1.2854  0.8587 -2.5591
   79SLPC    HY 7242  -0.424   3.410   6.330 -0.1838 -0.6333  0.9054
   79SLPC   O31 7243  -0.427   3.349   6.520 -0.2821 -0.0967  0.1231
   79SLPC   C31 7244  -0.368   3.257   6.594  0.0269  0.0304 -0.8812
   79SLPC   O32 7245  -0.255   3.212   6.586  0.7371 -0.0592  0.1824
   79SLPC   C32 7246  -0.465   3.209   6.697 -0.3624 -0.1675 -0.5118
   79SLPC   H2X 7247  -0.492   3.103   6.675 -0.0883 -0.1081 -1.1764
   79SLPC   H2Y 7248  -0.560   3.267   6.693 -0.8825 -0.6299  2.6517
   79SLPC   C23 7249  -0.056   3.689   6.850 -0.2742 -0.6276  0.8354
   79SLPC   H3R 7250  -0.152   3.740   6.874  0.9337  1.8763  0.6810
   79SLPC   H3S 7251   0.002   3.771   6.804  0.7138 -1.9315 -0.3440
   79SLPC   C24 7252  -0.003   3.644   6.984 -0.3563 -0.0118  0.2999
   79SLPC   H4R 7253   0.024   3.740   7.032 -0.9951  0.6398 -0.6058
   79SLPC   H4S 7254   0.091   3.585   6.984 -0.3415  0.0100  0.0632
   79SLPC   C25 7255  -0.115   3.579   7.066  0.3982  0.8246  0.5185
   79SLPC   H5R 7256  -0.120   3.471   7.044  4.7157  0.9691 -2.5736
   79SLPC   H5S 7257  -0.208   3.635   7.040  0.7941  3.4789  4.0742
   79SLPC   C26 7258  -0.096   3.606   7.216 -0.8124  0.3270 -0.2233
   79SLPC   H6R 7259  -0.088   3.710   7.253  0.2563 -0.5740  2.3511
   79SLPC   H6S 7260   0.001   3.564   7.250 -0.7545  1.0718  0.5720
   79SLPC   C27 7261  -0.208   3.535   7.302 -0.2370 -0.4341  0.4161
   79SLPC   H7R 7262  -0.209   3.431   7.265 -0.3848  0.1053 -1.1617
   79SLPC   H7S 7263  -0.310   3.573   7.278 -1.0876 -2.4805  0.6027
   79SLPC   C28 7264  -0.183   3.530   7.453 -0.0217  0.0662 -0.3778
   79SLPC   H8R 7265  -0.088   3.472   7.462 -0.5244 -0.7323 -0.1155
   79SLPC   H8S 7266  -0.267   3.476   7.501 -0.8166 -0.1663 -1.9638
   79SLPC   C29 7267  -0.173   3.670   7.520 -0.7628 -0.6336  0.4044
   79SLPC   H9R 7268  -0.255   3.743   7.512 -1.5983 -1.5565  0.3678
   79SLPC  C210 7269  -0.070   3.696   7.598 -0.2912  0.5807 -0.1652
   79SLPC  H10R 7270  -0.055   3.795   7.643  0.2684  0.5805 -0.3443
   79SLPC  C211 7271   0.049   3.613   7.637 -0.3080  0.1267  0.2681
   79SLPC  H11R 7272   0.074   3.542   7.556 -0.9943 -0.0815  0.2310
   79SLPC  H11S 7273   0.011   3.550   7.721  0.8482 -1.7648 -0.5507
   79SLPC  C212 7274   0.173   3.685   7.682  0.5701 -0.1683  0.0097
   79SLPC  H12R 7275   0.259   3.675   7.613  0.5406 -0.7005  0.0460
   79SLPC  C213 7276   0.195   3.744   7.800 -0.3688 -0.3563 -0.0523
   79SLPC  H13R 7277   0.287   3.804   7.812 -0.3609 -0.3427 -0.1815
   79SLPC  C214 7278   0.105   3.767   7.920  1.0570  0.0523 -0.1606
   79SLPC  H14R 7279   0.003   3.732   7.893  1.3432  0.5557 -2.0431
   79SLPC  H14S 7280   0.084   3.872   7.948  1.4349 -0.0097  0.3626
   79SLPC  C215 7281   0.155   3.702   8.048  0.0408 -0.2121 -0.4635
   79SLPC  H15R 7282   0.170   3.594   8.027  1.0531 -0.1440 -0.1608
   79SLPC  H15S 7283   0.076   3.712   8.126 -0.8769  0.4911 -1.4499
   79SLPC  C216 7284   0.290   3.751   8.103 -0.7223 -0.3446 -0.5272
   79SLPC  H16R 7285   0.283   3.861   8.114  1.8675 -0.0717 -1.0612
   79SLPC  H16S 7286   0.367   3.730   8.026 -0.4722  0.7943 -0.5904
   79SLPC  C217 7287   0.325   3.686   8.235 -0.1165 -0.6945 -0.0800
   79SLPC  H17R 7288   0.255   3.727   8.311  0.7054  1.1924 -0.2704
   79SLPC  H17S 7289   0.422   3.723   8.275 -0.4028  1.2563 -1.0713
   79SLPC  C218 7290   0.329   3.529   8.229 -0.1681 -0.4205 -0.8270
   79SLPC  H18R 7291   0.227   3.493   8.204 -1.2093  2.0308 -0.3592
   79SLPC  H18S 7292   0.353   3.483   8.328 -2.1565  0.2800  0.0363
   79SLPC  H18T 7293   0.393   3.492   8.146 -0.4080 -0.4505 -0.9986
   79SLPC   C33 7294  -0.412   3.215   6.840 -0.6134 -0.2933  0.3311
   79SLPC   H3X 7295  -0.404   3.322   6.867 -0.6010  0.4893 -2.4919
   79SLPC   H3Y 7296  -0.305   3.185   6.851 -0.4490 -1.1422 -2.6902
   79SLPC   C34 7297  -0.495   3.147   6.951 -0.2746  0.1537  0.7468
   79SLPC   H4X 7298  -0.490   3.039   6.922  1.6232  0.2431  0.6532
   79SLPC   H4Y 7299  -0.603   3.171   6.938 -0.7811 -2.2697 -0.2572
   79SLPC   C35 7300  -0.432   3.168   7.090 -0.2681 -0.0444 -0.0633
   79SLPC   H5X 7301  -0.431   3.275   7.118 -1.6834 -0.1188  0.3370
   79SLPC   H5Y 7302  -0.324   3.141   7.081  0.0854  0.8722  1.0541
   79SLPC   C36 7303  -0.502   3.077   7.196  0.4947  0.2631 -0.0109
   79SLPC   H6X 7304  -0.487   2.968   7.179  1.1593  0.7296 -2.8170
   79SLPC   H6Y 7305  -0.612   3.085   7.194  0.3840  3.6884  4.1978
   79SLPC   C37 7306  -0.455   3.113   7.342 -0.0237 -0.1381 -0.3380
   79SLPC   H7X 7307  -0.499   3.210   7.375  1.3424  0.4665 -0.1981
   79SLPC   H7Y 7308  -0.346   3.129   7.329 -0.0127 -1.5884 -2.5514
   79SLPC   C38 7309  -0.480   3.004   7.453 -0.0448  0.0306 -0.5199
   79SLPC   H8X 7310  -0.430   2.919   7.403  0.4515  1.2790 -2.2307
   79SLPC   H8Y 7311  -0.591   2.999   7.456 -0.0381 -0.0089 -0.3115
   79SLPC   C39 7312  -0.418   3.031   7.593 -0.3058  0.2771 -0.0064
   79SLPC   H9X 7313  -0.308   3.044   7.580 -0.3628 -0.9517 -2.3026
   79SLPC   H9Y 7314  -0.444   2.949   7.664  0.3667 -0.8960 -1.0640
   79SLPC  C310 7315  -0.492   3.160   7.646 -0.7778 -0.5228 -0.0908
   79SLPC  H10X 7316  -0.603   3.160   7.653 -0.7408  1.3875  2.2767
   79SLPC  H10Y 7317  -0.477   3.245   7.575 -0.7023  0.3910  0.9837
   79SLPC  C311 7318  -0.451   3.206   7.795  0.0249 -0.2457 -0.0926
   79SLPC  H11X 7319  -0.461   3.315   7.813 -0.5553 -0.2518 -0.3677
   79SLPC  H11Y 7320  -0.341   3.191   7.809  0.0839  1.3039  1.4876
   79SLPC  C312 7321  -0.536   3.133   7.903  0.2592 -0.7870 -0.1220
   79SLPC  H12X 7322  -0.566   3.035   7.862 -0.5077  0.0021 -1.5485
   79SLPC  H12Y 7323  -0.631   3.189   7.916  1.7038  1.8013 -0.0083
   79SLPC  C313 7324  -0.461   3.112   8.030 -0.4896 -0.7417 -0.0619
   79SLPC  H13X 7325  -0.365   3.062   8.004 -0.5347 -0.1915 -1.3845
   79SLPC  H13Y 7326  -0.520   3.054   8.104 -2.4014 -1.0218 -1.7373
   79SLPC  C314 7327  -0.405   3.242   8.101  0.5680  0.5273  0.9704
   79SLPC  H14X 7328  -0.496   3.304   8.114 -1.5359 -1.8879 -1.0123
   79SLPC  H14Y 7329  -0.327   3.296   8.043 -1.1655  0.2992 -1.7957
   79SLPC  C315 7330  -0.340   3.209   8.237  0.2510 -0.2445 -0.0740
   79SLPC  H15X 7331  -0.271   3.289   8.273  0.0947 -0.5173  0.8703
   79SLPC  H15Y 7332  -0.273   3.121   8.228  0.6252 -0.1613  1.5728
   79SLPC  C316 7333  -0.446   3.178   8.344 -0.2604  0.1428  0.1789
   79SLPC  H16X 7334  -0.482   3.073   8.350 -2.5760  0.7728 -1.3117
   79SLPC  H16Y 7335  -0.537   3.235   8.314  1.9728  4.6022  1.0609
   79SLPC  C317 7336  -0.396   3.236   8.481 -0.3173  0.5193  0.2929
   79SLPC  H17X 7337  -0.476   3.246   8.558  0.7711  1.9721  1.2897
   79SLPC  H17Y 7338  -0.377   3.345   8.469 -0.2195  0.4658 -0.0377
   79SLPC  C318 7339  -0.272   3.162   8.540  0.3934  0.6575  0.0222
   79SLPC  H18X 7340  -0.190   3.167   8.465 -1.3046 -1.6846 -2.1569
   79SLPC  H18Y 7341  -0.298   3.057   8.562 -2.1809  1.2079 -0.0038
   79SLPC  H18Z 7342  -0.246   3.212   8.636  0.8253 -0.2723  0.3938
   80SLPC     N 7343   6.513   6.758   6.126  0.3342 -0.2277 -0.4223
   80SLPC   C13 7344   6.554   6.614   6.124  0.4100  0.7680  0.1274
   80SLPC  H13A 7345   6.472   6.545   6.136  0.9134  0.1796  0.2429
   80SLPC  H13B 7346   6.591   6.584   6.027 -0.8830 -1.4470  0.2686
   80SLPC  H13C 7347   6.627   6.586   6.199 -1.7127 -1.5216  1.4814
   80SLPC   C14 7348   6.390   6.786   6.046  0.4505  0.4260  0.6819
   80SLPC  H14A 7349   6.299   6.776   6.103  0.2813  1.9676  0.7178
   80SLPC  H14B 7350   6.389   6.885   6.003 -0.9412  0.4018  0.6339
   80SLPC  H14C 7351   6.379   6.707   5.974  1.9920 -0.4056  1.3089
   80SLPC   C15 7352   6.619   6.852   6.073 -0.1264  0.6271 -0.5726
   80SLPC  H15A 7353   6.713   6.816   6.112  0.6389  1.5964 -1.4566
   80SLPC  H15B 7354   6.621   6.859   5.966 -1.6692 -0.5643 -0.7204
   80SLPC  H15C 7355   6.607   6.952   6.115 -1.9161  0.9155 -1.6453
   80SLPC   C12 7356   6.485   6.789   6.273 -0.7451 -0.0223  0.6781
   80SLPC  H12A 7357   6.417   6.709   6.300 -1.8446  0.6338 -0.0645
   80SLPC  H12B 7358   6.425   6.878   6.291  2.6821  2.1509  2.4445
   80SLPC   C11 7359   6.603   6.810   6.374  0.4141  0.5616  0.8950
   80SLPC  H11A 7360   6.682   6.735   6.352  1.1590  1.5241  0.1266
   80SLPC  H11B 7361   6.577   6.792   6.480 -0.8022  0.6189  0.6184
   80SLPC     P 7362   6.578   7.075   6.372  0.5777  0.0885 -0.0025
   80SLPC   O13 7363   6.604   7.166   6.259 -0.1015  0.0170  0.4303
   80SLPC   O14 7364   6.437   7.043   6.396 -0.6264  0.2095 -0.0535
   80SLPC   O12 7365   6.657   6.940   6.358 -0.7337  0.2184 -0.1354
   80SLPC   O11 7366   6.629   7.140   6.504 -0.4220 -0.4456  0.6631
   80SLPC    C1 7367   6.610   7.068   6.620  0.1105 -0.2499 -0.5267
   80SLPC    HA 7368   6.513   7.014   6.624 -1.5171  2.4944  1.9427
   80SLPC    HB 7369   6.695   6.998   6.628  0.5663  0.4531  1.8231
   80SLPC    C2 7370   6.601   7.172   6.735  0.0845 -0.4915 -0.2246
   80SLPC    HS 7371   6.684   7.242   6.713  1.5187 -2.4096 -1.3081
   80SLPC   O21 7372   6.613   7.100   6.859 -0.2973  0.8289 -0.3203
   80SLPC   C21 7373   6.662   7.179   6.957  1.0958 -0.6675 -0.0753
   80SLPC   O22 7374   6.684   7.300   6.949  0.4337  0.8506 -0.2084
   80SLPC   C22 7375   6.682   7.101   7.087  0.8294  0.3481  0.2949
   80SLPC   H2R 7376   6.579   7.073   7.117  0.6925  1.1148  0.5611
   80SLPC   H2S 7377   6.740   7.011   7.057  2.3496  1.0016  1.1859
   80SLPC    C3 7378   6.463   7.253   6.719 -0.7248  0.0975  0.6437
   80SLPC    HX 7379   6.388   7.178   6.687  0.7548 -0.3171 -2.2273
   80SLPC    HY 7380   6.472   7.318   6.630  1.3130  0.0633  0.7799
   80SLPC   O31 7381   6.433   7.337   6.834 -0.0549  0.4130 -0.0474
   80SLPC   C31 7382   6.352   7.282   6.922 -0.0205  0.3776  0.0825
   80SLPC   O32 7383   6.326   7.161   6.923  0.6313 -0.1344  0.5608
   80SLPC   C32 7384   6.324   7.380   7.024 -0.3462 -0.3388  0.1386
   80SLPC   H2X 7385   6.249   7.455   6.991 -0.4725 -0.2359  0.6471
   80SLPC   H2Y 7386   6.419   7.433   7.044 -1.2992  0.9873  1.3805
   80SLPC   C23 7387   6.754   7.175   7.203 -0.2330  0.4357  1.1702
   80SLPC   H3R 7388   6.835   7.243   7.169  0.5279 -0.6493  0.7472
   80SLPC   H3S 7389   6.796   7.099   7.272 -0.2427 -1.9555 -1.3069
   80SLPC   C24 7390   6.654   7.255   7.277 -0.4246 -0.1513 -0.4592
   80SLPC   H4R 7391   6.572   7.185   7.305  0.5929 -0.6973  1.3329
   80SLPC   H4S 7392   6.614   7.341   7.219 -0.8204  1.0966  1.5652
   80SLPC   C25 7393   6.698   7.313   7.411  0.1095  0.5637  0.0041
   80SLPC   H5R 7394   6.638   7.405   7.425 -2.7024 -1.2023  0.5117
   80SLPC   H5S 7395   6.803   7.350   7.409 -0.4658  2.3022  0.7986
   80SLPC   C26 7396   6.674   7.224   7.531 -0.3289  0.1741 -0.6909
   80SLPC   H6R 7397   6.730   7.128   7.530 -0.1873  0.2451 -0.1064
   80SLPC   H6S 7398   6.568   7.191   7.526  0.0181 -1.1107 -0.1988
   80SLPC   C27 7399   6.695   7.289   7.670  0.3846  0.8016  0.7389
   80SLPC   H7R 7400   6.613   7.365   7.665  0.5152  0.9567  0.9279
   80SLPC   H7S 7401   6.793   7.339   7.654  1.2409 -0.4762  1.7865
   80SLPC   C28 7402   6.682   7.197   7.787 -0.9017 -0.1337 -0.0626
   80SLPC   H8R 7403   6.776   7.138   7.788  0.0842  1.3776  0.7692
   80SLPC   H8S 7404   6.603   7.121   7.773 -0.9714  0.0625 -0.7683
   80SLPC   C29 7405   6.672   7.285   7.912  0.3878 -0.2505  0.3087
   80SLPC   H9R 7406   6.598   7.366   7.907 -1.0319 -1.5846 -0.9896
   80SLPC  C210 7407   6.749   7.271   8.025  0.8161 -0.8757  0.3314
   80SLPC  H10R 7408   6.729   7.345   8.103 -2.9971  0.1777 -1.3819
   80SLPC  C211 7409   6.854   7.165   8.052  0.2914  0.9281  0.3488
   80SLPC  H11R 7410   6.954   7.213   8.057  0.5556  0.2875  2.2742
   80SLPC  H11S 7411   6.857   7.092   7.969 -3.3547 -0.1360  1.0093
   80SLPC  C212 7412   6.811   7.094   8.185 -0.1982  0.1467 -0.2934
   80SLPC  H12R 7413   6.806   7.158   8.275  0.7614  0.5385 -0.5034
   80SLPC  C213 7414   6.794   6.962   8.215  0.4171  0.1782 -0.1811
   80SLPC  H13R 7415   6.750   6.942   8.314 -0.8578 -0.2186 -0.8119
   80SLPC  C214 7416   6.830   6.843   8.131 -0.3256 -0.4268  0.9119
   80SLPC  H14R 7417   6.910   6.874   8.061 -0.6238 -2.2068 -0.2676
   80SLPC  H14S 7418   6.748   6.794   8.075 -0.3694 -0.9245  1.4003
   80SLPC  C215 7419   6.905   6.736   8.219 -0.1876  0.0019 -0.1740
   80SLPC  H15R 7420   6.974   6.798   8.280  1.0901 -1.1750 -0.3611
   80SLPC  H15S 7421   6.957   6.659   8.158 -1.1099  0.8993 -2.2028
   80SLPC  C216 7422   6.817   6.665   8.320  0.3439  0.5009 -0.1680
   80SLPC  H16R 7423   6.747   6.610   8.253  1.1261  0.6261 -1.1183
   80SLPC  H16S 7424   6.756   6.738   8.377  1.9678  1.4614  0.3996
   80SLPC  C217 7425   6.885   6.574   8.417  0.3814  0.1008 -0.6117
   80SLPC  H17R 7426   6.927   6.638   8.497 -3.7608  2.1714  0.1843
   80SLPC  H17S 7427   6.964   6.506   8.377 -0.8678 -0.2196 -2.6936
   80SLPC  C218 7428   6.790   6.478   8.491  0.3312 -0.4510  0.2575
   80SLPC  H18R 7429   6.827   6.431   8.585 -2.7548 -1.9241  0.8724
   80SLPC  H18S 7430   6.774   6.392   8.422  1.7140 -2.2237  2.0227
   80SLPC  H18T 7431   6.694   6.530   8.512  1.2890  1.5495 -0.1070
   80SLPC   C33 7432   6.286   7.314   7.159  0.0049  0.7934  0.4204
   80SLPC   H3X 7433   6.364   7.239   7.186  1.4140  1.9738 -0.2087
   80SLPC   H3Y 7434   6.205   7.240   7.142  1.2597 -0.2610 -1.5313
   80SLPC   C34 7435   6.260   7.417   7.271  0.0404 -0.3870 -0.4628
   80SLPC   H4X 7436   6.184   7.486   7.227 -1.8486 -2.3378 -0.4348
   80SLPC   H4Y 7437   6.361   7.463   7.276 -0.1641  0.0896 -0.7182
   80SLPC   C35 7438   6.211   7.376   7.412  0.3453 -0.6164 -0.6810
   80SLPC   H5X 7439   6.262   7.285   7.451  1.8169 -0.9119 -3.0601
   80SLPC   H5Y 7440   6.106   7.341   7.400 -0.9719  2.5741  0.5811
   80SLPC   C36 7441   6.224   7.484   7.516  0.0906  0.0368 -0.0104
   80SLPC   H6X 7442   6.178   7.577   7.477 -0.8202 -1.1130 -1.7927
   80SLPC   H6Y 7443   6.328   7.515   7.539 -0.6143  1.3815  1.5405
   80SLPC   C37 7444   6.167   7.450   7.654 -0.3252  0.0223  0.3542
   80SLPC   H7X 7445   6.057   7.436   7.650 -0.3335 -0.5097  1.8628
   80SLPC   H7Y 7446   6.180   7.536   7.724  0.7673  1.5137 -1.5799
   80SLPC   C38 7447   6.224   7.321   7.719  0.6023  0.5845  0.7785
   80SLPC   H8X 7448   6.326   7.305   7.679 -0.4556  0.0419 -1.9197
   80SLPC   H8Y 7449   6.157   7.244   7.675 -0.8124  2.0938  0.1663
   80SLPC   C39 7450   6.221   7.317   7.873  0.0160 -0.5404  0.2476
   80SLPC   H9X 7451   6.117   7.297   7.909  0.3517 -0.3780  1.3304
   80SLPC   H9Y 7452   6.245   7.418   7.911 -1.5691 -0.9967  2.6964
   80SLPC  C310 7453   6.319   7.215   7.932  0.1555  0.6529 -0.5228
   80SLPC  H10X 7454   6.422   7.230   7.891  1.0984 -2.9008  0.2061
   80SLPC  H10Y 7455   6.307   7.109   7.901  1.0588  0.0423  1.0755
   80SLPC  C311 7456   6.332   7.237   8.085 -0.1375  0.1687 -0.8986
   80SLPC  H11X 7457   6.232   7.235   8.133  0.9770  3.2738  1.8975
   80SLPC  H11Y 7458   6.370   7.340   8.099 -1.2189  0.5017 -0.3249
   80SLPC  C312 7459   6.421   7.129   8.154  0.2095 -0.5218  0.4225
   80SLPC  H12X 7460   6.485   7.159   8.240 -1.3503  1.2179  1.0367
   80SLPC  H12Y 7461   6.493   7.101   8.074 -1.9467  0.3448 -1.9767
   80SLPC  C313 7462   6.342   7.011   8.195 -0.4217  0.2765  0.1668
   80SLPC  H13X 7463   6.270   6.995   8.111  0.8912 -2.0988 -0.5893
   80SLPC  H13Y 7464   6.284   7.033   8.287  1.3967 -0.2163  1.4889
   80SLPC  C314 7465   6.427   6.886   8.213  0.1712  0.0381 -0.4040
   80SLPC  H14X 7466   6.514   6.911   8.278 -0.6991 -1.1106  1.2727
   80SLPC  H14Y 7467   6.472   6.868   8.113 -2.3098  1.9169 -2.0041
   80SLPC  C315 7468   6.367   6.758   8.268 -0.0055  0.2754  0.5691
   80SLPC  H15X 7469   6.279   6.730   8.206 -0.0018  1.0301  0.2085
   80SLPC  H15Y 7470   6.326   6.785   8.369 -0.5272  0.2622  0.3656
   80SLPC  C316 7471   6.467   6.645   8.299  0.2067 -0.1917  0.4414
   80SLPC  H16X 7472   6.536   6.687   8.376  1.1215 -1.0566  0.1272
   80SLPC  H16Y 7473   6.522   6.632   8.203 -0.3473  0.2830  0.0522
   80SLPC  C317 7474   6.418   6.517   8.363  0.0419  0.1496 -0.7531
   80SLPC  H17X 7475   6.495   6.438   8.356  1.1575  1.1001  0.2704
   80SLPC  H17Y 7476   6.330   6.476   8.308 -0.9360  0.7037  0.3538
   80SLPC  C318 7477   6.371   6.527   8.510  0.5104  0.2525  0.6255
   80SLPC  H18X 7478   6.277   6.582   8.532 -0.1385 -1.4905  2.4814
   80SLPC  H18Y 7479   6.455   6.555   8.576 -0.1669 -0.3519  1.7697
   80SLPC  H18Z 7480   6.350   6.423   8.544  4.2050 -1.8547 -2.7515
   81SAPS     N 7481   4.634   6.120  10.915  0.3158  0.1383  0.4482
   81SAPS   HN1 7482   4.590   6.103  10.822  0.8749 -1.9844  0.5163
   81SAPS   HN2 7483   4.561   6.160  10.977  2.4256 -0.3030  3.3921
   81SAPS   HN3 7484   4.717   6.182  10.903 -2.1854  3.3685 -2.1415
   81SAPS   C12 7485   4.688   5.986  10.962 -0.2495 -0.2268 -0.7124
   81SAPS  H12A 7486   4.752   6.010  11.046  1.1066  0.5353 -1.9216
   81SAPS   C13 7487   4.582   5.889  11.014 -0.3007 -0.3288  0.7964
   81SAPS  O13A 7488   4.464   5.923  11.027 -0.6767  0.1961  0.2378
   81SAPS  O13B 7489   4.624   5.770  11.048  0.6022 -0.2714  0.0731
   81SAPS   C11 7490   4.770   5.924  10.847  0.8677 -0.5713 -0.2763
   81SAPS  H11A 7491   4.705   5.911  10.758 -0.7021 -0.6422  0.8420
   81SAPS  H11B 7492   4.807   5.819  10.857  2.3947 -0.4862 -3.7137
   81SAPS     P 7493   5.014   6.015  10.904  0.3357 -0.1212  0.1811
   81SAPS   O13 7494   5.076   6.149  10.904  0.2554 -0.0081 -0.3868
   81SAPS   O14 7495   4.999   5.950  11.031  0.3597 -0.5328 -0.3467
   81SAPS   O12 7496   4.875   6.023  10.825 -0.0573  0.3629  0.2883
   81SAPS   O11 7497   5.098   5.925  10.818 -0.1299  0.0744  0.0413
   81SAPS    C1 7498   5.072   5.906  10.674  0.2907 -0.3145  0.0194
   81SAPS    HA 7499   4.979   5.848  10.658 -0.6047  1.2768 -0.7815
   81SAPS    HB 7500   5.033   6.001  10.631 -1.3965  0.0882  2.2890
   81SAPS    C2 7501   5.186   5.835  10.586 -0.0953 -0.0682 -0.4699
   81SAPS    HS 7502   5.229   5.751  10.645  0.9542  0.7683 -0.0205
   81SAPS   O21 7503   5.283   5.942  10.568  0.1873 -0.3585  0.1272
   81SAPS   C21 7504   5.260   6.036  10.477 -0.8974 -0.4376 -0.5304
   81SAPS   O22 7505   5.164   6.038  10.409 -0.2294  0.0319  0.9643
   81SAPS   C22 7506   5.373   6.137  10.485 -0.2206  0.8080 -0.8040
   81SAPS   H2R 7507   5.350   6.195  10.577 -1.8374  0.3804 -0.9127
   81SAPS   H2S 7508   5.469   6.082  10.487 -0.3203  0.6326 -0.8682
   81SAPS    C3 7509   5.123   5.772  10.455 -0.4272  0.0899 -0.4015
   81SAPS    HX 7510   5.024   5.820  10.437 -0.0523 -0.1178 -3.7844
   81SAPS    HY 7511   5.105   5.669  10.492  0.9577  0.1943  0.6173
   81SAPS   O31 7512   5.220   5.776  10.346 -0.1490 -0.4530 -0.3034
   81SAPS   C31 7513   5.209   5.676  10.255  0.2256  0.5480  0.1909
   81SAPS   O32 7514   5.132   5.582  10.263 -0.4371 -0.3699  0.1069
   81SAPS   C32 7515   5.311   5.692  10.146 -0.0635  0.5547 -0.2392
   81SAPS   H2X 7516   5.408   5.734  10.181 -0.0103  0.8549 -0.7377
   81SAPS   H2Y 7517   5.271   5.764  10.072  0.4385  1.8355  0.6977
   81SAPS   C23 7518   5.376   6.230  10.363  0.7195  0.6883  0.1855
   81SAPS   H3R 7519   5.396   6.332  10.402  1.6417  0.6149 -0.0828
   81SAPS   H3S 7520   5.272   6.233  10.322 -0.4722 -2.3255  2.5954
   81SAPS   C24 7521   5.480   6.202  10.257 -0.1235  0.0532  0.5584
   81SAPS   H4R 7522   5.585   6.206  10.294  0.9966  1.3157 -2.4184
   81SAPS   H4S 7523   5.483   6.290  10.188 -0.0588  0.3086  0.8831
   81SAPS   C25 7524   5.457   6.079  10.176  0.7508 -0.2080 -0.3234
   81SAPS   H5R 7525   5.381   6.013  10.220 -1.0176  2.0285  0.2122
   81SAPS   C26 7526   5.502   6.051  10.053  0.2043  0.0599 -0.0875
   81SAPS   H6R 7527   5.466   5.959  10.005  0.0687  0.1492 -0.1586
   81SAPS   C27 7528   5.592   6.138   9.972 -0.6090 -0.1513 -0.6075
   81SAPS   H7R 7529   5.656   6.208  10.030  0.2570 -1.8665  0.5809
   81SAPS   H7S 7530   5.537   6.212   9.910  1.5894  1.3853 -0.8649
   81SAPS   C28 7531   5.678   6.051   9.890  1.0566 -0.1466  0.5324
   81SAPS   H8R 7532   5.707   5.952   9.927  0.9260 -0.7285 -0.8873
   81SAPS   C29 7533   5.706   6.077   9.763 -0.2176  0.2914 -0.3072
   81SAPS   H9R 7534   5.773   6.002   9.719  0.3416 -0.0581  1.0911
   81SAPS  C210 7535   5.682   6.193   9.675 -0.3142  0.0088 -0.2680
   81SAPS  H10R 7536   5.770   6.205   9.608  2.9142 -0.9488  3.4161
   81SAPS  H10S 7537   5.675   6.286   9.736  3.4076 -1.4065  2.7049
   81SAPS  C211 7538   5.559   6.176   9.591 -0.2487  0.3538  0.6745
   81SAPS  H11R 7539   5.469   6.151   9.649 -0.3017 -4.9445 -1.1730
   81SAPS  C212 7540   5.539   6.171   9.456  1.5468  0.0704 -0.5690
   81SAPS  H12R 7541   5.434   6.158   9.427  1.5894 -0.7902 -0.3529
   81SAPS  C213 7542   5.647   6.171   9.351 -0.9882 -0.7092  0.0610
   81SAPS  H13R 7543   5.709   6.260   9.378  0.7673 -1.9434  0.2540
   81SAPS  H13S 7544   5.594   6.205   9.259  0.5864 -0.5076 -0.8100
   81SAPS  C214 7545   5.713   6.038   9.333 -0.6061  0.1320  0.0940
   81SAPS  H14R 7546   5.723   5.982   9.427  0.3807  1.9772  1.1538
   81SAPS  C215 7547   5.776   6.001   9.219  0.6920 -0.0755  0.4164
   81SAPS  H15R 7548   5.824   5.902   9.220 -0.3165 -0.5757  0.0243
   81SAPS  C216 7549   5.776   6.074   9.078 -0.5389 -0.1211 -0.4088
   81SAPS  H16R 7550   5.884   6.083   9.052 -0.3283  0.6441  0.6986
   81SAPS  H16S 7551   5.743   6.179   9.087 -0.2753 -0.0732  0.0129
   81SAPS  C217 7552   5.698   5.982   8.977 -0.3616  0.8021 -0.4251
   81SAPS  H17R 7553   5.683   6.042   8.885  1.2181 -0.1213 -1.3192
   81SAPS  H17S 7554   5.601   5.943   9.014  0.9414 -0.4222  1.9950
   81SAPS  C218 7555   5.770   5.850   8.948  0.1425  1.5992  0.8499
   81SAPS  H18R 7556   5.768   5.782   9.036 -1.0262  2.5418  1.5867
   81SAPS  H18S 7557   5.880   5.861   8.936  0.9482 -3.2625  1.8168
   81SAPS  C219 7558   5.703   5.789   8.825 -0.3219  0.6952  0.2628
   81SAPS  H19R 7559   5.691   5.864   8.743  0.2611  0.2579 -0.2270
   81SAPS  H19S 7560   5.598   5.758   8.845  0.1141 -0.9081  0.2050
   81SAPS  C220 7561   5.790   5.688   8.749  0.0907  0.2840  1.0819
   81SAPS  H20R 7562   5.818   5.592   8.799  1.0395 -0.1884 -0.2916
   81SAPS  H20S 7563   5.889   5.727   8.719  0.6345 -2.3577 -0.9259
   81SAPS  H20T 7564   5.734   5.659   8.657  0.3809 -2.1511  1.5985
   81SAPS   C33 7565   5.346   5.559  10.070  0.0002  0.9452 -0.0732
   81SAPS   H3X 7566   5.258   5.514  10.019  0.5726  1.5126 -1.6315
   81SAPS   H3Y 7567   5.380   5.484  10.144 -0.4820  0.8356  0.0397
   81SAPS   C34 7568   5.459   5.583   9.969 -0.6504  0.6128 -0.1816
   81SAPS   H4X 7569   5.483   5.488   9.918 -2.2724 -0.7215  1.4039
   81SAPS   H4Y 7570   5.546   5.614  10.031  0.2592 -3.2881  0.7564
   81SAPS   C35 7571   5.430   5.695   9.860 -0.2857  0.0601 -0.2705
   81SAPS   H5X 7572   5.408   5.793   9.908  0.6540  0.7461 -1.2175
   81SAPS   H5Y 7573   5.334   5.673   9.809  0.4123 -0.0651 -1.5582
   81SAPS   C36 7574   5.533   5.709   9.751  0.1373  0.1537  1.1220
   81SAPS   H6X 7575   5.560   5.612   9.704 -0.2128 -0.1540  1.5532
   81SAPS   H6Y 7576   5.629   5.741   9.798  0.2521  2.5047 -0.5007
   81SAPS   C37 7577   5.497   5.804   9.631 -0.2953 -0.1474 -0.4286
   81SAPS   H7X 7578   5.587   5.847   9.582 -0.0481 -0.9440 -0.6855
   81SAPS   H7Y 7579   5.426   5.884   9.663 -0.9128 -1.1856  0.8886
   81SAPS   C38 7580   5.420   5.737   9.519 -0.7067  0.0593 -0.5240
   81SAPS   H8X 7581   5.395   5.812   9.441  1.0717 -0.3966 -1.5996
   81SAPS   H8Y 7582   5.328   5.687   9.555 -0.8806 -0.7017 -1.9534
   81SAPS   C39 7583   5.485   5.618   9.448  0.2633 -0.3335  0.4502
   81SAPS   H9X 7584   5.479   5.525   9.509  1.0355 -1.9912 -1.8331
   81SAPS   H9Y 7585   5.595   5.623   9.431  0.1948  1.2192  0.3627
   81SAPS  C310 7586   5.433   5.583   9.302  1.0837  0.2942  0.5491
   81SAPS  H10X 7587   5.323   5.588   9.305  1.1133  1.5226 -0.0461
   81SAPS  H10Y 7588   5.466   5.483   9.265 -2.3549  0.3222 -3.2997
   81SAPS  C311 7589   5.486   5.682   9.194  0.1487 -0.0864  0.1863
   81SAPS  H11X 7590   5.582   5.646   9.152  0.2612 -0.6063  0.8722
   81SAPS  H11Y 7591   5.512   5.781   9.238 -0.6928  0.6731 -0.9612
   81SAPS  C312 7592   5.381   5.692   9.074 -0.3899  0.4559  0.1342
   81SAPS  H12X 7593   5.421   5.763   8.998 -1.6785  0.4123 -0.6224
   81SAPS  H12Y 7594   5.284   5.731   9.111 -0.9110 -0.3249 -0.3858
   81SAPS  C313 7595   5.361   5.554   9.017  0.5223 -0.5954  0.0766
   81SAPS  H13X 7596   5.317   5.494   9.099 -0.3130 -0.4845 -0.2844
   81SAPS  H13Y 7597   5.457   5.500   8.996  1.2213 -0.2776  2.2346
   81SAPS  C314 7598   5.274   5.534   8.892  0.3191  0.3876 -0.1449
   81SAPS  H14X 7599   5.276   5.426   8.866 -0.8889  0.9842 -2.9940
   81SAPS  H14Y 7600   5.311   5.576   8.796 -2.0392 -0.4990 -1.5097
   81SAPS  C315 7601   5.125   5.563   8.908  0.6214  0.3868 -0.2794
   81SAPS  H15X 7602   5.068   5.553   8.814 -1.1802 -0.1676  0.8197
   81SAPS  H15Y 7603   5.115   5.671   8.932  1.7289  0.6103 -0.7560
   81SAPS  C316 7604   5.047   5.499   9.019  0.8713 -0.4472 -0.2125
   81SAPS  H16X 7605   4.956   5.562   9.024  0.9798 -0.2410 -0.7047
   81SAPS  H16Y 7606   5.105   5.521   9.111  1.9589  1.0234 -1.1897
   81SAPS  C317 7607   5.037   5.342   9.011  0.2058  0.1542 -0.1943
   81SAPS  H17X 7608   5.139   5.309   8.982 -0.1156  2.0096 -3.9824
   81SAPS  H17Y 7609   4.968   5.314   8.929 -1.4541 -2.6893  1.9811
   81SAPS  C318 7610   4.978   5.278   9.141 -0.1743  0.1623 -0.7341
   81SAPS  H18X 7611   5.022   5.334   9.227 -1.1346  3.8968 -2.4937
   81SAPS  H18Y 7612   5.018   5.174   9.143 -1.7706 -0.4650  0.6413
   81SAPS  H18Z 7613   4.868   5.280   9.150 -0.2524 -0.0866 -1.6018
   82SAPS     N 7614   4.598   5.561  10.885 -1.0311 -0.0724  0.1240
   82SAPS   HN1 7615   4.585   5.653  10.933 -0.1457  0.2833 -0.2962
   82SAPS   HN2 7616   4.642   5.581  10.793 -0.9227 -0.9852 -0.0249
   82SAPS   HN3 7617   4.508   5.511  10.869 -2.1122  1.3087  1.5184
   82SAPS   C12 7618   4.685   5.470  10.976 -0.1111  0.4288 -0.1079
   82SAPS  H12A 7619   4.764   5.528  11.022 -0.4853  1.7535 -1.0602
   82SAPS   C13 7620   4.606   5.414  11.095  0.4104 -0.0541  0.3319
   82SAPS  O13A 7621   4.496   5.468  11.127 -0.4808  0.2971 -0.2183
   82SAPS  O13B 7622   4.662   5.325  11.161  0.6475  0.2883 -0.0051
   82SAPS   C11 7623   4.739   5.347  10.891 -0.4772 -0.7713 -0.3574
   82SAPS  H11A 7624   4.662   5.274  10.859  1.9862 -2.8031 -2.0294
   82SAPS  H11B 7625   4.805   5.291  10.960  0.6805 -1.1605 -1.7289
   82SAPS     P 7626   4.838   5.299  10.653 -0.0625  0.2034 -0.2255
   82SAPS   O13 7627   4.898   5.380  10.545 -0.0377  0.2592 -0.3804
   82SAPS   O14 7628   4.920   5.191  10.712 -0.5792  1.0734  0.4149
   82SAPS   O12 7629   4.818   5.394  10.778  0.2667 -0.5272  0.3549
   82SAPS   O11 7630   4.684   5.255  10.631 -0.3637  0.1871  0.2048
   82SAPS    C1 7631   4.583   5.337  10.557  0.2873 -0.0090 -0.4724
   82SAPS    HA 7632   4.486   5.323  10.609  0.0333 -0.2841 -1.0119
   82SAPS    HB 7633   4.608   5.444  10.545  0.0071  0.2352  0.9150
   82SAPS    C2 7634   4.569   5.293  10.407  1.0741 -0.1619 -0.2388
   82SAPS    HS 7635   4.532   5.188  10.410 -1.7158  0.7499  0.8360
   82SAPS   O21 7636   4.690   5.320  10.333 -0.3277 -0.0824  0.1883
   82SAPS   C21 7637   4.775   5.216  10.312 -0.2540  0.4720 -0.0288
   82SAPS   O22 7638   4.763   5.107  10.357 -0.1798 -0.6941 -0.7675
   82SAPS   C22 7639   4.901   5.263  10.235  0.7422 -0.2025 -0.0399
   82SAPS   H2R 7640   4.944   5.353  10.283 -1.3977  0.0743  1.4801
   82SAPS   H2S 7641   4.971   5.177  10.224  0.0964 -0.4634 -2.6528
   82SAPS    C3 7642   4.447   5.374  10.338  0.0363 -0.1486 -0.2502
   82SAPS    HX 7643   4.493   5.460  10.285  3.2141 -0.7759  1.2485
   82SAPS    HY 7644   4.376   5.409  10.417  0.3798 -0.8691  0.3968
   82SAPS   O31 7645   4.382   5.290  10.237  0.2875 -0.5638  0.0195
   82SAPS   C31 7646   4.255   5.322  10.204 -0.7002 -0.0976  0.0773
   82SAPS   O32 7647   4.193   5.418  10.247 -0.1587 -0.0452  0.3166
   82SAPS   C32 7648   4.212   5.222  10.098 -0.9488  0.1621 -1.1475
   82SAPS   H2X 7649   4.113   5.193  10.140  0.1257 -0.7513  0.8475
   82SAPS   H2Y 7650   4.265   5.125  10.098  3.1027  2.1115  2.0144
   82SAPS   C23 7651   4.857   5.304  10.091  0.6494  0.0344 -0.9473
   82SAPS   H3R 7652   4.789   5.391  10.100  1.3906  0.4154  2.2123
   82SAPS   H3S 7653   4.799   5.224  10.040 -1.5043  1.8049 -1.4193
   82SAPS   C24 7654   4.982   5.341  10.007  0.0116 -0.5966 -0.5804
   82SAPS   H4R 7655   5.058   5.261   9.998  0.2622 -0.3938 -0.3199
   82SAPS   H4S 7656   5.039   5.421  10.060 -0.5093  0.1371 -1.0931
   82SAPS   C25 7657   4.946   5.391   9.860 -0.0826  0.0190 -0.6185
   82SAPS   H5R 7658   4.866   5.466   9.858 -0.4044 -0.3347 -0.9876
   82SAPS   C26 7659   4.982   5.343   9.741  0.2684 -0.5378  0.8437
   82SAPS   H6R 7660   4.956   5.413   9.661  0.5973 -1.6466 -0.2610
   82SAPS   C27 7661   5.073   5.232   9.709 -0.3601  0.0397 -0.2662
   82SAPS   H7R 7662   5.050   5.174   9.618  0.6551  2.6084 -2.3123
   82SAPS   H7S 7663   5.073   5.151   9.784  0.0120  0.3122  0.0369
   82SAPS   C28 7664   5.218   5.290   9.694 -0.3689  0.2654 -0.4655
   82SAPS   H8R 7665   5.239   5.375   9.761 -1.6582  0.1745  0.0729
   82SAPS   C29 7666   5.318   5.239   9.618 -0.1663 -0.3663  0.5374
   82SAPS   H9R 7667   5.418   5.284   9.630  0.2083 -0.3968 -1.8960
   82SAPS  C210 7668   5.298   5.125   9.512  0.0558 -0.3001  0.9145
   82SAPS  H10R 7669   5.195   5.082   9.511 -0.1777  0.1477 -1.4397
   82SAPS  H10S 7670   5.371   5.048   9.544  1.0802 -0.2504 -1.1120
   82SAPS  C211 7671   5.338   5.176   9.377 -0.3705 -0.3042 -0.1291
   82SAPS  H11R 7672   5.287   5.267   9.341  0.9958  0.5761  0.1067
   82SAPS  C212 7673   5.429   5.127   9.291 -0.9315  0.2745  0.4350
   82SAPS  H12R 7674   5.429   5.174   9.191 -1.3978  1.7348  1.0884
   82SAPS  C213 7675   5.509   5.002   9.315 -0.1138  0.6988 -0.5969
   82SAPS  H13R 7676   5.453   4.914   9.278  0.2720 -0.9755  2.4743
   82SAPS  H13S 7677   5.528   4.985   9.423  2.9152 -0.7537 -1.2376
   82SAPS  C214 7678   5.644   5.002   9.249 -0.1226 -0.0733  0.7541
   82SAPS  H14R 7679   5.728   5.016   9.318 -0.6541 -1.5751  1.7560
   82SAPS  C215 7680   5.661   4.967   9.121 -0.0858 -0.0190 -0.0517
   82SAPS  H15R 7681   5.763   4.954   9.083 -0.6884 -1.9313 -1.1186
   82SAPS  C216 7682   5.549   4.934   9.027  0.0806  0.2976 -0.2353
   82SAPS  H16R 7683   5.455   4.962   9.078  1.1048  2.1919  0.6983
   82SAPS  H16S 7684   5.545   4.828   8.992  2.4604  0.1241 -0.1257
   82SAPS  C217 7685   5.552   5.019   8.896 -0.1348 -0.0548  0.0975
   82SAPS  H17R 7686   5.476   4.979   8.825 -0.8435  0.8881  0.3187
   82SAPS  H17S 7687   5.643   4.998   8.835 -1.2239  0.4687 -1.7984
   82SAPS  C218 7688   5.532   5.176   8.906 -0.3658 -0.0096 -0.2682
   82SAPS  H18R 7689   5.598   5.199   8.992  0.3883 -1.4184 -0.4272
   82SAPS  H18S 7690   5.431   5.202   8.944 -0.0415  1.6969 -0.5351
   82SAPS  C219 7691   5.572   5.250   8.778  0.5186  0.0849  0.3575
   82SAPS  H19R 7692   5.527   5.347   8.807 -0.2128 -0.2150  0.2616
   82SAPS  H19S 7693   5.526   5.217   8.682 -2.0555  1.7582  0.9233
   82SAPS  C220 7694   5.727   5.258   8.751  0.1180  0.1004  0.6555
   82SAPS  H20R 7695   5.767   5.170   8.697 -1.5531 -0.6537  0.5825
   82SAPS  H20S 7696   5.792   5.268   8.841  1.6962 -2.6819 -0.0578
   82SAPS  H20T 7697   5.753   5.347   8.690 -1.3109 -0.4512 -0.8508
   82SAPS   C33 7698   4.210   5.284   9.952  1.1140  0.5847 -0.0697
   82SAPS   H3X 7699   4.309   5.272   9.902 -0.0784  1.1756 -2.6882
   82SAPS   H3Y 7700   4.200   5.394   9.961  0.5437  0.4615  0.9918
   82SAPS   C34 7701   4.091   5.225   9.879 -0.3393  0.1355  0.1517
   82SAPS   H4X 7702   4.000   5.252   9.936  1.9651  1.2107  3.6104
   82SAPS   H4Y 7703   4.094   5.115   9.899  0.7225  0.3841  1.4624
   82SAPS   C35 7704   4.081   5.267   9.733  0.2745  0.1574 -1.2501
   82SAPS   H5X 7705   4.059   5.376   9.735 -1.0158 -0.0870 -1.0569
   82SAPS   H5Y 7706   3.989   5.229   9.683 -0.1352 -1.5214  0.6554
   82SAPS   C36 7707   4.196   5.245   9.642 -0.1720 -0.9805  0.1328
   82SAPS   H6X 7708   4.209   5.138   9.613  0.8817 -0.8823  0.1901
   82SAPS   H6Y 7709   4.292   5.278   9.688  0.7703 -1.4490 -1.4178
   82SAPS   C37 7710   4.186   5.329   9.517  0.3399 -0.0151 -0.2729
   82SAPS   H7X 7711   4.289   5.349   9.479  1.3876 -2.4878  1.0295
   82SAPS   H7Y 7712   4.137   5.425   9.541 -2.1050 -1.5061  1.0918
   82SAPS   C38 7713   4.104   5.264   9.400 -0.7664  0.5640 -0.0884
   82SAPS   H8X 7714   4.007   5.230   9.442  0.5897 -1.4578  1.5607
   82SAPS   H8Y 7715   4.163   5.175   9.371  1.5592  1.6538  1.0500
   82SAPS   C39 7716   4.089   5.353   9.280  0.4624 -0.7963  0.0821
   82SAPS   H9X 7717   4.185   5.390   9.238 -0.6555  0.5135 -1.4698
   82SAPS   H9Y 7718   4.028   5.441   9.312  0.9452  0.0990 -1.4005
   82SAPS  C310 7719   3.999   5.309   9.160  0.4454 -0.2445  0.2543
   82SAPS  H10X 7720   3.896   5.289   9.197  0.9292  0.2739  1.9833
   82SAPS  H10Y 7721   4.040   5.209   9.135  0.4882 -0.3231  0.6359
   82SAPS  C311 7722   4.009   5.409   9.042  0.2244  0.4282 -0.1013
   82SAPS  H11X 7723   4.113   5.447   9.039  0.5661 -0.4865  0.0015
   82SAPS  H11Y 7724   3.947   5.498   9.070 -1.7538  0.0412 -2.8079
   82SAPS  C312 7725   3.986   5.364   8.898  0.1214 -0.2464 -0.2966
   82SAPS  H12X 7726   3.914   5.438   8.857  0.6692 -0.2980 -1.3912
   82SAPS  H12Y 7727   3.939   5.264   8.907 -1.8903  0.4631 -2.1353
   82SAPS  C313 7728   4.107   5.356   8.815 -0.2005 -0.0943  0.2773
   82SAPS  H13X 7729   4.189   5.299   8.864  3.0064  3.3511 -0.6717
   82SAPS  H13Y 7730   4.152   5.455   8.794  1.3439 -0.5184  1.3986
   82SAPS  C314 7731   4.080   5.291   8.676 -0.5510 -0.1067 -0.3707
   82SAPS  H14X 7732   4.048   5.372   8.607 -0.4909  1.6891  1.6274
   82SAPS  H14Y 7733   3.997   5.217   8.674  0.0438 -0.8056  0.1604
   82SAPS  C315 7734   4.206   5.254   8.593 -0.0326  0.0359 -1.0034
   82SAPS  H15X 7735   4.252   5.162   8.634 -1.1070 -0.7158 -1.4414
   82SAPS  H15Y 7736   4.272   5.343   8.604 -0.4842  0.4212 -1.3441
   82SAPS  C316 7737   4.191   5.232   8.439 -0.3910 -0.3191 -0.3310
   82SAPS  H16X 7738   4.131   5.315   8.395  0.0243 -0.0751 -0.4363
   82SAPS  H16Y 7739   4.132   5.139   8.421 -0.3653 -0.0669 -1.8082
   82SAPS  C317 7740   4.323   5.212   8.366  0.2785  0.6551  0.3808
   82SAPS  H17X 7741   4.387   5.144   8.425  0.8934  2.0980  1.4435
   82SAPS  H17Y 7742   4.381   5.307   8.369  0.9341  0.2597  3.4010
   82SAPS  C318 7743   4.297   5.177   8.218  0.2951 -0.1486 -0.3277
   82SAPS  H18X 7744   4.390   5.184   8.158  0.1909  1.1770 -0.3522
   82SAPS  H18Y 7745   4.222   5.238   8.165  1.2622  0.5760 -0.8864
   82SAPS  H18Z 7746   4.270   5.069   8.220 -2.7147  0.5473  0.2808
   83SAPS     N 7747   0.767   0.023  11.316  0.5202  0.3064  0.3738
   83SAPS   HN1 7748   0.743   0.068  11.406 -1.4981 -1.7527  0.9762
   83SAPS   HN2 7749   0.773  -0.081  11.308  0.5094  0.4166 -1.7145
   83SAPS   HN3 7750   0.857   0.060  11.281  0.6660 -0.9975 -0.7224
   83SAPS   C12 7751   0.652   0.055  11.222 -0.3667 -0.1467  0.1723
   83SAPS  H12A 7752   0.653  -0.013  11.139  1.1893 -2.9041  2.2887
   83SAPS   C13 7753   0.520   0.069  11.287  0.4649  0.0101  1.0281
   83SAPS  O13A 7754   0.495   0.024  11.402  0.0911  0.3952 -0.1250
   83SAPS  O13B 7755   0.426   0.079  11.202 -0.0648  0.8671 -0.0415
   83SAPS   C11 7756   0.686   0.203  11.163 -0.1382 -0.1016 -0.7009
   83SAPS  H11A 7757   0.664   0.279  11.242 -0.0871  3.1443 -3.5810
   83SAPS  H11B 7758   0.616   0.220  11.079 -0.6063 -0.4935 -0.3938
   83SAPS     P 7759   0.894   0.347  11.073 -0.1647 -0.0155 -0.3062
   83SAPS   O13 7760   0.931   0.426  11.190  0.2369 -0.5711  0.2259
   83SAPS   O14 7761   1.006   0.316  10.977  0.0181 -0.8536  0.1420
   83SAPS   O12 7762   0.826   0.214  11.129 -0.1119  0.1096 -0.8186
   83SAPS   O11 7763   0.769   0.416  11.004  0.0543  0.3517 -0.0447
   83SAPS    C1 7764   0.743   0.373  10.864  0.5629 -0.1456  0.5696
   83SAPS    HA 7765   0.758   0.265  10.847 -2.2818 -0.2622 -2.2397
   83SAPS    HB 7766   0.635   0.394  10.847  0.6787 -0.3274 -0.4544
   83SAPS    C2 7767   0.823   0.463  10.759  1.1563  1.0970  0.2974
   83SAPS    HS 7768   0.906   0.498  10.824  0.1800  0.8793  1.6961
   83SAPS   O21 7769   0.739   0.572  10.724 -0.7587  0.2867 -0.1730
   83SAPS   C21 7770   0.808   0.669  10.657 -0.4723  0.1877 -0.4303
   83SAPS   O22 7771   0.932   0.679  10.665  0.6722 -0.3805  0.2322
   83SAPS   C22 7772   0.724   0.742  10.561 -0.2928 -0.2784  0.5373
   83SAPS   H2R 7773   0.656   0.677  10.502 -1.4093  1.3160 -0.0032
   83SAPS   H2S 7774   0.667   0.825  10.610  0.0237 -0.2971  0.9448
   83SAPS    C3 7775   0.865   0.377  10.638 -0.3870  0.2123 -0.1828
   83SAPS    HX 7776   0.922   0.301  10.696  0.2034  0.5635 -0.2823
   83SAPS    HY 7777   0.949   0.417  10.577 -0.4492 -0.8485 -0.9892
   83SAPS   O31 7778   0.765   0.318  10.558 -0.4726  0.2346  0.2289
   83SAPS   C31 7779   0.741   0.373  10.438  0.1804  0.2150 -0.0379
   83SAPS   O32 7780   0.806   0.462  10.387  0.0422  0.3394  0.0056
   83SAPS   C32 7781   0.628   0.301  10.369  0.1893  0.0172  0.0013
   83SAPS   H2X 7782   0.554   0.381  10.347  1.3812  1.2746  0.4359
   83SAPS   H2Y 7783   0.574   0.241  10.445 -1.9427 -0.1577 -1.5465
   83SAPS   C23 7784   0.818   0.812  10.456 -0.1745 -0.1111  0.3523
   83SAPS   H3R 7785   0.882   0.736  10.407 -0.0292  1.0920 -1.4336
   83SAPS   H3S 7786   0.896   0.870  10.510  0.4393 -0.0030 -0.6247
   83SAPS   C24 7787   0.743   0.901  10.354  1.0217 -0.4119  0.1116
   83SAPS   H4R 7788   0.680   0.966  10.418 -0.7927 -1.1768 -0.8250
   83SAPS   H4S 7789   0.663   0.838  10.310 -2.1579  0.5793  3.8940
   83SAPS   C25 7790   0.835   0.979  10.253 -0.0380 -0.0668  0.4689
   83SAPS   H5R 7791   0.935   1.013  10.282 -0.3778  0.4150  1.1107
   83SAPS   C26 7792   0.816   0.983  10.121  0.0474 -0.2218 -0.4524
   83SAPS   H6R 7793   0.888   1.041  10.061 -2.2947  1.6205 -1.6742
   83SAPS   C27 7794   0.703   0.923  10.045 -0.0305  0.3258  0.1590
   83SAPS   H7R 7795   0.700   0.963   9.941 -1.0622 -1.0845 -0.3912
   83SAPS   H7S 7796   0.611   0.954  10.100 -0.2181  0.6021 -0.2968
   83SAPS   C28 7797   0.706   0.775  10.017 -0.7211  0.2055 -0.5056
   83SAPS   H8R 7798   0.740   0.715  10.102 -2.2925  0.3130  0.2395
   83SAPS   C29 7799   0.674   0.715   9.898  0.6613  0.2602 -0.2964
   83SAPS   H9R 7800   0.691   0.608   9.883  0.5726  0.2168 -0.0953
   83SAPS  C210 7801   0.624   0.775   9.766  0.4294 -0.5561 -0.5264
   83SAPS  H10R 7802   0.560   0.863   9.786 -0.0709 -0.4782 -2.3031
   83SAPS  H10S 7803   0.565   0.692   9.722 -0.0127  0.2940 -1.5737
   83SAPS  C211 7804   0.738   0.826   9.678  0.0602 -0.2593 -0.5674
   83SAPS  H11R 7805   0.820   0.877   9.731 -0.4808  0.0196  0.0116
   83SAPS  C212 7806   0.741   0.798   9.544 -0.3545  0.8338  0.1553
   83SAPS  H12R 7807   0.835   0.827   9.495  1.1360 -0.5174  2.1066
   83SAPS  C213 7808   0.644   0.729   9.452  0.0419  0.0307 -0.0077
   83SAPS  H13R 7809   0.632   0.638   9.514  2.5318  0.3584  1.0464
   83SAPS  H13S 7810   0.711   0.688   9.374  0.9269  1.1019  0.1697
   83SAPS  C214 7811   0.514   0.796   9.426  0.1542 -0.2415  0.3657
   83SAPS  H14R 7812   0.493   0.882   9.491  0.2992 -1.3049  1.8821
   83SAPS  C215 7813   0.428   0.757   9.325  0.5132  0.2290 -1.0391
   83SAPS  H15R 7814   0.340   0.824   9.319  0.7290  0.5085 -1.1007
   83SAPS  C216 7815   0.439   0.641   9.230 -0.0688 -0.0120  0.2131
   83SAPS  H16R 7816   0.334   0.605   9.224 -0.3339  0.8247 -0.4672
   83SAPS  H16S 7817   0.496   0.555   9.270  1.0988  1.2335  1.3433
   83SAPS  C217 7818   0.503   0.655   9.089 -0.1671  0.0047 -0.0327
   83SAPS  H17R 7819   0.609   0.624   9.085 -0.4570 -0.9922 -0.3086
   83SAPS  H17S 7820   0.496   0.760   9.052 -0.0859 -0.1180 -0.4051
   83SAPS  C218 7821   0.428   0.572   8.978  0.0750 -0.1942 -0.3107
   83SAPS  H18R 7822   0.319   0.597   8.976 -0.1126 -0.9540 -1.9177
   83SAPS  H18S 7823   0.422   0.464   9.003  1.7429 -0.4352 -0.8590
   83SAPS  C219 7824   0.498   0.583   8.848 -0.0641 -0.8663 -0.0866
   83SAPS  H19R 7825   0.607   0.563   8.859  0.0390 -0.5841 -0.5605
   83SAPS  H19S 7826   0.503   0.689   8.816  3.0073 -1.0959 -0.6952
   83SAPS  C220 7827   0.445   0.487   8.742  0.8929 -0.0833 -0.6870
   83SAPS  H20R 7828   0.445   0.388   8.793 -0.3549 -0.3672 -1.1967
   83SAPS  H20S 7829   0.504   0.472   8.650 -0.9307 -0.1108 -1.9101
   83SAPS  H20T 7830   0.342   0.514   8.711  0.9386  1.3760  0.3403
   83SAPS   C33 7831   0.663   0.218  10.247  0.0714  0.1451 -0.1126
   83SAPS   H3X 7832   0.590   0.136  10.232 -0.1553  0.4667 -0.7978
   83SAPS   H3Y 7833   0.765   0.173  10.254 -0.2692 -0.5707  0.3642
   83SAPS   C34 7834   0.651   0.309  10.121  0.0542 -0.0503  0.1522
   83SAPS   H4X 7835   0.718   0.397  10.121 -2.5829  2.0952 -0.2363
   83SAPS   H4Y 7836   0.550   0.354  10.121 -0.5730 -1.2825 -2.2454
   83SAPS   C35 7837   0.665   0.231   9.985 -0.0886 -0.0180 -0.4325
   83SAPS   H5X 7838   0.580   0.162   9.971 -0.4871 -0.0150  1.6037
   83SAPS   H5Y 7839   0.758   0.170   9.990 -0.2849 -0.8090 -4.0574
   83SAPS   C36 7840   0.668   0.327   9.864  0.0373 -0.1782 -0.1141
   83SAPS   H6X 7841   0.772   0.366   9.854  0.2604 -1.0107 -1.2217
   83SAPS   H6Y 7842   0.597   0.411   9.881  0.0641 -0.0697 -0.5189
   83SAPS   C37 7843   0.657   0.261   9.726  0.0985  0.1957  0.3357
   83SAPS   H7X 7844   0.553   0.234   9.700  0.3281  1.1515 -1.7866
   83SAPS   H7Y 7845   0.722   0.170   9.730  0.0784  0.2290  3.3645
   83SAPS   C38 7846   0.727   0.353   9.618  0.1172  0.7830 -0.0674
   83SAPS   H8X 7847   0.832   0.356   9.654  0.2972  0.4504 -0.5563
   83SAPS   H8Y 7848   0.702   0.462   9.618  2.0811  1.2755 -0.5560
   83SAPS   C39 7849   0.715   0.293   9.479  0.5336 -0.3335  0.0714
   83SAPS   H9X 7850   0.606   0.285   9.459 -0.3611 -0.1882  4.1202
   83SAPS   H9Y 7851   0.752   0.189   9.462  0.1343 -0.2785 -1.2903
   83SAPS  C310 7852   0.789   0.379   9.366 -0.2789  0.2754 -0.3950
   83SAPS  H10X 7853   0.900   0.365   9.364 -0.0820  1.8135 -1.8446
   83SAPS  H10Y 7854   0.767   0.484   9.395 -2.8905  0.0440 -1.3401
   83SAPS  C311 7855   0.754   0.344   9.216  0.3242  0.3933  0.0215
   83SAPS  H11X 7856   0.824   0.412   9.164  0.0803  4.3996  4.2505
   83SAPS  H11Y 7857   0.653   0.382   9.188 -0.4714 -0.5536  1.4524
   83SAPS  C312 7858   0.775   0.192   9.162 -0.3195  0.8935 -0.7631
   83SAPS  H12X 7859   0.685   0.132   9.188  0.5044 -0.2501 -0.4738
   83SAPS  H12Y 7860   0.847   0.149   9.234 -1.1369 -2.1149 -1.5819
   83SAPS  C313 7861   0.818   0.197   9.017 -0.0913 -0.1635  0.2905
   83SAPS  H13X 7862   0.925   0.222   9.002  0.2800 -0.3093  2.4240
   83SAPS  H13Y 7863   0.744   0.263   8.967 -1.4937  1.5309  4.2271
   83SAPS  C314 7864   0.784   0.060   8.943  0.5189 -0.4125  1.5969
   83SAPS  H14X 7865   0.686   0.026   8.983 -1.7555  2.8298 -0.6747
   83SAPS  H14Y 7866   0.855  -0.021   8.974  1.6706 -0.4496 -0.8729
   83SAPS  C315 7867   0.796   0.069   8.794  0.3122 -0.5933 -0.1511
   83SAPS  H15X 7868   0.856   0.157   8.762  0.9141 -1.0146 -0.2017
   83SAPS  H15Y 7869   0.705   0.100   8.739 -0.6156 -0.4151  1.4307
   83SAPS  C316 7870   0.864  -0.061   8.729 -0.2930 -0.4323 -0.0568
   83SAPS  H16X 7871   0.784  -0.135   8.708 -1.1429  0.4954 -0.1672
   83SAPS  H16Y 7872   0.928  -0.106   8.807 -1.8446 -2.5531  0.0861
   83SAPS  C317 7873   0.938  -0.023   8.592  0.6263 -0.0557 -0.3867
   83SAPS  H17X 7874   1.045   0.002   8.607  0.9177 -0.9324 -0.9128
   83SAPS  H17Y 7875   0.889   0.062   8.539 -2.6136  0.2401  2.6670
   83SAPS  C318 7876   0.947  -0.138   8.493  0.1148 -0.1971 -0.0939
   83SAPS  H18X 7877   0.993  -0.230   8.535 -2.9300 -1.6589  0.3599
   83SAPS  H18Y 7878   1.012  -0.106   8.409  0.1509  0.5176  0.2006
   83SAPS  H18Z 7879   0.849  -0.177   8.458 -0.7177  0.8967  0.9553
   84SAPS     N 7880   1.857   5.410  11.326  0.0456 -0.2733  0.2492
   84SAPS   HN1 7881   1.930   5.479  11.353  0.8887  0.1993 -2.7950
   84SAPS   HN2 7882   1.778   5.468  11.292  1.9268  1.6953 -0.9963
   84SAPS   HN3 7883   1.829   5.351  11.407 -2.1670  1.4132  0.8008
   84SAPS   C12 7884   1.915   5.320  11.220 -0.2224  0.3800 -0.4228
   84SAPS  H12A 7885   2.022   5.331  11.229  0.1416 -1.8521 -1.5231
   84SAPS   C13 7886   1.881   5.173  11.225  0.3569 -0.1978  0.1733
   84SAPS  O13A 7887   1.802   5.140  11.313  0.7741 -0.1375 -0.4429
   84SAPS  O13B 7888   1.939   5.089  11.145 -0.3059  0.2400  0.2061
   84SAPS   C11 7889   1.876   5.382  11.083 -0.2232  0.9483 -0.2478
   84SAPS  H11A 7890   1.767   5.374  11.063  0.3000  0.9777 -3.7359
   84SAPS  H11B 7891   1.927   5.335  10.996 -1.3396  1.2571 -1.0898
   84SAPS     P 7892   1.968   5.616  10.971 -0.0592 -0.0253 -0.1018
   84SAPS   O13 7893   1.977   5.751  11.031  0.1003 -0.7851 -0.4239
   84SAPS   O14 7894   2.089   5.553  10.918 -0.4345  0.7913  0.5000
   84SAPS   O12 7895   1.902   5.526  11.083  0.8480  0.0754 -0.0389
   84SAPS   O11 7896   1.851   5.617  10.857  0.1193 -0.6313  0.0789
   84SAPS    C1 7897   1.781   5.741  10.839  0.2999  0.8803  0.1553
   84SAPS    HA 7898   1.678   5.736  10.880  0.7929 -1.2778  1.2702
   84SAPS    HB 7899   1.822   5.825  10.899  1.6819  1.2780 -1.2855
   84SAPS    C2 7900   1.784   5.786  10.689  0.2603  0.2331 -0.3776
   84SAPS    HS 7901   1.734   5.883  10.669  0.6608  0.5073 -0.0583
   84SAPS   O21 7902   1.735   5.677  10.596  0.3346  0.4020  0.2982
   84SAPS   C21 7903   1.607   5.692  10.563  0.3585  0.4602 -0.0474
   84SAPS   O22 7904   1.531   5.780  10.606 -0.4317  0.4825  0.1930
   84SAPS   C22 7905   1.560   5.574  10.479  0.2148  0.7284  0.0483
   84SAPS   H2R 7906   1.547   5.484  10.543  1.6852  1.0949  0.9245
   84SAPS   H2S 7907   1.453   5.597  10.463  0.3724 -0.5618 -3.7287
   84SAPS    C3 7908   1.935   5.808  10.662  0.1344  0.1099  0.4139
   84SAPS    HX 7909   1.985   5.708  10.663  2.6509  1.2182 -1.9916
   84SAPS    HY 7910   1.984   5.869  10.741  2.0849 -1.1999  0.2975
   84SAPS   O31 7911   1.954   5.861  10.531 -0.4425 -0.2545  0.4181
   84SAPS   C31 7912   2.016   5.797  10.438  0.3921  0.2489 -0.6620
   84SAPS   O32 7913   2.078   5.696  10.455 -0.3588  0.7687  0.2178
   84SAPS   C32 7914   2.023   5.869  10.303  0.0086  0.0731 -0.2239
   84SAPS   H2X 7915   2.112   5.933  10.320 -0.7245  1.3084 -0.8769
   84SAPS   H2Y 7916   1.943   5.941  10.275  0.0935  0.6953  1.0566
   84SAPS   C23 7917   1.637   5.544  10.346  0.0074 -0.1092  0.2248
   84SAPS   H3R 7918   1.625   5.445  10.298  1.2508 -0.4817  0.6741
   84SAPS   H3S 7919   1.743   5.548  10.378  0.3299  0.8333 -0.8556
   84SAPS   C24 7920   1.615   5.664  10.241  0.4471  0.6101  0.4874
   84SAPS   H4R 7921   1.695   5.660  10.165 -1.0129 -0.9253 -1.0704
   84SAPS   H4S 7922   1.623   5.765  10.286 -1.2203 -0.1706  2.7548
   84SAPS   C25 7923   1.479   5.657  10.167  0.0981  0.3595  0.0031
   84SAPS   H5R 7924   1.395   5.697  10.225  0.6887  1.5330  0.0841
   84SAPS   C26 7925   1.458   5.622  10.042  0.7014 -0.3206  0.7515
   84SAPS   H6R 7926   1.356   5.620  10.001  0.8078 -1.7625  0.5066
   84SAPS   C27 7927   1.560   5.582   9.932 -0.0054  0.0080 -0.3608
   84SAPS   H7R 7928   1.641   5.521   9.976 -0.6612 -1.4094 -1.0399
   84SAPS   H7S 7929   1.592   5.678   9.887 -2.5015  1.2424  0.2768
   84SAPS   C28 7930   1.504   5.490   9.827  0.1720  0.5804 -0.2796
   84SAPS   H8R 7931   1.434   5.412   9.860  0.5131  0.3563 -0.0870
   84SAPS   C29 7932   1.521   5.497   9.700 -0.5513  0.4112 -0.2205
   84SAPS   H9R 7933   1.460   5.427   9.640 -2.7334  1.0734  1.1212
   84SAPS  C210 7934   1.598   5.596   9.617  0.9822  0.2273 -0.6627
   84SAPS  H10R 7935   1.669   5.555   9.542  1.6560  2.9777 -1.6770
   84SAPS  H10S 7936   1.665   5.654   9.684 -1.7196  0.2422  2.2560
   84SAPS  C211 7937   1.508   5.690   9.537  0.1993  0.5039 -0.7122
   84SAPS  H11R 7938   1.468   5.771   9.600  0.5258  0.6407 -0.6776
   84SAPS  C212 7939   1.476   5.694   9.411 -0.2125  0.0344  0.7307
   84SAPS  H12R 7940   1.402   5.768   9.377 -1.6643 -1.8960 -0.5162
   84SAPS  C213 7941   1.525   5.604   9.299  0.2791 -0.0133 -0.0274
   84SAPS  H13R 7942   1.597   5.532   9.344  0.6980  1.9289  2.6299
   84SAPS  H13S 7943   1.574   5.667   9.221  1.0395  1.7036  1.7533
   84SAPS  C214 7944   1.408   5.525   9.238 -0.2701 -0.2910 -0.3857
   84SAPS  H14R 7945   1.349   5.478   9.319 -1.7178  1.0181 -0.6410
   84SAPS  C215 7946   1.389   5.490   9.113 -0.1015  0.0264  0.2830
   84SAPS  H15R 7947   1.296   5.436   9.088 -2.0822  2.2464  2.3836
   84SAPS  C216 7948   1.467   5.521   8.988 -0.0965  0.5869 -0.3655
   84SAPS  H16R 7949   1.476   5.631   8.979  1.3474  0.4827 -0.3304
   84SAPS  H16S 7950   1.402   5.487   8.904 -1.5244 -1.0205  1.3167
   84SAPS  C217 7951   1.618   5.476   8.979  0.1002  1.0115 -0.6133
   84SAPS  H17R 7952   1.629   5.367   8.962  2.3458  1.2220 -0.7437
   84SAPS  H17S 7953   1.668   5.497   9.076 -1.1339 -1.7786  0.7356
   84SAPS  C218 7954   1.682   5.552   8.859 -1.1231  0.2628 -0.4340
   84SAPS  H18R 7955   1.792   5.541   8.867 -1.0877  1.9796  2.9724
   84SAPS  H18S 7956   1.658   5.660   8.873 -1.5349 -0.1263  2.4179
   84SAPS  C219 7957   1.637   5.512   8.719 -0.2243 -0.2861  0.2482
   84SAPS  H19R 7958   1.527   5.519   8.706 -0.1102  0.3945 -0.3571
   84SAPS  H19S 7959   1.649   5.402   8.733  0.9363 -0.0927  0.8459
   84SAPS  C220 7960   1.695   5.584   8.608 -0.1805  0.2289  0.6434
   84SAPS  H20R 7961   1.805   5.601   8.603  0.4837 -2.8557  2.3358
   84SAPS  H20S 7962   1.650   5.685   8.617  1.7998  1.2602 -0.3279
   84SAPS  H20T 7963   1.658   5.548   8.509 -1.2004  1.9386  0.3556
   84SAPS   C33 7964   2.059   5.789  10.175 -0.4161 -1.0230  0.1790
   84SAPS   H3X 7965   1.972   5.725  10.148  0.0114 -1.2076 -0.7670
   84SAPS   H3Y 7966   2.143   5.720  10.194 -2.4897 -2.9423  3.2471
   84SAPS   C34 7967   2.095   5.885  10.059  0.1200 -0.5149 -0.2396
   84SAPS   H4X 7968   2.200   5.922  10.062 -0.2447  0.5446 -0.1396
   84SAPS   H4Y 7969   2.024   5.971  10.050  2.7673  2.1967  2.3091
   84SAPS   C35 7970   2.083   5.816   9.928 -0.1254 -0.1053  0.6303
   84SAPS   H5X 7971   1.974   5.806   9.909  0.1315 -0.2700 -0.8730
   84SAPS   H5Y 7972   2.149   5.727   9.921 -1.8528 -1.3083 -1.7822
   84SAPS   C36 7973   2.140   5.910   9.814  0.1981  0.6630 -0.0300
   84SAPS   H6X 7974   2.242   5.951   9.827  1.3928 -1.5562 -1.7668
   84SAPS   H6Y 7975   2.069   5.996   9.820 -1.9577 -0.8225 -2.3841
   84SAPS   C37 7976   2.129   5.851   9.679 -0.1442 -0.2442  0.2986
   84SAPS   H7X 7977   2.034   5.794   9.669 -0.1505 -0.3026  0.6444
   84SAPS   H7Y 7978   2.210   5.775   9.688  0.9327  0.9555  1.2355
   84SAPS   C38 7979   2.157   5.945   9.563 -0.3503 -0.0661 -0.3426
   84SAPS   H8X 7980   2.255   5.996   9.578 -0.5298  0.5331 -1.1195
   84SAPS   H8Y 7981   2.075   6.016   9.540 -1.4293 -0.7399  1.2916
   84SAPS   C39 7982   2.175   5.867   9.436 -0.0135  0.2165  0.2385
   84SAPS   H9X 7983   2.079   5.814   9.417 -0.2574  1.0716 -1.0258
   84SAPS   H9Y 7984   2.260   5.796   9.440  2.1501  2.5931 -0.6828
   84SAPS  C310 7985   2.217   5.955   9.316  0.0563  0.1922  1.6249
   84SAPS  H10X 7986   2.304   6.018   9.342  0.3380  0.4056  0.2611
   84SAPS  H10Y 7987   2.137   6.030   9.298  2.8149  2.6901 -1.5242
   84SAPS  C311 7988   2.241   5.870   9.193  0.1536  0.0214  0.3937
   84SAPS  H11X 7989   2.166   5.790   9.174 -1.5468  1.1254  2.0772
   84SAPS  H11Y 7990   2.328   5.808   9.221 -0.1315  0.3522  2.0836
   84SAPS  C312 7991   2.271   5.949   9.063 -0.1565  1.2646  0.6450
   84SAPS  H12X 7992   2.361   6.010   9.086  1.7614 -1.0658 -0.2207
   84SAPS  H12Y 7993   2.188   6.022   9.050 -1.0768 -0.3784 -5.4771
   84SAPS  C313 7994   2.289   5.854   8.943  0.0984  0.2088  0.4262
   84SAPS  H13X 7995   2.199   5.789   8.934  0.4185 -0.0893 -0.9569
   84SAPS  H13Y 7996   2.386   5.802   8.958  0.1584 -0.0844 -0.8147
   84SAPS  C314 7997   2.315   5.916   8.805 -0.1842  0.6861 -0.2587
   84SAPS  H14X 7998   2.390   5.996   8.823  0.5120 -0.3836  1.9339
   84SAPS  H14Y 7999   2.224   5.974   8.781 -0.1557  0.3105 -1.3260
   84SAPS  C315 8000   2.359   5.822   8.697  0.0264 -0.7672  0.2022
   84SAPS  H15X 8001   2.279   5.746   8.685 -0.8639 -0.0830  1.5739
   84SAPS  H15Y 8002   2.456   5.772   8.720  0.4378 -0.2847 -0.4458
   84SAPS  C316 8003   2.389   5.897   8.565  0.7393 -0.1629 -0.5300
   84SAPS  H16X 8004   2.459   5.983   8.575  0.6375 -0.1250 -0.0883
   84SAPS  H16Y 8005   2.294   5.952   8.547  0.8567  1.1295  2.1661
   84SAPS  C317 8006   2.428   5.813   8.447 -0.1332  0.1852  0.0518
   84SAPS  H17X 8007   2.342   5.755   8.407 -1.0115  1.1863  0.4496
   84SAPS  H17Y 8008   2.516   5.754   8.480 -0.3482  0.6444  1.4903
   84SAPS  C318 8009   2.484   5.887   8.323 -0.3959 -0.5194 -0.0944
   84SAPS  H18X 8010   2.566   5.959   8.342 -0.7787 -0.1633  0.2351
   84SAPS  H18Y 8011   2.402   5.937   8.268  0.5655  0.0136 -1.0868
   84SAPS  H18Z 8012   2.506   5.817   8.240  0.1635  1.3121 -1.5570
   85SAPS     N 8013   6.513   1.782  11.161  0.3345  0.6991 -0.0589
   85SAPS   HN1 8014   6.421   1.808  11.120 -0.1720 -1.9986 -0.8280
   85SAPS   HN2 8015   6.517   1.803  11.263 -1.2886 -0.4400  0.2849
   85SAPS   HN3 8016   6.596   1.821  11.113 -0.0251  0.4531 -0.8968
   85SAPS   C12 8017   6.501   1.634  11.145  0.0518  0.2455  0.8958
   85SAPS  H12A 8018   6.576   1.593  11.210 -0.4921 -2.4901 -0.0861
   85SAPS   C13 8019   6.368   1.573  11.189  0.0859  0.9792 -0.7043
   85SAPS  O13A 8020   6.269   1.645  11.220 -0.1233 -0.2121  0.2923
   85SAPS  O13B 8021   6.363   1.446  11.193 -0.5991 -0.6675  0.1939
   85SAPS   C11 8022   6.527   1.603  10.996  0.2343 -0.4991  0.1491
   85SAPS  H11A 8023   6.441   1.644  10.939  0.4325 -2.4432 -1.6794
   85SAPS  H11B 8024   6.511   1.498  10.964  0.4430  0.3747 -3.1417
   85SAPS     P 8025   6.776   1.562  10.952 -0.4283 -0.2732  0.0868
   85SAPS   O13 8026   6.905   1.640  10.932  0.5000  0.3956  0.2160
   85SAPS   O14 8027   6.773   1.481  11.073  0.1240 -0.1598 -0.3324
   85SAPS   O12 8028   6.654   1.661  10.953 -0.7274 -0.0418  0.3324
   85SAPS   O11 8029   6.755   1.473  10.824 -0.2327  0.6409  0.2812
   85SAPS    C1 8030   6.758   1.523  10.690  0.3319 -0.9527 -0.1284
   85SAPS    HA 8031   6.775   1.633  10.683 -1.4937 -0.6446 -0.2134
   85SAPS    HB 8032   6.838   1.471  10.632  2.4082 -0.2749  1.9613
   85SAPS    C2 8033   6.622   1.504  10.620 -0.0745 -0.5005 -0.2433
   85SAPS    HS 8034   6.551   1.560  10.685  1.5778  0.3380  0.9115
   85SAPS   O21 8035   6.585   1.376  10.595  0.6189 -0.2377 -0.5389
   85SAPS   C21 8036   6.454   1.361  10.587  0.3149 -0.0828  0.2492
   85SAPS   O22 8037   6.372   1.446  10.608  0.0344  0.2632  0.1835
   85SAPS   C22 8038   6.427   1.216  10.527 -0.2254 -0.0572 -0.4586
   85SAPS   H2R 8039   6.436   1.229  10.417 -0.0929  1.2543 -0.3047
   85SAPS   H2S 8040   6.510   1.147  10.555  0.3638  1.0890  0.7017
   85SAPS    C3 8041   6.618   1.573  10.477 -0.1103 -0.0451  0.6813
   85SAPS    HX 8042   6.677   1.667  10.487 -0.5112  0.2163  0.5957
   85SAPS    HY 8043   6.513   1.594  10.448  0.3411  0.0687 -0.9724
   85SAPS   O31 8044   6.692   1.507  10.371 -0.4786  0.0720  0.0741
   85SAPS   C31 8045   6.619   1.447  10.283 -0.5250  0.0734  0.4800
   85SAPS   O32 8046   6.497   1.431  10.288  0.1853 -0.4897  0.2949
   85SAPS   C32 8047   6.706   1.369  10.182  0.7425 -0.4815 -0.0205
   85SAPS   H2X 8048   6.684   1.262  10.204 -0.9049 -0.2073 -0.2261
   85SAPS   H2Y 8049   6.815   1.383  10.201  0.6070 -0.7999  1.0880
   85SAPS   C23 8050   6.283   1.168  10.548 -0.1760  0.1867  0.0908
   85SAPS   H3R 8051   6.218   1.245  10.501 -1.6147 -1.9561 -1.6371
   85SAPS   H3S 8052   6.251   1.165  10.654 -0.5180  3.9805  0.2273
   85SAPS   C24 8053   6.250   1.042  10.465 -0.3835 -0.7040  0.0724
   85SAPS   H4R 8054   6.317   0.964  10.507 -1.5202  0.1531  3.9346
   85SAPS   H4S 8055   6.282   1.063  10.361 -1.8220  0.3855 -0.1750
   85SAPS   C25 8056   6.107   0.996  10.477  0.3186 -0.0221 -0.3587
   85SAPS   H5R 8057   6.069   0.986  10.580  2.3486 -0.3062  0.4110
   85SAPS   C26 8058   6.023   0.961  10.380  0.2467  0.1437  0.2494
   85SAPS   H6R 8059   5.919   0.936  10.403  0.2156  0.9743  1.0452
   85SAPS   C27 8060   6.049   0.950  10.232 -0.3827  0.3449 -0.8261
   85SAPS   H7R 8061   6.157   0.971  10.213 -0.5650  0.4970 -1.7427
   85SAPS   H7S 8062   5.984   1.027  10.185  0.6117  1.7174 -0.0568
   85SAPS   C28 8063   6.021   0.807  10.189  0.3237 -0.6029 -0.1605
   85SAPS   H8R 8064   5.916   0.783  10.212  0.8930 -1.6214  1.6462
   85SAPS   C29 8065   6.099   0.711  10.131 -0.5776  0.1923 -0.8291
   85SAPS   H9R 8066   6.044   0.619  10.109 -0.6499 -0.5230  1.9292
   85SAPS  C210 8067   6.241   0.722  10.081 -0.1839  1.1502 -0.1547
   85SAPS  H10R 8068   6.300   0.809  10.119  0.5250  0.2986  0.7449
   85SAPS  H10S 8069   6.244   0.727   9.970 -2.3182  1.0321 -0.2481
   85SAPS  C211 8070   6.305   0.589  10.122 -0.3110  0.8352  0.7788
   85SAPS  H11R 8071   6.348   0.581  10.223  0.1075  0.4338  0.5730
   85SAPS  C212 8072   6.305   0.479  10.040  0.5297  1.1757  0.2867
   85SAPS  H12R 8073   6.366   0.390  10.062  1.3083  0.6338 -3.4576
   85SAPS  C213 8074   6.234   0.451   9.904  1.1505  1.1464  0.9359
   85SAPS  H13R 8075   6.311   0.392   9.849  3.0071  3.9477  0.3012
   85SAPS  H13S 8076   6.233   0.541   9.838  0.5135  0.8631  0.5484
   85SAPS  C214 8077   6.103   0.380   9.914  0.4147 -0.3597 -0.1644
   85SAPS  H14R 8078   6.100   0.283   9.965 -2.9569 -0.3552 -0.1039
   85SAPS  C215 8079   5.997   0.405   9.835  0.4723  0.0339 -0.6305
   85SAPS  H15R 8080   5.906   0.345   9.847  1.0515 -0.6806  0.3816
   85SAPS  C216 8081   5.982   0.523   9.741 -0.3165 -0.5530 -0.0434
   85SAPS  H16R 8082   6.070   0.591   9.743 -1.3205  0.7714  1.6568
   85SAPS  H16S 8083   5.901   0.590   9.776 -0.2035 -0.7256  0.5616
   85SAPS  C217 8084   5.948   0.480   9.595  0.1604 -0.1655 -0.5035
   85SAPS  H17R 8085   5.930   0.575   9.541 -1.2290 -0.2399 -0.2105
   85SAPS  H17S 8086   5.862   0.409   9.593  1.1294 -1.3686 -1.0484
   85SAPS  C218 8087   6.061   0.394   9.529 -0.5931  0.2453  0.0672
   85SAPS  H18R 8088   6.028   0.289   9.518  0.5045  0.0658 -2.2174
   85SAPS  H18S 8089   6.149   0.383   9.595 -1.1473  1.4921  1.0567
   85SAPS  C219 8090   6.098   0.443   9.393 -0.0614 -0.1579 -0.8602
   85SAPS  H19R 8091   6.141   0.545   9.404 -0.3433 -0.0957 -0.3021
   85SAPS  H19S 8092   6.001   0.458   9.340 -1.2153  1.9927  1.5985
   85SAPS  C220 8093   6.193   0.345   9.334 -0.2611 -0.3091  0.2278
   85SAPS  H20R 8094   6.221   0.387   9.236  2.0117  2.0953  1.7768
   85SAPS  H20S 8095   6.164   0.238   9.347  1.6171 -1.2025 -2.2209
   85SAPS  H20T 8096   6.292   0.358   9.383  0.5105  1.4774 -1.6835
   85SAPS   C33 8097   6.651   1.422  10.052  0.2979 -0.6009 -0.1162
   85SAPS   H3X 8098   6.671   1.531  10.045 -1.9064 -0.1068  0.5725
   85SAPS   H3Y 8099   6.542   1.402  10.043  0.3116 -0.2058 -1.4214
   85SAPS   C34 8100   6.711   1.351   9.926  0.3612  0.0135  0.0122
   85SAPS   H4X 8101   6.709   1.243   9.948  0.6083 -0.2167 -1.0131
   85SAPS   H4Y 8102   6.820   1.376   9.919  0.2031  0.5834 -0.5012
   85SAPS   C35 8103   6.653   1.402   9.797 -0.1116 -0.2738 -0.3993
   85SAPS   H5X 8104   6.664   1.512   9.784 -0.4437 -0.0419  1.0873
   85SAPS   H5Y 8105   6.543   1.388   9.795 -0.1844  0.2563 -0.3290
   85SAPS   C36 8106   6.706   1.335   9.671 -1.4564  0.9987  0.0290
   85SAPS   H6X 8107   6.703   1.225   9.685  1.1678  0.8587 -0.0270
   85SAPS   H6Y 8108   6.812   1.366   9.654 -1.4192  0.5917 -0.5154
   85SAPS   C37 8109   6.625   1.366   9.547  0.3016  0.5282  0.8442
   85SAPS   H7X 8110   6.639   1.470   9.512 -0.9983 -0.1358 -1.9597
   85SAPS   H7Y 8111   6.516   1.370   9.566 -0.1674 -1.3276 -1.0166
   85SAPS   C38 8112   6.638   1.271   9.428 -0.7731 -0.7778 -0.3959
   85SAPS   H8X 8113   6.582   1.185   9.469 -1.5520 -0.9494 -1.7821
   85SAPS   H8Y 8114   6.737   1.238   9.390 -1.0502 -1.8263 -0.2379
   85SAPS   C39 8115   6.558   1.326   9.309 -0.7049 -0.3840  0.2056
   85SAPS   H9X 8116   6.601   1.424   9.276 -2.0002  1.0177  2.4066
   85SAPS   H9Y 8117   6.449   1.332   9.331 -0.7085 -1.2658  0.4557
   85SAPS  C310 8118   6.588   1.239   9.187  0.2142 -0.1526 -0.0731
   85SAPS  H10X 8119   6.540   1.140   9.200 -0.9433  0.0541 -2.2628
   85SAPS  H10Y 8120   6.699   1.231   9.177  0.1259  0.3641 -1.9003
   85SAPS  C311 8121   6.547   1.303   9.051  0.1155  0.1288  0.2885
   85SAPS  H11X 8122   6.601   1.398   9.030  0.2739  0.0598  0.3830
   85SAPS  H11Y 8123   6.439   1.331   9.046 -0.1357 -1.0681 -1.9564
   85SAPS  C312 8124   6.575   1.220   8.926  0.2740  0.4956  0.4320
   85SAPS  H12X 8125   6.506   1.135   8.943 -0.6444  1.0699 -0.2833
   85SAPS  H12Y 8126   6.679   1.182   8.926 -0.5393 -1.9024  0.8301
   85SAPS  C313 8127   6.548   1.291   8.794 -0.2973  0.0437 -0.0577
   85SAPS  H13X 8128   6.608   1.384   8.799  0.6299 -0.5457  0.0147
   85SAPS  H13Y 8129   6.440   1.316   8.788 -0.7348 -1.6393  0.1472
   85SAPS  C314 8130   6.587   1.209   8.669 -0.1352 -0.3713  0.0505
   85SAPS  H14X 8131   6.529   1.114   8.661 -1.3641  0.4470 -1.1921
   85SAPS  H14Y 8132   6.697   1.192   8.676  0.6566  4.0538  1.0589
   85SAPS  C315 8133   6.551   1.295   8.540  1.0292  0.4699  0.3967
   85SAPS  H15X 8134   6.605   1.392   8.531  1.8136 -0.0845 -1.4958
   85SAPS  H15Y 8135   6.449   1.332   8.558  1.2093  0.5925  1.1679
   85SAPS  C316 8136   6.546   1.212   8.407  0.2016 -0.3653 -0.1010
   85SAPS  H16X 8137   6.489   1.118   8.419 -0.1424 -0.4836 -2.2847
   85SAPS  H16Y 8138   6.648   1.177   8.379 -0.7056 -1.4306 -2.2598
   85SAPS  C317 8139   6.506   1.288   8.280  0.6372  0.3795 -0.8704
   85SAPS  H17X 8140   6.414   1.346   8.303  0.3306  1.2015 -3.8155
   85SAPS  H17Y 8141   6.487   1.216   8.198 -0.5454 -0.7300  0.3278
   85SAPS  C318 8142   6.619   1.386   8.241 -0.1444 -0.3814 -0.2273
   85SAPS  H18X 8143   6.631   1.462   8.322 -0.0506  0.1109 -0.6952
   85SAPS  H18Y 8144   6.588   1.446   8.153 -0.2125 -0.2745 -0.1326
   85SAPS  H18Z 8145   6.714   1.332   8.220  1.9293  0.8616  4.5202
   86SAPS     N 8146   1.558   1.026  10.886 -0.8711 -0.3693  0.9355
   86SAPS   HN1 8147   1.585   1.120  10.851  1.5193 -1.2343  0.2550
   86SAPS   HN2 8148   1.641   0.967  10.864 -0.1566  0.6326  0.9157
   86SAPS   HN3 8149   1.486   0.984  10.824  2.0034 -2.5186 -1.2452
   86SAPS   C12 8150   1.541   1.026  11.029  0.1554 -0.6234 -0.7248
   86SAPS  H12A 8151   1.479   0.949  11.073  0.4499  0.6815  2.1984
   86SAPS   C13 8152   1.668   1.015  11.110  0.1466  0.7656  0.2769
   86SAPS  O13A 8153   1.770   0.965  11.057 -0.0039  0.3672  0.4337
   86SAPS  O13B 8154   1.662   1.024  11.234  0.4970 -0.2785 -0.2118
   86SAPS   C11 8155   1.464   1.159  11.069 -0.6713  0.4399  0.5778
   86SAPS  H11A 8156   1.540   1.239  11.052 -0.3613 -0.2112 -1.3431
   86SAPS  H11B 8157   1.446   1.145  11.177 -2.9417 -0.1090  0.1697
   86SAPS     P 8158   1.267   1.319  11.015  0.6260 -0.2642 -0.3879
   86SAPS   O13 8159   1.122   1.294  11.037 -0.5778  0.3830 -0.2656
   86SAPS   O14 8160   1.333   1.391  11.123  0.0529  0.1757  0.5931
   86SAPS   O12 8161   1.341   1.181  10.995  0.2362 -0.2843  0.6556
   86SAPS   O11 8162   1.277   1.396  10.871  0.2174 -0.2169  0.7060
   86SAPS    C1 8163   1.322   1.312  10.764  0.5135 -0.5593  0.1595
   86SAPS    HA 8164   1.430   1.287  10.770  0.8364  0.8124  0.2837
   86SAPS    HB 8165   1.259   1.220  10.759 -0.2300 -0.0649  0.1612
   86SAPS    C2 8166   1.308   1.376  10.618 -0.0352  0.2381 -0.4261
   86SAPS    HS 8167   1.345   1.304  10.541  2.1575 -1.5742  2.0908
   86SAPS   O21 8168   1.385   1.493  10.620  0.3793 -0.3569  0.3488
   86SAPS   C21 8169   1.431   1.534  10.500  0.2337  0.3618  0.4570
   86SAPS   O22 8170   1.425   1.464  10.398  0.2013  0.0077 -0.1511
   86SAPS   C22 8171   1.486   1.683  10.509  0.4335  0.5126  0.4952
   86SAPS   H2R 8172   1.398   1.750  10.512  1.7411  2.3000  0.2744
   86SAPS   H2S 8173   1.536   1.693  10.607  0.3686 -0.4746  0.6432
   86SAPS    C3 8174   1.156   1.387  10.590  0.3378  0.4958  0.3628
   86SAPS    HX 8175   1.101   1.447  10.666  1.6307  2.6469 -0.3241
   86SAPS    HY 8176   1.109   1.286  10.588 -1.1148  1.1441  0.5892
   86SAPS   O31 8177   1.126   1.464  10.469 -0.4642 -0.8562  0.6177
   86SAPS   C31 8178   1.044   1.408  10.382 -0.1737  0.0581 -0.2570
   86SAPS   O32 8179   0.989   1.302  10.399  0.4488 -0.1982 -0.4488
   86SAPS   C32 8180   1.041   1.494  10.260 -0.2550  0.0854  0.6452
   86SAPS   H2X 8181   1.109   1.581  10.275  0.0469 -0.1704  0.7651
   86SAPS   H2Y 8182   0.937   1.527  10.238 -0.9253 -2.9666 -1.3011
   86SAPS   C23 8183   1.577   1.727  10.403  0.2065  0.3869 -0.0674
   86SAPS   H3R 8184   1.663   1.660  10.379 -0.2612 -0.7744  1.3668
   86SAPS   H3S 8185   1.619   1.823  10.440 -1.5567  0.9533  0.5172
   86SAPS   C24 8186   1.520   1.759  10.266  0.8135  0.4535 -0.3350
   86SAPS   H4R 8187   1.422   1.811  10.269 -0.1055 -1.2493  1.8127
   86SAPS   H4S 8188   1.496   1.661  10.220 -1.0988  1.7395 -2.2646
   86SAPS   C25 8189   1.612   1.835  10.181  0.3068  0.3117  0.1918
   86SAPS   H5R 8190   1.660   1.923  10.227 -1.1169  0.8057  0.8076
   86SAPS   C26 8191   1.650   1.809  10.053 -0.1283  0.1593  0.6763
   86SAPS   H6R 8192   1.723   1.876  10.005 -0.4792  0.2064  0.1925
   86SAPS   C27 8193   1.602   1.696   9.963  0.8128  0.3602 -0.0547
   86SAPS   H7R 8194   1.539   1.620  10.015  0.2074  0.2029 -0.9950
   86SAPS   H7S 8195   1.687   1.639   9.920 -1.0154 -1.1991 -1.8187
   86SAPS   C28 8196   1.520   1.746   9.850 -0.6954 -0.6995 -0.6193
   86SAPS   H8R 8197   1.436   1.806   9.887 -0.4334 -0.4038 -0.4965
   86SAPS   C29 8198   1.547   1.744   9.717 -0.6498 -0.3955 -0.7199
   86SAPS   H9R 8199   1.476   1.803   9.657 -2.8529  1.0192  2.9581
   86SAPS  C210 8200   1.660   1.692   9.635  0.1543  1.1653  0.6913
   86SAPS  H10R 8201   1.620   1.639   9.546  0.3230  1.7730  0.2451
   86SAPS  H10S 8202   1.726   1.616   9.681 -0.2249 -0.3072 -1.0418
   86SAPS  C211 8203   1.754   1.804   9.595  0.1634  0.2823  0.1946
   86SAPS  H11R 8204   1.848   1.816   9.652  1.5695  2.7509 -2.4062
   86SAPS  C212 8205   1.731   1.877   9.483  0.4418 -0.2129 -0.0728
   86SAPS  H12R 8206   1.800   1.961   9.467  0.0704 -0.0625 -0.9374
   86SAPS  C213 8207   1.617   1.853   9.385  0.2881  0.4044  0.0212
   86SAPS  H13R 8208   1.587   1.947   9.332  2.2923  0.0027 -1.9526
   86SAPS  H13S 8209   1.527   1.822   9.443  0.5389 -0.6925 -0.1550
   86SAPS  C214 8210   1.662   1.751   9.280 -0.0365 -0.3012  0.1505
   86SAPS  H14R 8211   1.710   1.656   9.309 -0.5931 -0.5163  0.3827
   86SAPS  C215 8212   1.643   1.754   9.151 -0.0012  0.1518  0.4180
   86SAPS  H15R 8213   1.661   1.663   9.091  0.8079 -1.7675  3.3260
   86SAPS  C216 8214   1.578   1.864   9.079  0.2085 -0.2270 -0.1238
   86SAPS  H16R 8215   1.596   1.959   9.133  0.0371  0.3726 -1.0934
   86SAPS  H16S 8216   1.469   1.846   9.086  0.3020 -0.2291  1.9886
   86SAPS  C217 8217   1.607   1.883   8.934  0.2088  0.0955  0.3270
   86SAPS  H17R 8218   1.714   1.903   8.914  0.2354 -3.3956 -5.2555
   86SAPS  H17S 8219   1.554   1.974   8.902 -0.9734 -0.4683  0.6252
   86SAPS  C218 8220   1.585   1.760   8.835  0.3151  0.4506 -0.6883
   86SAPS  H18R 8221   1.478   1.731   8.843  0.6508 -0.4400  1.2311
   86SAPS  H18S 8222   1.653   1.681   8.875  1.1496  1.1912 -0.6222
   86SAPS  C219 8223   1.617   1.809   8.694 -0.3738  0.2385  0.5298
   86SAPS  H19R 8224   1.715   1.861   8.701  1.3216 -2.6997  0.4864
   86SAPS  H19S 8225   1.543   1.886   8.663  0.5772  0.0235 -2.6508
   86SAPS  C220 8226   1.619   1.704   8.581 -0.0510 -0.6177 -0.4503
   86SAPS  H20R 8227   1.647   1.767   8.494 -0.6974 -1.6570 -1.4343
   86SAPS  H20S 8228   1.511   1.682   8.569 -0.1015 -0.9559  0.5062
   86SAPS  H20T 8229   1.674   1.608   8.594  0.2713 -0.4650 -0.6786
   86SAPS   C33 8230   1.075   1.417  10.133 -0.8236  0.2918 -0.4453
   86SAPS   H3X 8231   0.993   1.346  10.105  1.5945 -3.1965  0.5724
   86SAPS   H3Y 8232   1.153   1.338  10.149 -0.9072  0.3513  0.2976
   86SAPS   C34 8233   1.121   1.505  10.009 -0.3298  0.0104 -0.2220
   86SAPS   H4X 8234   1.206   1.570  10.039 -1.3980  0.3936  2.2043
   86SAPS   H4Y 8235   1.033   1.569   9.985 -1.5075 -1.3269  0.3482
   86SAPS   C35 8236   1.146   1.411   9.890  0.1422  0.1596 -0.5161
   86SAPS   H5X 8237   1.059   1.342   9.895 -0.1731  0.5739 -0.1895
   86SAPS   H5Y 8238   1.236   1.357   9.926 -0.0242  1.3540  1.8870
   86SAPS   C36 8239   1.156   1.482   9.751  0.3274 -0.2076 -0.4951
   86SAPS   H6X 8240   1.246   1.547   9.756 -0.3662  0.6791  1.7178
   86SAPS   H6Y 8241   1.069   1.550   9.737  0.8166  0.5524  0.0669
   86SAPS   C37 8242   1.180   1.387   9.632 -0.0555 -0.0947 -0.4388
   86SAPS   H7X 8243   1.080   1.350   9.602  0.3593 -1.8608  0.2422
   86SAPS   H7Y 8244   1.245   1.303   9.665 -0.5168 -0.3941 -0.2884
   86SAPS   C38 8245   1.267   1.459   9.522 -0.7179  0.4683  0.1397
   86SAPS   H8X 8246   1.366   1.482   9.568  0.0059  0.7547 -1.5000
   86SAPS   H8Y 8247   1.216   1.556   9.503 -2.1779  0.2412  2.3901
   86SAPS   C39 8248   1.295   1.375   9.398  0.2982  0.8846  0.6219
   86SAPS   H9X 8249   1.198   1.348   9.351 -1.7893  2.7699  3.5149
   86SAPS   H9Y 8250   1.353   1.287   9.434 -0.5202 -0.2110 -0.6213
   86SAPS  C310 8251   1.367   1.451   9.288  0.3757 -0.3825  0.1899
   86SAPS  H10X 8252   1.388   1.379   9.206  1.5744  2.2112 -1.9685
   86SAPS  H10Y 8253   1.463   1.496   9.324 -0.2503  2.1292 -1.0378
   86SAPS  C311 8254   1.286   1.570   9.214 -0.1381  0.7408 -0.3372
   86SAPS  H11X 8255   1.358   1.589   9.132  1.6115 -1.1930  0.6424
   86SAPS  H11Y 8256   1.275   1.655   9.285 -1.8190  0.8072 -0.6453
   86SAPS  C312 8257   1.147   1.538   9.161 -0.0655  0.4663  0.0297
   86SAPS  H12X 8258   1.089   1.621   9.116 -1.0080 -1.1008 -1.7612
   86SAPS  H12Y 8259   1.077   1.519   9.245  0.7910 -0.3037  0.5938
   86SAPS  C313 8260   1.141   1.424   9.059 -0.3404  0.0232  0.0474
   86SAPS  H13X 8261   1.211   1.342   9.088  0.5386  0.7483 -0.0020
   86SAPS  H13Y 8262   1.182   1.471   8.967  0.1845  2.3095  1.3775
   86SAPS  C314 8263   0.999   1.377   9.018  0.0462  0.1715 -0.6296
   86SAPS  H14X 8264   0.931   1.464   9.027 -0.4453 -0.3247  0.8568
   86SAPS  H14Y 8265   0.962   1.306   9.096  1.5853  1.3765  1.2920
   86SAPS  C315 8266   0.991   1.322   8.876 -0.1736  0.0074 -0.3060
   86SAPS  H15X 8267   1.041   1.387   8.802 -0.3497  0.7507  0.2129
   86SAPS  H15Y 8268   0.884   1.310   8.848  0.3674  0.3806 -2.6917
   86SAPS  C316 8269   1.030   1.173   8.863  0.4117  0.1116 -0.4213
   86SAPS  H16X 8270   0.985   1.115   8.780 -0.9249 -1.4410  1.3045
   86SAPS  H16Y 8271   0.987   1.125   8.954 -0.9466  3.2219  0.7270
   86SAPS  C317 8272   1.183   1.145   8.844  0.0781 -0.2956  0.3179
   86SAPS  H17X 8273   1.234   1.203   8.923 -1.0696  0.2245  0.7047
   86SAPS  H17Y 8274   1.219   1.191   8.749  0.3923  2.4388  1.6628
   86SAPS  C318 8275   1.219   0.994   8.856  0.2195  0.4717  0.3286
   86SAPS  H18X 8276   1.151   0.953   8.777  1.0495 -0.7624  0.2203
   86SAPS  H18Y 8277   1.191   0.942   8.950 -0.6430 -0.2083 -0.2735
   86SAPS  H18Z 8278   1.323   0.967   8.827 -0.0969 -0.0927 -0.3520
   87SAPS     N 8279   2.958   2.551  11.129 -0.0589 -0.1216 -0.3396
   87SAPS   HN1 8280   2.856   2.553  11.147 -0.3579  1.7209 -1.8811
   87SAPS   HN2 8281   2.980   2.625  11.059 -1.1270 -0.0532 -0.6179
   87SAPS   HN3 8282   2.985   2.457  11.095  0.4647  0.0290 -0.3448
   87SAPS   C12 8283   3.020   2.586  11.262  0.2453  0.1153 -0.5311
   87SAPS  H12A 8284   2.979   2.681  11.293  1.5480  0.0954  1.3963
   87SAPS   C13 8285   2.997   2.492  11.378 -0.0401 -0.6598 -0.2870
   87SAPS  O13A 8286   2.924   2.395  11.370  0.1584 -0.2431 -0.1788
   87SAPS  O13B 8287   3.052   2.523  11.485 -0.6695 -0.8146  0.7517
   87SAPS   C11 8288   3.178   2.598  11.236  0.6330 -0.1004  0.2835
   87SAPS  H11A 8289   3.227   2.621  11.333  1.1588 -1.7419  0.4468
   87SAPS  H11B 8290   3.186   2.682  11.164  0.3427 -0.6667 -0.4199
   87SAPS     P 8291   3.317   2.476  11.056  0.0265  0.0596 -0.4205
   87SAPS   O13 8292   3.390   2.603  11.045 -0.4652 -0.6062  0.0381
   87SAPS   O14 8293   3.401   2.354  11.067  0.4101  0.3413 -0.1380
   87SAPS   O12 8294   3.224   2.470  11.180 -0.1678  0.7154 -0.6319
   87SAPS   O11 8295   3.216   2.461  10.934 -0.2100 -0.1146 -0.6601
   87SAPS    C1 8296   3.250   2.389  10.814  0.0552 -0.0121  0.4693
   87SAPS    HA 8297   3.309   2.297  10.833  1.8088  0.0564 -3.5608
   87SAPS    HB 8298   3.168   2.352  10.748  0.4609 -0.6106  0.2944
   87SAPS    C2 8299   3.337   2.473  10.715  0.4297  0.0282 -0.4135
   87SAPS    HS 8300   3.411   2.535  10.770 -0.5048  1.2401 -0.4943
   87SAPS   O21 8301   3.229   2.552  10.656  0.2333 -0.2393 -0.0474
   87SAPS   C21 8302   3.274   2.654  10.582 -0.7854  0.1341 -0.2550
   87SAPS   O22 8303   3.388   2.686  10.568 -0.0015 -0.0328  0.0469
   87SAPS   C22 8304   3.153   2.725  10.516 -0.5862  0.2112 -0.0593
   87SAPS   H2R 8305   3.071   2.710  10.588  0.8914  5.5317  3.2300
   87SAPS   H2S 8306   3.175   2.834  10.508  1.3966 -0.1822 -0.6702
   87SAPS    C3 8307   3.419   2.394  10.611  0.0981  0.2417  0.4526
   87SAPS    HX 8308   3.474   2.309  10.655  3.2209 -0.9917 -4.9415
   87SAPS    HY 8309   3.495   2.469  10.581 -0.9670  1.7750  1.4119
   87SAPS   O31 8310   3.358   2.353  10.486 -0.1931 -0.6497  0.0805
   87SAPS   C31 8311   3.287   2.238  10.493 -0.1163 -0.3289 -0.3891
   87SAPS   O32 8312   3.277   2.165  10.591  0.1952  0.1208 -0.7620
   87SAPS   C32 8313   3.215   2.222  10.357  0.0366  0.3667 -0.3917
   87SAPS   H2X 8314   3.112   2.261  10.365  0.2883  1.9216 -3.3832
   87SAPS   H2Y 8315   3.207   2.111  10.366 -0.2688  0.3166 -1.2527
   87SAPS   C23 8316   3.139   2.668  10.373 -0.0521 -0.1087 -0.8455
   87SAPS   H3R 8317   3.134   2.559  10.392  1.1682  0.3421  3.1106
   87SAPS   H3S 8318   3.225   2.697  10.309 -0.0976  3.7816  0.5345
   87SAPS   C24 8319   3.008   2.699  10.304 -0.4740  0.0221 -0.0648
   87SAPS   H4R 8320   2.919   2.685  10.369 -1.4080 -1.6907 -1.6125
   87SAPS   H4S 8321   2.983   2.631  10.219 -1.5262  1.6602 -1.1541
   87SAPS   C25 8322   3.003   2.831  10.237  0.2012 -0.2851  0.5409
   87SAPS   H5R 8323   3.020   2.914  10.307 -0.1135 -0.3442  0.6886
   87SAPS   C26 8324   2.972   2.861  10.108 -0.4408 -0.0917 -0.4310
   87SAPS   H6R 8325   2.984   2.962  10.067  1.5322 -0.1706 -0.1620
   87SAPS   C27 8326   2.942   2.755  10.001  0.4510 -0.9052 -0.2799
   87SAPS   H7R 8327   2.864   2.799   9.935 -1.7935 -0.8643  2.2111
   87SAPS   H7S 8328   2.892   2.667  10.046 -0.2163 -1.6805 -2.4207
   87SAPS   C28 8329   3.061   2.705   9.928  0.7194 -0.4094  0.6500
   87SAPS   H8R 8330   3.130   2.644   9.988  0.8967 -0.3979  0.4586
   87SAPS   C29 8331   3.085   2.717   9.796  0.4550 -0.6751 -0.0446
   87SAPS   H9R 8332   3.168   2.661   9.751 -1.3911 -2.4119 -1.4620
   87SAPS  C210 8333   2.994   2.789   9.696  0.2344  0.2509  0.3456
   87SAPS  H10R 8334   2.905   2.723   9.684  0.5363 -0.1881  0.4621
   87SAPS  H10S 8335   3.048   2.762   9.602  0.3855 -2.3956  1.0900
   87SAPS  C211 8336   2.969   2.934   9.701 -0.2590 -0.0183 -0.0116
   87SAPS  H11R 8337   2.863   2.957   9.725 -0.0099  0.2905  0.8585
   87SAPS  C212 8338   3.060   3.035   9.682 -0.4040  0.2483  0.2364
   87SAPS  H12R 8339   3.031   3.140   9.701  1.4861  0.7919  0.3496
   87SAPS  C213 8340   3.208   3.023   9.652  0.3608 -0.2751 -0.3699
   87SAPS  H13R 8341   3.255   2.936   9.705  0.4498  0.0052  0.0145
   87SAPS  H13S 8342   3.255   3.107   9.708  0.4279 -1.5877  1.6844
   87SAPS  C214 8343   3.244   3.030   9.511  0.3222  0.4816  0.5920
   87SAPS  H14R 8344   3.259   2.932   9.464  0.8834  0.7223  0.2449
   87SAPS  C215 8345   3.263   3.141   9.443 -0.7688  0.5643  0.0770
   87SAPS  H15R 8346   3.302   3.137   9.340  2.4802 -0.5732  1.2242
   87SAPS  C216 8347   3.251   3.279   9.505 -0.6922  0.5745 -0.3805
   87SAPS  H16R 8348   3.331   3.323   9.568  0.5868  0.1468 -1.6589
   87SAPS  H16S 8349   3.161   3.279   9.570 -0.2691 -1.8103  0.3152
   87SAPS  C217 8350   3.224   3.392   9.398  0.2575  0.3211 -1.0635
   87SAPS  H17R 8351   3.217   3.492   9.445  0.2692  0.9071 -2.2742
   87SAPS  H17S 8352   3.129   3.361   9.349 -0.7531 -1.0139  1.5338
   87SAPS  C218 8353   3.328   3.417   9.292  0.0451  0.6295 -0.4163
   87SAPS  H18R 8354   3.341   3.320   9.241 -1.1076 -0.6779  1.6326
   87SAPS  H18S 8355   3.427   3.453   9.325 -0.0365  1.5279 -1.1096
   87SAPS  C219 8356   3.274   3.514   9.187 -0.1268  0.4114 -0.6462
   87SAPS  H19R 8357   3.269   3.614   9.235  0.7726 -0.1539  0.6798
   87SAPS  H19S 8358   3.174   3.474   9.158 -0.8307  0.7033  1.2059
   87SAPS  C220 8359   3.366   3.522   9.062  0.4331  0.0600 -0.5059
   87SAPS  H20R 8360   3.369   3.629   9.033  2.8001  0.0054 -0.6483
   87SAPS  H20S 8361   3.316   3.461   8.983 -0.4581  0.5340 -0.3308
   87SAPS  H20T 8362   3.473   3.502   9.084  0.0498 -1.5833  0.0146
   87SAPS   C33 8363   3.296   2.260  10.238  0.1454  0.1127  0.0656
   87SAPS   H3X 8364   3.369   2.180  10.213  0.2938  0.3836 -0.3727
   87SAPS   H3Y 8365   3.349   2.357  10.244  0.9247 -0.3474  0.9055
   87SAPS   C34 8366   3.199   2.277  10.117 -0.5694 -0.1849  0.9088
   87SAPS   H4X 8367   3.125   2.359  10.133  1.2485  2.0573 -1.2761
   87SAPS   H4Y 8368   3.148   2.179  10.103 -0.9666  0.1573 -0.1384
   87SAPS   C35 8369   3.272   2.321   9.994 -0.0580  0.5156 -0.1234
   87SAPS   H5X 8370   3.353   2.246   9.980 -2.5399 -2.3518 -0.1383
   87SAPS   H5Y 8371   3.324   2.419  10.005  0.5734  0.4218 -1.9256
   87SAPS   C36 8372   3.197   2.315   9.866  0.5816 -0.3943  0.2273
   87SAPS   H6X 8373   3.120   2.396   9.861  0.5750 -0.3268  1.2357
   87SAPS   H6Y 8374   3.141   2.219   9.857  1.6542 -1.1188  1.0356
   87SAPS   C37 8375   3.274   2.328   9.731  0.2792 -0.0450 -0.1802
   87SAPS   H7X 8376   3.343   2.242   9.714  0.3282  0.0389 -0.4086
   87SAPS   H7Y 8377   3.333   2.422   9.736  0.0227  0.1764 -1.0816
   87SAPS   C38 8378   3.168   2.326   9.614 -0.7375 -0.0407 -0.2674
   87SAPS   H8X 8379   3.212   2.350   9.515  0.6127  1.2486  0.5959
   87SAPS   H8Y 8380   3.097   2.410   9.631 -0.2112  1.0889 -3.1247
   87SAPS   C39 8381   3.090   2.194   9.596  0.0544 -0.3262 -0.1598
   87SAPS   H9X 8382   3.003   2.196   9.527 -0.0476 -0.0644 -0.0246
   87SAPS   H9Y 8383   3.050   2.171   9.697  0.6044  1.0209  0.3832
   87SAPS  C310 8384   3.184   2.071   9.569  0.2997  0.3803  0.5129
   87SAPS  H10X 8385   3.134   1.972   9.560  0.7057 -0.0199  2.2607
   87SAPS  H10Y 8386   3.246   2.065   9.661  2.5483 -2.2628 -1.0098
   87SAPS  C311 8387   3.279   2.086   9.454  0.1626  0.4032  0.0047
   87SAPS  H11X 8388   3.339   1.994   9.437  0.3572  0.9308 -2.6185
   87SAPS  H11Y 8389   3.351   2.168   9.472  0.1443  0.6002 -0.7844
   87SAPS  C312 8390   3.205   2.102   9.318  0.2453 -0.0866 -0.5278
   87SAPS  H12X 8391   3.146   2.196   9.324  0.8393  0.3523 -1.3515
   87SAPS  H12Y 8392   3.127   2.023   9.313  1.0914 -0.9776  0.0201
   87SAPS  C313 8393   3.297   2.097   9.193  0.1306  0.3994  0.4003
   87SAPS  H13X 8394   3.237   2.073   9.102  0.0614  0.0615  0.5318
   87SAPS  H13Y 8395   3.365   2.011   9.213 -0.4665 -0.5766 -1.4875
   87SAPS  C314 8396   3.389   2.216   9.160 -0.5721  0.2509  0.0570
   87SAPS  H14X 8397   3.456   2.232   9.247  0.0941 -1.6534 -0.0381
   87SAPS  H14Y 8398   3.331   2.308   9.139  0.4941  0.9036 -0.1305
   87SAPS  C315 8399   3.485   2.199   9.040 -0.4805  0.2906  0.3489
   87SAPS  H15X 8400   3.557   2.116   9.052  1.5172  1.8676 -0.1737
   87SAPS  H15Y 8401   3.541   2.295   9.046 -0.6711  0.3961  0.4785
   87SAPS  C316 8402   3.417   2.182   8.900 -0.2226  0.3175 -0.2389
   87SAPS  H16X 8403   3.336   2.257   8.887 -2.0463 -1.0834  2.0623
   87SAPS  H16Y 8404   3.351   2.093   8.912 -0.7945  0.3646 -2.6051
   87SAPS  C317 8405   3.512   2.168   8.782 -0.0087  0.0638 -0.1837
   87SAPS  H17X 8406   3.589   2.101   8.826  1.2663  0.8738 -1.1312
   87SAPS  H17Y 8407   3.562   2.264   8.760 -2.1632  1.0415 -1.0666
   87SAPS  C318 8408   3.453   2.088   8.662  0.8600  0.3847 -0.2279
   87SAPS  H18X 8409   3.519   2.092   8.574  3.0392  0.9901  1.3569
   87SAPS  H18Y 8410   3.346   2.114   8.645  0.3261 -2.8303 -2.7215
   87SAPS  H18Z 8411   3.441   1.979   8.682 -0.6479  0.6186  0.2815
   88SAPS     N 8412   3.092   4.781  10.854  0.5316  0.3784 -0.3073
   88SAPS   HN1 8413   3.160   4.728  10.796 -0.7198  0.2799 -1.7581
   88SAPS   HN2 8414   2.993   4.762  10.830 -0.4483  1.6831  2.3164
   88SAPS   HN3 8415   3.108   4.884  10.843 -0.7955  0.5990 -0.4153
   88SAPS   C12 8416   3.093   4.761  11.001 -0.5570  0.0382 -0.4971
   88SAPS  H12A 8417   3.191   4.790  11.035 -0.1288 -0.2746 -1.4474
   88SAPS   C13 8418   2.978   4.848  11.069 -0.1042  0.5714 -0.6048
   88SAPS  O13A 8419   2.890   4.894  10.992  0.0094  0.1706 -0.6225
   88SAPS  O13B 8420   2.974   4.864  11.194 -0.3914 -0.1060  0.0247
   88SAPS   C11 8421   3.062   4.623  11.030 -0.0755  0.4159 -0.2106
   88SAPS  H11A 8422   2.960   4.614  10.987  0.0015 -0.3962 -0.2325
   88SAPS  H11B 8423   3.058   4.597  11.138  0.9850 -0.1093 -0.2800
   88SAPS     P 8424   3.127   4.381  10.957 -0.2856 -0.2964  0.0795
   88SAPS   O13 8425   3.243   4.304  10.917 -0.1207 -0.0947 -0.6444
   88SAPS   O14 8426   3.060   4.335  11.080  0.2664  0.2160  0.6194
   88SAPS   O12 8427   3.166   4.537  10.977  0.5677  0.0551  0.0747
   88SAPS   O11 8428   3.029   4.402  10.835  0.2038 -0.9600 -0.0963
   88SAPS    C1 8429   3.070   4.453  10.708 -0.3907 -0.1475 -0.3712
   88SAPS    HA 8430   3.037   4.557  10.686  1.2642  0.1532 -1.6824
   88SAPS    HB 8431   3.181   4.460  10.700 -0.5049 -0.2862 -3.2414
   88SAPS    C2 8432   3.022   4.358  10.597  0.7317 -0.2472  0.0789
   88SAPS    HS 8433   3.046   4.407  10.500  2.1694  0.4530  0.7628
   88SAPS   O21 8434   2.889   4.313  10.617 -0.1105  0.6208 -0.3759
   88SAPS   C21 8435   2.789   4.402  10.596 -0.6105 -0.3529  0.6356
   88SAPS   O22 8436   2.805   4.520  10.557  0.4348 -0.0887  0.4118
   88SAPS   C22 8437   2.645   4.350  10.612 -0.1105 -0.3298 -0.3636
   88SAPS   H2R 8438   2.648   4.241  10.631  0.5965 -0.4423 -1.0648
   88SAPS   H2S 8439   2.604   4.402  10.701 -2.4109 -1.4687 -0.6926
   88SAPS    C3 8440   3.122   4.231  10.599 -0.4184  0.2141  0.6435
   88SAPS    HX 8441   3.090   4.152  10.670  0.4407 -1.7782 -1.0888
   88SAPS    HY 8442   3.227   4.263  10.615 -0.4278  1.0570 -0.8152
   88SAPS   O31 8443   3.115   4.161  10.471 -0.1627 -0.0460 -0.2797
   88SAPS   C31 8444   3.212   4.186  10.383  0.1933  0.6576 -0.2599
   88SAPS   O32 8445   3.297   4.269  10.392 -0.2386 -0.9052  0.0727
   88SAPS   C32 8446   3.191   4.098  10.258 -1.0145 -0.1740  0.5139
   88SAPS   H2X 8447   3.143   4.149  10.172 -1.7788  1.2958  1.7701
   88SAPS   H2Y 8448   3.123   4.019  10.297 -0.7014 -0.9823 -0.5028
   88SAPS   C23 8449   2.553   4.387  10.489 -0.0986 -0.5893 -1.5233
   88SAPS   H3R 8450   2.571   4.491  10.454  3.1138 -0.3063  0.6082
   88SAPS   H3S 8451   2.452   4.378  10.535 -0.1112  1.6558 -1.0364
   88SAPS   C24 8452   2.563   4.298  10.371  0.0181  0.2698 -0.1967
   88SAPS   H4R 8453   2.459   4.301  10.333 -0.3162  0.5669  0.7041
   88SAPS   H4S 8454   2.580   4.195  10.407 -1.1526  0.8925  2.3275
   88SAPS   C25 8455   2.658   4.337  10.258 -0.2111  0.3967 -0.2615
   88SAPS   H5R 8456   2.664   4.446  10.247  0.1507  0.4152  0.1044
   88SAPS   C26 8457   2.729   4.256  10.184 -0.0017  0.0649  0.6988
   88SAPS   H6R 8458   2.793   4.312  10.113 -1.4137  0.3633 -0.3846
   88SAPS   C27 8459   2.750   4.106  10.194  0.4067  0.1695  0.3065
   88SAPS   H7R 8460   2.716   4.085  10.297 -1.5574 -0.4977 -0.4326
   88SAPS   H7S 8461   2.858   4.082  10.192  0.5760  0.8799 -1.6523
   88SAPS   C28 8462   2.672   4.022  10.099  0.3186  0.3493  0.4416
   88SAPS   H8R 8463   2.569   4.056  10.084 -0.8635 -3.5175 -1.5421
   88SAPS   C29 8464   2.703   3.908  10.024 -1.1376 -0.2931 -0.2368
   88SAPS   H9R 8465   2.625   3.857   9.966 -1.9639  0.8165 -0.1485
   88SAPS  C210 8466   2.838   3.837  10.011 -0.2496  0.3801  0.0598
   88SAPS  H10R 8467   2.818   3.752   9.942  1.0506 -0.6677  0.9372
   88SAPS  H10S 8468   2.871   3.782  10.102  0.1913  1.5348  0.6085
   88SAPS  C211 8469   2.948   3.914   9.953  0.0784 -0.2647  0.6209
   88SAPS  H11R 8470   3.018   3.959  10.026 -1.3690 -0.3017  2.0813
   88SAPS  C212 8471   2.980   3.928   9.825  0.9792  0.4829  0.3485
   88SAPS  H12R 8472   3.070   3.984   9.794  1.8679 -1.2098 -0.2247
   88SAPS  C213 8473   2.894   3.878   9.708  0.5616 -0.7241  0.5854
   88SAPS  H13R 8474   2.827   3.953   9.661  1.6173 -0.6400 -0.8363
   88SAPS  H13S 8475   2.824   3.802   9.749  0.2121 -0.7459 -0.0349
   88SAPS  C214 8476   2.981   3.801   9.608 -0.1507 -0.7776  0.1775
   88SAPS  H14R 8477   3.030   3.714   9.652 -2.0008 -1.3741  1.1683
   88SAPS  C215 8478   3.002   3.844   9.483  0.4429 -0.0120 -0.3520
   88SAPS  H15R 8479   3.069   3.785   9.418 -0.0931 -3.0526  1.6506
   88SAPS  C216 8480   2.961   3.975   9.417  0.2116 -0.8991  0.0752
   88SAPS  H16R 8481   3.041   4.049   9.401  1.2540 -2.1852 -0.8317
   88SAPS  H16S 8482   2.881   4.022   9.479 -0.1857  1.5570 -2.1121
   88SAPS  C217 8483   2.890   3.967   9.279 -0.2118 -0.2940  0.7336
   88SAPS  H17R 8484   2.831   4.059   9.259  0.0190  0.0459  1.5615
   88SAPS  H17S 8485   2.811   3.889   9.276 -0.3283 -0.1703  0.5126
   88SAPS  C218 8486   2.993   3.941   9.168  0.6385  0.0809  0.0940
   88SAPS  H18R 8487   3.029   3.840   9.200  1.2090  0.3642  0.3706
   88SAPS  H18S 8488   3.085   4.001   9.187  0.5944  0.5695 -1.2034
   88SAPS  C219 8489   2.937   3.955   9.029 -0.3970  0.0849 -0.1365
   88SAPS  H19R 8490   2.898   4.054   8.999  1.9119  0.6626 -1.4236
   88SAPS  H19S 8491   2.847   3.889   9.037 -0.1683 -0.1192  1.0624
   88SAPS  C220 8492   3.026   3.903   8.914  0.0169  0.1156 -0.0786
   88SAPS  H20R 8493   3.083   3.815   8.952 -0.1606  0.4566  1.0306
   88SAPS  H20S 8494   3.096   3.985   8.889 -0.2105 -0.1869 -1.8266
   88SAPS  H20T 8495   2.970   3.885   8.820 -0.2902  1.0237 -0.0833
   88SAPS   C33 8496   3.316   4.019  10.210  0.0355 -0.4501  0.0816
   88SAPS   H3X 8497   3.331   3.954  10.299 -4.2193  0.3056  1.6178
   88SAPS   H3Y 8498   3.406   4.084  10.209  1.2685 -1.8682  3.3400
   88SAPS   C34 8499   3.304   3.934  10.079  0.3345 -0.4314  0.4714
   88SAPS   H4X 8500   3.208   3.880  10.068 -0.9243  1.8274 -0.2269
   88SAPS   H4Y 8501   3.397   3.873  10.083  1.0359  0.5850  0.1104
   88SAPS   C35 8502   3.320   4.018   9.953 -0.3190  0.0712  1.1459
   88SAPS   H5X 8503   3.393   4.098   9.979 -0.6381 -0.4236  3.8200
   88SAPS   H5Y 8504   3.230   4.076   9.922  1.0005  1.9496  0.6575
   88SAPS   C36 8505   3.361   3.933   9.833  0.1264  0.2008 -1.0236
   88SAPS   H6X 8506   3.281   3.859   9.813  0.1619 -0.4136  0.9067
   88SAPS   H6Y 8507   3.452   3.870   9.847 -1.5728 -1.9419  0.9728
   88SAPS   C37 8508   3.398   4.029   9.716 -0.0144  0.9424 -0.3063
   88SAPS   H7X 8509   3.445   3.969   9.635  1.5242 -1.6513  2.3148
   88SAPS   H7Y 8510   3.482   4.091   9.752  0.7319 -0.6916  0.8859
   88SAPS   C38 8511   3.292   4.117   9.657  0.6878  0.3506 -0.8232
   88SAPS   H8X 8512   3.271   4.189   9.739  3.4158 -0.0584  0.3490
   88SAPS   H8Y 8513   3.203   4.057   9.628  1.5835 -1.6770  0.3965
   88SAPS   C39 8514   3.335   4.201   9.528 -0.5007 -0.0004 -0.2889
   88SAPS   H9X 8515   3.426   4.259   9.556  0.0375 -1.5017  1.2195
   88SAPS   H9Y 8516   3.261   4.279   9.500 -0.9440  0.0972  1.0700
   88SAPS  C310 8517   3.381   4.104   9.414 -0.2254  0.3861  0.1299
   88SAPS  H10X 8518   3.307   4.023   9.397  0.5953 -0.1140 -1.1660
   88SAPS  H10Y 8519   3.476   4.049   9.435 -0.3169  0.0035 -0.4406
   88SAPS  C311 8520   3.430   4.180   9.289  0.5619 -0.4571  0.2105
   88SAPS  H11X 8521   3.506   4.117   9.238  1.1194 -0.7291  1.3482
   88SAPS  H11Y 8522   3.476   4.273   9.328 -2.5585  1.0208  0.6962
   88SAPS  C312 8523   3.325   4.211   9.185  0.0161  0.5640 -0.6878
   88SAPS  H12X 8524   3.284   4.111   9.158 -0.9533  0.3144  1.4734
   88SAPS  H12Y 8525   3.376   4.249   9.095  1.4601 -1.3940 -0.7785
   88SAPS  C313 8526   3.210   4.306   9.232 -0.3168 -0.3499 -0.3887
   88SAPS  H13X 8527   3.244   4.403   9.273 -2.8145  1.1666 -1.6671
   88SAPS  H13Y 8528   3.155   4.253   9.314 -0.9475  0.2773 -0.3951
   88SAPS  C314 8529   3.116   4.334   9.117 -0.4053 -0.0781  0.1105
   88SAPS  H14X 8530   3.024   4.377   9.162 -0.6739 -1.0713  0.5197
   88SAPS  H14Y 8531   3.093   4.237   9.068 -1.5575 -1.0542  2.4437
   88SAPS  C315 8532   3.179   4.422   9.006 -0.6231  0.4362  0.8006
   88SAPS  H15X 8533   3.269   4.369   8.966  0.4028 -0.1433  3.6473
   88SAPS  H15Y 8534   3.217   4.517   9.049  1.3355 -0.2123  0.6083
   88SAPS  C316 8535   3.071   4.445   8.893 -1.0704  0.4661 -0.3304
   88SAPS  H16X 8536   3.000   4.360   8.900 -1.6544  1.0261  0.6873
   88SAPS  H16Y 8537   3.131   4.437   8.799 -0.9808 -1.8528 -0.1367
   88SAPS  C317 8538   3.007   4.582   8.896 -0.4727 -0.2768 -0.7991
   88SAPS  H17X 8539   3.080   4.665   8.886  2.5617 -2.7644 -1.1402
   88SAPS  H17Y 8540   2.961   4.594   8.996  1.9338  0.3897  0.3072
   88SAPS  C318 8541   2.898   4.586   8.792 -0.7871 -0.0772  0.4255
   88SAPS  H18X 8542   2.805   4.531   8.820 -0.6986 -2.3344 -3.0184
   88SAPS  H18Y 8543   2.932   4.552   8.692 -1.4301  1.2124 -0.2575
   88SAPS  H18Z 8544   2.853   4.685   8.772  2.4236  1.3432 -0.3658
   89SAPS     N 8545   4.631   1.495  10.672 -0.2074  0.2660  0.0674
   89SAPS   HN1 8546   4.728   1.509  10.707 -0.6114  0.6794  1.0432
   89SAPS   HN2 8547   4.639   1.546  10.581 -1.6289 -0.1780 -0.3246
   89SAPS   HN3 8548   4.559   1.553  10.720 -0.0502 -0.2248  0.9184
   89SAPS   C12 8549   4.585   1.352  10.657 -0.1969  0.1275 -0.8617
   89SAPS  H12A 8550   4.660   1.299  10.601 -0.3008 -0.9544 -0.0186
   89SAPS   C13 8551   4.591   1.274  10.788 -0.3702 -1.0476  0.0487
   89SAPS  O13A 8552   4.615   1.338  10.897 -0.0560 -0.3118  0.1545
   89SAPS  O13B 8553   4.548   1.154  10.785  0.1623  0.4536 -0.6672
   89SAPS   C11 8554   4.442   1.342  10.594  0.6276 -0.1514  0.1447
   89SAPS  H11A 8555   4.417   1.234  10.600  1.1369 -0.2171  1.4418
   89SAPS  H11B 8556   4.436   1.378  10.489 -0.5109 -0.4666  0.0870
   89SAPS     P 8557   4.197   1.409  10.656  0.0925  0.1043  0.4529
   89SAPS   O13 8558   4.151   1.273  10.697 -0.2961 -0.1880  0.0357
   89SAPS   O14 8559   4.131   1.523  10.726  0.0421 -0.3008  0.2569
   89SAPS   O12 8560   4.348   1.425  10.672  0.4937 -0.2606  0.7428
   89SAPS   O11 8561   4.176   1.419  10.494 -0.0640  0.0300  0.1075
   89SAPS    C1 8562   4.179   1.557  10.439 -0.0761 -0.0576 -0.3543
   89SAPS    HA 8563   4.094   1.617  10.476  0.5336 -0.5195  1.9603
   89SAPS    HB 8564   4.273   1.613  10.457  0.4296 -1.2411  0.8923
   89SAPS    C2 8565   4.177   1.550  10.281  0.1074  0.3301  0.5448
   89SAPS    HS 8566   4.161   1.643  10.222  1.8303 -0.7088 -1.6716
   89SAPS   O21 8567   4.069   1.462  10.240  0.3344 -0.4758  0.5578
   89SAPS   C21 8568   3.948   1.519  10.241 -0.5404  0.1034 -0.8732
   89SAPS   O22 8569   3.931   1.640  10.257  1.0319  0.4233 -0.7351
   89SAPS   C22 8570   3.844   1.409  10.213 -0.5119 -0.3991 -0.7776
   89SAPS   H2R 8571   3.890   1.313  10.243  2.2143  1.5812  2.0906
   89SAPS   H2S 8572   3.768   1.425  10.292  0.6076 -1.4734  0.5615
   89SAPS    C3 8573   4.302   1.482  10.222  0.1281 -0.2194 -0.2846
   89SAPS    HX 8574   4.330   1.386  10.272  0.6709 -0.7937 -1.6531
   89SAPS    HY 8575   4.389   1.548  10.242  2.7402 -3.3248 -0.5220
   89SAPS   O31 8576   4.295   1.471  10.070  0.3291 -0.2972  0.1717
   89SAPS   C31 8577   4.256   1.350  10.033 -0.3536 -0.0585 -0.0005
   89SAPS   O32 8578   4.231   1.258  10.109  0.2223 -0.6204 -0.1293
   89SAPS   C32 8579   4.251   1.340   9.887 -0.4233  0.0221  0.8610
   89SAPS   H2X 8580   4.352   1.368   9.850 -0.5070  0.8005  1.1946
   89SAPS   H2Y 8581   4.183   1.417   9.844  0.1400  1.1459  1.9232
   89SAPS   C23 8582   3.771   1.432  10.079  0.2587  0.5408 -0.1021
   89SAPS   H3R 8583   3.740   1.539  10.074  0.2637  0.5638  0.3227
   89SAPS   H3S 8584   3.680   1.369  10.070  1.1608 -0.7990 -0.1971
   89SAPS   C24 8585   3.844   1.393   9.949  0.0960 -0.8769 -0.5206
   89SAPS   H4R 8586   3.857   1.283   9.950  1.8791 -0.7614 -2.6191
   89SAPS   H4S 8587   3.940   1.448   9.943 -1.1023  1.5400  0.7453
   89SAPS   C25 8588   3.756   1.428   9.837 -0.6044 -0.0901  0.4023
   89SAPS   H5R 8589   3.724   1.533   9.827  1.8264  0.6479 -0.4687
   89SAPS   C26 8590   3.732   1.346   9.735  0.7825  0.0267 -0.2520
   89SAPS   H6R 8591   3.672   1.392   9.656 -0.5446  1.1862  1.3865
   89SAPS   C27 8592   3.790   1.203   9.708 -0.8443 -0.9711 -0.5260
   89SAPS   H7R 8593   3.741   1.133   9.779  2.4691 -2.5730  0.3926
   89SAPS   H7S 8594   3.901   1.203   9.722 -0.6452  0.4555 -1.8085
   89SAPS   C28 8595   3.759   1.156   9.564  0.3904  0.3312 -0.7160
   89SAPS   H8R 8596   3.669   1.096   9.547  0.7870 -0.4018 -0.2678
   89SAPS   C29 8597   3.807   1.197   9.447  0.0774 -0.1575 -0.4560
   89SAPS   H9R 8598   3.770   1.149   9.355 -3.8008  0.3191  0.6516
   89SAPS  C210 8599   3.911   1.303   9.424 -0.3044  0.1290 -0.3985
   89SAPS  H10R 8600   3.998   1.244   9.388 -1.0545 -2.8261  2.2377
   89SAPS  H10S 8601   3.933   1.352   9.521 -0.2852 -1.5113  0.4585
   89SAPS  C211 8602   3.852   1.388   9.322  0.4146 -0.2400 -0.5250
   89SAPS  H11R 8603   3.773   1.454   9.360 -1.2489 -1.6206 -1.4328
   89SAPS  C212 8604   3.859   1.381   9.188 -0.0266  0.2935  0.2528
   89SAPS  H12R 8605   3.817   1.456   9.119  0.9241  0.7086  0.0950
   89SAPS  C213 8606   3.932   1.281   9.110 -0.1602  0.1698  0.3230
   89SAPS  H13R 8607   3.870   1.235   9.030  0.3883 -1.3837  0.7464
   89SAPS  H13S 8608   3.960   1.191   9.169 -1.3369 -0.8190 -0.5813
   89SAPS  C214 8609   4.064   1.340   9.055  0.3551  0.6396 -0.2399
   89SAPS  H14R 8610   4.134   1.368   9.135 -0.2924  0.2225  0.4881
   89SAPS  C215 8611   4.106   1.376   8.930 -0.2750  0.0629 -0.8974
   89SAPS  H15R 8612   4.208   1.416   8.923  0.0952 -0.7205 -0.1075
   89SAPS  C216 8613   4.030   1.371   8.799 -0.4592 -0.3648 -0.2225
   89SAPS  H16R 8614   4.003   1.265   8.778  1.5549 -0.4296 -3.1251
   89SAPS  H16S 8615   4.089   1.412   8.714 -0.6291 -0.6921 -0.5040
   89SAPS  C217 8616   3.899   1.460   8.806 -0.4889  0.3961 -0.7251
   89SAPS  H17R 8617   3.939   1.555   8.849  1.0225 -1.0969  1.3937
   89SAPS  H17S 8618   3.842   1.421   8.893  2.3685  2.3246  2.2877
   89SAPS  C218 8619   3.831   1.486   8.668 -0.4174 -0.1793  0.4080
   89SAPS  H18R 8620   3.785   1.401   8.612  1.2197  0.4877 -2.1380
   89SAPS  H18S 8621   3.911   1.522   8.600  0.3221 -2.7739 -0.2390
   89SAPS  C219 8622   3.719   1.593   8.671  0.3243  0.0003 -0.1597
   89SAPS  H19R 8623   3.660   1.575   8.763 -0.1812 -1.2788 -0.7009
   89SAPS  H19S 8624   3.660   1.590   8.577  0.6985 -0.9606 -0.3772
   89SAPS  C220 8625   3.763   1.736   8.682  0.0016  0.0560 -0.0276
   89SAPS  H20R 8626   3.812   1.767   8.777 -1.1085  0.3959  0.4446
   89SAPS  H20S 8627   3.681   1.810   8.673 -1.4736 -1.4897  0.1680
   89SAPS  H20T 8628   3.826   1.749   8.591  0.9535 -1.4489  0.3815
   89SAPS   C33 8629   4.210   1.198   9.832 -0.3401 -0.6641 -0.0023
   89SAPS   H3X 8630   4.106   1.182   9.868  1.0507 -3.4675  3.4814
   89SAPS   H3Y 8631   4.274   1.115   9.871  3.4523  0.7751 -2.5821
   89SAPS   C34 8632   4.209   1.198   9.679  0.7931  0.3150 -0.2695
   89SAPS   H4X 8633   4.163   1.295   9.650 -1.6211 -0.5503  0.4231
   89SAPS   H4Y 8634   4.141   1.116   9.646 -2.1731  1.4175  2.5411
   89SAPS   C35 8635   4.350   1.173   9.624  0.2120  0.3498 -0.0746
   89SAPS   H5X 8636   4.370   1.065   9.636 -1.0847 -0.2997 -2.8699
   89SAPS   H5Y 8637   4.416   1.242   9.682 -2.0695  1.2115  1.6186
   89SAPS   C36 8638   4.357   1.187   9.473  0.0961  0.4786  0.3241
   89SAPS   H6X 8639   4.461   1.188   9.436  0.1995  0.1495  0.6075
   89SAPS   H6Y 8640   4.304   1.278   9.436  0.0469  0.1585 -0.4179
   89SAPS   C37 8641   4.272   1.075   9.412 -0.5981 -0.3762 -0.0008
   89SAPS   H7X 8642   4.164   1.081   9.436 -0.1835  2.6654  1.5499
   89SAPS   H7Y 8643   4.312   0.987   9.467 -0.1206  0.2605  0.6841
   89SAPS   C38 8644   4.292   1.056   9.264  0.1315 -0.7457  0.6449
   89SAPS   H8X 8645   4.401   1.047   9.244 -0.2085 -1.7925 -0.8745
   89SAPS   H8Y 8646   4.273   1.151   9.210  4.4447 -0.2783 -0.4177
   89SAPS   C39 8647   4.206   0.946   9.201  0.2943 -0.2050  0.3741
   89SAPS   H9X 8648   4.099   0.958   9.229  0.2748  0.3258  0.0665
   89SAPS   H9Y 8649   4.240   0.851   9.247  0.6631  0.0568  0.6500
   89SAPS  C310 8650   4.233   0.946   9.055 -0.7586  0.0159 -0.4128
   89SAPS  H10X 8651   4.343   0.944   9.039 -0.6088  1.7159  0.1466
   89SAPS  H10Y 8652   4.195   1.037   9.004 -1.9053 -0.4509 -0.4290
   89SAPS  C311 8653   4.171   0.821   8.989  0.2972 -0.1015 -0.8061
   89SAPS  H11X 8654   4.061   0.821   9.003  0.5086 -2.1110  1.7307
   89SAPS  H11Y 8655   4.200   0.731   9.048  0.3668 -0.7641 -1.8269
   89SAPS  C312 8656   4.204   0.813   8.839  0.0113  0.7054  0.6551
   89SAPS  H12X 8657   4.314   0.815   8.822 -0.4516 -1.3252 -4.2826
   89SAPS  H12Y 8658   4.167   0.909   8.798 -1.9662 -0.1731  0.2683
   89SAPS  C313 8659   4.130   0.698   8.764  0.5781  0.2382 -0.3091
   89SAPS  H13X 8660   4.127   0.728   8.657 -2.3730  0.0427 -0.3622
   89SAPS  H13Y 8661   4.029   0.703   8.808  0.7671 -2.0930  0.5514
   89SAPS  C314 8662   4.188   0.558   8.780  0.0286 -0.5436 -0.6908
   89SAPS  H14X 8663   4.122   0.498   8.714  0.1837 -0.8645 -0.5546
   89SAPS  H14Y 8664   4.174   0.530   8.887 -0.2734 -0.7948 -0.7936
   89SAPS  C315 8665   4.330   0.544   8.733  0.4353 -0.2054 -0.1055
   89SAPS  H15X 8666   4.374   0.450   8.773 -0.3535 -0.3629  0.4107
   89SAPS  H15Y 8667   4.393   0.622   8.780 -0.8419  1.2975 -0.8033
   89SAPS  C316 8668   4.338   0.547   8.578  0.0364  0.1756 -0.1061
   89SAPS  H16X 8669   4.275   0.623   8.526  0.8562  1.1010  0.2281
   89SAPS  H16Y 8670   4.286   0.454   8.546  0.9916 -0.9631  1.5413
   89SAPS  C317 8671   4.484   0.539   8.532  0.0419 -0.2895  0.1437
   89SAPS  H17X 8672   4.549   0.625   8.563  2.9109 -0.6717 -3.9959
   89SAPS  H17Y 8673   4.502   0.543   8.423  1.8127 -1.8504  0.3305
   89SAPS  C318 8674   4.559   0.413   8.587  0.4411  0.4801  0.7243
   89SAPS  H18X 8675   4.660   0.392   8.547  0.9670 -1.7438  2.9619
   89SAPS  H18Y 8676   4.496   0.324   8.565  0.2285  1.0142 -0.9661
   89SAPS  H18Z 8677   4.567   0.408   8.698  1.2331 -0.8326  0.6245
   90SAPS     N 8678   5.789   1.640  11.031 -0.3704 -0.4684 -0.4119
   90SAPS   HN1 8679   5.712   1.692  10.984 -0.3123 -0.5758 -0.6249
   90SAPS   HN2 8680   5.833   1.703  11.101  1.2097 -0.3652 -1.4742
   90SAPS   HN3 8681   5.851   1.597  10.960 -2.0889 -0.1526 -2.2128
   90SAPS   C12 8682   5.727   1.517  11.097 -0.4529 -0.5438  0.6845
   90SAPS  H12A 8683   5.803   1.473  11.160  0.3070 -0.7581 -0.3531
   90SAPS   C13 8684   5.602   1.560  11.187  0.2251  0.4915  0.5161
   90SAPS  O13A 8685   5.551   1.676  11.186 -0.8794 -0.0232  0.3797
   90SAPS  O13B 8686   5.544   1.460  11.251  0.3751  0.4247  0.1424
   90SAPS   C11 8687   5.677   1.417  10.989  0.2970  0.3228  0.9642
   90SAPS  H11A 8688   5.606   1.474  10.924  1.6510  1.6068  0.5458
   90SAPS  H11B 8689   5.629   1.339  11.052 -2.4094  0.3949 -0.8150
   90SAPS     P 8690   5.811   1.201  10.906  1.0319 -0.0225  0.0047
   90SAPS   O13 8691   5.901   1.155  11.017  0.5231 -0.3830 -0.5513
   90SAPS   O14 8692   5.682   1.131  10.896  0.5705 -0.2182  0.3030
   90SAPS   O12 8693   5.785   1.356  10.912 -0.9405 -0.1677 -0.0141
   90SAPS   O11 8694   5.889   1.173  10.769  0.3660 -0.3400  0.3838
   90SAPS    C1 8695   5.940   1.285  10.692 -0.1358 -0.0848 -0.9518
   90SAPS    HA 8696   5.987   1.364  10.755  0.0171 -0.2630 -0.8388
   90SAPS    HB 8697   6.028   1.240  10.640  1.4176  0.4143  1.1185
   90SAPS    C2 8698   5.834   1.339  10.586 -0.3893 -0.4589  0.2932
   90SAPS    HS 8699   5.750   1.380  10.647 -0.4352  0.7225 -0.5321
   90SAPS   O21 8700   5.796   1.227  10.504  0.2225 -0.5332 -0.3755
   90SAPS   C21 8701   5.684   1.248  10.433 -0.0551  1.0385 -0.2916
   90SAPS   O22 8702   5.627   1.355  10.419 -0.3391  0.4737 -0.1788
   90SAPS   C22 8703   5.636   1.113  10.362 -0.0476 -0.3776 -0.5052
   90SAPS   H2R 8704   5.690   1.037  10.422  1.0189  2.4035  2.3552
   90SAPS   H2S 8705   5.527   1.114  10.387 -0.2007 -1.4036 -1.0627
   90SAPS    C3 8706   5.886   1.465  10.505 -0.0959  0.2636 -0.9717
   90SAPS    HX 8707   5.896   1.539  10.587  0.2452 -0.6429 -0.1880
   90SAPS    HY 8708   5.802   1.496  10.438 -0.6286 -1.9279 -1.3762
   90SAPS   O31 8709   6.008   1.433  10.430  0.4857 -0.2657  0.5085
   90SAPS   C31 8710   5.990   1.402  10.304 -0.5017 -0.3490  0.3538
   90SAPS   O32 8711   5.883   1.411  10.241 -0.6078 -0.0408  0.8727
   90SAPS   C32 8712   6.122   1.352  10.245  0.9645  0.7949 -0.4374
   90SAPS   H2X 8713   6.130   1.250  10.289 -0.2537  1.3965  1.2880
   90SAPS   H2Y 8714   6.217   1.406  10.268  1.8713  0.2381 -2.6361
   90SAPS   C23 8715   5.673   1.114  10.215  0.0206  0.3189  1.2442
   90SAPS   H3R 8716   5.784   1.120  10.205 -0.0804 -0.5582 -0.8585
   90SAPS   H3S 8717   5.640   1.209  10.169  0.0935 -0.5772 -0.7306
   90SAPS   C24 8718   5.605   1.006  10.122 -0.1642  0.7001 -0.0002
   90SAPS   H4R 8719   5.503   0.984  10.161  0.2951  0.5118  1.1274
   90SAPS   H4S 8720   5.667   0.917  10.145 -0.3815  0.6053  0.2320
   90SAPS   C25 8721   5.602   1.037   9.976  0.7947  0.1855  0.0799
   90SAPS   H5R 8722   5.534   1.121   9.953 -0.2932 -0.0000  2.3288
   90SAPS   C26 8723   5.679   0.978   9.884  0.0648  0.3159  0.2295
   90SAPS   H6R 8724   5.691   1.028   9.787  0.7691 -1.9562 -0.9064
   90SAPS   C27 8725   5.784   0.872   9.909  0.2737 -0.1122 -0.8287
   90SAPS   H7R 8726   5.735   0.773   9.895 -0.4595  0.3743 -1.8234
   90SAPS   H7S 8727   5.829   0.888  10.009 -1.2429  0.6428 -0.2289
   90SAPS   C28 8728   5.899   0.887   9.814 -0.3294  0.5488 -0.9394
   90SAPS   H8R 8729   5.986   0.919   9.874 -2.6892  0.1530  3.0789
   90SAPS   C29 8730   5.904   0.883   9.679  0.1793  0.3556  0.0271
   90SAPS   H9R 8731   6.001   0.893   9.628  0.6901  4.0305  1.4413
   90SAPS  C210 8732   5.789   0.857   9.585 -0.8847  0.4837 -0.3096
   90SAPS  H10R 8733   5.703   0.824   9.647 -0.1608 -1.0853 -0.0825
   90SAPS  H10S 8734   5.817   0.770   9.521 -1.1917 -1.3309  1.8716
   90SAPS  C211 8735   5.747   0.969   9.498  1.2190  0.2698 -0.9233
   90SAPS  H11R 8736   5.682   1.042   9.548 -0.0753 -1.5383  0.1347
   90SAPS  C212 8737   5.772   0.978   9.370 -0.5283  0.0843  0.2950
   90SAPS  H12R 8738   5.722   1.059   9.314 -0.3443 -0.6417 -0.9585
   90SAPS  C213 8739   5.855   0.896   9.277 -0.0012  0.3721  0.1551
   90SAPS  H13R 8740   5.858   0.792   9.316  1.7180  0.0135 -0.8388
   90SAPS  H13S 8741   5.963   0.920   9.284 -0.1178  0.5614  1.7561
   90SAPS  C214 8742   5.805   0.906   9.138  0.5377 -0.0028 -0.0065
   90SAPS  H14R 8743   5.863   0.972   9.071  0.4314 -0.6043 -0.7006
   90SAPS  C215 8744   5.702   0.842   9.080  0.5605  0.0030  0.6095
   90SAPS  H15R 8745   5.686   0.852   8.972  1.7322 -1.8554  0.2322
   90SAPS  C216 8746   5.610   0.755   9.156 -0.1373 -0.4421  0.3933
   90SAPS  H16R 8747   5.533   0.811   9.214  0.0626  0.2622 -0.0136
   90SAPS  H16S 8748   5.675   0.698   9.225  0.5170 -1.1053 -0.7491
   90SAPS  C217 8749   5.532   0.669   9.051 -0.2464 -0.1310 -0.4190
   90SAPS  H17R 8750   5.589   0.604   8.982 -1.0234  0.1078 -1.3054
   90SAPS  H17S 8751   5.466   0.728   8.984  0.9801  0.8516 -0.7840
   90SAPS  C218 8752   5.433   0.569   9.120  0.3498  0.4086 -0.6747
   90SAPS  H18R 8753   5.352   0.623   9.173 -1.0735 -2.7931  0.7171
   90SAPS  H18S 8754   5.485   0.508   9.197  0.3541  1.8750  0.5261
   90SAPS  C219 8755   5.366   0.469   9.026 -0.5244  0.3652  1.1212
   90SAPS  H19R 8756   5.430   0.380   9.007 -0.8508  0.5177 -0.8405
   90SAPS  H19S 8757   5.368   0.514   8.925  2.9506 -1.2614  0.3226
   90SAPS  C220 8758   5.226   0.432   9.059  0.7472 -0.4219  0.4834
   90SAPS  H20R 8759   5.219   0.412   9.168  2.5022  2.4564  1.2173
   90SAPS  H20S 8760   5.184   0.350   8.997  1.1331 -0.0465 -0.2864
   90SAPS  H20T 8761   5.158   0.518   9.044  0.6098 -0.6849 -0.5101
   90SAPS   C33 8762   6.109   1.343  10.090 -0.1310 -0.0715 -0.0166
   90SAPS   H3X 8763   6.119   1.446  10.047  0.4918 -0.4633 -0.8433
   90SAPS   H3Y 8764   6.007   1.300  10.078 -1.0600  1.8722  0.5070
   90SAPS   C34 8765   6.213   1.243  10.037  0.3670 -0.6489 -0.7152
   90SAPS   H4X 8766   6.217   1.168  10.119 -0.1262  0.1328  0.0398
   90SAPS   H4Y 8767   6.313   1.290  10.043 -0.9372  2.3421 -0.8123
   90SAPS   C35 8768   6.172   1.178   9.904 -0.1400  0.4980  0.4488
   90SAPS   H5X 8769   6.165   1.254   9.823  1.5176  1.8100  1.4793
   90SAPS   H5Y 8770   6.068   1.139   9.907 -0.2935  0.9547  1.2103
   90SAPS   C36 8771   6.276   1.073   9.859  0.0327 -0.4274 -1.0227
   90SAPS   H6X 8772   6.291   1.004   9.944  2.9613  2.2044  0.8339
   90SAPS   H6Y 8773   6.379   1.112   9.844 -0.8023  2.3664 -0.1000
   90SAPS   C37 8774   6.236   0.991   9.743  1.0057  0.4800 -0.2791
   90SAPS   H7X 8775   6.126   0.998   9.729  0.7814 -0.4257  0.8767
   90SAPS   H7Y 8776   6.254   0.882   9.757 -1.8500 -0.9043 -4.9721
   90SAPS   C38 8777   6.318   1.042   9.619 -0.0498  0.2022 -0.5303
   90SAPS   H8X 8778   6.425   1.055   9.649  0.5964 -2.0392 -1.5940
   90SAPS   H8Y 8779   6.283   1.146   9.606 -1.2986 -0.2275 -0.7352
   90SAPS   C39 8780   6.299   0.957   9.504  0.1075 -0.3608  0.9296
   90SAPS   H9X 8781   6.195   0.948   9.467  0.6590 -0.5136 -0.6547
   90SAPS   H9Y 8782   6.310   0.851   9.534 -1.4667 -0.1747  2.3046
   90SAPS  C310 8783   6.395   1.003   9.388 -0.1705  0.7112  0.3060
   90SAPS  H10X 8784   6.500   1.012   9.423  0.2695  0.9610 -1.0193
   90SAPS  H10Y 8785   6.365   1.106   9.360 -3.2490 -0.6995 -2.1899
   90SAPS  C311 8786   6.380   0.926   9.257 -0.4269 -0.1786  0.6669
   90SAPS  H11X 8787   6.411   0.820   9.264  0.4684  0.0253  0.0756
   90SAPS  H11Y 8788   6.465   0.960   9.194  0.4676 -1.5172  1.1145
   90SAPS  C312 8789   6.250   0.949   9.174 -0.0910  0.2631 -0.1572
   90SAPS  H12X 8790   6.251   1.054   9.137 -0.9364 -1.1668 -4.9432
   90SAPS  H12Y 8791   6.157   0.936   9.233  1.1858  0.4748  2.0396
   90SAPS  C313 8792   6.250   0.850   9.053 -0.5857 -0.7913 -0.3868
   90SAPS  H13X 8793   6.166   0.780   9.071  0.3973 -2.5186 -2.0306
   90SAPS  H13Y 8794   6.345   0.792   9.055 -0.3056 -0.3396 -0.2415
   90SAPS  C314 8795   6.244   0.932   8.921 -0.1549 -0.1782 -0.0057
   90SAPS  H14X 8796   6.275   0.878   8.829 -0.9166  0.0662 -0.4134
   90SAPS  H14Y 8797   6.313   1.020   8.920 -0.7558  0.2959 -0.7162
   90SAPS  C315 8798   6.103   0.969   8.900  0.4357 -0.6596 -0.2753
   90SAPS  H15X 8799   6.073   1.014   8.997  4.0648  2.1809 -0.2822
   90SAPS  H15Y 8800   6.041   0.879   8.878 -1.7623  0.0533  2.3831
   90SAPS  C316 8801   6.067   1.086   8.803 -0.0375  0.6225 -0.0711
   90SAPS  H16X 8802   6.104   1.063   8.701  0.0759  0.4882  0.0009
   90SAPS  H16Y 8803   6.130   1.169   8.843  0.9822 -0.4923  0.6941
   90SAPS  C317 8804   5.923   1.131   8.805  0.1375 -0.1218 -0.4600
   90SAPS  H17X 8805   5.902   1.221   8.745  0.2071 -0.7187 -1.4024
   90SAPS  H17Y 8806   5.896   1.153   8.910 -1.8772 -1.0976 -0.7271
   90SAPS  C318 8807   5.826   1.017   8.766 -0.3357  0.4631  0.0250
   90SAPS  H18X 8808   5.854   0.976   8.667 -0.2718  0.1559  0.1703
   90SAPS  H18Y 8809   5.720   1.049   8.756 -0.1287  0.8777 -0.9547
   90SAPS  H18Z 8810   5.836   0.924   8.825  0.1191 -0.1500 -0.9984
   91SAPS     N 8811   3.331   5.490   6.151  0.2029 -0.2731  0.1625
   91SAPS   HN1 8812   3.323   5.452   6.248 -3.6252 -1.4285 -0.4506
   91SAPS   HN2 8813   3.435   5.496   6.142  0.5243 -1.9917  1.9163
   91SAPS   HN3 8814   3.287   5.583   6.139 -0.1880 -0.8193 -4.0266
   91SAPS   C12 8815   3.275   5.400   6.043  0.1111  0.2185 -0.1945
   91SAPS  H12A 8816   3.181   5.367   6.084  0.1222  1.5726  0.9905
   91SAPS   C13 8817   3.260   5.468   5.909 -0.2846  0.2156 -0.2289
   91SAPS  O13A 8818   3.285   5.589   5.891 -0.4049 -0.4944  0.8509
   91SAPS  O13B 8819   3.203   5.404   5.814  0.5268  0.0247  0.1759
   91SAPS   C11 8820   3.366   5.274   6.038 -0.0832 -0.6441 -0.0073
   91SAPS  H11A 8821   3.321   5.209   5.960 -0.1207 -2.2242  1.2793
   91SAPS  H11B 8822   3.363   5.220   6.136 -1.9982 -0.2283  0.1892
   91SAPS     P 8823   3.601   5.208   5.955 -0.2802 -0.2209  0.4040
   91SAPS   O13 8824   3.582   5.197   5.806  0.0194 -0.0634 -0.4328
   91SAPS   O14 8825   3.742   5.242   5.996  0.3133  0.0808  0.4945
   91SAPS   O12 8826   3.499   5.313   6.008  0.5653 -0.7230 -0.4257
   91SAPS   O11 8827   3.565   5.063   6.009  0.3055  0.2665  0.5822
   91SAPS    C1 8828   3.656   4.987   6.089  0.0412  1.0460 -0.2236
   91SAPS    HA 8829   3.643   4.880   6.063 -1.9770  1.6832 -2.2002
   91SAPS    HB 8830   3.763   5.008   6.069 -0.1982  2.3182 -0.2431
   91SAPS    C2 8831   3.626   4.998   6.243  0.1168  0.5608  0.2270
   91SAPS    HS 8832   3.523   4.960   6.258 -0.6649  2.9336  1.3546
   91SAPS   O21 8833   3.644   5.133   6.290  0.0903  0.0916  0.2923
   91SAPS   C21 8834   3.562   5.177   6.385 -0.0720 -0.6680 -0.0174
   91SAPS   O22 8835   3.468   5.111   6.428  0.6530  0.6984 -0.5925
   91SAPS   C22 8836   3.604   5.315   6.437  0.6930  0.8718 -0.1286
   91SAPS   H2R 8837   3.568   5.397   6.371  1.9363  0.3124 -1.5549
   91SAPS   H2S 8838   3.546   5.334   6.530 -0.9895  0.2081 -0.9964
   91SAPS    C3 8839   3.735   4.912   6.321  0.3919  0.6346 -0.0216
   91SAPS    HX 8840   3.834   4.961   6.323  1.0796 -0.7211  1.9207
   91SAPS    HY 8841   3.746   4.816   6.266 -0.3792  1.2790 -1.3505
   91SAPS   O31 8842   3.693   4.887   6.463 -0.9462 -0.0761  0.1121
   91SAPS   C31 8843   3.597   4.800   6.479  0.1469 -0.3324  0.2007
   91SAPS   O32 8844   3.552   4.740   6.379  0.3480 -0.3377 -0.1536
   91SAPS   C32 8845   3.553   4.787   6.625  0.1019  0.0633 -0.1542
   91SAPS   H2X 8846   3.585   4.681   6.637  1.5606  0.3397 -1.3455
   91SAPS   H2Y 8847   3.442   4.791   6.627  0.0601 -0.6654 -0.6785
   91SAPS   C23 8848   3.761   5.336   6.457  0.5624 -0.0402  0.2833
   91SAPS   H3R 8849   3.768   5.437   6.504 -0.8495  0.8032 -1.2074
   91SAPS   H3S 8850   3.817   5.340   6.361  1.0984  1.2690  0.6187
   91SAPS   C24 8851   3.820   5.224   6.552 -0.0927 -0.4656  0.8564
   91SAPS   H4R 8852   3.799   5.128   6.501 -0.7948  0.7597 -1.2870
   91SAPS   H4S 8853   3.765   5.225   6.649 -2.5663 -0.3955 -0.4581
   91SAPS   C25 8854   3.967   5.229   6.572  0.3114  0.6910 -0.2675
   91SAPS   H5R 8855   4.029   5.186   6.492 -0.8774 -1.3384 -0.1497
   91SAPS   C26 8856   4.027   5.248   6.689 -0.4622 -0.0124  0.3073
   91SAPS   H6R 8857   4.137   5.249   6.688 -0.3571 -3.0273 -0.6468
   91SAPS   C27 8858   3.977   5.285   6.830  0.5132  0.6495 -0.5002
   91SAPS   H7R 8859   3.895   5.213   6.850  1.2952 -0.1321  0.0223
   91SAPS   H7S 8860   3.910   5.372   6.813  0.0664  0.3154 -0.4696
   91SAPS   C28 8861   4.073   5.299   6.951  0.3481  0.2350  0.1226
   91SAPS   H8R 8862   4.147   5.376   6.924 -0.5097  1.6096  1.5546
   91SAPS   C29 8863   4.070   5.235   7.067  0.4206  0.0278 -0.0031
   91SAPS   H9R 8864   4.143   5.264   7.144  0.1685 -0.7144  0.5222
   91SAPS  C210 8865   3.962   5.143   7.108 -0.0735  0.5223 -0.5068
   91SAPS  H10R 8866   3.983   5.047   7.056 -1.7909  0.9089 -1.9940
   91SAPS  H10S 8867   3.865   5.165   7.058  0.0660  0.2097 -0.9197
   91SAPS  C211 8868   3.947   5.124   7.260  1.4040 -0.2901  1.2301
   91SAPS  H11R 8869   3.866   5.187   7.300  1.4425  0.2533  0.4833
   91SAPS  C212 8870   4.017   5.048   7.343 -0.0659  0.2259  0.0332
   91SAPS  H12R 8871   3.984   5.050   7.448 -0.6592  1.1860 -0.1553
   91SAPS  C213 8872   4.132   4.959   7.300 -0.5138  0.2489 -0.0410
   91SAPS  H13R 8873   4.225   5.018   7.313 -0.9324  0.6269  1.4411
   91SAPS  H13S 8874   4.120   4.943   7.190 -3.0509 -1.3056  0.3841
   91SAPS  C214 8875   4.148   4.823   7.362  0.3977  0.1002 -0.4206
   91SAPS  H14R 8876   4.134   4.739   7.294  1.4303 -0.3821 -0.0693
   91SAPS  C215 8877   4.169   4.799   7.492 -0.3136 -0.5404 -0.1523
   91SAPS  H15R 8878   4.175   4.694   7.525  1.0729 -1.3719 -2.7679
   91SAPS  C216 8879   4.184   4.898   7.606  0.4546  0.7903  0.5220
   91SAPS  H16R 8880   4.196   5.001   7.565 -1.4663  0.5048 -0.8855
   91SAPS  H16S 8881   4.257   4.858   7.679 -1.0929 -1.6668  0.8330
   91SAPS  C217 8882   4.046   4.919   7.683 -0.0041 -0.4344  0.7237
   91SAPS  H17R 8883   3.969   4.849   7.644 -1.3996  1.3463  0.1852
   91SAPS  H17S 8884   4.006   5.020   7.661 -0.5323 -1.1248 -1.8136
   91SAPS  C218 8885   4.054   4.930   7.842  0.1307 -0.1333  0.3152
   91SAPS  H18R 8886   3.954   4.957   7.885  0.4807 -0.1443  1.1611
   91SAPS  H18S 8887   4.108   5.021   7.877  1.9561 -0.1969 -2.1152
   91SAPS  C219 8888   4.111   4.803   7.906 -0.8204 -0.0337 -0.4617
   91SAPS  H19R 8889   4.218   4.812   7.877 -0.9276  0.9419 -0.5954
   91SAPS  H19S 8890   4.055   4.718   7.863 -0.8190  0.0043 -0.5394
   91SAPS  C220 8891   4.099   4.795   8.060  0.2038  0.1692 -0.1904
   91SAPS  H20R 8892   4.129   4.689   8.074 -0.8395 -0.3665 -1.6889
   91SAPS  H20S 8893   3.994   4.815   8.091 -0.2523 -0.5315 -1.2436
   91SAPS  H20T 8894   4.174   4.863   8.106  0.1485  0.8657 -1.0947
   91SAPS   C33 8895   3.609   4.894   6.724 -0.3526  0.0940 -0.2653
   91SAPS   H3X 8896   3.590   4.997   6.688 -0.2042 -0.5544 -2.3193
   91SAPS   H3Y 8897   3.720   4.885   6.719 -0.4983 -1.5325 -1.2077
   91SAPS   C34 8898   3.579   4.858   6.866  0.0918  0.6281 -0.1805
   91SAPS   H4X 8899   3.571   4.747   6.864 -0.3753  0.6580 -0.0463
   91SAPS   H4Y 8900   3.479   4.893   6.897 -0.2296 -0.2337 -0.2097
   91SAPS   C35 8901   3.680   4.903   6.975  0.2318 -0.5626 -0.2137
   91SAPS   H5X 8902   3.690   5.012   6.953 -4.1186  0.4981  1.8462
   91SAPS   H5Y 8903   3.785   4.866   6.968  1.0512  1.5404  0.1414
   91SAPS   C36 8904   3.625   4.899   7.125  0.3634 -0.8899 -0.0616
   91SAPS   H6X 8905   3.522   4.859   7.141  0.9041 -1.9761  0.8083
   91SAPS   H6Y 8906   3.646   4.996   7.176 -0.0643 -0.5218 -0.5706
   91SAPS   C37 8907   3.709   4.798   7.206 -0.3074  0.4895  0.8409
   91SAPS   H7X 8908   3.815   4.832   7.204 -0.7210  1.8388 -0.6829
   91SAPS   H7Y 8909   3.705   4.707   7.143 -1.6341  1.0628  0.0462
   91SAPS   C38 8910   3.655   4.782   7.344  0.1500  0.5968 -0.0561
   91SAPS   H8X 8911   3.716   4.709   7.402 -0.1923  1.1662  1.0416
   91SAPS   H8Y 8912   3.557   4.730   7.333 -0.1450  0.8939  1.0507
   91SAPS   C39 8913   3.646   4.907   7.419 -0.9760 -0.2014 -0.3087
   91SAPS   H9X 8914   3.538   4.923   7.437 -0.8952 -1.5037  1.5008
   91SAPS   H9Y 8915   3.678   4.995   7.358 -1.1470 -0.4582 -0.7711
   91SAPS  C310 8916   3.734   4.911   7.553  0.4309 -0.3158 -0.6809
   91SAPS  H10X 8917   3.748   5.013   7.596  0.0259 -1.2987  2.0078
   91SAPS  H10Y 8918   3.833   4.869   7.525  1.9389 -0.5766  4.1483
   91SAPS  C311 8919   3.654   4.827   7.657  0.0773 -0.5095  0.4650
   91SAPS  H11X 8920   3.644   4.722   7.622 -3.7677  0.1998 -0.9762
   91SAPS  H11Y 8921   3.553   4.872   7.660 -0.5426 -1.3831 -3.0630
   91SAPS  C312 8922   3.702   4.826   7.800 -0.0660  0.1167  0.1012
   91SAPS  H12X 8923   3.709   4.930   7.838 -0.4176  0.4429 -0.7130
   91SAPS  H12Y 8924   3.797   4.768   7.807 -0.6377 -0.7111  1.3826
   91SAPS  C313 8925   3.614   4.758   7.903  0.8652 -0.3702 -0.7994
   91SAPS  H13X 8926   3.594   4.650   7.890 -1.6123 -0.1198  0.4255
   91SAPS  H13Y 8927   3.515   4.807   7.909  0.9982 -0.2613  1.1390
   91SAPS  C314 8928   3.679   4.775   8.042 -0.1400  0.3072 -1.0449
   91SAPS  H14X 8929   3.692   4.883   8.064  3.6062  0.1046 -1.5464
   91SAPS  H14Y 8930   3.788   4.752   8.032 -0.5499 -0.9656 -3.3327
   91SAPS  C315 8931   3.602   4.703   8.151 -0.0827 -0.2282 -0.5315
   91SAPS  H15X 8932   3.492   4.709   8.140 -0.2640  1.5331  1.5527
   91SAPS  H15Y 8933   3.633   4.746   8.249  1.3357  1.5119 -1.6667
   91SAPS  C316 8934   3.637   4.549   8.152  0.7477 -0.5443  0.0916
   91SAPS  H16X 8935   3.743   4.554   8.187  1.3780 -1.5724 -1.5084
   91SAPS  H16Y 8936   3.636   4.507   8.049  1.4822 -0.3707  0.0099
   91SAPS  C317 8937   3.562   4.457   8.236  0.0745 -0.0114 -0.2644
   91SAPS  H17X 8938   3.617   4.366   8.268  0.2910  0.4156  0.6262
   91SAPS  H17Y 8939   3.472   4.416   8.185 -0.4863 -0.1934  0.8296
   91SAPS  C318 8940   3.528   4.521   8.375  0.3421  0.1490 -0.0888
   91SAPS  H18X 8941   3.462   4.609   8.357 -0.9451 -0.5108  1.1312
   91SAPS  H18Y 8942   3.615   4.575   8.418  1.0882 -1.2518  0.2080
   91SAPS  H18Z 8943   3.470   4.451   8.440 -2.1227  1.4931 -0.7183
   92SAPS     N 8944   2.193   2.131   6.015  0.2302  0.0574 -0.2109
   92SAPS   HN1 8945   2.201   2.235   6.016 -1.6749  0.2648 -1.4291
   92SAPS   HN2 8946   2.248   2.086   6.090  0.3732 -0.7911 -0.8075
   92SAPS   HN3 8947   2.212   2.080   5.926  0.3858 -1.3042  0.5714
   92SAPS   C12 8948   2.043   2.115   6.030  0.1365  0.6887  1.2574
   92SAPS  H12A 8949   1.996   2.203   5.989 -1.2682 -0.2726  0.7405
   92SAPS   C13 8950   1.964   1.987   5.969 -0.7765  0.0543 -0.5310
   92SAPS  O13A 8951   2.024   1.912   5.881 -0.2748  0.3617 -0.4477
   92SAPS  O13B 8952   1.848   1.974   5.991  0.7324 -0.0400 -0.4958
   92SAPS   C11 8953   2.020   2.126   6.186 -0.1626 -0.1495 -0.6934
   92SAPS  H11A 8954   1.911   2.119   6.209  0.1738  0.7187  1.4353
   92SAPS  H11B 8955   2.061   2.221   6.226 -0.1683 -0.3423 -0.2307
   92SAPS     P 8956   2.012   1.994   6.399 -0.0244 -0.2261 -0.1257
   92SAPS   O13 8957   1.884   1.930   6.363 -0.2114 -0.7784 -1.2157
   92SAPS   O14 8958   2.100   1.919   6.489  0.1101  0.5755  0.6020
   92SAPS   O12 8959   2.088   2.032   6.264 -0.1953  0.5752  0.0276
   92SAPS   O11 8960   1.989   2.139   6.450 -0.2630  0.0829  0.1748
   92SAPS    C1 8961   2.104   2.219   6.485 -0.6652 -0.7901  0.4703
   92SAPS    HA 8962   2.199   2.162   6.470 -1.4259 -1.9853  0.0697
   92SAPS    HB 8963   2.127   2.296   6.408  0.0533 -1.3330  0.1270
   92SAPS    C2 8964   2.093   2.287   6.628 -0.3036 -0.1762 -0.8707
   92SAPS    HS 8965   2.185   2.350   6.633  0.4197 -1.2154 -0.7610
   92SAPS   O21 8966   2.112   2.181   6.729 -0.1381  0.6894 -0.1622
   92SAPS   C21 8967   2.239   2.139   6.741  0.2043 -0.1881  1.0421
   92SAPS   O22 8968   2.337   2.182   6.680 -0.0696  0.3242 -0.4399
   92SAPS   C22 8969   2.241   2.018   6.837  0.3557  0.3525 -0.3929
   92SAPS   H2R 8970   2.307   2.041   6.923 -0.7739  0.2653  0.5109
   92SAPS   H2S 8971   2.138   2.009   6.875  0.5269 -1.5970 -0.2953
   92SAPS    C3 8972   1.962   2.370   6.640  0.6585 -0.0403 -0.6685
   92SAPS    HX 8973   1.879   2.296   6.637 -0.0809  0.7525 -0.1721
   92SAPS    HY 8974   1.933   2.439   6.558 -1.3151  1.3151  1.0862
   92SAPS   O31 8975   1.956   2.434   6.770  0.1692 -0.4955 -0.9562
   92SAPS   C31 8976   2.010   2.551   6.758  0.7357 -0.2480 -0.1972
   92SAPS   O32 8977   2.059   2.601   6.660 -0.2475 -0.2589  0.2052
   92SAPS   C32 8978   2.006   2.612   6.901  0.0884  0.0943 -0.7056
   92SAPS   H2X 8979   1.902   2.638   6.931 -0.3979 -2.8932  0.5416
   92SAPS   H2Y 8980   2.066   2.705   6.895 -0.2729  0.2614 -2.7635
   92SAPS   C23 8981   2.281   1.886   6.766 -0.4014 -0.1632  0.1296
   92SAPS   H3R 8982   2.369   1.890   6.698 -1.3708  1.3392 -1.1132
   92SAPS   H3S 8983   2.190   1.866   6.706 -1.2027  1.0783  0.8930
   92SAPS   C24 8984   2.311   1.778   6.873 -0.8660 -0.0159  0.3196
   92SAPS   H4R 8985   2.341   1.681   6.827 -2.1165 -0.4925  0.4826
   92SAPS   H4S 8986   2.213   1.751   6.918 -1.4133  1.6154  0.1709
   92SAPS   C25 8987   2.426   1.831   6.957 -0.2933 -0.3047  0.1374
   92SAPS   H5R 8988   2.503   1.890   6.906 -0.6233 -2.1674 -2.7050
   92SAPS   C26 8989   2.423   1.823   7.092 -0.0644  0.8034 -0.2399
   92SAPS   H6R 8990   2.507   1.871   7.144  0.4062  0.5486 -0.7542
   92SAPS   C27 8991   2.313   1.756   7.175 -0.1331  0.0827  0.0534
   92SAPS   H7R 8992   2.356   1.692   7.255 -0.9201 -1.5968 -0.8262
   92SAPS   H7S 8993   2.245   1.692   7.115  0.3461 -0.2614 -0.1295
   92SAPS   C28 8994   2.230   1.871   7.225 -0.0214  0.0217  0.2770
   92SAPS   H8R 8995   2.173   1.923   7.146  2.5157  0.6058 -1.2787
   92SAPS   C29 8996   2.219   1.910   7.354  0.3540  0.1733  0.6790
   92SAPS   H9R 8997   2.153   1.996   7.374 -1.3185 -0.7584 -0.5397
   92SAPS  C210 8998   2.273   1.845   7.478  0.8519  0.1823 -1.0889
   92SAPS  H10R 8999   2.265   1.735   7.467 -0.9620  0.1191  0.3388
   92SAPS  H10S 9000   2.199   1.865   7.559  1.0466 -1.2059 -0.5308
   92SAPS  C211 9001   2.419   1.870   7.517  0.3593  0.0934  0.1461
   92SAPS  H11R 9002   2.495   1.827   7.450 -0.6334 -0.8405 -0.3979
   92SAPS  C212 9003   2.457   1.951   7.612  0.6209 -0.1412 -0.4359
   92SAPS  H12R 9004   2.565   1.966   7.631  0.8127  2.2905 -2.8735
   92SAPS  C213 9005   2.362   2.038   7.691  0.1827 -0.6642 -0.4202
   92SAPS  H13R 9006   2.270   2.058   7.633  0.9679  0.8866 -1.1904
   92SAPS  H13S 9007   2.407   2.137   7.719 -0.9564 -0.1540 -0.3490
   92SAPS  C214 9008   2.316   1.956   7.812  0.3177 -0.4677  0.2621
   92SAPS  H14R 9009   2.316   1.847   7.798  0.2376 -0.3793 -0.4747
   92SAPS  C215 9010   2.265   2.004   7.923 -0.1294  0.3916  0.9981
   92SAPS  H15R 9011   2.240   1.933   8.003 -0.4680 -1.4328 -0.6557
   92SAPS  C216 9012   2.243   2.149   7.952  0.0799 -0.4962  0.2935
   92SAPS  H16R 9013   2.136   2.176   7.941 -0.4650 -2.7246 -0.4316
   92SAPS  H16S 9014   2.286   2.217   7.876 -0.0498 -1.1206 -0.3554
   92SAPS  C217 9015   2.292   2.186   8.100 -0.2333 -0.0260  0.3504
   92SAPS  H17R 9016   2.399   2.157   8.110 -0.3234 -1.2442 -1.6124
   92SAPS  H17S 9017   2.227   2.123   8.165 -0.7827 -0.5525 -0.6821
   92SAPS  C218 9018   2.270   2.331   8.148 -0.5246 -0.3997 -0.6553
   92SAPS  H18R 9019   2.165   2.366   8.146  0.0000  1.6359  1.8648
   92SAPS  H18S 9020   2.337   2.404   8.097  1.1995 -0.8903  0.8219
   92SAPS  C219 9021   2.290   2.354   8.297  0.3117 -0.1322  0.0176
   92SAPS  H19R 9022   2.401   2.344   8.308  0.4517  1.2797  0.0998
   92SAPS  H19S 9023   2.252   2.261   8.344  1.4468 -0.5750  0.0932
   92SAPS  C220 9024   2.233   2.483   8.345  0.4413  0.3045  0.0895
   92SAPS  H20R 9025   2.290   2.572   8.311  1.8050 -0.7302 -0.4621
   92SAPS  H20S 9026   2.247   2.488   8.455 -0.6140  1.2332  0.2009
   92SAPS  H20T 9027   2.126   2.500   8.321  0.6996  1.2424 -0.4599
   92SAPS   C33 9028   2.072   2.520   7.012  0.2896 -0.0148  0.5772
   92SAPS   H3X 9029   2.179   2.497   6.995  0.4768  1.1312  0.1500
   92SAPS   H3Y 9030   2.017   2.424   7.001 -0.0066  0.4418 -3.2592
   92SAPS   C34 9031   2.067   2.576   7.150  0.5738  0.2476 -0.7582
   92SAPS   H4X 9032   2.076   2.686   7.160  0.0534  0.2033  0.3682
   92SAPS   H4Y 9033   2.147   2.526   7.209 -0.2060 -0.0677  0.0612
   92SAPS   C35 9034   1.939   2.540   7.228 -0.2389  0.5893  0.2787
   92SAPS   H5X 9035   1.917   2.432   7.214  0.4867  0.2175  1.8481
   92SAPS   H5Y 9036   1.854   2.592   7.178 -0.1973  0.4022  0.0080
   92SAPS   C36 9037   1.938   2.571   7.374 -0.0352  0.0991  0.9437
   92SAPS   H6X 9038   2.032   2.551   7.429  0.9120 -1.8338 -1.2265
   92SAPS   H6Y 9039   1.853   2.513   7.417 -0.6505 -1.6465 -2.2833
   92SAPS   C37 9040   1.901   2.719   7.406 -0.3263  0.1496 -0.2024
   92SAPS   H7X 9041   1.804   2.740   7.357 -2.0064 -2.5956  1.6269
   92SAPS   H7Y 9042   1.977   2.790   7.366 -0.2284 -0.0448 -0.3668
   92SAPS   C38 9043   1.879   2.747   7.554 -0.1526 -0.2824 -0.1938
   92SAPS   H8X 9044   1.870   2.858   7.554 -1.9259 -0.3004 -3.3198
   92SAPS   H8Y 9045   1.956   2.716   7.628 -1.7331  2.1598  2.7414
   92SAPS   C39 9046   1.745   2.697   7.600  0.3990  0.9530 -0.1050
   92SAPS   H9X 9047   1.739   2.586   7.595  1.1593  0.8903  0.2534
   92SAPS   H9Y 9048   1.661   2.736   7.538  1.0152  0.6282 -1.1542
   92SAPS  C310 9049   1.701   2.738   7.747 -0.1322  0.0049  0.4017
   92SAPS  H10X 9050   1.788   2.702   7.806  0.5067 -0.3724 -0.7435
   92SAPS  H10Y 9051   1.604   2.699   7.786 -1.0115  0.0956 -1.5623
   92SAPS  C311 9052   1.704   2.883   7.788  0.0290 -0.9091  0.1095
   92SAPS  H11X 9053   1.637   2.937   7.717  1.7163  3.2176  1.3715
   92SAPS  H11Y 9054   1.804   2.928   7.779 -0.9523  1.2361 -0.7487
   92SAPS  C312 9055   1.660   2.907   7.926  0.3993  0.1709  0.0282
   92SAPS  H12X 9056   1.723   2.848   7.997 -1.8152 -1.0338  1.0924
   92SAPS  H12Y 9057   1.560   2.863   7.942  0.9930 -2.0859 -2.0072
   92SAPS  C313 9058   1.649   3.057   7.964  0.1467  0.5551 -0.1871
   92SAPS  H13X 9059   1.587   3.113   7.891  0.4256  1.4367  0.2433
   92SAPS  H13Y 9060   1.749   3.105   7.954  0.5271 -0.1352  0.2139
   92SAPS  C314 9061   1.604   3.077   8.109 -0.3658 -0.3845  0.3697
   92SAPS  H14X 9062   1.685   3.041   8.175  0.2211  2.1088  1.1223
   92SAPS  H14Y 9063   1.513   3.017   8.130 -0.9358 -0.6321 -2.4177
   92SAPS  C315 9064   1.584   3.230   8.144 -0.3078  0.0892  0.4537
   92SAPS  H15X 9065   1.532   3.276   8.057  0.9676 -1.6458 -1.2970
   92SAPS  H15Y 9066   1.683   3.277   8.162 -0.3649 -0.1434  1.4573
   92SAPS  C316 9067   1.505   3.254   8.275 -0.0291  0.4252  0.3095
   92SAPS  H16X 9068   1.571   3.227   8.360  2.2300 -3.0705 -2.2710
   92SAPS  H16Y 9069   1.408   3.199   8.284  0.9585 -1.2128  1.6925
   92SAPS  C317 9070   1.469   3.402   8.290  0.9999  0.1639  0.3845
   92SAPS  H17X 9071   1.553   3.466   8.254  0.0687  0.5903 -1.1699
   92SAPS  H17Y 9072   1.445   3.409   8.398 -0.6383 -0.1251  0.0632
   92SAPS  C318 9073   1.343   3.437   8.208  0.0969 -0.4408  0.0191
   92SAPS  H18X 9074   1.339   3.548   8.198  1.2911 -0.3195  0.6010
   92SAPS  H18Y 9075   1.252   3.400   8.259 -0.2271 -1.4879 -1.2757
   92SAPS  H18Z 9076   1.349   3.384   8.111 -1.5547  0.9895 -0.9275
   93SAPS     N 9077   4.675   0.392   5.902 -0.3720  0.2849  0.3780
   93SAPS   HN1 9078   4.572   0.399   5.888 -0.3735 -1.3211 -0.7933
   93SAPS   HN2 9079   4.711   0.451   5.979 -2.6709  0.1429  1.6403
   93SAPS   HN3 9080   4.720   0.408   5.809  0.4658  0.5034  0.8186
   93SAPS   C12 9081   4.708   0.247   5.947  0.6995  0.2001  0.0402
   93SAPS  H12A 9082   4.665   0.175   5.878 -2.9470 -1.4824  3.6353
   93SAPS   C13 9083   4.855   0.207   5.960  0.2741 -0.3384 -0.0277
   93SAPS  O13A 9084   4.946   0.286   5.923 -0.2532  0.0034 -0.0547
   93SAPS  O13B 9085   4.886   0.087   5.984  0.4008 -0.6386 -0.3216
   93SAPS   C11 9086   4.640   0.233   6.081 -0.3756 -0.2506 -0.5396
   93SAPS  H11A 9087   4.676   0.302   6.161 -0.3637 -0.1807 -0.6041
   93SAPS  H11B 9088   4.665   0.127   6.100  1.9601  0.5039  1.1399
   93SAPS     P 9089   4.394   0.300   6.161 -0.1512 -0.3857  0.2019
   93SAPS   O13 9090   4.360   0.435   6.107 -0.5657 -0.3094  0.0714
   93SAPS   O14 9091   4.290   0.195   6.164  0.1727 -0.4284  0.3111
   93SAPS   O12 9092   4.497   0.237   6.064 -0.0621  0.1976 -0.1851
   93SAPS   O11 9093   4.467   0.318   6.297  0.1780 -0.2599  0.4411
   93SAPS    C1 9094   4.465   0.224   6.400 -0.1262 -0.3006  0.0389
   93SAPS    HA 9095   4.500   0.132   6.348  1.9715  1.7126 -2.3937
   93SAPS    HB 9096   4.545   0.256   6.471 -1.4284 -0.9489  1.8573
   93SAPS    C2 9097   4.330   0.222   6.483  0.3341  0.1609  0.0848
   93SAPS    HS 9098   4.241   0.207   6.419  0.1919  1.6036 -0.0696
   93SAPS   O21 9099   4.327   0.339   6.565  0.5009  0.5881  0.0266
   93SAPS   C21 9100   4.204   0.379   6.598 -0.4102  0.0227  0.3697
   93SAPS   O22 9101   4.102   0.339   6.547  0.2161 -0.1956  0.2703
   93SAPS   C22 9102   4.216   0.467   6.726  1.0580  0.2399  0.6181
   93SAPS   H2R 9103   4.278   0.419   6.804 -0.9280 -0.6279  1.7394
   93SAPS   H2S 9104   4.268   0.560   6.694 -0.8713  0.9103 -0.7814
   93SAPS    C3 9105   4.340   0.103   6.585 -0.1634 -0.2473  0.8682
   93SAPS    HX 9106   4.404   0.140   6.668  2.0271 -1.2069 -0.3051
   93SAPS    HY 9107   4.388   0.017   6.532  1.4586  2.3870 -2.3396
   93SAPS   O31 9108   4.207   0.062   6.632 -0.2597 -0.5318  0.2803
   93SAPS   C31 9109   4.126   0.003   6.550  0.0149 -0.1466 -0.0888
   93SAPS   O32 9110   4.152  -0.024   6.431  0.6707  0.8140 -0.3583
   93SAPS   C32 9111   3.982  -0.027   6.616  0.2183  0.7513 -0.8455
   93SAPS   H2X 9112   3.942   0.075   6.633 -3.3695  0.2433 -4.5801
   93SAPS   H2Y 9113   4.011  -0.089   6.703 -0.1200  0.4340 -0.9576
   93SAPS   C23 9114   4.075   0.513   6.771 -0.5210 -0.2019 -0.1425
   93SAPS   H3R 9115   4.012   0.432   6.813  1.7050 -2.3007 -0.6047
   93SAPS   H3S 9116   4.021   0.565   6.689 -0.7202 -0.6745 -0.3103
   93SAPS   C24 9117   4.098   0.634   6.870  0.4063  0.3879 -0.2054
   93SAPS   H4R 9118   4.032   0.712   6.825 -1.0603 -0.5936  0.1739
   93SAPS   H4S 9119   4.205   0.663   6.869  0.6634 -0.5221 -1.3650
   93SAPS   C25 9120   4.038   0.601   7.004 -0.5975 -0.3644  0.0425
   93SAPS   H5R 9121   3.931   0.573   6.998 -0.8759  1.0389 -2.5561
   93SAPS   C26 9122   4.104   0.580   7.119  0.1554 -0.2482  0.1030
   93SAPS   H6R 9123   4.044   0.567   7.209 -1.6382 -0.2594 -1.0524
   93SAPS   C27 9124   4.249   0.608   7.146  0.5781  0.1408 -0.8391
   93SAPS   H7R 9125   4.296   0.637   7.050  0.4928 -1.5221 -1.4292
   93SAPS   H7S 9126   4.296   0.514   7.183  0.8381  1.3142  2.1380
   93SAPS   C28 9127   4.270   0.706   7.255 -0.4687 -0.0332 -0.2942
   93SAPS   H8R 9128   4.284   0.812   7.231 -1.0079  0.0101 -0.4229
   93SAPS   C29 9129   4.245   0.689   7.381 -0.0854  0.0878 -0.1496
   93SAPS   H9R 9130   4.261   0.775   7.449  0.8922 -0.3120  0.1270
   93SAPS  C210 9131   4.201   0.563   7.445  0.3874  0.1670  0.6612
   93SAPS  H10R 9132   4.192   0.476   7.376 -0.9511  2.0262 -1.6753
   93SAPS  H10S 9133   4.099   0.582   7.486 -0.5504  0.9475 -1.8350
   93SAPS  C211 9134   4.286   0.548   7.566  0.0043 -0.4916 -0.1477
   93SAPS  H11R 9135   4.266   0.627   7.640 -0.8158 -0.3560 -0.5015
   93SAPS  C212 9136   4.369   0.444   7.580  0.2646 -0.0920  0.0686
   93SAPS  H12R 9137   4.415   0.426   7.678  0.9624 -2.8241 -0.6487
   93SAPS  C213 9138   4.395   0.324   7.482 -0.0776  0.1506  1.3276
   93SAPS  H13R 9139   4.297   0.294   7.440  0.7433  0.2237 -0.7367
   93SAPS  H13S 9140   4.431   0.241   7.546  2.6154 -0.3482 -0.6276
   93SAPS  C214 9141   4.486   0.358   7.367  0.2043 -0.6096 -0.5176
   93SAPS  H14R 9142   4.488   0.464   7.335 -2.8666 -0.0051  0.9029
   93SAPS  C215 9143   4.542   0.262   7.296 -0.2126 -0.6078  0.0291
   93SAPS  H15R 9144   4.599   0.283   7.205 -0.1714 -1.0048 -0.0378
   93SAPS  C216 9145   4.523   0.116   7.334 -0.5701 -0.3437  0.3240
   93SAPS  H16R 9146   4.521   0.054   7.242  1.3162  1.3163 -0.9254
   93SAPS  H16S 9147   4.427   0.087   7.380 -2.1120  1.0179 -1.8351
   93SAPS  C217 9148   4.633   0.074   7.435  0.2781  0.0898 -0.3758
   93SAPS  H17R 9149   4.614  -0.020   7.490  0.7661  0.2037  0.0007
   93SAPS  H17S 9150   4.630   0.152   7.514  0.5244 -0.4268  0.1486
   93SAPS  C218 9151   4.777   0.069   7.374 -0.0778  0.2721 -0.4620
   93SAPS  H18R 9152   4.836   0.022   7.455 -1.6585 -0.4333  0.3165
   93SAPS  H18S 9153   4.807   0.175   7.357 -0.1172  0.2282 -0.8179
   93SAPS  C219 9154   4.793  -0.007   7.245 -0.1514  0.5316 -0.4323
   93SAPS  H19R 9155   4.903  -0.020   7.231  0.2106  2.2694  0.4767
   93SAPS  H19S 9156   4.755   0.028   7.147 -0.9501 -0.0278 -0.3356
   93SAPS  C220 9157   4.737  -0.153   7.262 -0.2061  0.2404  0.9297
   93SAPS  H20R 9158   4.790  -0.199   7.348  1.3352 -0.7491 -0.4834
   93SAPS  H20S 9159   4.764  -0.207   7.168  0.5813  1.0777  0.6677
   93SAPS  H20T 9160   4.632  -0.163   7.296  0.3312 -0.1850  2.5758
   93SAPS   C33 9161   3.879  -0.113   6.539 -0.1799 -0.9078 -0.5713
   93SAPS   H3X 9162   3.906  -0.221   6.534  0.6949 -0.6748 -1.0878
   93SAPS   H3Y 9163   3.868  -0.076   6.435  1.7288 -2.7194 -1.4883
   93SAPS   C34 9164   3.739  -0.099   6.604 -0.6048  0.2495  0.3319
   93SAPS   H4X 9165   3.665  -0.170   6.561 -0.2907  0.4223 -0.5010
   93SAPS   H4Y 9166   3.709   0.005   6.578  0.8634  0.8980  1.0846
   93SAPS   C35 9167   3.744  -0.125   6.755  0.1801 -0.2058 -0.0278
   93SAPS   H5X 9168   3.798  -0.042   6.806 -0.0048  0.6395 -1.1676
   93SAPS   H5Y 9169   3.807  -0.215   6.773  0.4946 -0.8040 -3.4973
   93SAPS   C36 9170   3.600  -0.126   6.818 -0.1618 -0.5481  0.3021
   93SAPS   H6X 9171   3.545  -0.208   6.768  1.0093 -1.1045 -0.1165
   93SAPS   H6Y 9172   3.556  -0.031   6.781  0.9459 -1.0562 -2.6175
   93SAPS   C37 9173   3.599  -0.145   6.971 -0.2755 -0.2631  0.4518
   93SAPS   H7X 9174   3.512  -0.089   7.011 -0.1720  0.3023 -0.1031
   93SAPS   H7Y 9175   3.689  -0.099   7.016  0.0394 -1.2424  0.8565
   93SAPS   C38 9176   3.577  -0.290   7.020 -0.2111 -0.7116  0.6282
   93SAPS   H8X 9177   3.614  -0.352   6.935  0.1725  2.2783 -1.5623
   93SAPS   H8Y 9178   3.468  -0.311   7.029 -1.3141  2.5453 -2.4245
   93SAPS   C39 9179   3.654  -0.329   7.146 -0.1013  0.1737  0.2983
   93SAPS   H9X 9180   3.763  -0.341   7.129  0.3895  0.7139  2.6222
   93SAPS   H9Y 9181   3.615  -0.431   7.165 -0.9516  0.1816 -1.2501
   93SAPS  C310 9182   3.608  -0.248   7.271 -0.7464  0.1432  0.0097
   93SAPS  H10X 9183   3.498  -0.237   7.262 -0.8606 -1.3631 -0.7361
   93SAPS  H10Y 9184   3.647  -0.144   7.264  1.9651 -0.7945  0.0027
   93SAPS  C311 9185   3.645  -0.311   7.400 -0.2696 -0.6356 -0.5387
   93SAPS  H11X 9186   3.755  -0.324   7.413 -0.3858  0.0783  1.6505
   93SAPS  H11Y 9187   3.591  -0.408   7.389 -0.4734 -0.6509  0.5020
   93SAPS  C312 9188   3.592  -0.234   7.525  0.0788 -0.0111  0.2013
   93SAPS  H12X 9189   3.484  -0.211   7.511 -0.2208 -0.1634  2.0221
   93SAPS  H12Y 9190   3.644  -0.136   7.523  1.9294 -0.9440  0.2999
   93SAPS  C313 9191   3.619  -0.317   7.654  0.1312 -0.0670  1.3531
   93SAPS  H13X 9192   3.730  -0.321   7.653  0.1594  0.6752  1.0823
   93SAPS  H13Y 9193   3.577  -0.420   7.647  1.1194 -0.4302  0.4701
   93SAPS  C314 9194   3.559  -0.259   7.779 -0.0688 -0.6502 -0.2830
   93SAPS  H14X 9195   3.453  -0.237   7.753 -0.3436  2.6898  2.8864
   93SAPS  H14Y 9196   3.606  -0.160   7.798  2.0735 -1.5885 -0.4557
   93SAPS  C315 9197   3.606  -0.349   7.901 -1.3871  0.1399 -0.1431
   93SAPS  H15X 9198   3.714  -0.370   7.887 -1.9246 -3.2578 -0.1513
   93SAPS  H15Y 9199   3.557  -0.449   7.904  0.4364 -0.7788  2.2886
   93SAPS  C316 9200   3.584  -0.274   8.037  0.3811  1.0643 -0.2025
   93SAPS  H16X 9201   3.479  -0.240   8.051  0.0426 -0.1640  0.3143
   93SAPS  H16Y 9202   3.641  -0.178   8.040 -0.7053  1.7254  2.9056
   93SAPS  C317 9203   3.630  -0.341   8.168  1.0570 -0.1015  0.3491
   93SAPS  H17X 9204   3.739  -0.361   8.159  0.9603 -0.8241  0.7349
   93SAPS  H17Y 9205   3.577  -0.438   8.172  1.1146 -0.1063  0.9982
   93SAPS  C318 9206   3.610  -0.257   8.289 -0.6642 -0.3076 -0.2770
   93SAPS  H18X 9207   3.633  -0.316   8.380  0.4978 -2.7812 -2.0812
   93SAPS  H18Y 9208   3.505  -0.224   8.305 -0.2391  0.9949 -0.0507
   93SAPS  H18Z 9209   3.676  -0.167   8.294  0.8555 -1.4504  1.3362
   94SAPS     N 9210   2.894   4.196   6.080  0.1643  0.0802  0.0738
   94SAPS   HN1 9211   2.862   4.146   6.165  0.0048 -1.2397 -0.7367
   94SAPS   HN2 9212   2.812   4.197   6.017 -0.2699  4.6739  0.3471
   94SAPS   HN3 9213   2.969   4.144   6.030 -1.6170 -1.0766 -1.4751
   94SAPS   C12 9214   2.934   4.344   6.102  0.7035 -0.0131 -0.1464
   94SAPS  H12A 9215   2.941   4.385   6.002 -2.5987  0.2122 -0.3938
   94SAPS   C13 9216   2.825   4.413   6.182 -0.6465  0.5134  0.4609
   94SAPS  O13A 9217   2.735   4.344   6.239 -0.1434 -0.2471  0.0551
   94SAPS  O13B 9218   2.820   4.539   6.189 -0.4541  0.1958 -0.4850
   94SAPS   C11 9219   3.075   4.356   6.173  0.1434  0.1169  0.1536
   94SAPS  H11A 9220   3.069   4.301   6.270  0.2240 -0.5629 -0.2199
   94SAPS  H11B 9221   3.094   4.463   6.196  1.7039  0.0407 -0.6617
   94SAPS     P 9222   3.248   4.388   5.977 -0.0900  0.2217  0.4095
   94SAPS   O13 9223   3.353   4.313   5.904  0.2417 -0.4539 -0.8113
   94SAPS   O14 9224   3.143   4.453   5.899  0.2029  0.1876  0.3070
   94SAPS   O12 9225   3.171   4.297   6.082 -0.6630 -0.1300  0.5839
   94SAPS   O11 9226   3.327   4.499   6.062 -0.3366 -0.2859  0.2225
   94SAPS    C1 9227   3.442   4.449   6.138  0.1039  0.1968 -0.6098
   94SAPS    HA 9228   3.492   4.367   6.082  0.0006  1.0850 -2.0444
   94SAPS    HB 9229   3.519   4.529   6.137  1.9508 -1.4713  0.7682
   94SAPS    C2 9230   3.414   4.403   6.281 -0.7446  0.3520 -1.2415
   94SAPS    HS 9231   3.354   4.310   6.274 -1.4008  0.6599  0.0727
   94SAPS   O21 9232   3.341   4.503   6.360  0.4931  1.2105 -1.0714
   94SAPS   C21 9233   3.265   4.453   6.456  0.2992  0.1182 -0.4764
   94SAPS   O22 9234   3.243   4.335   6.488  0.6137 -0.4545 -0.3111
   94SAPS   C22 9235   3.203   4.563   6.542  0.8863  0.7477 -0.1093
   94SAPS   H2R 9236   3.259   4.651   6.503  2.0736 -0.4602 -1.2395
   94SAPS   H2S 9237   3.094   4.572   6.522  0.1245 -0.5489  2.9355
   94SAPS    C3 9238   3.550   4.368   6.349 -0.1906  0.4437  0.2520
   94SAPS    HX 9239   3.596   4.467   6.365 -2.3612  1.5719 -0.0918
   94SAPS    HY 9240   3.604   4.310   6.271  1.1115  1.1929  0.5748
   94SAPS   O31 9241   3.527   4.280   6.459 -0.3381 -0.0353  0.4601
   94SAPS   C31 9242   3.556   4.346   6.575 -0.1560  0.1441  0.1355
   94SAPS   O32 9243   3.606   4.456   6.588 -0.8231 -0.4624  0.0160
   94SAPS   C32 9244   3.515   4.251   6.685 -0.5385 -0.8159 -0.4757
   94SAPS   H2X 9245   3.594   4.174   6.690  1.5267  1.1279 -1.4719
   94SAPS   H2Y 9246   3.416   4.207   6.659 -1.4433 -0.1998  1.7626
   94SAPS   C23 9247   3.227   4.562   6.696 -0.2114  0.4438 -0.1652
   94SAPS   H3R 9248   3.335   4.542   6.714 -0.8874 -3.0901  0.7135
   94SAPS   H3S 9249   3.177   4.470   6.734  0.4051 -0.4691 -1.4858
   94SAPS   C24 9250   3.166   4.689   6.767 -0.0906  0.0582  0.1224
   94SAPS   H4R 9251   3.061   4.693   6.732 -0.2807  0.4392  0.7270
   94SAPS   H4S 9252   3.222   4.774   6.721 -1.4231  1.7221  1.4596
   94SAPS   C25 9253   3.189   4.695   6.918 -0.3783 -0.3615 -0.1405
   94SAPS   H5R 9254   3.295   4.693   6.947  0.1985  2.2086 -1.6796
   94SAPS   C26 9255   3.082   4.689   7.002 -0.3924 -0.9583 -0.9597
   94SAPS   H6R 9256   3.100   4.695   7.110  1.6256  1.8222 -1.3316
   94SAPS   C27 9257   2.938   4.676   6.963 -0.2277 -0.3694  0.0863
   94SAPS   H7R 9258   2.907   4.578   6.921  0.3265 -1.1290  1.4016
   94SAPS   H7S 9259   2.921   4.747   6.879  1.2736 -1.4917 -1.2305
   94SAPS   C28 9260   2.843   4.716   7.072 -0.3130 -0.4003 -0.4396
   94SAPS   H8R 9261   2.830   4.639   7.149 -1.5437  2.2521  2.1813
   94SAPS   C29 9262   2.791   4.839   7.093  0.2216  0.0143 -0.4686
   94SAPS   H9R 9263   2.723   4.853   7.179  0.1769  2.8046 -0.8656
   94SAPS  C210 9264   2.818   4.961   7.006  0.5875 -0.0173 -0.6261
   94SAPS  H10R 9265   2.872   4.938   6.912  0.4633 -2.9174 -0.0873
   94SAPS  H10S 9266   2.876   5.037   7.063  0.8434 -1.4920  1.1862
   94SAPS  C211 9267   2.686   5.024   6.968 -0.4771 -0.1505 -0.0304
   94SAPS  H11R 9268   2.634   4.981   6.881  0.8530 -1.4351 -0.2418
   94SAPS  C212 9269   2.624   5.132   7.022  0.0870 -0.4992  0.7599
   94SAPS  H12R 9270   2.528   5.162   6.978  0.1413  0.3670  1.1979
   94SAPS  C213 9271   2.662   5.210   7.138 -0.2280 -0.6361  0.0548
   94SAPS  H13R 9272   2.658   5.143   7.227  0.8255  0.3514  0.8773
   94SAPS  H13S 9273   2.586   5.290   7.147  1.8784  1.3435  1.3762
   94SAPS  C214 9274   2.792   5.279   7.129 -0.3521 -0.5074 -0.8288
   94SAPS  H14R 9275   2.804   5.320   7.027 -1.8520  0.8725 -0.4793
   94SAPS  C215 9276   2.886   5.300   7.222  0.3955  0.1254  0.0123
   94SAPS  H15R 9277   2.978   5.350   7.186  0.9592 -0.4982  0.5631
   94SAPS  C216 9278   2.878   5.263   7.362  0.0390  0.7517 -0.3903
   94SAPS  H16R 9279   2.939   5.174   7.389  0.1420  0.5784 -1.1643
   94SAPS  H16S 9280   2.772   5.234   7.376  0.6235 -1.1942  0.3210
   94SAPS  C217 9281   2.914   5.380   7.456 -0.7950  0.3843  0.1402
   94SAPS  H17R 9282   2.865   5.469   7.412  0.2623  0.8482 -0.1071
   94SAPS  H17S 9283   3.021   5.406   7.446 -1.0218  1.2869 -0.0083
   94SAPS  C218 9284   2.862   5.364   7.602 -0.1637 -0.0628  0.4779
   94SAPS  H18R 9285   2.758   5.326   7.590  0.5625 -1.6783 -0.9708
   94SAPS  H18S 9286   2.856   5.464   7.651 -0.0486  1.4416 -2.3512
   94SAPS  C219 9287   2.942   5.277   7.683  0.2554 -0.0002 -0.2314
   94SAPS  H19R 9288   3.040   5.328   7.697  0.3478 -0.4359  0.8733
   94SAPS  H19S 9289   2.963   5.183   7.626 -1.7889 -0.1063 -0.8756
   94SAPS  C220 9290   2.868   5.255   7.818  0.7774 -0.4003  0.0338
   94SAPS  H20R 9291   2.904   5.169   7.878 -1.6331 -1.6003 -0.1332
   94SAPS  H20S 9292   2.758   5.250   7.807  0.8049 -0.7109 -0.1258
   94SAPS  H20T 9293   2.869   5.348   7.878  1.0521  0.0308 -0.6276
   94SAPS   C33 9294   3.499   4.318   6.821  0.4347 -0.1133  0.2428
   94SAPS   H3X 9295   3.405   4.378   6.821  1.4006  1.4721 -0.8441
   94SAPS   H3Y 9296   3.581   4.390   6.840  0.3777 -0.1704  0.7272
   94SAPS   C34 9297   3.491   4.205   6.933 -0.2986 -0.3286  0.6789
   94SAPS   H4X 9298   3.587   4.150   6.946  0.0196  0.2852  0.9901
   94SAPS   H4Y 9299   3.413   4.136   6.895  0.5863  0.6659 -3.3787
   94SAPS   C35 9300   3.462   4.275   7.072 -0.0518 -0.0156  0.5644
   94SAPS   H5X 9301   3.493   4.199   7.147  2.4519 -0.3768 -0.7352
   94SAPS   H5Y 9302   3.354   4.302   7.078  0.4801  2.1379  1.0495
   94SAPS   C36 9303   3.539   4.403   7.101 -0.1086  0.4114  0.7946
   94SAPS   H6X 9304   3.489   4.490   7.054 -1.5907 -1.6014 -1.6176
   94SAPS   H6Y 9305   3.641   4.389   7.058 -0.7212  1.2817 -1.0637
   94SAPS   C37 9306   3.555   4.440   7.249 -0.1795 -0.2458 -0.1318
   94SAPS   H7X 9307   3.598   4.543   7.249 -1.2339  0.2428  1.7247
   94SAPS   H7Y 9308   3.618   4.370   7.307  0.5132  0.4424 -0.0283
   94SAPS   C38 9309   3.428   4.456   7.329 -0.1375 -0.6991 -0.2996
   94SAPS   H8X 9310   3.372   4.360   7.331  0.3475 -1.0070 -0.9930
   94SAPS   H8Y 9311   3.358   4.534   7.292  1.2609 -0.1785 -1.9920
   94SAPS   C39 9312   3.458   4.504   7.469 -0.4381  0.4594 -0.4502
   94SAPS   H9X 9313   3.520   4.596   7.463 -1.3767  1.2001  0.6610
   94SAPS   H9Y 9314   3.529   4.431   7.511 -1.1105  1.6033  3.0093
   94SAPS  C310 9315   3.329   4.517   7.559 -0.4472  0.0243 -0.0371
   94SAPS  H10X 9316   3.269   4.428   7.530  0.4907 -1.0194  1.1300
   94SAPS  H10Y 9317   3.271   4.607   7.530 -0.3192  0.1838  0.2010
   94SAPS  C311 9318   3.362   4.511   7.711  0.6164  0.8639  0.1100
   94SAPS  H11X 9319   3.442   4.581   7.740  0.9056  1.8791 -2.7927
   94SAPS  H11Y 9320   3.399   4.409   7.737  0.1055  0.4670 -0.6454
   94SAPS  C312 9321   3.242   4.556   7.791 -0.2467 -0.0755  0.0886
   94SAPS  H12X 9322   3.150   4.511   7.748 -0.3088 -0.5627  0.7112
   94SAPS  H12Y 9323   3.223   4.663   7.768 -0.6222 -0.4248 -1.3083
   94SAPS  C313 9324   3.256   4.552   7.943  0.1757 -0.2166 -0.5789
   94SAPS  H13X 9325   3.327   4.632   7.973 -2.0682  2.1720 -1.2668
   94SAPS  H13Y 9326   3.281   4.450   7.979 -1.5653 -0.5068 -0.1181
   94SAPS  C314 9327   3.131   4.590   8.031  0.3739 -0.8870  0.3798
   94SAPS  H14X 9328   3.060   4.506   8.015  0.8360 -1.4162  1.0787
   94SAPS  H14Y 9329   3.085   4.679   7.983  1.2564 -0.4150  0.3899
   94SAPS  C315 9330   3.177   4.610   8.174 -0.0566 -0.4050 -0.1331
   94SAPS  H15X 9331   3.253   4.691   8.175  0.6311 -1.0356  1.1248
   94SAPS  H15Y 9332   3.226   4.514   8.201 -0.7888  0.3075  4.4827
   94SAPS  C316 9333   3.065   4.644   8.277 -0.1311 -0.0916  0.3209
   94SAPS  H16X 9334   2.983   4.571   8.262  1.1054 -1.5861  0.5558
   94SAPS  H16Y 9335   3.016   4.738   8.243  1.1128  0.1303 -0.9296
   94SAPS  C317 9336   3.101   4.662   8.424  0.3001 -0.4997  0.1874
   94SAPS  H17X 9337   3.008   4.698   8.473 -0.1091 -1.7745  0.3930
   94SAPS  H17Y 9338   3.180   4.740   8.430 -0.9092  0.8727 -0.9262
   94SAPS  C318 9339   3.142   4.532   8.490  0.1020  0.4059  0.5651
   94SAPS  H18X 9340   3.061   4.456   8.484  0.3391  0.2161 -0.6557
   94SAPS  H18Y 9341   3.161   4.559   8.596 -0.9303  3.0023  0.1525
   94SAPS  H18Z 9342   3.228   4.482   8.440  0.7970  2.3805 -0.2827
   95SAPS     N 9343   0.046   2.451   5.982 -0.0297  0.3996  0.2539
   95SAPS   HN1 9344  -0.039   2.411   5.937  1.5453 -0.5376 -2.0993
   95SAPS   HN2 9345   0.039   2.415   6.080  2.0513  1.0546  0.6831
   95SAPS   HN3 9346   0.041   2.554   5.970  1.6339  0.5318  0.4163
   95SAPS   C12 9347   0.170   2.401   5.918  0.3187 -0.5172  0.7674
   95SAPS  H12A 9348   0.148   2.295   5.909 -1.3070 -0.1241 -0.5391
   95SAPS   C13 9349   0.198   2.456   5.780  0.9100 -0.3445 -0.8870
   95SAPS  O13A 9350   0.115   2.544   5.737 -0.1028  0.0518  0.0278
   95SAPS  O13B 9351   0.295   2.428   5.709 -0.4066  0.0726  0.6346
   95SAPS   C11 9352   0.291   2.434   6.017 -0.2122 -0.7107 -0.2973
   95SAPS  H11A 9353   0.275   2.544   6.022 -0.2514 -0.6255 -1.7174
   95SAPS  H11B 9354   0.387   2.410   5.967  0.9270  0.9829  0.9613
   95SAPS     P 9355   0.331   2.238   6.171  0.7121 -0.4494  0.1548
   95SAPS   O13 9356   0.256   2.149   6.074  0.1247 -0.6684  0.0756
   95SAPS   O14 9357   0.476   2.241   6.171  0.4376  0.1504  0.0068
   95SAPS   O12 9358   0.273   2.385   6.151  0.3932 -0.0560 -0.0064
   95SAPS   O11 9359   0.282   2.202   6.312 -0.1397  0.1942 -0.1473
   95SAPS    C1 9360   0.307   2.286   6.423 -0.1280  0.2751 -0.8097
   95SAPS    HA 9361   0.388   2.243   6.485 -1.1095 -0.3193  0.0956
   95SAPS    HB 9362   0.322   2.395   6.409  1.2817  0.5586  2.1277
   95SAPS    C2 9363   0.175   2.259   6.506 -0.4549 -0.2401 -0.0420
   95SAPS    HS 9364   0.092   2.284   6.437 -0.4689  1.6540  0.6043
   95SAPS   O21 9365   0.177   2.357   6.617 -0.2687  0.0616 -0.0683
   95SAPS   C21 9366   0.082   2.439   6.623 -0.4460  0.5683  0.2013
   95SAPS   O22 9367  -0.012   2.444   6.546 -0.2272  0.2087 -0.4554
   95SAPS   C22 9368   0.104   2.518   6.757 -0.3373  0.1624 -0.6527
   95SAPS   H2R 9369   0.094   2.445   6.840  0.2107  2.8436  1.9474
   95SAPS   H2S 9370   0.207   2.561   6.751  0.2317 -1.2927 -1.8248
   95SAPS    C3 9371   0.162   2.111   6.545  0.4765  0.5608 -0.0505
   95SAPS    HX 9372   0.149   2.057   6.449 -1.2589 -2.0855  1.5407
   95SAPS    HY 9373   0.063   2.092   6.592 -0.2666  1.3196 -1.2559
   95SAPS   O31 9374   0.273   2.061   6.629  0.4827  0.3722 -0.0432
   95SAPS   C31 9375   0.241   2.063   6.756  0.2763 -0.4104 -0.0841
   95SAPS   O32 9376   0.140   2.111   6.809 -0.0835  0.4618 -0.1023
   95SAPS   C32 9377   0.350   1.988   6.833  0.2024 -0.4048 -0.6885
   95SAPS   H2X 9378   0.311   1.989   6.937 -1.6554 -1.1787 -1.3357
   95SAPS   H2Y 9379   0.444   2.047   6.839  0.8794 -1.6165  1.7946
   95SAPS   C23 9380   0.018   2.649   6.790 -0.0531 -0.3355 -0.4437
   95SAPS   H3R 9381   0.021   2.727   6.711  1.1981  1.2152  1.0468
   95SAPS   H3S 9382   0.071   2.694   6.876 -0.9635 -0.9936  0.4874
   95SAPS   C24 9383  -0.129   2.633   6.837 -0.7446 -0.4865 -0.2023
   95SAPS   H4R 9384  -0.144   2.539   6.894  2.3098 -0.8191  0.2249
   95SAPS   H4S 9385  -0.182   2.613   6.741  0.2822 -0.5143 -0.7727
   95SAPS   C25 9386  -0.187   2.753   6.908 -0.1440  1.0235 -0.3208
   95SAPS   H5R 9387  -0.201   2.848   6.854 -0.1043  0.8204 -0.6908
   95SAPS   C26 9388  -0.215   2.753   7.038 -0.0878  0.6950 -0.4206
   95SAPS   H6R 9389  -0.250   2.850   7.075 -0.9754  0.8600 -1.6432
   95SAPS   C27 9390  -0.204   2.653   7.149  0.0760  0.6125 -0.6290
   95SAPS   H7R 9391  -0.209   2.555   7.096 -0.5576  0.0364  0.4430
   95SAPS   H7S 9392  -0.292   2.660   7.217  0.9888  0.8551  0.5652
   95SAPS   C28 9393  -0.076   2.672   7.231 -0.0300 -0.5237  0.1918
   95SAPS   H8R 9394   0.013   2.668   7.167  0.4707  1.5295  0.6654
   95SAPS   C29 9395  -0.068   2.695   7.369  0.3979  0.2594  0.7687
   95SAPS   H9R 9396   0.033   2.706   7.411  0.1521  1.4800  1.0671
   95SAPS  C210 9397  -0.180   2.704   7.473 -0.5698 -0.1432  0.4526
   95SAPS  H10R 9398  -0.283   2.679   7.439 -1.5251  0.9467  2.3549
   95SAPS  H10S 9399  -0.169   2.808   7.510 -0.4845  0.0318 -0.0644
   95SAPS  C211 9400  -0.147   2.593   7.570  0.3067 -0.6104 -0.3225
   95SAPS  H11R 9401  -0.152   2.493   7.523  2.6988 -0.1587 -1.6717
   95SAPS  C212 9402  -0.116   2.608   7.696  0.2414 -0.5582 -0.2873
   95SAPS  H12R 9403  -0.093   2.524   7.763  0.3983  1.9330  3.0279
   95SAPS  C213 9404  -0.100   2.740   7.775  0.0815  0.1867  0.7565
   95SAPS  H13R 9405  -0.058   2.820   7.710 -1.7955  0.8123  0.2493
   95SAPS  H13S 9406  -0.025   2.738   7.857  2.2735  1.5337 -1.0969
   95SAPS  C214 9407  -0.239   2.781   7.822 -0.1646 -0.1604  0.2744
   95SAPS  H14R 9408  -0.321   2.767   7.751  0.3529 -0.3781 -0.2942
   95SAPS  C215 9409  -0.275   2.815   7.950 -0.2801  0.2301  0.6684
   95SAPS  H15R 9410  -0.380   2.833   7.976 -1.2308 -3.6281  0.0628
   95SAPS  C216 9411  -0.188   2.802   8.071 -0.2175 -0.1561  1.0986
   95SAPS  H16R 9412  -0.143   2.903   8.087  1.0340 -0.4478 -0.3831
   95SAPS  H16S 9413  -0.112   2.729   8.036  0.0480  1.5861 -2.4124
   95SAPS  C217 9414  -0.255   2.751   8.193 -0.1444 -0.1278 -0.4569
   95SAPS  H17R 9415  -0.335   2.678   8.172 -0.6535 -0.2521  1.6590
   95SAPS  H17S 9416  -0.317   2.837   8.228 -1.1313 -0.5677 -1.1001
   95SAPS  C218 9417  -0.168   2.716   8.314  0.2941 -0.3950 -0.2729
   95SAPS  H18R 9418  -0.092   2.797   8.321 -0.5297  0.2617  1.6017
   95SAPS  H18S 9419  -0.115   2.619   8.300  0.1329 -0.9161  2.2723
   95SAPS  C219 9420  -0.246   2.703   8.446 -0.8750  0.2782  0.1752
   95SAPS  H19R 9421  -0.331   2.632   8.432 -1.2017  0.7627 -0.3438
   95SAPS  H19S 9422  -0.305   2.796   8.461 -0.8053  1.0740 -3.4727
   95SAPS  C220 9423  -0.151   2.676   8.566  0.5463  0.0765  0.2717
   95SAPS  H20R 9424  -0.210   2.661   8.659 -0.2837  3.9059  0.5517
   95SAPS  H20S 9425  -0.087   2.764   8.590  0.9289  0.3204 -1.5049
   95SAPS  H20T 9426  -0.089   2.587   8.542  0.4434  0.5831 -2.2155
   95SAPS   C33 9427   0.402   1.854   6.792  0.8787  0.6449  0.0121
   95SAPS   H3X 9428   0.440   1.861   6.687 -1.5165  1.1761 -0.8719
   95SAPS   H3Y 9429   0.336   1.766   6.807  3.4390 -0.8149  4.8132
   95SAPS   C34 9430   0.521   1.805   6.874  0.3407 -0.4065 -0.0227
   95SAPS   H4X 9431   0.603   1.878   6.854 -1.1525  2.0956  2.2602
   95SAPS   H4Y 9432   0.551   1.712   6.822 -0.7841 -0.3494 -0.7868
   95SAPS   C35 9433   0.502   1.789   7.035 -0.5604  0.5540 -0.2791
   95SAPS   H5X 9434   0.451   1.691   7.050  1.5219 -0.7887 -1.4106
   95SAPS   H5Y 9435   0.441   1.872   7.074  0.1561  0.2115  1.7093
   95SAPS   C36 9436   0.637   1.772   7.106  0.7309 -0.7636 -0.2903
   95SAPS   H6X 9437   0.714   1.851   7.090 -0.7756  0.9181  0.4734
   95SAPS   H6Y 9438   0.692   1.683   7.069  1.9291 -0.0736 -0.2292
   95SAPS   C37 9439   0.601   1.758   7.260  0.8748  0.6112 -0.7602
   95SAPS   H7X 9440   0.543   1.663   7.267 -1.0017  1.8145  1.6564
   95SAPS   H7Y 9441   0.543   1.846   7.296  1.7816  0.4107  1.3196
   95SAPS   C38 9442   0.711   1.725   7.357 -0.4745  0.0495 -0.3173
   95SAPS   H8X 9443   0.766   1.820   7.373 -1.5278  0.5929  0.2207
   95SAPS   H8Y 9444   0.781   1.645   7.324  0.5852  0.1160  1.6381
   95SAPS   C39 9445   0.661   1.691   7.496  0.3866 -0.1666  0.2081
   95SAPS   H9X 9446   0.621   1.587   7.500  1.9747 -0.8491 -0.7600
   95SAPS   H9Y 9447   0.578   1.760   7.520  2.4191  1.3963  3.4801
   95SAPS  C310 9448   0.783   1.697   7.592  0.1528 -0.2838 -0.0987
   95SAPS  H10X 9449   0.816   1.802   7.606  0.5701 -0.6093  1.5141
   95SAPS  H10Y 9450   0.858   1.637   7.537 -0.9633 -0.9884 -0.8993
   95SAPS  C311 9451   0.760   1.647   7.739 -0.2341 -0.2170  0.7685
   95SAPS  H11X 9452   0.742   1.538   7.727  1.1306 -0.1967 -2.3175
   95SAPS  H11Y 9453   0.672   1.703   7.777 -0.4959  0.7804 -1.1858
   95SAPS  C312 9454   0.885   1.668   7.833 -0.0150 -1.1059 -0.3043
   95SAPS  H12X 9455   0.921   1.773   7.834 -0.0594 -1.0924  0.0119
   95SAPS  H12Y 9456   0.966   1.610   7.784 -1.1588 -1.4330 -1.9045
   95SAPS  C313 9457   0.843   1.611   7.966  0.0801 -0.2316  0.1700
   95SAPS  H13X 9458   0.810   1.506   7.954 -0.9566  0.0024  0.7973
   95SAPS  H13Y 9459   0.754   1.661   8.010 -0.8411  0.0622 -1.9037
   95SAPS  C314 9460   0.965   1.598   8.061  0.0786  0.3584 -0.1830
   95SAPS  H14X 9461   0.995   1.701   8.087  0.7025 -0.0057  0.5826
   95SAPS  H14Y 9462   1.048   1.557   7.998  0.4364  1.5663 -0.5206
   95SAPS  C315 9463   0.938   1.516   8.190  0.3059  0.4054 -0.6321
   95SAPS  H15X 9464   0.894   1.419   8.161  0.9387 -0.5362  1.4000
   95SAPS  H15Y 9465   0.862   1.573   8.247  0.8045 -0.5676  1.0864
   95SAPS  C316 9466   1.062   1.488   8.283 -0.3709  0.1753  0.5931
   95SAPS  H16X 9467   1.121   1.581   8.296 -1.1153  0.5474  1.3412
   95SAPS  H16Y 9468   1.116   1.408   8.227  0.0458 -1.0160  2.5896
   95SAPS  C317 9469   1.016   1.423   8.416 -0.5198 -0.3825  0.7669
   95SAPS  H17X 9470   0.975   1.324   8.387  3.0058 -1.6259 -0.4954
   95SAPS  H17Y 9471   0.936   1.493   8.449 -0.2634  0.5520 -0.4808
   95SAPS  C318 9472   1.129   1.408   8.520  0.3829  0.2330 -0.4261
   95SAPS  H18X 9473   1.134   1.488   8.597  1.0659 -3.2372  3.4734
   95SAPS  H18Y 9474   1.232   1.399   8.479 -0.7789 -1.5924 -3.2531
   95SAPS  H18Z 9475   1.105   1.321   8.585 -4.4049  0.6678 -1.2251
   96SAPS     N 9476   2.042   3.528   5.939  0.2356  0.7415  0.0573
   96SAPS   HN1 9477   2.118   3.488   5.880 -0.3696  0.5472 -0.5987
   96SAPS   HN2 9478   1.969   3.540   5.867  1.9241  0.4386 -1.7944
   96SAPS   HN3 9479   2.082   3.619   5.968  3.1020 -0.8730  1.6553
   96SAPS   C12 9480   2.005   3.434   6.049  0.5841 -0.4748 -0.2761
   96SAPS  H12A 9481   1.922   3.486   6.094  0.9811  0.1128 -0.2040
   96SAPS   C13 9482   1.975   3.289   6.008 -0.0128 -1.5364 -0.1736
   96SAPS  O13A 9483   2.007   3.239   5.899 -0.1593 -0.3022 -0.2050
   96SAPS  O13B 9484   1.926   3.209   6.097  0.1180 -0.5870 -0.0934
   96SAPS   C11 9485   2.126   3.415   6.142 -0.1376  0.2874 -0.1796
   96SAPS  H11A 9486   2.204   3.356   6.089 -0.4755  0.4879 -0.9044
   96SAPS  H11B 9487   2.108   3.338   6.220  1.0995  0.5310  0.3631
   96SAPS     P 9488   2.112   3.621   6.302  0.2352  0.6368 -0.4778
   96SAPS   O13 9489   2.205   3.707   6.379  0.4235  0.6597  0.3239
   96SAPS   O14 9490   1.989   3.686   6.242  0.0016  0.4097  0.0692
   96SAPS   O12 9491   2.188   3.530   6.198  0.3941 -0.4311 -0.0397
   96SAPS   O11 9492   2.058   3.507   6.404  0.0494 -0.0116  0.1332
   96SAPS    C1 9493   2.145   3.427   6.479 -0.1034  0.5525 -0.4090
   96SAPS    HA 9494   2.141   3.319   6.452  2.1058  0.3663 -0.1623
   96SAPS    HB 9495   2.254   3.435   6.457  0.3066 -3.6433 -0.8603
   96SAPS    C2 9496   2.128   3.436   6.632 -0.5373  0.6979  0.5166
   96SAPS    HS 9497   2.198   3.364   6.681  0.1957  1.9651  1.3658
   96SAPS   O21 9498   1.991   3.420   6.670  0.3391  0.1578 -0.6032
   96SAPS   C21 9499   1.960   3.293   6.669 -0.5598 -0.6664 -0.3184
   96SAPS   O22 9500   2.035   3.196   6.650 -0.5309 -0.1176 -0.7271
   96SAPS   C22 9501   1.809   3.278   6.711 -0.3864  0.2069  0.1082
   96SAPS   H2R 9502   1.750   3.352   6.652 -1.7448 -1.5285 -0.7750
   96SAPS   H2S 9503   1.765   3.178   6.695 -0.8847  0.3672  0.4537
   96SAPS    C3 9504   2.167   3.578   6.680  0.2144 -0.3553  0.0282
   96SAPS    HX 9505   2.092   3.653   6.646  0.0676 -0.5496 -0.0835
   96SAPS    HY 9506   2.264   3.600   6.631 -1.1821  0.4212 -2.6208
   96SAPS   O31 9507   2.175   3.577   6.820  0.0238 -0.1401  0.3823
   96SAPS   C31 9508   2.082   3.649   6.893  0.0895 -0.1822 -0.5571
   96SAPS   O32 9509   1.981   3.704   6.847 -0.1341  0.3663  0.2978
   96SAPS   C32 9510   2.117   3.653   7.041 -0.5282  0.0283  0.0601
   96SAPS   H2X 9511   2.128   3.761   7.064 -1.5285  0.3490 -0.9073
   96SAPS   H2Y 9512   2.202   3.586   7.066  0.9441 -0.4061 -4.9566
   96SAPS   C23 9513   1.777   3.315   6.862 -0.2117  0.1394  0.6609
   96SAPS   H3R 9514   1.834   3.404   6.895  0.0514 -0.2848  1.3834
   96SAPS   H3S 9515   1.814   3.240   6.936 -0.0471  0.0494  0.4885
   96SAPS   C24 9516   1.625   3.327   6.894  0.0082  0.2660  0.3372
   96SAPS   H4R 9517   1.617   3.325   7.005  0.0047 -0.3040  0.3293
   96SAPS   H4S 9518   1.573   3.247   6.838 -0.2132 -1.3219  2.6961
   96SAPS   C25 9519   1.565   3.455   6.836  0.2222  0.0049 -0.3786
   96SAPS   H5R 9520   1.580   3.477   6.729 -0.6794 -1.4733 -0.8297
   96SAPS   C26 9521   1.481   3.547   6.897  0.1994  0.3259  0.1263
   96SAPS   H6R 9522   1.448   3.628   6.831 -1.5651 -0.6968 -0.3184
   96SAPS   C27 9523   1.441   3.550   7.037 -0.2179  0.1019 -0.0505
   96SAPS   H7R 9524   1.501   3.633   7.080  2.3959 -0.5117 -2.2251
   96SAPS   H7S 9525   1.474   3.458   7.090 -0.6257  2.3321  4.5771
   96SAPS   C28 9526   1.291   3.573   7.064  0.7382  0.0867  0.0107
   96SAPS   H8R 9527   1.226   3.603   6.981 -1.0371 -1.0470  0.9267
   96SAPS   C29 9528   1.239   3.584   7.187  0.7357 -0.4444 -0.1848
   96SAPS   H9R 9529   1.130   3.593   7.181  0.5787 -2.7507 -2.2621
   96SAPS  C210 9530   1.310   3.564   7.315  0.8007  0.9941  0.2697
   96SAPS  H10R 9531   1.402   3.626   7.313 -0.5584  3.1236 -1.6116
   96SAPS  H10S 9532   1.316   3.453   7.311 -3.0390  0.6762 -1.5290
   96SAPS  C211 9533   1.230   3.608   7.440  1.1692  0.0896 -0.1635
   96SAPS  H11R 9534   1.157   3.535   7.477  1.6434  0.3565  1.3472
   96SAPS  C212 9535   1.221   3.729   7.496  0.4013 -0.0204 -0.0253
   96SAPS  H12R 9536   1.152   3.752   7.579 -1.6795 -3.4935 -0.5921
   96SAPS  C213 9537   1.289   3.852   7.442 -0.4650 -0.9215  0.3643
   96SAPS  H13R 9538   1.214   3.917   7.393  0.0552 -0.2634  0.4183
   96SAPS  H13S 9539   1.362   3.839   7.360  0.6887  1.2239  0.9579
   96SAPS  C214 9540   1.362   3.920   7.558 -0.3342 -1.0184 -0.4551
   96SAPS  H14R 9541   1.366   3.867   7.654 -0.0302 -0.6135 -0.2426
   96SAPS  C215 9542   1.417   4.047   7.553  0.4802 -0.0549  0.0733
   96SAPS  H15R 9543   1.491   4.074   7.629 -0.1173 -1.6824  1.2761
   96SAPS  C216 9544   1.415   4.149   7.445 -0.0102 -0.7827 -0.1355
   96SAPS  H16R 9545   1.391   4.100   7.348 -2.8423 -2.6153  1.3134
   96SAPS  H16S 9546   1.514   4.197   7.431  0.7555 -2.4926 -0.8936
   96SAPS  C217 9547   1.313   4.271   7.475 -0.4170 -0.2719  0.6242
   96SAPS  H17R 9548   1.205   4.245   7.487 -0.8832  1.9763  1.9404
   96SAPS  H17S 9549   1.314   4.333   7.383  1.1619 -1.0421  0.0813
   96SAPS  C218 9550   1.349   4.338   7.605 -0.5493  0.6883 -0.0471
   96SAPS  H18R 9551   1.459   4.351   7.617 -0.9319  4.8904  0.5476
   96SAPS  H18S 9552   1.317   4.273   7.689  0.6016 -0.8009 -0.7146
   96SAPS  C219 9553   1.292   4.476   7.634  0.5080  0.2863  0.1109
   96SAPS  H19R 9554   1.182   4.485   7.625  0.7056  0.9410 -2.4834
   96SAPS  H19S 9555   1.327   4.547   7.555 -2.3427  1.5463 -0.1606
   96SAPS  C220 9556   1.337   4.527   7.772 -0.2156 -0.8103 -0.2862
   96SAPS  H20R 9557   1.291   4.626   7.792  0.2385 -0.3325 -1.5003
   96SAPS  H20S 9558   1.448   4.532   7.774 -0.2389  0.4639 -1.1410
   96SAPS  H20T 9559   1.302   4.454   7.848 -0.4189 -0.5047 -0.0849
   96SAPS   C33 9560   1.997   3.601   7.124  0.4289  0.3499  0.6298
   96SAPS   H3X 9561   1.966   3.504   7.080  0.7579  0.0638  1.0262
   96SAPS   H3Y 9562   1.911   3.669   7.104  0.9424  1.0930  0.8958
   96SAPS   C34 9563   2.017   3.585   7.272 -0.2880 -0.2296 -0.4670
   96SAPS   H4X 9564   2.061   3.669   7.329 -0.8729  0.0410 -0.4024
   96SAPS   H4Y 9565   2.085   3.498   7.287  0.1683  0.2745  0.3945
   96SAPS   C35 9566   1.890   3.543   7.348 -0.1413  0.6257  0.1773
   96SAPS   H5X 9567   1.913   3.492   7.444 -0.2505 -0.8296 -0.5326
   96SAPS   H5Y 9568   1.838   3.478   7.274  3.4149 -1.1923 -0.9772
   96SAPS   C36 9569   1.820   3.674   7.383  0.0849 -0.2882  0.3361
   96SAPS   H6X 9570   1.711   3.662   7.404 -0.1756  0.3639 -0.5935
   96SAPS   H6Y 9571   1.841   3.760   7.316 -0.0480  0.0496  0.7201
   96SAPS   C37 9572   1.873   3.733   7.519  0.6338  0.2597 -0.1601
   96SAPS   H7X 9573   1.981   3.756   7.508  0.3966  1.1672 -0.6312
   96SAPS   H7Y 9574   1.856   3.664   7.605  1.8014 -1.4061 -1.2141
   96SAPS   C38 9575   1.813   3.877   7.543 -0.6416  1.0062 -0.2307
   96SAPS   H8X 9576   1.708   3.865   7.576 -0.1992 -1.2498  0.5087
   96SAPS   H8Y 9577   1.821   3.935   7.449 -0.3062  3.0777  1.0171
   96SAPS   C39 9578   1.900   3.940   7.652 -0.1964 -0.0201 -0.1916
   96SAPS   H9X 9579   2.002   3.956   7.612  1.2892  1.0198  3.5697
   96SAPS   H9Y 9580   1.932   3.876   7.736  2.7015  3.1646  1.3503
   96SAPS  C310 9581   1.850   4.069   7.718  0.1115 -0.4201  0.3662
   96SAPS  H10X 9582   1.818   4.134   7.634  2.6148 -1.3821 -1.4538
   96SAPS  H10Y 9583   1.934   4.125   7.764  0.7122 -1.4038  0.4961
   96SAPS  C311 9584   1.733   4.054   7.810  0.5346  0.8205 -0.0040
   96SAPS  H11X 9585   1.752   3.964   7.872  0.0410  1.9807  1.9388
   96SAPS  H11Y 9586   1.640   4.026   7.756  0.4524  1.9444 -0.4888
   96SAPS  C312 9587   1.711   4.178   7.890 -1.0402 -0.1376 -0.1181
   96SAPS  H12X 9588   1.716   4.261   7.816  0.5725  0.2288  0.3575
   96SAPS  H12Y 9589   1.803   4.192   7.951 -0.9191 -0.4498 -0.2239
   96SAPS  C313 9590   1.582   4.177   7.965  0.2572 -0.2447 -0.7569
   96SAPS  H13X 9591   1.570   4.087   8.028 -3.9562 -0.3580 -1.4495
   96SAPS  H13Y 9592   1.513   4.158   7.880 -0.1265  0.1780 -0.5377
   96SAPS  C314 9593   1.547   4.306   8.039 -0.1742  0.2080  0.5998
   96SAPS  H14X 9594   1.562   4.392   7.969 -0.9656 -1.5472 -1.8629
   96SAPS  H14Y 9595   1.618   4.318   8.123  0.5623  0.2242 -0.0090
   96SAPS  C315 9596   1.410   4.310   8.100  0.7055  0.5324 -0.1021
   96SAPS  H15X 9597   1.338   4.317   8.016 -2.7024  0.7618  2.6157
   96SAPS  H15Y 9598   1.396   4.405   8.157  2.1358 -1.0622  3.1614
   96SAPS  C316 9599   1.380   4.193   8.201  0.0392  0.0861  0.2702
   96SAPS  H16X 9600   1.445   4.212   8.289 -0.5312 -0.5766  0.8313
   96SAPS  H16Y 9601   1.401   4.091   8.163  0.1481  0.2052  0.0001
   96SAPS  C317 9602   1.243   4.191   8.255  0.9393 -0.2316 -0.0166
   96SAPS  H17X 9603   1.167   4.147   8.187  1.4150 -0.2709 -0.5392
   96SAPS  H17Y 9604   1.208   4.295   8.268 -1.5865 -0.6837 -2.2986
   96SAPS  C318 9605   1.227   4.112   8.385 -0.2713  0.0141  0.3442
   96SAPS  H18X 9606   1.276   4.170   8.466 -0.9084  0.6638  0.2617
   96SAPS  H18Y 9607   1.278   4.013   8.384  1.3641  0.8033  0.9022
   96SAPS  H18Z 9608   1.122   4.080   8.401  0.5156 -2.5719  0.8802
   97SAPS     N 9609   3.258   2.504   6.323 -0.4782  0.0289  1.0643
   97SAPS   HN1 9610   3.216   2.550   6.406 -0.3526  1.3117  0.4415
   97SAPS   HN2 9611   3.356   2.481   6.349 -0.3316  0.7419  1.1598
   97SAPS   HN3 9612   3.254   2.569   6.242  0.3473  0.2213  1.1779
   97SAPS   C12 9613   3.181   2.377   6.290  0.1951 -0.5503 -0.6557
   97SAPS  H12A 9614   3.076   2.402   6.285  0.0425 -0.2203  2.5586
   97SAPS   C13 9615   3.214   2.313   6.152 -0.3775  0.2151 -0.9930
   97SAPS  O13A 9616   3.287   2.373   6.068 -0.0546  0.5773  0.1954
   97SAPS  O13B 9617   3.150   2.208   6.127  0.7079 -0.0735  0.2430
   97SAPS   C11 9618   3.204   2.273   6.410 -0.5252  0.1499 -0.2086
   97SAPS  H11A 9619   3.141   2.182   6.400  1.0167 -0.8395 -1.4497
   97SAPS  H11B 9620   3.168   2.327   6.500 -0.7913 -0.4701  0.0633
   97SAPS     P 9621   3.380   2.110   6.527 -0.1715 -0.3385 -0.4265
   97SAPS   O13 9622   3.302   1.990   6.480 -0.9049  0.3249 -0.2567
   97SAPS   O14 9623   3.519   2.083   6.553 -0.1024  0.1174 -0.2511
   97SAPS   O12 9624   3.346   2.230   6.431 -0.3031 -0.3362 -0.6463
   97SAPS   O11 9625   3.307   2.153   6.660 -0.2186 -0.3143  0.4431
   97SAPS    C1 9626   3.324   2.286   6.715  0.1551 -0.9544  0.0205
   97SAPS    HA 9627   3.400   2.346   6.660 -0.1774 -0.2321  0.3356
   97SAPS    HB 9628   3.232   2.346   6.722  0.8545  0.1917 -0.3415
   97SAPS    C2 9629   3.360   2.268   6.865  0.7528  0.1234  0.2977
   97SAPS    HS 9630   3.447   2.200   6.857  0.4834 -0.4108  1.5710
   97SAPS   O21 9631   3.242   2.202   6.930 -0.5724 -0.8225 -0.2736
   97SAPS   C21 9632   3.269   2.112   7.015  0.2130  0.3477 -0.4712
   97SAPS   O22 9633   3.370   2.045   7.014 -0.4660  0.3407  0.1391
   97SAPS   C22 9634   3.143   2.088   7.098 -0.0534  0.5166 -0.1369
   97SAPS   H2R 9635   3.124   2.178   7.160 -0.1247  0.6881 -0.4080
   97SAPS   H2S 9636   3.050   2.089   7.037  0.0366  0.2037 -0.2775
   97SAPS    C3 9637   3.399   2.394   6.932  0.4961  0.2556 -0.4580
   97SAPS    HX 9638   3.321   2.472   6.916 -0.1540 -0.7054 -2.2154
   97SAPS    HY 9639   3.491   2.438   6.889  0.0281  0.0277 -1.7129
   97SAPS   O31 9640   3.404   2.369   7.071 -0.7701 -0.9403 -0.0688
   97SAPS   C31 9641   3.521   2.339   7.131 -0.1151  0.1132 -0.1736
   97SAPS   O32 9642   3.632   2.340   7.074 -0.0638  0.0898 -0.1122
   97SAPS   C32 9643   3.506   2.329   7.283  0.5032 -0.4878  0.9790
   97SAPS   H2X 9644   3.397   2.310   7.295  0.3570  0.5225  1.3445
   97SAPS   H2Y 9645   3.537   2.422   7.334  4.1052 -1.8850  1.6314
   97SAPS   C23 9646   3.146   1.953   7.178 -0.3197  0.2281 -0.8723
   97SAPS   H3R 9647   3.167   1.865   7.114  1.7731  1.7070 -2.3653
   97SAPS   H3S 9648   3.042   1.930   7.211 -0.1686  1.2866  0.3975
   97SAPS   C24 9649   3.239   1.949   7.303  0.1060  0.0764  0.0492
   97SAPS   H4R 9650   3.347   1.966   7.280  0.3654 -0.1651  1.0500
   97SAPS   H4S 9651   3.238   1.845   7.342 -0.7835 -0.3061 -0.9428
   97SAPS   C25 9652   3.200   2.052   7.403  0.5326 -0.0523 -0.3705
   97SAPS   H5R 9653   3.241   2.153   7.386  0.4121  0.9568  4.1147
   97SAPS   C26 9654   3.118   2.024   7.512 -0.1890 -0.1975  0.1679
   97SAPS   H6R 9655   3.093   2.102   7.585 -0.0443  0.1893 -0.1890
   97SAPS   C27 9656   3.068   1.886   7.548  0.1774  0.5279  0.4584
   97SAPS   H7R 9657   3.122   1.803   7.498  0.0851  2.2055 -2.6754
   97SAPS   H7S 9658   2.957   1.880   7.534  0.5393  0.1857 -3.2179
   97SAPS   C28 9659   3.094   1.861   7.691 -0.2125  0.6585 -0.6561
   97SAPS   H8R 9660   3.177   1.791   7.711 -0.9664 -0.0328  0.1118
   97SAPS   C29 9661   3.031   1.901   7.801  0.4430 -0.2039  0.1572
   97SAPS   H9R 9662   3.058   1.854   7.897  0.3271 -0.6423 -0.0222
   97SAPS  C210 9663   2.911   2.001   7.796 -0.2347  0.2721 -0.3388
   97SAPS  H10R 9664   2.884   2.048   7.699 -3.0032  0.5975  0.5131
   97SAPS  H10S 9665   2.946   2.094   7.846  1.0667  0.9303 -2.3379
   97SAPS  C211 9666   2.767   1.963   7.831 -0.4034 -0.2766 -0.4461
   97SAPS  H11R 9667   2.736   1.875   7.773 -1.2721 -0.9312  0.9513
   97SAPS  C212 9668   2.692   2.010   7.934  0.2108  0.2901  0.3633
   97SAPS  H12R 9669   2.593   1.968   7.958 -0.0560  0.9474  0.4424
   97SAPS  C213 9670   2.735   2.111   8.036 -0.1568  0.5894 -0.0550
   97SAPS  H13R 9671   2.641   2.134   8.090  1.2639  0.8462  2.4312
   97SAPS  H13S 9672   2.781   2.192   7.976 -0.9292  0.2539 -1.1443
   97SAPS  C214 9673   2.840   2.061   8.136  0.1356  0.1270 -0.2070
   97SAPS  H14R 9674   2.928   2.007   8.099 -0.7607  0.2819 -2.7432
   97SAPS  C215 9675   2.833   2.081   8.268  0.6915 -0.7267 -0.5842
   97SAPS  H15R 9676   2.902   2.028   8.335  1.0583 -0.0834 -0.4481
   97SAPS  C216 9677   2.727   2.163   8.338  0.1023  0.2422  0.1816
   97SAPS  H16R 9678   2.639   2.096   8.339  1.5113 -1.6983  1.3853
   97SAPS  H16S 9679   2.704   2.249   8.272 -0.3989  1.2180  1.5842
   97SAPS  C217 9680   2.747   2.217   8.479  0.3942  0.8657 -0.1391
   97SAPS  H17R 9681   2.825   2.296   8.480  0.8084  0.4926 -1.3313
   97SAPS  H17S 9682   2.792   2.136   8.541 -1.2095  0.6611  0.8126
   97SAPS  C218 9683   2.614   2.259   8.554 -0.5686  0.2706 -0.5241
   97SAPS  H18R 9684   2.545   2.331   8.503 -2.9527  0.2221  2.3481
   97SAPS  H18S 9685   2.640   2.312   8.648 -1.3107 -0.7542  0.2865
   97SAPS  C219 9686   2.532   2.141   8.605  0.4161  0.5344  0.6002
   97SAPS  H19R 9687   2.592   2.050   8.628  0.5826  0.9213  1.7644
   97SAPS  H19S 9688   2.458   2.110   8.528  3.2507  0.3390 -2.2112
   97SAPS  C220 9689   2.443   2.165   8.736 -0.6480 -0.2765  0.2435
   97SAPS  H20R 9690   2.509   2.224   8.803 -0.3574  0.5545 -0.7540
   97SAPS  H20S 9691   2.414   2.067   8.780 -3.0712 -0.9265 -2.4244
   97SAPS  H20T 9692   2.361   2.237   8.713  0.7496  1.0635 -0.7372
   97SAPS   C33 9693   3.604   2.210   7.333 -0.5275  0.4014  0.7920
   97SAPS   H3X 9694   3.705   2.257   7.333  0.6007 -1.8392  1.9388
   97SAPS   H3Y 9695   3.619   2.134   7.254 -0.6209  0.5223  0.6552
   97SAPS   C34 9696   3.559   2.154   7.464 -0.4150 -0.2753 -0.4288
   97SAPS   H4X 9697   3.619   2.065   7.490  1.2773  0.6031 -1.2265
   97SAPS   H4Y 9698   3.455   2.114   7.471  0.1205 -1.4564  2.3995
   97SAPS   C35 9699   3.577   2.252   7.575  0.2092 -0.5538 -0.2820
   97SAPS   H5X 9700   3.496   2.329   7.576  0.3060 -0.4590  1.3337
   97SAPS   H5Y 9701   3.675   2.304   7.577 -0.1084  0.3586  4.7285
   97SAPS   C36 9702   3.572   2.181   7.708  0.2007  0.1550  0.1410
   97SAPS   H6X 9703   3.665   2.123   7.725  1.4684  1.1674 -2.7205
   97SAPS   H6Y 9704   3.485   2.111   7.707  0.3077  0.0118 -1.4553
   97SAPS   C37 9705   3.562   2.282   7.816  0.0903 -0.3131 -0.6180
   97SAPS   H7X 9706   3.477   2.350   7.795  0.4453  0.3330 -0.0305
   97SAPS   H7Y 9707   3.656   2.341   7.805  1.4896 -2.6470 -2.0167
   97SAPS   C38 9708   3.532   2.235   7.961  0.1334  0.4860 -0.1732
   97SAPS   H8X 9709   3.526   2.324   8.027  1.0218 -0.1014  0.7329
   97SAPS   H8Y 9710   3.622   2.178   7.992  1.0377  1.0167 -1.7122
   97SAPS   C39 9711   3.417   2.138   7.974  0.1766  0.2239  0.2378
   97SAPS   H9X 9712   3.435   2.041   7.924  1.0415  0.9255 -0.8614
   97SAPS   H9Y 9713   3.333   2.188   7.922  0.6057  0.2052 -0.4847
   97SAPS  C310 9714   3.385   2.089   8.122  0.1048 -0.0203  0.2139
   97SAPS  H10X 9715   3.345   2.178   8.174 -1.1199  1.6947 -3.3516
   97SAPS  H10Y 9716   3.474   2.044   8.170  0.6161  2.1368  1.4026
   97SAPS  C311 9717   3.266   1.996   8.137 -0.1062  0.6243  0.5275
   97SAPS  H11X 9718   3.304   1.899   8.098  3.4638  2.3302 -0.6643
   97SAPS  H11Y 9719   3.182   2.029   8.073  1.0830  0.7327 -1.0188
   97SAPS  C312 9720   3.200   1.994   8.275  0.2765  0.1038  0.1687
   97SAPS  H12X 9721   3.096   1.957   8.268  0.5912 -1.0625  1.3295
   97SAPS  H12Y 9722   3.203   2.093   8.326  4.6032  0.3076 -0.0737
   97SAPS  C313 9723   3.266   1.908   8.383  0.3934  0.4512 -0.7883
   97SAPS  H13X 9724   3.357   1.969   8.401  1.1282 -0.0897 -2.4483
   97SAPS  H13Y 9725   3.297   1.806   8.352 -0.2719  0.1836 -0.5865
   97SAPS  C314 9726   3.176   1.911   8.509 -0.8322  0.3974 -0.5888
   97SAPS  H14X 9727   3.126   2.010   8.511  1.0237  1.3975 -0.8947
   97SAPS  H14Y 9728   3.226   1.902   8.608 -2.6961 -2.0379  0.2395
   97SAPS  C315 9729   3.073   1.799   8.512 -0.0862 -0.3353 -0.1567
   97SAPS  H15X 9730   3.121   1.698   8.514 -0.0883 -0.3330  0.0292
   97SAPS  H15Y 9731   3.009   1.799   8.421 -2.4413 -2.0368  1.3403
   97SAPS  C316 9732   2.982   1.806   8.635 -0.2985 -0.7155  0.0176
   97SAPS  H16X 9733   2.930   1.904   8.639  0.9393  0.0052 -0.8585
   97SAPS  H16Y 9734   3.049   1.799   8.723  0.0744  0.9733 -0.1138
   97SAPS  C317 9735   2.879   1.701   8.638  0.3654 -0.6131  0.2108
   97SAPS  H17X 9736   2.915   1.598   8.617 -0.9810 -0.9184 -0.7891
   97SAPS  H17Y 9737   2.818   1.727   8.549  0.7951 -0.6190 -0.0893
   97SAPS  C318 9738   2.794   1.699   8.762 -0.2865  0.7141 -0.1047
   97SAPS  H18X 9739   2.857   1.692   8.853 -0.7301 -3.3044  0.0894
   97SAPS  H18Y 9740   2.726   1.612   8.769  0.3766  0.2386  0.6134
   97SAPS  H18Z 9741   2.727   1.786   8.773 -0.1477  0.9073 -0.7117
   98SAPS     N 9742   0.864   0.792   6.465  0.1501 -0.3838 -0.1738
   98SAPS   HN1 9743   0.961   0.760   6.446  0.6636  0.3581  1.0753
   98SAPS   HN2 9744   0.855   0.879   6.522  1.6778  0.0262 -0.5202
   98SAPS   HN3 9745   0.808   0.728   6.523 -0.0185 -0.0353  0.0510
   98SAPS   C12 9746   0.794   0.814   6.341  0.2950 -0.1593 -0.2505
   98SAPS  H12A 9747   0.812   0.720   6.291 -0.2221  0.1946 -1.1447
   98SAPS   C13 9748   0.640   0.837   6.345  0.5540 -0.1428 -0.0653
   98SAPS  O13A 9749   0.584   0.832   6.460 -0.4571 -0.4870  0.2187
   98SAPS  O13B 9750   0.573   0.831   6.237  0.4793  0.2577 -0.1481
   98SAPS   C11 9751   0.853   0.940   6.267 -0.0143 -0.2631 -0.0530
   98SAPS  H11A 9752   0.790   0.949   6.175 -2.3955  2.1828  1.6473
   98SAPS  H11B 9753   0.957   0.921   6.235  0.0062  1.1986 -0.9951
   98SAPS     P 9754   0.954   1.154   6.367 -0.4728 -0.1765  0.0264
   98SAPS   O13 9755   1.074   1.090   6.415  0.6725  0.4715  0.0307
   98SAPS   O14 9756   0.962   1.227   6.239 -0.0937  1.1372  0.4145
   98SAPS   O12 9757   0.835   1.055   6.355 -0.0841  0.2332  0.0469
   98SAPS   O11 9758   0.904   1.256   6.473 -0.2870 -0.0582  0.4357
   98SAPS    C1 9759   0.825   1.226   6.585  0.4351 -1.0268  0.2739
   98SAPS    HA 9760   0.771   1.322   6.597  0.4290 -0.8808 -0.7725
   98SAPS    HB 9761   0.743   1.152   6.573 -0.4057 -0.3911  1.8977
   98SAPS    C2 9762   0.910   1.182   6.710  0.0757 -0.1457 -0.2085
   98SAPS    HS 9763   0.978   1.098   6.684 -1.0151 -0.2829 -3.0240
   98SAPS   O21 9764   0.822   1.143   6.824 -0.7977 -0.3455  0.0121
   98SAPS   C21 9765   0.778   1.022   6.799 -0.4124 -0.4709 -0.4781
   98SAPS   O22 9766   0.804   0.948   6.706  0.1865 -0.0329 -0.6385
   98SAPS   C22 9767   0.674   0.985   6.904  0.0334 -0.3708  0.3413
   98SAPS   H2R 9768   0.581   1.002   6.846  0.9065  2.7029 -0.3314
   98SAPS   H2S 9769   0.700   0.879   6.927  3.5119  0.5007  0.9010
   98SAPS    C3 9770   1.009   1.297   6.763  0.0766 -0.0626  0.8067
   98SAPS    HX 9771   0.972   1.398   6.736 -1.1020 -0.6186  0.2099
   98SAPS    HY 9772   1.106   1.283   6.711 -0.2521 -1.9891  0.6338
   98SAPS   O31 9773   1.034   1.274   6.900  0.0186  0.0138  0.1577
   98SAPS   C31 9774   0.952   1.339   6.983 -0.0195 -0.2617 -0.8956
   98SAPS   O32 9775   0.868   1.421   6.951  0.8386 -0.6767 -0.2625
   98SAPS   C32 9776   0.979   1.296   7.126 -0.1701 -0.7448 -0.4286
   98SAPS   H2X 9777   1.071   1.353   7.152 -0.3288 -0.8989  0.4938
   98SAPS   H2Y 9778   1.003   1.187   7.124 -1.1420 -0.9822  0.1863
   98SAPS   C23 9779   0.674   1.062   7.037  0.2110 -0.1044  0.2336
   98SAPS   H3R 9780   0.628   1.164   7.033 -0.3981 -0.2950  1.7774
   98SAPS   H3S 9781   0.780   1.074   7.068  0.3763 -1.0805  0.0485
   98SAPS   C24 9782   0.595   0.990   7.149 -0.3891  0.3718  0.0391
   98SAPS   H4R 9783   0.496   0.966   7.104 -0.4817  1.4552 -0.3685
   98SAPS   H4S 9784   0.577   1.070   7.224 -1.4954  1.6333 -1.5093
   98SAPS   C25 9785   0.675   0.867   7.209  0.5655  0.1607  0.1716
   98SAPS   H5R 9786   0.721   0.812   7.126  0.5206 -0.7544  0.7357
   98SAPS   C26 9787   0.714   0.837   7.332  0.1118  0.1186  0.2037
   98SAPS   H6R 9788   0.777   0.749   7.352  0.6137  0.3143 -0.5051
   98SAPS   C27 9789   0.696   0.918   7.457 -0.1064  0.2961  0.4433
   98SAPS   H7R 9790   0.605   0.880   7.507 -0.7740  0.7600 -0.3715
   98SAPS   H7S 9791   0.670   1.026   7.445 -1.8433 -0.2457 -1.1749
   98SAPS   C28 9792   0.820   0.908   7.537 -0.6479  1.0029 -0.0438
   98SAPS   H8R 9793   0.908   0.951   7.487 -0.3394  0.2919 -0.1178
   98SAPS   C29 9794   0.829   0.854   7.661 -0.5433  0.4268 -0.2899
   98SAPS   H9R 9795   0.927   0.866   7.710 -1.2385  1.7982  0.8588
   98SAPS  C210 9796   0.722   0.796   7.749 -0.0034  0.9026 -0.3964
   98SAPS  H10R 9797   0.625   0.811   7.697 -0.5242  0.7851  0.5163
   98SAPS  H10S 9798   0.719   0.844   7.850  1.9853 -1.4249  0.8759
   98SAPS  C211 9799   0.739   0.643   7.773  0.0188  0.0237 -0.1120
   98SAPS  H11R 9800   0.750   0.583   7.681 -1.2564 -0.9137  0.3156
   98SAPS  C212 9801   0.742   0.588   7.893 -0.6371 -0.3267 -0.2010
   98SAPS  H12R 9802   0.737   0.478   7.892 -1.1464 -0.3235  0.9281
   98SAPS  C213 9803   0.750   0.659   8.027 -0.2405 -0.2744 -0.4977
   98SAPS  H13R 9804   0.671   0.619   8.093 -1.8611 -0.4729 -2.4570
   98SAPS  H13S 9805   0.717   0.765   8.023 -0.8782 -0.5164 -2.5232
   98SAPS  C214 9806   0.885   0.672   8.087 -0.4726  0.6044  0.2903
   98SAPS  H14R 9807   0.959   0.721   8.022 -0.6757 -1.0471 -1.2950
   98SAPS  C215 9808   0.930   0.605   8.192  0.2830 -0.0134 -0.4229
   98SAPS  H15R 9809   1.035   0.611   8.225  0.3797  0.0053 -0.7336
   98SAPS  C216 9810   0.845   0.520   8.286  0.4665  0.6560 -0.3081
   98SAPS  H16R 9811   0.734   0.524   8.276  0.2394  1.1279  1.7775
   98SAPS  H16S 9812   0.855   0.567   8.387 -2.6627  0.4369  0.2119
   98SAPS  C217 9813   0.903   0.375   8.312  0.4873 -0.3380  0.5129
   98SAPS  H17R 9814   0.898   0.318   8.216  0.8286 -2.1467  1.5219
   98SAPS  H17S 9815   0.822   0.326   8.370 -1.5850 -0.8869 -2.5754
   98SAPS  C218 9816   1.038   0.364   8.382 -0.3719 -0.9239 -0.3908
   98SAPS  H18R 9817   1.115   0.417   8.323 -2.6457  1.1246 -1.6613
   98SAPS  H18S 9818   1.062   0.255   8.386  1.6413 -0.4970  1.2424
   98SAPS  C219 9819   1.043   0.426   8.519 -0.3745 -0.4014 -0.1939
   98SAPS  H19R 9820   1.097   0.354   8.585 -1.4056 -0.3104  0.7817
   98SAPS  H19S 9821   0.943   0.415   8.567 -0.3019 -1.3402 -0.2243
   98SAPS  C220 9822   1.105   0.564   8.526 -0.0564  0.1579 -0.3367
   98SAPS  H20R 9823   1.064   0.637   8.453 -0.2883 -0.0789 -0.4449
   98SAPS  H20S 9824   1.213   0.546   8.505 -0.0587 -2.2237  1.2421
   98SAPS  H20T 9825   1.078   0.606   8.625  3.2420 -0.4034  0.9436
   98SAPS   C33 9826   0.865   1.309   7.226  0.2406  0.0799  0.2537
   98SAPS   H3X 9827   0.772   1.253   7.203  0.7856 -1.8440  2.4291
   98SAPS   H3Y 9828   0.848   1.416   7.252 -1.7367  0.4361 -2.1502
   98SAPS   C34 9829   0.907   1.233   7.363  0.7269 -0.0598 -0.1976
   98SAPS   H4X 9830   0.909   1.123   7.354  1.0235  0.0441 -1.6403
   98SAPS   H4Y 9831   0.824   1.255   7.433  0.5411 -0.6524 -0.2317
   98SAPS   C35 9832   1.033   1.284   7.430 -0.5664 -0.0159  0.7984
   98SAPS   H5X 9833   1.038   1.395   7.425  0.6976 -0.0965 -0.3732
   98SAPS   H5Y 9834   1.119   1.242   7.373 -0.4003 -1.4478  2.0534
   98SAPS   C36 9835   1.038   1.233   7.576  0.2408  0.1789  0.0108
   98SAPS   H6X 9836   1.055   1.124   7.566  0.2508  0.0567  1.2426
   98SAPS   H6Y 9837   0.931   1.248   7.605  0.8417  1.2528  1.8861
   98SAPS   C37 9838   1.134   1.309   7.666 -0.5345  0.2314 -0.8225
   98SAPS   H7X 9839   1.091   1.405   7.700 -0.3259  0.3314 -0.8390
   98SAPS   H7Y 9840   1.217   1.350   7.605  1.7098 -0.4133  1.6052
   98SAPS   C38 9841   1.188   1.239   7.793 -0.5350 -0.5397  0.7903
   98SAPS   H8X 9842   1.281   1.293   7.821 -1.6274  0.9709  1.5914
   98SAPS   H8Y 9843   1.220   1.137   7.761 -0.0150  0.3212 -1.6720
   98SAPS   C39 9844   1.099   1.250   7.917  0.6955  0.5189 -0.3262
   98SAPS   H9X 9845   1.095   1.354   7.953 -0.6575  1.0269 -1.8036
   98SAPS   H9Y 9846   1.134   1.180   7.996 -1.1921 -0.4916 -0.3317
   98SAPS  C310 9847   0.958   1.196   7.879  0.0339 -1.1887 -0.1056
   98SAPS  H10X 9848   0.963   1.102   7.820 -0.2656 -1.4716  0.3159
   98SAPS  H10Y 9849   0.912   1.273   7.813  1.2055  0.7195  1.1915
   98SAPS  C311 9850   0.875   1.182   8.001  0.4861  0.1715 -0.3546
   98SAPS  H11X 9851   0.859   1.282   8.047  4.0232  0.1530  1.2249
   98SAPS  H11Y 9852   0.926   1.117   8.075 -1.6759 -1.5564 -0.2859
   98SAPS  C312 9853   0.736   1.115   7.981  0.5465  0.0173 -0.8107
   98SAPS  H12X 9854   0.686   1.136   8.079  4.2678  0.4395  1.1909
   98SAPS  H12Y 9855   0.752   1.008   7.956  2.3424  0.5383 -2.0643
   98SAPS  C313 9856   0.659   1.168   7.859 -0.8358  0.4000 -0.0101
   98SAPS  H13X 9857   0.713   1.136   7.767  1.6876 -0.5852  1.6947
   98SAPS  H13Y 9858   0.649   1.278   7.863 -2.7145  0.3568 -1.9218
   98SAPS  C314 9859   0.515   1.112   7.860 -0.9272 -0.0856  0.7910
   98SAPS  H14X 9860   0.449   1.182   7.915 -1.6767  1.5828 -2.0062
   98SAPS  H14Y 9861   0.519   1.004   7.888  4.2806 -0.8348 -1.7336
   98SAPS  C315 9862   0.461   1.104   7.716 -0.3301  0.6861 -0.5991
   98SAPS  H15X 9863   0.359   1.063   7.733  0.0120  0.8154  2.3460
   98SAPS  H15Y 9864   0.514   1.020   7.667  0.0451  0.7137 -0.2510
   98SAPS  C316 9865   0.473   1.233   7.641  0.1004 -0.7964  0.0347
   98SAPS  H16X 9866   0.579   1.233   7.607  0.4894  0.4468  1.1485
   98SAPS  H16Y 9867   0.456   1.321   7.708  0.7614  1.1372 -2.1815
   98SAPS  C317 9868   0.396   1.257   7.513 -0.0724 -0.1184 -0.4930
   98SAPS  H17X 9869   0.293   1.293   7.531  0.6660  0.5531  3.2926
   98SAPS  H17Y 9870   0.392   1.164   7.452 -0.2724 -1.7957  1.9368
   98SAPS  C318 9871   0.474   1.349   7.419 -0.3722 -0.6505 -0.2649
   98SAPS  H18X 9872   0.581   1.319   7.420  0.2844  1.4534  2.0623
   98SAPS  H18Y 9873   0.469   1.456   7.449 -1.0130 -1.0471  1.1545
   98SAPS  H18Z 9874   0.435   1.331   7.317 -2.5150 -1.5680  0.6387
   99SAPS     N 9875   5.802   5.993   6.335  0.3914 -0.9061  0.5878
   99SAPS   HN1 9876   5.736   5.914   6.318  1.0614 -1.6547  1.3664
   99SAPS   HN2 9877   5.831   5.994   6.435 -0.3073 -1.1219  0.7959
   99SAPS   HN3 9878   5.761   6.081   6.299 -1.1072 -1.9283 -0.3303
   99SAPS   C12 9879   5.930   5.966   6.250  0.8139 -0.2223  0.1959
   99SAPS  H12A 9880   5.978   5.885   6.303 -1.2072 -0.4744  1.7530
   99SAPS   C13 9881   5.918   5.939   6.096  0.2527 -0.0137 -0.5230
   99SAPS  O13A 9882   5.809   5.941   6.035 -0.1050  0.1819 -0.7067
   99SAPS  O13B 9883   6.029   5.926   6.034 -0.3186 -0.3782  0.4683
   99SAPS   C11 9884   6.017   6.095   6.272  0.4081 -0.3172  0.1259
   99SAPS  H11A 9885   5.968   6.176   6.213  2.1627  0.9463  0.3101
   99SAPS  H11B 9886   6.117   6.088   6.223  0.1991  0.4650 -0.4436
   99SAPS     P 9887   6.134   6.237   6.458  0.0639  0.0346  0.3131
   99SAPS   O13 9888   6.173   6.307   6.333  0.6196 -0.0039  0.4570
   99SAPS   O14 9889   6.080   6.324   6.561 -0.8714 -0.1348  0.5193
   99SAPS   O12 9890   6.022   6.136   6.407 -0.1467  0.6177 -0.1482
   99SAPS   O11 9891   6.250   6.144   6.521  0.2753 -0.0266 -0.0125
   99SAPS    C1 9892   6.206   6.014   6.563 -0.6085  0.6038 -0.5554
   99SAPS    HA 9893   6.103   6.007   6.606 -1.1494  1.4224 -1.6729
   99SAPS    HB 9894   6.204   5.943   6.477  0.2453  0.8627 -0.7891
   99SAPS    C2 9895   6.304   5.961   6.672  0.5917 -0.0003 -0.4534
   99SAPS    HS 9896   6.251   5.872   6.714  0.0639 -0.7303 -2.5718
   99SAPS   O21 9897   6.310   6.062   6.776 -0.5163 -0.5553  0.0355
   99SAPS   C21 9898   6.206   6.065   6.859 -0.1574  0.3495  0.2255
   99SAPS   O22 9899   6.124   5.976   6.864 -0.1236 -0.5026  0.1580
   99SAPS   C22 9900   6.212   6.195   6.936 -0.7847  0.8248 -0.3975
   99SAPS   H2R 9901   6.303   6.197   7.000  0.2214 -0.2705 -1.7178
   99SAPS   H2S 9902   6.211   6.281   6.865 -0.7367  2.8498  1.9368
   99SAPS    C3 9903   6.444   5.916   6.623  0.1357  0.4088  0.3102
   99SAPS    HX 9904   6.516   6.001   6.617 -0.2626  0.6662 -1.2911
   99SAPS    HY 9905   6.435   5.871   6.522 -1.6031 -2.1776  1.5080
   99SAPS   O31 9906   6.506   5.822   6.715  0.4244  0.3628 -0.1141
   99SAPS   C31 9907   6.474   5.700   6.700 -0.2916 -0.3917 -0.3298
   99SAPS   O32 9908   6.381   5.661   6.631  0.5817  0.9022 -0.1816
   99SAPS   C32 9909   6.564   5.618   6.796  0.0992  0.3401 -1.0503
   99SAPS   H2X 9910   6.654   5.676   6.824 -0.2165 -0.2178  1.2981
   99SAPS   H2Y 9911   6.611   5.534   6.740  1.4730  0.4787 -0.1388
   99SAPS   C23 9912   6.092   6.209   7.033  0.8905 -0.1812  0.1122
   99SAPS   H3R 9913   6.075   6.127   7.106 -1.9869  0.1119 -0.1093
   99SAPS   H3S 9914   5.999   6.211   6.972  0.3841  1.2927  0.8564
   99SAPS   C24 9915   6.087   6.351   7.101 -0.2931 -0.3717 -0.7577
   99SAPS   H4R 9916   6.114   6.428   7.025 -1.1181  0.4560 -0.2331
   99SAPS   H4S 9917   6.158   6.345   7.186 -1.6110 -2.7906  0.2785
   99SAPS   C25 9918   5.964   6.411   7.174 -0.7614 -0.3436 -0.1778
   99SAPS   H5R 9919   5.926   6.507   7.136 -1.9204  0.1973  2.1592
   99SAPS   C26 9920   5.922   6.373   7.297  0.9286  0.1901  0.0827
   99SAPS   H6R 9921   5.852   6.439   7.349  0.4194  0.6581 -1.1483
   99SAPS   C27 9922   5.985   6.253   7.375 -0.1139 -0.4400 -0.0328
   99SAPS   H7R 9923   6.054   6.198   7.308 -1.7954 -0.2603 -1.9830
   99SAPS   H7S 9924   5.901   6.187   7.405 -0.2050 -0.8859 -1.2259
   99SAPS   C28 9925   6.072   6.292   7.492 -0.2035 -0.1841  0.0901
   99SAPS   H8R 9926   6.119   6.391   7.484 -2.0435  0.7562  0.2034
   99SAPS   C29 9927   6.095   6.225   7.605 -0.8540  0.2770  0.0943
   99SAPS   H9R 9928   6.155   6.275   7.683  0.2721  1.2664 -1.3473
   99SAPS  C210 9929   6.054   6.087   7.652  0.3949 -0.2142  0.0817
   99SAPS  H10R 9930   6.136   6.045   7.713 -0.5750 -1.1787  0.7674
   99SAPS  H10S 9931   6.024   6.020   7.569 -1.3159 -0.0654  0.5249
   99SAPS  C211 9932   5.927   6.093   7.730 -0.9455  1.0395 -0.6663
   99SAPS  H11R 9933   5.837   6.095   7.668 -1.8962 -0.2076  0.5985
   99SAPS  C212 9934   5.917   6.126   7.862  0.9866 -0.1090 -0.0022
   99SAPS  H12R 9935   5.814   6.139   7.897  0.4320 -2.6848 -0.4704
   99SAPS  C213 9936   6.029   6.148   7.960 -0.0911 -0.0052  0.0968
   99SAPS  H13R 9937   5.983   6.191   8.051  0.1889  1.1260 -0.2830
   99SAPS  H13S 9938   6.105   6.224   7.934 -0.3112  0.4392  0.7454
   99SAPS  C214 9939   6.101   6.017   7.996 -0.2387  0.6309 -0.2882
   99SAPS  H14R 9940   6.048   5.927   7.961  0.2891  0.1038  0.2337
   99SAPS  C215 9941   6.228   6.008   8.041  0.0466  0.4146  0.5436
   99SAPS  H15R 9942   6.269   5.906   8.046 -3.0519 -1.0339 -1.3919
   99SAPS  C216 9943   6.322   6.122   8.072 -0.0803  0.7320 -0.2148
   99SAPS  H16R 9944   6.281   6.225   8.079 -1.6213  0.1915 -0.8834
   99SAPS  H16S 9945   6.398   6.118   7.991  0.5698 -1.9826  0.4221
   99SAPS  C217 9946   6.387   6.102   8.209  0.1638  0.4662  0.2738
   99SAPS  H17R 9947   6.475   6.168   8.219  0.5712 -0.0184 -0.1135
   99SAPS  H17S 9948   6.417   5.996   8.219 -0.9753  0.2648  2.1027
   99SAPS  C218 9949   6.293   6.123   8.330 -0.5640  0.0797  0.5454
   99SAPS  H18R 9950   6.230   6.032   8.341  0.6042 -1.1225 -1.8575
   99SAPS  H18S 9951   6.234   6.217   8.328 -1.0773 -0.2392  0.4859
   99SAPS  C219 9952   6.376   6.144   8.461  1.1576 -0.2896  0.7294
   99SAPS  H19R 9953   6.301   6.142   8.544 -0.1194 -0.4745 -0.3914
   99SAPS  H19S 9954   6.422   6.244   8.460  1.3854 -0.3828 -1.1477
   99SAPS  C220 9955   6.474   6.018   8.478  0.0048 -0.3659  0.4568
   99SAPS  H20R 9956   6.423   5.922   8.455  1.5827 -1.1096 -0.0718
   99SAPS  H20S 9957   6.515   6.006   8.581 -1.1184  1.1518  1.1134
   99SAPS  H20T 9958   6.562   6.023   8.411 -1.7981  1.5971 -1.9542
   99SAPS   C33 9959   6.504   5.565   6.925  0.7735 -0.9563  0.6713
   99SAPS   H3X 9960   6.572   5.489   6.970  1.3095 -1.8270 -1.5291
   99SAPS   H3Y 9961   6.415   5.501   6.914  0.6297 -0.9826  1.8202
   99SAPS   C34 9962   6.462   5.674   7.020  0.0738  0.1898  0.2993
   99SAPS   H4X 9963   6.374   5.735   6.991  2.3860  2.8467 -1.8434
   99SAPS   H4Y 9964   6.544   5.749   7.023  0.4843 -0.2541  0.3059
   99SAPS   C35 9965   6.450   5.616   7.157 -1.7860  0.4205  0.5602
   99SAPS   H5X 9966   6.530   5.549   7.195 -1.1083  0.4778 -0.7124
   99SAPS   H5Y 9967   6.368   5.544   7.137 -0.5658 -0.3748 -2.1066
   99SAPS   C36 9968   6.419   5.717   7.259 -0.5673  0.1173  0.8358
   99SAPS   H6X 9969   6.342   5.789   7.225 -0.5782  1.0052  2.6250
   99SAPS   H6Y 9970   6.506   5.782   7.283 -1.7954  1.5107  1.6443
   99SAPS   C37 9971   6.372   5.656   7.393  0.2010 -0.1396 -0.8062
   99SAPS   H7X 9972   6.436   5.570   7.422 -1.4794 -1.1243  0.1220
   99SAPS   H7Y 9973   6.276   5.601   7.399 -0.2232  0.7685  1.4480
   99SAPS   C38 9974   6.358   5.772   7.500 -0.2729 -0.0944  0.1955
   99SAPS   H8X 9975   6.312   5.857   7.445  0.1012  0.3341  0.5413
   99SAPS   H8Y 9976   6.462   5.801   7.527 -1.4111  2.1246  2.7090
   99SAPS   C39 9977   6.274   5.740   7.621  0.3856  0.0354  0.6684
   99SAPS   H9X 9978   6.177   5.699   7.585  0.0564  0.2300  1.3217
   99SAPS   H9Y 9979   6.260   5.830   7.683  2.3847 -0.9606  2.7107
   99SAPS  C310 9980   6.337   5.637   7.718  0.1807  0.0318 -0.0920
   99SAPS  H10X 9981   6.435   5.665   7.762  1.5630 -3.2878 -0.8167
   99SAPS  H10Y 9982   6.366   5.543   7.667  1.5937  0.4475 -0.0877
   99SAPS  C311 9983   6.235   5.576   7.820 -0.0360 -0.2158  0.0972
   99SAPS  H11X 9984   6.166   5.497   7.782  1.5877 -1.4614 -0.4312
   99SAPS  H11Y 9985   6.174   5.666   7.843 -0.1784  0.1397 -1.5637
   99SAPS  C312 9986   6.303   5.533   7.948 -0.6687  0.1021  0.8440
   99SAPS  H12X 9987   6.361   5.620   7.988 -2.8269  2.7435 -1.3957
   99SAPS  H12Y 9988   6.368   5.448   7.920 -0.3267  0.7687 -0.4375
   99SAPS  C313 9989   6.204   5.496   8.057  0.3570  0.1608  0.1101
   99SAPS  H13X 9990   6.251   5.452   8.147 -2.1373 -0.9545  0.9592
   99SAPS  H13Y 9991   6.131   5.426   8.010  0.2540  2.7457 -4.1443
   99SAPS  C314 9992   6.117   5.612   8.107 -0.0369 -0.2298 -0.1033
   99SAPS  H14X 9993   6.040   5.643   8.034 -0.9881 -0.0701  0.9450
   99SAPS  H14Y 9994   6.182   5.700   8.128 -1.2137  1.1878 -2.1614
   99SAPS  C315 9995   6.035   5.580   8.239 -0.1203 -0.3448  0.8600
   99SAPS  H15X 9996   5.977   5.488   8.214 -1.3684  0.8215 -0.7825
   99SAPS  H15Y 9997   5.961   5.663   8.250  0.7910  0.9717 -1.9258
   99SAPS  C316 9998   6.124   5.572   8.365  0.0812  0.0406 -0.2518
   99SAPS  H16X 9999   6.162   5.677   8.361 -1.6579  0.6763 -1.1597
   99SAPS  H16Y10000   6.203   5.501   8.333 -1.7517 -2.1591 -0.0933
   99SAPS  C31710001   6.048   5.547   8.496 -0.0846  0.2776 -0.0409
   99SAPS  H17X10002   6.017   5.441   8.495  1.0281 -0.0674  0.3444
   99SAPS  H17Y10003   5.963   5.618   8.501 -0.1632  0.1723  0.1115
   99SAPS  C31810004   6.133   5.569   8.619 -0.0370  0.1932 -0.6041
   99SAPS  H18X10005   6.236   5.527   8.621  0.3148  1.0557 -0.3518
   99SAPS  H18Y10006   6.077   5.527   8.705 -0.7706  1.7196 -0.3096
   99SAPS  H18Z10007   6.131   5.678   8.636  1.2885  0.2525 -0.6959
  100SAPS     N10008   3.267   1.132   6.178  0.8254  0.1703  0.4615
  100SAPS   HN110009   3.166   1.116   6.194  0.2834  1.8326 -1.0139
  100SAPS   HN210010   3.300   1.212   6.237 -0.1239 -0.7830  2.3838
  100SAPS   HN310011   3.279   1.151   6.077 -2.7434 -0.3476 -0.1679
  100SAPS   C1210012   3.341   1.011   6.225  0.7930 -0.3091  0.4592
  100SAPS  H12A10013   3.325   0.925   6.161  1.7382 -1.6209  1.8985
  100SAPS   C1310014   3.492   1.029   6.235  0.7524 -0.4384  0.3327
  100SAPS  O13A10015   3.541   1.141   6.222  0.4782 -0.3608  0.3241
  100SAPS  O13B10016   3.557   0.937   6.293  0.4064 -0.5724  0.8233
  100SAPS   C1110017   3.275   0.984   6.367  0.1786  0.0180  0.1379
  100SAPS  H11A10018   3.322   1.055   6.439  3.2893 -1.2262 -0.4851
  100SAPS  H11B10019   3.315   0.890   6.411  0.5843  0.3789  0.5663
  100SAPS     P10020   3.035   0.877   6.441 -0.1712  0.2394 -0.1952
  100SAPS   O1310021   2.894   0.921   6.434 -0.0701  0.0960  0.2107
  100SAPS   O1410022   3.067   0.744   6.382 -0.2913 -0.3550 -0.1242
  100SAPS   O1210023   3.130   0.981   6.367 -0.3965 -0.2304 -0.0439
  100SAPS   O1110024   3.084   0.886   6.593  0.3002 -0.4692  1.4377
  100SAPS    C110025   3.194   0.812   6.638  0.1451  0.0093  0.1083
  100SAPS    HA10026   3.223   0.735   6.563  0.7333  1.8172 -1.6039
  100SAPS    HB10027   3.278   0.884   6.650  1.1805 -1.3056  1.0305
  100SAPS    C210028   3.174   0.740   6.776  0.1584  0.0176  0.0512
  100SAPS    HS10029   3.220   0.639   6.773 -2.6027 -1.3041 -2.0727
  100SAPS   O2110030   3.032   0.712   6.794  0.5084  0.2806 -0.3529
  100SAPS   C2110031   2.971   0.609   6.729 -0.4038  0.0357  0.2224
  100SAPS   O2210032   3.030   0.519   6.669 -0.0055 -0.5595  0.6966
  100SAPS   C2210033   2.820   0.608   6.762  0.3235  0.1681  0.2614
  100SAPS   H2R10034   2.767   0.687   6.704  0.2097 -0.6995 -0.8584
  100SAPS   H2S10035   2.783   0.508   6.731  2.2248 -0.4927  0.0481
  100SAPS    C310036   3.214   0.832   6.897 -0.6177  0.1917  0.9321
  100SAPS    HX10037   3.148   0.922   6.893 -0.0164  0.6317  0.5828
  100SAPS    HY10038   3.319   0.863   6.875 -0.5765 -1.2470 -1.1572
  100SAPS   O3110039   3.197   0.767   7.022 -0.1952 -0.9278 -0.4099
  100SAPS   C3110040   3.271   0.667   7.044  0.5231 -0.1874  0.3942
  100SAPS   O3210041   3.360   0.623   6.974 -0.2086  1.3317  0.1237
  100SAPS   C3210042   3.245   0.617   7.190 -0.3952 -0.3139  0.1249
  100SAPS   H2X10043   3.187   0.523   7.180 -1.8861  0.7145 -1.8391
  100SAPS   H2Y10044   3.180   0.689   7.244  0.6167  0.3452  0.4844
  100SAPS   C2310045   2.794   0.623   6.909  0.2449 -0.2489 -0.3369
  100SAPS   H3R10046   2.722   0.706   6.926  0.8387  0.1672  0.1834
  100SAPS   H3S10047   2.884   0.646   6.969 -0.2451  0.2528  0.2202
  100SAPS   C2410048   2.718   0.501   6.980 -0.2164  0.6233 -1.1870
  100SAPS   H4R10049   2.758   0.400   6.959  0.6452  0.6278  0.3441
  100SAPS   H4S10050   2.615   0.496   6.939 -0.6426 -0.2075 -0.0567
  100SAPS   C2510051   2.707   0.524   7.131 -0.3640 -0.7650  0.6025
  100SAPS   H5R10052   2.676   0.627   7.150 -1.4340 -0.8660 -0.5072
  100SAPS   C2610053   2.708   0.434   7.230 -0.2273 -0.2715  0.3210
  100SAPS   H6R10054   2.687   0.483   7.327 -1.1515  0.6478 -0.3166
  100SAPS   C2710055   2.726   0.280   7.227 -0.3825  0.0879  0.0422
  100SAPS   H7R10056   2.728   0.255   7.119 -2.3922  1.8535 -0.4814
  100SAPS   H7S10057   2.634   0.231   7.266  0.9526 -2.4117  0.2680
  100SAPS   C2810058   2.838   0.230   7.316 -0.0373  0.1519  0.1153
  100SAPS   H8R10059   2.931   0.206   7.262  0.0168  1.0186 -0.2077
  100SAPS   C2910060   2.833   0.203   7.454 -0.2397  0.0266 -0.2159
  100SAPS   H9R10061   2.926   0.161   7.496  0.2388  0.8477 -0.4336
  100SAPS  C21010062   2.725   0.225   7.551  0.0218 -0.1648  0.0898
  100SAPS  H10R10063   2.656   0.138   7.559  1.2746 -1.2656 -0.7575
  100SAPS  H10S10064   2.671   0.318   7.524  1.0669  1.3091  2.6518
  100SAPS  C21110065   2.778   0.251   7.691  0.6497  0.6647  0.5917
  100SAPS  H11R10066   2.811   0.164   7.750 -0.0170 -0.6813 -0.9280
  100SAPS  C21210067   2.763   0.371   7.754 -0.7575  0.1936 -0.5056
  100SAPS  H12R10068   2.821   0.377   7.848 -1.4534 -2.2193  0.1419
  100SAPS  C21310069   2.703   0.503   7.705  0.6422  0.1593 -0.1722
  100SAPS  H13R10070   2.743   0.543   7.609  0.7741  1.2366  0.3178
  100SAPS  H13S10071   2.720   0.586   7.777  0.4950 -0.7488  0.9322
  100SAPS  C21410072   2.557   0.489   7.670  0.2710 -0.2395  0.2311
  100SAPS  H14R10073   2.505   0.395   7.693 -0.0848 -0.4459 -1.2868
  100SAPS  C21510074   2.484   0.576   7.596  0.2196  1.0027  0.1323
  100SAPS  H15R10075   2.380   0.560   7.566  0.6182 -1.1763 -0.2656
  100SAPS  C21610076   2.543   0.707   7.538 -0.3789 -0.3457  0.1426
  100SAPS  H16R10077   2.590   0.676   7.442 -1.2207 -0.2205 -0.3176
  100SAPS  H16S10078   2.639   0.729   7.590  1.4741 -2.0787 -2.3358
  100SAPS  C21710079   2.447   0.825   7.538  0.4413 -0.0903 -0.3268
  100SAPS  H17R10080   2.355   0.791   7.486  0.6392  0.8386 -1.3111
  100SAPS  H17S10081   2.481   0.913   7.480 -3.0429  0.0114 -2.5253
  100SAPS  C21810082   2.400   0.866   7.673 -0.9659 -0.3979 -0.9701
  100SAPS  H18R10083   2.368   0.790   7.747 -2.3622  0.2934 -0.8401
  100SAPS  H18S10084   2.313   0.931   7.652 -1.9389 -1.5130 -0.4435
  100SAPS  C21910085   2.493   0.958   7.750  0.2610 -0.5417  0.2467
  100SAPS  H19R10086   2.528   1.042   7.685  2.2323 -1.0547  0.5753
  100SAPS  H19S10087   2.585   0.899   7.771  0.3980  0.0338  1.3230
  100SAPS  C22010088   2.431   1.000   7.877 -0.3448 -0.7533 -0.4946
  100SAPS  H20R10089   2.422   0.901   7.927  0.4142  0.1529  1.6004
  100SAPS  H20S10090   2.329   1.044   7.866 -0.8032 -1.0956  1.8230
  100SAPS  H20T10091   2.493   1.071   7.936  0.2974  0.5913 -2.7070
  100SAPS   C3310092   3.372   0.606   7.271  0.4051  0.1587 -0.0519
  100SAPS   H3X10093   3.429   0.701   7.265  0.5756 -0.0109 -1.5406
  100SAPS   H3Y10094   3.436   0.532   7.217  1.8729  0.1152  1.6640
  100SAPS   C3410095   3.367   0.546   7.411  0.0558  0.2324 -0.7549
  100SAPS   H4X10096   3.467   0.560   7.456 -0.6734  0.4346  0.8503
  100SAPS   H4Y10097   3.353   0.436   7.405  3.9108 -0.4102 -0.4800
  100SAPS   C3510098   3.265   0.608   7.505 -0.1299  0.0872 -0.4146
  100SAPS   H5X10099   3.165   0.614   7.457 -0.5964 -0.1622  0.4863
  100SAPS   H5Y10100   3.297   0.708   7.540  1.1755 -0.9831  1.6798
  100SAPS   C3610101   3.240   0.509   7.622 -0.4394  0.1660  0.3651
  100SAPS   H6X10102   3.347   0.499   7.649 -0.5775  0.8654  1.2465
  100SAPS   H6Y10103   3.204   0.415   7.575  0.2256 -0.0984  0.3797
  100SAPS   C3710104   3.151   0.563   7.733  0.2791  0.1279 -0.3197
  100SAPS   H7X10105   3.043   0.551   7.712 -0.2715  0.8892  1.7864
  100SAPS   H7Y10106   3.171   0.671   7.751 -0.4399  0.6625 -2.4421
  100SAPS   C3810107   3.174   0.493   7.865 -0.2514  0.0056 -0.2765
  100SAPS   H8X10108   3.282   0.498   7.888 -0.2744 -0.0347 -0.1609
  100SAPS   H8Y10109   3.153   0.387   7.840  0.2119 -0.0062 -0.6291
  100SAPS   C3910110   3.097   0.529   7.989  0.0574 -0.8242  0.1813
  100SAPS   H9X10111   2.987   0.538   7.978 -0.2849 -0.4349  3.0639
  100SAPS   H9Y10112   3.125   0.633   8.017  0.4539 -0.9193  0.1369
  100SAPS  C31010113   3.116   0.431   8.101 -0.8065 -0.3237 -0.4937
  100SAPS  H10X10114   3.223   0.442   8.131 -0.9551 -4.2035  2.2080
  100SAPS  H10Y10115   3.104   0.327   8.063  0.8543 -0.2305 -1.3966
  100SAPS  C31110116   3.047   0.451   8.240 -0.6222 -0.0748 -0.4259
  100SAPS  H11X10117   2.937   0.448   8.229 -0.7495  2.2742 -0.2022
  100SAPS  H11Y10118   3.072   0.549   8.285 -0.3211 -1.3479  2.3930
  100SAPS  C31210119   3.102   0.348   8.344 -0.0971 -0.1066  0.4108
  100SAPS  H12X10120   3.213   0.359   8.345 -0.2281  1.3664  0.5321
  100SAPS  H12Y10121   3.077   0.241   8.327  1.2832 -0.3829 -0.0342
  100SAPS  C31310122   3.056   0.375   8.494 -0.3693  0.5807 -0.8581
  100SAPS  H13X10123   3.091   0.476   8.522 -0.4876  1.3573 -3.2570
  100SAPS  H13Y10124   3.107   0.293   8.549 -0.2222  1.2352 -0.0051
  100SAPS  C31410125   2.906   0.372   8.525  0.1363 -0.5723 -0.0347
  100SAPS  H14X10126   2.862   0.300   8.452  0.9679  0.3949 -1.5398
  100SAPS  H14Y10127   2.860   0.467   8.491 -1.4250 -0.2054  2.8598
  100SAPS  C31510128   2.865   0.335   8.671 -0.2212 -0.1031  0.2302
  100SAPS  H15X10129   2.754   0.349   8.672 -0.1092  0.8207  0.3985
  100SAPS  H15Y10130   2.923   0.396   8.744  1.3673 -0.7991 -0.4120
  100SAPS  C31610131   2.885   0.193   8.706  0.5222 -0.1629  0.2718
  100SAPS  H16X10132   2.871   0.182   8.816  1.2506  1.9403  0.6194
  100SAPS  H16Y10133   2.982   0.152   8.670 -0.4201 -2.4190  0.0879
  100SAPS  C31710134   2.772   0.105   8.642 -0.8921 -0.1606  0.0720
  100SAPS  H17X10135   2.755   0.124   8.534 -0.7377 -0.6675 -0.0438
  100SAPS  H17Y10136   2.681   0.151   8.686 -0.2300  0.6284  0.6663
  100SAPS  C31810137   2.759  -0.045   8.679  0.5246 -0.6705  0.1227
  100SAPS  H18X10138   2.831  -0.094   8.611  0.5611 -0.0711 -0.2707
  100SAPS  H18Y10139   2.656  -0.084   8.664  0.8904 -1.6507  0.0306
  100SAPS  H18Z10140   2.782  -0.058   8.787 -0.1441  2.0576  0.6673
  101OSM      N10141   0.751   5.210  11.238  0.0697  0.1721 -0.6436
  101OSM    C1510142   0.689   5.184  11.370  0.2674  0.1521 -0.1339
  101OSM   H15A10143   0.592   5.138  11.358  0.3379 -0.7228  2.1958
  101OSM   H15B10144   0.690   5.268  11.438  2.2487  2.1470 -2.4392
  101OSM   H15C10145   0.757   5.112  11.413 -0.5528 -1.3295 -1.2359
  101OSM    C1410146   0.885   5.278  11.254  0.2646 -0.3878  0.2759
  101OSM   H14A10147   0.952   5.220  11.316 -1.6719 -1.5875  1.3477
  101OSM   H14B10148   0.873   5.375  11.301  1.3184  0.4357 -1.0769
  101OSM   H14C10149   0.930   5.293  11.157 -0.9226  3.7721  0.1566
  101OSM    C1310150   0.791   5.075  11.174  0.8409 -0.8536 -0.5487
  101OSM   H13A10151   0.713   5.000  11.169 -1.8292  1.7024 -0.3450
  101OSM   H13B10152   0.884   5.042  11.217  0.8716  0.4980  0.5062
  101OSM   H13C10153   0.825   5.100  11.074 -0.8269  2.6118 -0.4237
  101OSM    C1210154   0.660   5.294  11.156  0.1991  0.1551  0.4522
  101OSM   H12A10155   0.634   5.378  11.217 -0.0446  0.3951  0.0250
  101OSM   H12B10156   0.566   5.242  11.144  0.0812  0.0157  1.8081
  101OSM    C1110157   0.703   5.342  11.015 -0.1136 -0.3941  0.0103
  101OSM   H11A10158   0.617   5.387  10.961 -0.9134  0.8720  2.2475
  101OSM   H11B10159   0.734   5.252  10.957  0.0631 -0.4577  0.2036
  101OSM      P10160   0.800   5.582  11.077  0.0282 -0.3044 -0.0484
  101OSM    O1310161   0.740   5.571  11.208  0.5960  0.0313  0.2100
  101OSM    O1410162   0.931   5.646  11.062  0.1214  1.0053  0.4260
  101OSM    O1110163   0.700   5.657  10.984  0.2486 -0.1169 -0.2430
  101OSM    O1210164   0.807   5.438  11.018 -0.0471  0.0986  0.7978
  101OSM    C1S10165   0.713   5.660  10.843  0.0584 -0.4240 -0.5212
  101OSM    H1S10166   0.772   5.573  10.808 -0.3685 -1.8724  2.0879
  101OSM    H1T10167   0.772   5.746  10.805 -0.4255  0.9141  1.5749
  101OSM     NF10168   0.588   5.676  10.627 -0.7417  0.0735  0.2240
  101OSM    HNF10169   0.571   5.760  10.575  0.3451  0.3980  0.3699
  101OSM    C2S10170   0.576   5.662  10.772  0.2812 -0.3779 -0.1354
  101OSM    H2S10171   0.526   5.565  10.792 -1.6493  0.0775 -2.3189
  101OSM    C3S10172   0.491   5.769  10.835 -0.3011  0.1124 -0.2378
  101OSM    H3S10173   0.550   5.863  10.839  0.4454 -0.2371 -2.1062
  101OSM     O310174   0.442   5.748  10.970  0.4430 -0.2375 -0.1506
  101OSM    HO310175   0.502   5.691  11.018  1.1167  1.4188  1.0956
  101OSM    C4S10176   0.373   5.791  10.747 -0.1827  0.3056  0.5153
  101OSM    H4S10177   0.368   5.878  10.680 -1.5217  1.3981  1.9688
  101OSM    C5S10178   0.255   5.714  10.748  0.1564  0.4312 -0.6824
  101OSM    H5S10179   0.246   5.647  10.835  2.5152 -1.1026 -1.5293
  101OSM    C6S10180   0.127   5.731  10.667  0.0082  0.0431  0.0321
  101OSM    H6S10181   0.063   5.807  10.717 -0.6981 -0.6691  0.2401
  101OSM    H6T10182   0.062   5.640  10.674  0.1281 -0.0863 -0.4808
  101OSM    C7S10183   0.156   5.755  10.515  0.8432 -0.0367  0.1812
  101OSM    H7S10184   0.240   5.691  10.480  0.1588  0.0827 -1.8538
  101OSM    H7T10185   0.191   5.859  10.492  0.3723  0.5244  1.8701
  101OSM    C8S10186   0.035   5.721  10.431  0.2449  0.0514  0.2439
  101OSM    H8S10187  -0.054   5.778  10.464 -0.7948 -0.9239 -0.7581
  101OSM    H8T10188   0.004   5.616  10.449  1.2475 -0.1027  1.1785
  101OSM    C9S10189   0.046   5.744  10.279  0.3381  0.0942 -0.1194
  101OSM    H9S10190   0.105   5.657  10.242 -1.1518 -1.8077  1.7312
  101OSM    H9T10191   0.095   5.842  10.263 -0.2273  0.5055  0.6375
  101OSM   C10S10192  -0.081   5.748  10.197 -0.0970 -0.0095  0.7889
  101OSM   H10S10193  -0.148   5.809  10.262  0.7694 -1.5271  3.2532
  101OSM   H10T10194  -0.136   5.652  10.201 -0.4283 -0.0699 -2.5290
  101OSM   C11S10195  -0.072   5.798  10.051 -0.7226 -0.3472 -0.4772
  101OSM   H11S10196  -0.001   5.884  10.044  0.4381 -1.2581 -0.2521
  101OSM   H11T10197  -0.173   5.827  10.017 -0.7721  1.6872  1.1825
  101OSM   C12S10198  -0.018   5.703   9.943 -0.0551 -0.2940 -0.5323
  101OSM   H12S10199  -0.071   5.607   9.954 -0.6550  0.1964  1.2365
  101OSM   H12T10200   0.090   5.677   9.955  0.4779  2.0084  0.2442
  101OSM   C13S10201  -0.052   5.753   9.810 -0.4118  0.2788  0.4215
  101OSM   H13S10202  -0.009   5.851   9.781  1.6787 -0.5948  0.4201
  101OSM   H13T10203  -0.160   5.774   9.798 -0.4056  0.7279  1.0538
  101OSM   C14S10204   0.000   5.651   9.706 -0.2996 -0.0783 -0.7417
  101OSM   H14S10205  -0.037   5.547   9.716  2.8069 -1.1604  0.9800
  101OSM   H14T10206   0.109   5.634   9.718  0.0727  3.1942  1.5112
  101OSM   C15S10207  -0.020   5.696   9.559 -0.2726 -0.0158  0.0763
  101OSM   H15S10208   0.027   5.793   9.533 -0.6133 -0.1540 -1.1250
  101OSM   H15T10209  -0.130   5.709   9.548 -0.2623 -0.1377 -0.1772
  101OSM   C16S10210   0.025   5.584   9.458  0.2149 -0.2497  0.0045
  101OSM   H16S10211   0.002   5.487   9.505 -0.8024 -0.7041 -1.3505
  101OSM   H16T10212   0.133   5.578   9.435  0.2579 -2.1686  0.5621
  101OSM   C17S10213  -0.057   5.598   9.331  0.7957 -0.2317 -0.2681
  101OSM   H17S10214  -0.019   5.687   9.277  0.0926  0.1441 -0.1545
  101OSM   H17T10215  -0.160   5.626   9.361  1.1568  0.4467  0.3893
  101OSM   C18S10216  -0.055   5.477   9.240  0.6272 -0.9024 -0.5794
  101OSM   H18S10217  -0.108   5.496   9.144 -2.1279 -0.6401  0.8706
  101OSM   H18T10218  -0.115   5.399   9.292 -1.1515  0.9223  0.2538
  101OSM   H18U10219   0.054   5.457   9.237  1.1873  1.6400  0.2880
  101OSM    C1F10220   0.640   5.571  10.559  0.2449  0.2162 -0.9616
  101OSM     OF10221   0.664   5.464  10.620 -0.4036  1.0347 -0.2124
  101OSM    C2F10222   0.670   5.573  10.409  0.1557 -0.2819  0.1245
  101OSM    H2F10223   0.741   5.489  10.404 -0.6303 -1.0504  1.2873
  101OSM    H2G10224   0.701   5.675  10.377  0.2148 -0.2765  0.2002
  101OSM    C3F10225   0.549   5.538  10.316 -0.2444 -0.6772 -0.9320
  101OSM    H3F10226   0.466   5.611  10.328 -0.9225 -1.6914  1.1752
  101OSM    H3G10227   0.510   5.440  10.352 -0.2087 -0.3966 -0.1039
  101OSM    C4F10228   0.597   5.534  10.170  0.5638 -0.3013  0.5494
  101OSM    H4F10229   0.499   5.515  10.119  1.1552 -0.8611 -0.4061
  101OSM    H4G10230   0.655   5.443  10.147  0.2468 -0.7081  1.3326
  101OSM    C5F10231   0.669   5.658  10.121  0.5086 -0.4157  0.1899
  101OSM    H5F10232   0.768   5.673  10.170 -0.0602  1.8619  0.7675
  101OSM    H5G10233   0.608   5.749  10.142  0.8095  0.7453 -3.2902
  101OSM    C6F10234   0.682   5.670   9.966 -1.0903  0.2385 -0.2984
  101OSM    H6F10235   0.774   5.617   9.934 -0.4750  0.3282  1.2265
  101OSM    H6G10236   0.712   5.776   9.948  1.4409 -0.1019  1.4188
  101OSM    C7F10237   0.573   5.626   9.871  0.4945  0.6857 -0.0969
  101OSM    H7F10238   0.480   5.683   9.895 -0.7703 -2.1745  2.5623
  101OSM    H7G10239   0.546   5.518   9.881 -0.6288  1.0106  0.5363
  101OSM    C8F10240   0.585   5.659   9.716  0.2603 -0.1707  0.0764
  101OSM    H8F10241   0.596   5.770   9.720  2.5517 -0.3705  1.6454
  101OSM    H8G10242   0.495   5.625   9.661 -0.3966  3.5189 -1.4596
  101OSM    C9F10243   0.713   5.608   9.654  0.7936 -0.0846 -0.8269
  101OSM    H9F10244   0.791   5.586   9.728 -1.1032  0.6816  1.5346
  101OSM   C10F10245   0.718   5.567   9.530  0.2878  0.0810 -0.1980
  101OSM   H10F10246   0.808   5.522   9.485  0.7979 -1.4720  2.2050
  101OSM   C11F10247   0.608   5.585   9.423  0.2781 -0.1530 -0.1412
  101OSM   H11F10248   0.655   5.653   9.348  0.3102 -2.4148 -2.2896
  101OSM   H11G10249   0.518   5.636   9.464  1.1936  1.0109  0.4795
  101OSM   C12F10250   0.576   5.450   9.365  0.4878  0.7358  0.1828
  101OSM   H12F10251   0.498   5.403   9.428  1.6227 -0.8169  0.4877
  101OSM   H12G10252   0.663   5.382   9.353  1.4922  2.2583 -1.9114
  101OSM   C13F10253   0.512   5.467   9.222  0.2970  0.0756 -0.2289
  101OSM   H13F10254   0.590   5.512   9.157  1.3205  1.2572  1.6999
  101OSM   H13G10255   0.426   5.537   9.235 -0.6252 -0.9429 -0.6732
  101OSM   C14F10256   0.460   5.330   9.169  0.3265  0.2094  0.4283
  101OSM   H14F10257   0.390   5.278   9.238  2.5821 -1.2496  1.7682
  101OSM   H14G10258   0.544   5.258   9.157  0.6158  0.5368  0.4722
  101OSM   C15F10259   0.396   5.335   9.023 -0.3686  0.2750  0.0272
  101OSM   H15F10260   0.320   5.416   9.021  1.5340  2.1464 -0.3486
  101OSM   H15G10261   0.347   5.240   8.993 -0.0208  0.1270 -0.0796
  101OSM   C16F10262   0.498   5.374   8.923 -0.0549  0.5636 -0.6227
  101OSM   H16F10263   0.578   5.297   8.919 -1.0869 -0.6389  0.9226
  101OSM   H16G10264   0.548   5.468   8.955 -2.2931  1.6333 -0.0599
  101OSM   C17F10265   0.443   5.398   8.784  0.0456  0.2014  0.0001
  101OSM   H17F10266   0.365   5.478   8.788  1.0832  1.3909 -1.9371
  101OSM   H17G10267   0.392   5.305   8.752  1.1145  0.2731 -2.0744
  101OSM   C18F10268   0.541   5.428   8.669 -0.2084 -0.0336  0.3644
  101OSM   H18F10269   0.635   5.369   8.675 -0.9140 -1.3478 -0.8395
  101OSM   H18G10270   0.571   5.535   8.667 -0.1342 -0.0595 -0.0655
  101OSM   H18H10271   0.497   5.404   8.570 -0.3749  0.2707  0.3640
  102OSM      N10272   0.352   2.516  11.170 -0.2143 -0.4081 -0.3055
  102OSM    C1510273   0.229   2.458  11.230 -0.2385  0.1977  0.4907
  102OSM   H15A10274   0.161   2.537  11.258  0.4299  1.7951 -2.0901
  102OSM   H15B10275   0.251   2.401  11.319  0.8679 -1.1252 -0.5876
  102OSM   H15C10276   0.172   2.396  11.161 -1.0156  0.3846  0.9470
  102OSM    C1410277   0.381   2.656  11.220  0.2148 -0.4257 -0.1333
  102OSM   H14A10278   0.480   2.686  11.189  1.2274 -1.2658  2.1140
  102OSM   H14B10279   0.389   2.658  11.327 -0.0420 -0.0901 -0.1221
  102OSM   H14C10280   0.308   2.730  11.192 -0.0690 -0.7010 -0.1270
  102OSM    C1310281   0.469   2.432  11.221 -0.6874 -0.6782  0.1441
  102OSM   H13A10282   0.497   2.467  11.319 -0.5880  1.6718 -0.6688
  102OSM   H13B10283   0.557   2.449  11.161 -0.0156  0.5929  1.4475
  102OSM   H13C10284   0.438   2.328  11.221 -2.9518 -0.0728  1.8818
  102OSM    C1210285   0.347   2.509  11.019 -0.2780 -0.3612  0.5218
  102OSM   H12A10286   0.425   2.568  10.974 -1.8468  0.8414 -0.7483
  102OSM   H12B10287   0.266   2.573  10.987  1.6622  2.4873  0.9349
  102OSM    C1110288   0.347   2.370  10.941 -0.2083 -0.0324 -0.2857
  102OSM   H11A10289   0.417   2.298  10.989  0.9914  0.4252 -1.2875
  102OSM   H11B10290   0.377   2.379  10.834  4.6465 -1.8697  0.6199
  102OSM      P10291   0.091   2.394  10.888  0.2764 -0.0144 -0.1812
  102OSM    O1310292  -0.006   2.295  10.837 -0.3537  0.2337 -0.0520
  102OSM    O1410293   0.049   2.491  10.989  0.4396 -0.1697 -0.6851
  102OSM    O1110294   0.156   2.452  10.759  0.4452  0.6016  0.1956
  102OSM    O1210295   0.214   2.315  10.947  0.3892 -0.4765  0.1018
  102OSM    C1S10296   0.145   2.390  10.630 -0.3000  0.1111  0.6359
  102OSM    H1S10297   0.048   2.355  10.590  0.3713 -1.5658  0.4111
  102OSM    H1T10298   0.212   2.301  10.630  0.5979  0.7604  1.5080
  102OSM     NF10299   0.178   2.421  10.401 -0.0023 -0.6630  0.3914
  102OSM    HNF10300   0.243   2.349  10.379  1.8250  0.6340  1.2665
  102OSM    C2S10301   0.216   2.484  10.524  0.6507  0.1775 -0.0856
  102OSM    H2S10302   0.171   2.585  10.532  0.0999 -0.1078  0.4586
  102OSM    C3S10303   0.368   2.507  10.560 -0.3315 -0.0210  1.0270
  102OSM    H3S10304   0.417   2.409  10.580 -2.8375 -1.0216  2.8204
  102OSM     O310305   0.389   2.593  10.678  0.7499  0.8578  0.3119
  102OSM    HO310306   0.304   2.617  10.714  1.1869  2.9728  0.0468
  102OSM    C4S10307   0.433   2.566  10.433  0.0023  0.2591 -0.0751
  102OSM    H4S10308   0.490   2.489  10.378  0.9027  0.1502  0.9671
  102OSM    C5S10309   0.436   2.696  10.394  0.3134 -0.3960  0.1300
  102OSM    H5S10310   0.385   2.767  10.461  0.8111  1.3312 -1.2509
  102OSM    C6S10311   0.495   2.762  10.274  0.7891  0.2656 -0.1226
  102OSM    H6S10312   0.595   2.794  10.309  0.0237 -1.3225  3.9542
  102OSM    H6T10313   0.440   2.858  10.258 -1.5926 -1.1084 -0.5624
  102OSM    C7S10314   0.525   2.685  10.150  0.1220  0.2582  0.8402
  102OSM    H7S10315   0.433   2.652  10.096  0.1074  1.2682  0.2254
  102OSM    H7T10316   0.584   2.594  10.174  1.3392  0.5271 -0.9625
  102OSM    C8S10317   0.596   2.767  10.040 -0.3568 -0.3493 -0.2543
  102OSM    H8S10318   0.691   2.813  10.075 -0.6455 -0.3969  0.6102
  102OSM    H8T10319   0.521   2.846  10.016 -0.5809 -1.0082 -1.8330
  102OSM    C9S10320   0.634   2.687   9.915 -0.1393 -0.3689  0.2774
  102OSM    H9S10321   0.546   2.629   9.880 -0.0929 -0.5439  0.4471
  102OSM    H9T10322   0.720   2.619   9.932 -0.5149 -0.4425  2.1785
  102OSM   C10S10323   0.671   2.771   9.796  0.3973  0.5636  0.6565
  102OSM   H10S10324   0.762   2.827   9.826 -0.1811  1.2159  1.2188
  102OSM   H10T10325   0.594   2.848   9.777  0.0552 -0.0948 -0.8220
  102OSM   C11S10326   0.678   2.682   9.671  0.0494 -0.2492  0.3680
  102OSM   H11S10327   0.584   2.627   9.651  0.1254  0.0899 -1.0498
  102OSM   H11T10328   0.760   2.607   9.672 -0.1620 -0.4823  0.3673
  102OSM   C12S10329   0.689   2.761   9.541  0.1114 -0.1363  0.0956
  102OSM   H12S10330   0.774   2.831   9.554 -1.0730  1.1347  1.3564
  102OSM   H12T10331   0.600   2.828   9.536  0.1056 -0.1000  0.6519
  102OSM   C13S10332   0.711   2.669   9.419  0.3741  0.7018  0.3907
  102OSM   H13S10333   0.636   2.588   9.427  1.4905 -0.3995  0.1106
  102OSM   H13T10334   0.812   2.622   9.429  0.7640  1.3348 -0.4784
  102OSM   C14S10335   0.694   2.746   9.291 -0.6962 -0.9140  0.1783
  102OSM   H14S10336   0.786   2.802   9.265 -1.3545  0.1662  0.1041
  102OSM   H14T10337   0.599   2.805   9.290 -1.2714 -1.7227  1.9136
  102OSM   C15S10338   0.689   2.647   9.170  0.0938 -0.5483  0.5982
  102OSM   H15S10339   0.673   2.691   9.069 -0.2332  0.6444  1.1553
  102OSM   H15T10340   0.601   2.580   9.181 -1.2728  1.0942  0.1347
  102OSM   C16S10341   0.821   2.577   9.154  0.2624 -0.4019  0.4920
  102OSM   H16S10342   0.862   2.525   9.243 -0.1027  0.4851  1.1927
  102OSM   H16T10343   0.887   2.665   9.144 -1.2762  0.9509  1.7270
  102OSM   C17S10344   0.825   2.494   9.020  0.5626 -0.2721  0.1156
  102OSM   H17S10345   0.783   2.549   8.933  1.9401 -1.1333 -1.1347
  102OSM   H17T10346   0.757   2.409   9.038 -0.6253 -0.0445 -2.6873
  102OSM   C18S10347   0.963   2.436   8.982  0.1549  0.1925 -0.6773
  102OSM   H18S10348   0.986   2.380   9.075 -1.4020  0.6438  0.0210
  102OSM   H18T10349   1.040   2.513   8.958 -0.4418  1.4121  1.0990
  102OSM   H18U10350   0.947   2.371   8.893 -0.3064 -0.3699 -0.1943
  102OSM    C1F10351   0.059   2.436  10.347 -0.2857 -0.1924  1.2518
  102OSM     OF10352  -0.028   2.501  10.402 -0.3230 -0.1947 -0.3189
  102OSM    C2F10353   0.030   2.364  10.221  0.0078  0.4417  0.8656
  102OSM    H2F10354   0.022   2.254  10.230 -0.6560  0.2663 -1.3515
  102OSM    H2G10355   0.117   2.378  10.153 -0.4365 -0.3657  0.1178
  102OSM    C3F10356  -0.100   2.416  10.153 -0.4150  0.5845  0.2728
  102OSM    H3F10357  -0.106   2.527  10.157 -0.7621  0.6275 -1.0917
  102OSM    H3G10358  -0.184   2.378  10.217 -1.7617  2.0574 -0.5429
  102OSM    C4F10359  -0.132   2.366  10.013  0.2383 -0.1722 -0.5578
  102OSM    H4F10360  -0.240   2.385   9.996  0.2402  0.1291 -0.2448
  102OSM    H4G10361  -0.132   2.255  10.022  1.2252 -0.0407  1.9937
  102OSM    C5F10362  -0.048   2.405   9.895  0.2526 -1.0207 -0.0952
  102OSM    H5F10363   0.059   2.393   9.925 -0.0866 -1.8448  0.8209
  102OSM    H5G10364  -0.057   2.513   9.870 -0.0440 -1.0557 -0.1344
  102OSM    C6F10365  -0.083   2.324   9.773 -0.2392 -0.1751  0.4754
  102OSM    H6F10366  -0.179   2.352   9.724  0.2733  3.4036  1.2359
  102OSM    H6G10367  -0.096   2.217   9.803 -1.1385 -0.8353 -2.0488
  102OSM    C7F10368   0.026   2.328   9.661 -0.3407 -0.1700 -0.8528
  102OSM    H7F10369   0.003   2.245   9.591 -0.5333 -0.9907  0.1519
  102OSM    H7G10370   0.125   2.298   9.702 -0.9353 -2.5982 -1.0374
  102OSM    C8F10371   0.006   2.452   9.575  0.0584  0.0177  0.2676
  102OSM    H8F10372   0.008   2.543   9.638 -1.5999  1.2569 -1.3781
  102OSM    H8G10373  -0.086   2.445   9.513  1.7989 -2.4119 -2.3193
  102OSM    C9F10374   0.120   2.464   9.481  0.1913 -0.2123  0.4779
  102OSM    H9F10375   0.085   2.430   9.382  0.7021  1.5861 -0.3625
  102OSM   C10F10376   0.241   2.510   9.507  0.7687  0.0859 -0.3341
  102OSM   H10F10377   0.318   2.512   9.429  0.0363 -0.5792 -1.0984
  102OSM   C11F10378   0.276   2.557   9.648 -0.1593 -0.7712 -0.2221
  102OSM   H11F10379   0.367   2.508   9.688 -0.1916 -2.0833 -1.6473
  102OSM   H11G10380   0.206   2.548   9.734 -0.4877  1.5099 -0.1965
  102OSM   C12F10381   0.317   2.710   9.640  0.0363 -0.1124 -0.1886
  102OSM   H12F10382   0.245   2.760   9.572  0.4561 -0.5424 -0.9652
  102OSM   H12G10383   0.408   2.725   9.577  0.5097  2.3100  0.9602
  102OSM   C13F10384   0.324   2.772   9.775 -0.6388 -0.4906  0.1668
  102OSM   H13F10385   0.377   2.868   9.762  2.1322 -1.8283  0.8378
  102OSM   H13G10386   0.379   2.719   9.856 -1.2650 -1.2041  0.1398
  102OSM   C14F10387   0.193   2.805   9.843 -0.1705 -0.1812  0.5030
  102OSM   H14F10388   0.123   2.719   9.835 -3.4351  2.3111 -0.2407
  102OSM   H14G10389   0.149   2.887   9.782  3.2480  1.7880  0.4312
  102OSM   C15F10390   0.223   2.861   9.980  0.4193 -0.1133 -0.7613
  102OSM   H15F10391   0.312   2.926   9.969  0.1788  0.3200 -0.1799
  102OSM   H15G10392   0.237   2.773  10.046 -2.5181 -0.7408 -0.8492
  102OSM   C16F10393   0.117   2.938  10.052 -0.0410 -0.4468 -0.3059
  102OSM   H16F10394   0.080   3.021   9.989  0.2941  0.5246  0.7354
  102OSM   H16G10395   0.146   2.973  10.154 -1.4133 -2.0829  0.7025
  102OSM   C17F10396  -0.013   2.854  10.085 -0.2599 -0.7764  0.5919
  102OSM   H17F10397   0.030   2.759  10.122  1.6434  0.0715  0.7118
  102OSM   H17G10398  -0.059   2.825   9.988 -0.0491  0.3638  0.1245
  102OSM   C18F10399  -0.129   2.910  10.169  0.3283 -0.4099  0.5149
  102OSM   H18F10400  -0.096   2.966  10.259 -0.3077 -0.1093  0.5650
  102OSM   H18G10401  -0.189   2.819  10.193  0.4970 -1.3934 -2.4086
  102OSM   H18H10402  -0.190   2.982  10.112  1.3922  1.0002  1.1028
  103OSM      N10403   2.776   1.330  11.146 -0.1660 -0.1449  0.7102
  103OSM    C1510404   2.759   1.419  11.269 -0.0614  0.6387  0.1999
  103OSM   H15A10405   2.705   1.371  11.349  2.7561 -2.9669  0.1906
  103OSM   H15B10406   2.707   1.508  11.237  0.6829  0.6493 -1.0375
  103OSM   H15C10407   2.855   1.459  11.299  1.5225 -0.7801 -2.4959
  103OSM    C1410408   2.858   1.213  11.190  0.5871 -0.3728 -0.1558
  103OSM   H14A10409   2.786   1.151  11.242 -1.6255  0.7825 -1.7310
  103OSM   H14B10410   2.931   1.248  11.262 -0.5678 -0.6156  1.1624
  103OSM   H14C10411   2.889   1.156  11.104  0.7806  0.5378 -0.6980
  103OSM    C1310412   2.644   1.283  11.089  0.5936 -0.2288  0.3752
  103OSM   H13A10413   2.577   1.260  11.170  0.3774  1.9917  0.8888
  103OSM   H13B10414   2.659   1.201  11.021 -0.6908 -0.3076  0.1613
  103OSM   H13C10415   2.606   1.368  11.034  2.4423  1.7650  1.9828
  103OSM    C1210416   2.864   1.399  11.039  0.5171 -0.3046 -0.3439
  103OSM   H12A10417   2.863   1.346  10.945 -0.9097 -0.0690 -0.4806
  103OSM   H12B10418   2.967   1.385  11.068  0.6699  0.3424 -0.5422
  103OSM    C1110419   2.819   1.554  11.017 -0.1264  0.5197  0.0680
  103OSM   H11A10420   2.888   1.585  10.935 -0.7690 -0.0988 -0.7306
  103OSM   H11B10421   2.846   1.620  11.102  1.0435  0.5775 -0.3328
  103OSM      P10422   2.574   1.643  11.017  0.3003  0.4895 -0.0389
  103OSM    O1310423   2.551   1.610  11.155 -0.3801  0.8374 -0.6006
  103OSM    O1410424   2.576   1.782  10.974 -0.0230 -0.5187 -0.2301
  103OSM    O1110425   2.461   1.569  10.931  0.0289 -0.7110 -0.3845
  103OSM    O1210426   2.689   1.564  10.966 -0.2348 -1.0852  0.2375
  103OSM    C1S10427   2.431   1.606  10.798  0.5708  0.4917  0.5900
  103OSM    H1S10428   2.507   1.666  10.745 -0.8957  2.8775  1.0605
  103OSM    H1T10429   2.334   1.658  10.795 -0.3908 -1.1779  1.1842
  103OSM     NF10430   2.366   1.529  10.575 -0.5354  0.7093 -0.3526
  103OSM    HNF10431   2.270   1.532  10.549 -0.9758 -3.7897 -0.0228
  103OSM    C2S10432   2.400   1.484  10.709  0.2562 -0.4714 -0.3567
  103OSM    H2S10433   2.486   1.414  10.711 -1.0178 -2.0888  1.1114
  103OSM    C3S10434   2.284   1.393  10.773  0.8453  0.6110 -0.0014
  103OSM    H3S10435   2.186   1.446  10.767 -0.7439 -1.9613  1.2626
  103OSM     O310436   2.313   1.347  10.908 -0.2189  0.5966 -0.1212
  103OSM    HO310437   2.368   1.420  10.938 -0.1285  1.6742 -2.6454
  103OSM    C4S10438   2.276   1.276  10.679 -0.1021 -0.4253  0.6527
  103OSM    H4S10439   2.203   1.302  10.602  0.2045 -0.4736  0.3458
  103OSM    C5S10440   2.322   1.152  10.676 -0.1730  0.2575 -0.1565
  103OSM    H5S10441   2.389   1.112  10.754 -0.5876 -3.0407 -1.3430
  103OSM    C6S10442   2.287   1.049  10.566 -0.5795 -0.1943 -0.1220
  103OSM    H6S10443   2.178   1.036  10.552 -0.4075 -0.7564 -1.0517
  103OSM    H6T10444   2.321   0.949  10.599  1.7488  0.5224 -0.1102
  103OSM    C7S10445   2.350   1.095  10.434 -0.7072  0.1892  0.6422
  103OSM    H7S10446   2.461   1.091  10.427 -0.6023 -0.4724  2.2691
  103OSM    H7T10447   2.329   1.202  10.414 -1.2173  0.1810  1.0969
  103OSM    C8S10448   2.303   1.007  10.325 -0.1652 -0.3538 -0.8192
  103OSM    H8S10449   2.192   1.000  10.325 -0.1083 -1.3883 -1.9792
  103OSM    H8T10450   2.348   0.910  10.355 -0.9162  0.2020  2.5194
  103OSM    C9S10451   2.337   1.049  10.182 -0.2726 -0.5983  0.5172
  103OSM    H9S10452   2.340   0.956  10.123 -0.9052 -1.5595  1.9462
  103OSM    H9T10453   2.438   1.095  10.180 -0.3324 -0.3236  2.2649
  103OSM   C10S10454   2.241   1.153  10.122 -0.2246 -0.1776  0.8175
  103OSM   H10S10455   2.219   1.238  10.190 -0.1060 -1.0544  1.9893
  103OSM   H10T10456   2.143   1.102  10.120 -0.0133 -0.5968 -1.4719
  103OSM   C11S10457   2.270   1.211   9.975 -0.0409  0.2489 -0.5450
  103OSM   H11S10458   2.379   1.234   9.969 -0.4510  2.0509 -1.6888
  103OSM   H11T10459   2.207   1.296   9.944 -3.2211 -1.9323 -0.4948
  103OSM   C12S10460   2.243   1.106   9.866  0.1156  0.4028  0.1254
  103OSM   H12S10461   2.142   1.062   9.877 -0.7042  1.5590 -2.2001
  103OSM   H12T10462   2.310   1.019   9.881 -1.7604 -1.0945  0.2151
  103OSM   C13S10463   2.265   1.157   9.719  0.0768 -0.0321 -0.0269
  103OSM   H13S10464   2.371   1.184   9.702 -0.4443  3.6868  1.6035
  103OSM   H13T10465   2.208   1.251   9.702  0.4377  0.1576 -0.1962
  103OSM   C14S10466   2.233   1.043   9.620 -0.5919 -0.8783 -1.0897
  103OSM   H14S10467   2.153   1.083   9.554 -0.7640 -0.5700 -0.7005
  103OSM   H14T10468   2.185   0.953   9.666 -2.2786 -0.0211 -1.0645
  103OSM   C15S10469   2.349   0.994   9.537  0.5365 -0.2028 -0.2424
  103OSM   H15S10470   2.315   0.892   9.508  1.4370  0.3473 -3.7538
  103OSM   H15T10471   2.442   0.979   9.595 -0.1687 -1.4817  0.5964
  103OSM   C16S10472   2.374   1.080   9.412 -0.0361  0.4408  0.0117
  103OSM   H16S10473   2.409   1.176   9.457  2.5275  0.7102 -2.3046
  103OSM   H16T10474   2.276   1.098   9.365 -0.6174  1.0153  1.3814
  103OSM   C17S10475   2.484   1.018   9.318 -1.6423 -0.4167  0.1064
  103OSM   H17S10476   2.448   0.915   9.297 -1.1306 -0.5283 -0.2328
  103OSM   H17T10477   2.578   1.008   9.377 -1.3370  0.2579 -0.2664
  103OSM   C18S10478   2.513   1.097   9.189  0.3915  0.5187 -1.1036
  103OSM   H18S10479   2.530   1.204   9.214 -2.6798  0.9864 -0.7128
  103OSM   H18T10480   2.426   1.087   9.120 -1.0294  1.0183  0.5665
  103OSM   H18U10481   2.595   1.048   9.131  1.4785  0.4087  0.4543
  103OSM    C1F10482   2.465   1.532  10.488 -0.0057  0.0908 -0.0149
  103OSM     OF10483   2.578   1.518  10.525  0.3215  0.1537  0.6128
  103OSM    C2F10484   2.426   1.553  10.346  0.6420 -0.0941 -0.4479
  103OSM    H2F10485   2.422   1.664  10.340 -2.1048  0.3259  3.9618
  103OSM    H2G10486   2.322   1.516  10.331  0.9216 -1.4724  0.7656
  103OSM    C3F10487   2.510   1.484  10.243  0.0662  0.2471 -0.1712
  103OSM    H3F10488   2.518   1.374  10.256  1.6580  0.0278 -2.4335
  103OSM    H3G10489   2.615   1.520  10.238  0.4972 -1.0956 -1.6857
  103OSM    C4F10490   2.455   1.489  10.102  0.4728  0.4502  0.0442
  103OSM    H4F10491   2.417   1.591  10.083 -1.2168 -0.4206 -1.5011
  103OSM    H4G10492   2.369   1.420  10.093  0.5957  0.5753 -4.0034
  103OSM    C5F10493   2.565   1.460  10.006 -0.3329  0.4745  0.4949
  103OSM    H5F10494   2.620   1.365  10.026 -2.5332 -1.5305 -2.1186
  103OSM    H5G10495   2.644   1.536  10.022 -0.7644  0.9749  0.2683
  103OSM    C6F10496   2.521   1.479   9.862  0.9680 -0.8772  0.0989
  103OSM    H6F10497   2.450   1.563   9.845  2.3743  0.4538  0.6182
  103OSM    H6G10498   2.451   1.393   9.847 -2.4549  1.4172  1.4798
  103OSM    C7F10499   2.634   1.497   9.769 -0.2116  0.3805 -0.4274
  103OSM    H7F10500   2.704   1.413   9.786 -0.9939 -0.3625 -0.7882
  103OSM    H7G10501   2.678   1.593   9.804 -1.8201  0.7099  0.8448
  103OSM    C8F10502   2.595   1.500   9.622 -0.5674 -0.4079  0.1402
  103OSM    H8F10503   2.531   1.589   9.608 -2.3114 -1.7183 -0.5371
  103OSM    H8G10504   2.533   1.411   9.599  1.3082 -1.7289 -0.0497
  103OSM    C9F10505   2.720   1.493   9.535  0.2354  0.3646  0.8115
  103OSM    H9F10506   2.787   1.409   9.559 -1.3241 -0.5897  2.0009
  103OSM   C10F10507   2.761   1.583   9.445  0.1877  0.2819 -0.1273
  103OSM   H10F10508   2.843   1.559   9.377 -1.1983 -2.8877 -0.8542
  103OSM   C11F10509   2.690   1.709   9.415 -0.1422 -0.2224  0.3164
  103OSM   H11F10510   2.764   1.792   9.406  0.6933 -1.0999 -1.2897
  103OSM   H11G10511   2.618   1.739   9.494  0.2616  1.4380  0.1026
  103OSM   C12F10512   2.625   1.692   9.282  0.8155  0.3358 -0.6787
  103OSM   H12F10513   2.694   1.644   9.210  0.2828  0.8188 -1.5224
  103OSM   H12G10514   2.602   1.791   9.237 -1.6456  0.5470  0.8337
  103OSM   C13F10515   2.508   1.590   9.273 -0.3618 -0.1854 -0.7648
  103OSM   H13F10516   2.551   1.490   9.295  1.7620  0.8755  0.1582
  103OSM   H13G10517   2.434   1.604   9.355 -0.8016 -2.2248 -0.7416
  103OSM   C14F10518   2.443   1.603   9.135  0.1743 -0.3811  0.1075
  103OSM   H14F10519   2.512   1.556   9.060 -1.1677 -1.1271 -0.6948
  103OSM   H14G10520   2.414   1.707   9.108 -1.4190 -0.8004  0.1285
  103OSM   C15F10521   2.302   1.532   9.134 -0.6865  0.1102  0.0643
  103OSM   H15F10522   2.234   1.590   9.200  0.7945  3.3063 -1.0189
  103OSM   H15G10523   2.301   1.429   9.175 -0.1849  0.3816  0.7876
  103OSM   C16F10524   2.245   1.517   8.988  0.2963 -0.0985 -0.0173
  103OSM   H16F10525   2.289   1.591   8.918  1.0790  0.7990  1.3704
  103OSM   H16G10526   2.137   1.544   8.986  0.3553  0.1272 -0.1807
  103OSM   C17F10527   2.267   1.371   8.939  0.3188  0.5442 -0.1229
  103OSM   H17F10528   2.206   1.362   8.847  2.3259 -0.7985 -1.4221
  103OSM   H17G10529   2.239   1.295   9.015  0.5011 -0.2103 -0.7971
  103OSM   C18F10530   2.411   1.334   8.887 -0.6886 -0.4318  0.4889
  103OSM   H18F10531   2.397   1.238   8.833  2.9703  0.8155 -3.1323
  103OSM   H18G10532   2.474   1.314   8.977 -0.8236 -0.7995  0.5046
  103OSM   H18H10533   2.460   1.413   8.826  0.1394 -2.4612 -1.6105
  104OSM      N10534   2.982   5.797  10.797 -0.4980  0.2882 -0.8800
  104OSM    C1510535   2.880   5.794  10.907  0.1228 -0.2003  0.4565
  104OSM   H15A10536   2.897   5.864  10.988  0.1281 -1.6033  1.6964
  104OSM   H15B10537   2.881   5.698  10.956 -0.0680  0.1847  1.2256
  104OSM   H15C10538   2.781   5.798  10.863  0.0729 -0.3329  0.5605
  104OSM    C1410539   3.119   5.791  10.859  0.0932  0.0042 -0.2612
  104OSM   H14A10540   3.138   5.885  10.909  1.5827  0.2055 -1.1271
  104OSM   H14B10541   3.181   5.775  10.772 -4.0860 -0.6082 -3.4169
  104OSM   H14C10542   3.139   5.714  10.932  0.4783 -0.8848 -1.2765
  104OSM    C1310543   2.967   5.669  10.717  0.2592 -0.0837 -0.6606
  104OSM   H13A10544   2.868   5.656  10.676 -1.2507 -1.1692  2.9237
  104OSM   H13B10545   2.991   5.586  10.783 -0.0071  0.5642  0.2822
  104OSM   H13C10546   3.043   5.674  10.641  1.3892 -1.2036  0.3533
  104OSM    C1210547   2.973   5.926  10.710  0.1244  0.8531  0.3082
  104OSM   H12A10548   2.973   6.012  10.776  0.3510  0.6110  0.6255
  104OSM   H12B10549   2.877   5.923  10.662  0.2981  1.1147 -0.0666
  104OSM    C1110550   3.087   5.952  10.606  0.2119 -0.3089 -0.0318
  104OSM   H11A10551   3.037   5.989  10.514 -0.7980  1.1402  1.0548
  104OSM   H11B10552   3.137   5.859  10.573 -0.8412 -0.2317 -1.9963
  104OSM      P10553   3.144   6.202  10.684  0.1099 -0.0306 -0.2694
  104OSM    O1310554   3.013   6.219  10.750  0.5330 -0.5458 -0.7160
  104OSM    O1410555   3.257   6.267  10.749  0.8328 -0.0275  0.3463
  104OSM    O1110556   3.137   6.257  10.536 -0.4489 -0.3658  0.1066
  104OSM    O1210557   3.182   6.049  10.660  0.0920  0.0849  0.2054
  104OSM    C1S10558   3.268   6.277  10.478 -0.0986 -0.4723 -0.4581
  104OSM    H1S10559   3.330   6.185  10.473 -0.0112 -0.5609  1.6279
  104OSM    H1T10560   3.332   6.349  10.532 -0.8682  0.1126 -0.3091
  104OSM     NF10561   3.406   6.313  10.276  0.2876 -0.2400  0.0698
  104OSM    HNF10562   3.469   6.390  10.269 -0.9818  0.7107 -1.9845
  104OSM    C2S10563   3.274   6.338  10.333  0.8234  0.1542 -0.2941
  104OSM    H2S10564   3.196   6.284  10.276 -0.0381  2.0539 -0.9970
  104OSM    C3S10565   3.233   6.486  10.336 -0.1953  0.1932  0.1992
  104OSM    H3S10566   3.306   6.555  10.384  1.9624 -1.4868 -0.5163
  104OSM     O310567   3.117   6.505  10.418 -0.0360  0.2269 -0.9355
  104OSM    HO310568   3.099   6.416  10.449 -0.7304  0.8616  0.6002
  104OSM    C4S10569   3.211   6.550  10.200 -0.0463  0.1061 -0.4988
  104OSM    H4S10570   3.304   6.554  10.140 -0.3767 -1.0984 -1.1274
  104OSM    C5S10571   3.097   6.592  10.135 -0.2940  0.4809 -0.0321
  104OSM    H5S10572   2.999   6.562  10.174 -1.3679  1.1833 -2.0617
  104OSM    C6S10573   3.085   6.655  10.000  0.0331 -0.1963 -0.0099
  104OSM    H6S10574   3.133   6.755   9.995 -0.9829  0.2481 -2.5391
  104OSM    H6T10575   2.978   6.674   9.979  0.3106  0.0053 -1.3577
  104OSM    C7S10576   3.154   6.571   9.891 -0.3229  0.6484 -0.2498
  104OSM    H7S10577   3.088   6.482   9.882 -0.2450  0.2166  2.4643
  104OSM    H7T10578   3.250   6.531   9.932 -1.6143 -2.7381 -0.2150
  104OSM    C8S10579   3.163   6.645   9.753 -0.0143 -0.2596  0.7125
  104OSM    H8S10580   3.232   6.730   9.771  2.0556 -2.2344  2.6641
  104OSM    H8T10581   3.060   6.675   9.723 -0.0765  1.4008  2.3927
  104OSM    C9S10582   3.218   6.549   9.649 -0.1684 -1.0068  0.3559
  104OSM    H9S10583   3.162   6.454   9.637 -0.0804 -1.0509  0.2879
  104OSM    H9T10584   3.326   6.531   9.669 -0.1037  0.3384  1.3662
  104OSM   C10S10585   3.218   6.620   9.507  0.9253 -0.2758 -0.2076
  104OSM   H10S10586   3.274   6.716   9.512  0.1714  0.0907  1.7432
  104OSM   H10T10587   3.114   6.639   9.475  0.8652  1.1564  0.7478
  104OSM   C11S10588   3.302   6.540   9.400  0.0577  0.1353  0.2260
  104OSM   H11S10589   3.241   6.452   9.372 -0.2173  0.0320  1.1174
  104OSM   H11T10590   3.390   6.500   9.455 -0.8586 -1.5665  0.5045
  104OSM   C12S10591   3.341   6.625   9.272 -0.4703  0.9765 -0.5589
  104OSM   H12S10592   3.386   6.718   9.313  2.5619 -0.4254 -0.4209
  104OSM   H12T10593   3.250   6.664   9.222  0.8557  0.7530 -3.3988
  104OSM   C13S10594   3.441   6.568   9.176 -0.0697  0.4140 -0.2107
  104OSM   H13S10595   3.382   6.494   9.117  0.7256 -0.9398  0.6520
  104OSM   H13T10596   3.530   6.524   9.225 -0.5458 -1.8587 -1.2256
  104OSM   C14S10597   3.509   6.675   9.085  0.3129 -0.3975 -0.1706
  104OSM   H14S10598   3.568   6.615   9.013  1.7306  0.3651  0.3083
  104OSM   H14T10599   3.578   6.733   9.151  0.8689  0.3709 -1.3859
  104OSM   C15S10600   3.430   6.776   8.997 -0.0202 -0.6943 -0.3883
  104OSM   H15S10601   3.501   6.815   8.921  0.0430  1.4391  0.6978
  104OSM   H15T10602   3.396   6.856   9.066 -0.5303 -1.2934  0.0676
  104OSM   C16S10603   3.310   6.713   8.925 -1.1089 -0.0036  0.8303
  104OSM   H16S10604   3.243   6.786   8.875 -0.0725  0.5043  0.1584
  104OSM   H16T10605   3.244   6.673   9.006 -2.9315  0.8120 -0.1863
  104OSM   C17S10606   3.351   6.597   8.832  0.5568 -0.0729 -0.4295
  104OSM   H17S10607   3.264   6.529   8.818  0.3091  0.1885 -0.1614
  104OSM   H17T10608   3.417   6.523   8.882  1.2840  1.5645  1.1421
  104OSM   C18S10609   3.415   6.631   8.695  0.3812  0.3035  0.4192
  104OSM   H18S10610   3.367   6.721   8.651  1.6220  0.1763 -1.2903
  104OSM   H18T10611   3.423   6.543   8.629  1.5024 -0.6252  1.7190
  104OSM   H18U10612   3.513   6.671   8.730 -0.2267  0.5517  1.9118
  104OSM    C1F10613   3.438   6.201  10.223 -0.2444  0.1987  0.1308
  104OSM     OF10614   3.365   6.100  10.236  0.3623  0.0571  0.0586
  104OSM    C2F10615   3.559   6.205  10.139 -0.3689 -0.2470 -0.4484
  104OSM    H2F10616   3.624   6.287  10.174 -0.1356 -0.3276 -0.6890
  104OSM    H2G10617   3.528   6.246  10.040  1.2034 -0.7751 -1.1817
  104OSM    C3F10618   3.632   6.066  10.137 -0.3470 -0.4999 -0.3010
  104OSM    H3F10619   3.566   5.989  10.092 -1.4198  1.1323 -1.6580
  104OSM    H3G10620   3.665   6.033  10.238 -0.2707 -1.6473 -0.6838
  104OSM    C4F10621   3.771   6.066  10.059 -0.0027 -0.1329 -0.8045
  104OSM    H4F10622   3.821   5.966  10.063  0.0447 -0.1486 -1.5304
  104OSM    H4G10623   3.838   6.140  10.107 -0.0727  0.6869 -1.9351
  104OSM    C5F10624   3.761   6.111   9.909  0.3891 -0.8882  0.5028
  104OSM    H5F10625   3.719   6.213   9.894 -1.3682 -1.3282  2.0872
  104OSM    H5G10626   3.696   6.039   9.854 -0.5588  0.6429 -0.4532
  104OSM    C6F10627   3.906   6.119   9.850 -0.1583  0.9416 -0.1206
  104OSM    H6F10628   3.957   6.022   9.867 -0.6132  0.7308  0.0594
  104OSM    H6G10629   3.965   6.193   9.908  0.0868  0.3146  0.4364
  104OSM    C7F10630   3.912   6.162   9.702  0.4328 -0.2507  1.2985
  104OSM    H7F10631   3.869   6.263   9.687  0.4465 -0.5019 -0.6925
  104OSM    H7G10632   3.849   6.086   9.651  0.9742  0.9864 -1.3648
  104OSM    C8F10633   4.059   6.155   9.644  0.3249  0.0912 -0.1577
  104OSM    H8F10634   4.045   6.151   9.534 -2.4492  0.5549  0.1107
  104OSM    H8G10635   4.111   6.062   9.677 -2.0123 -1.5259 -0.7424
  104OSM    C9F10636   4.139   6.278   9.690 -0.2146 -0.5627 -0.1684
  104OSM    H9F10637   4.111   6.321   9.787  0.6845  0.5412 -0.3687
  104OSM   C10F10638   4.231   6.344   9.617 -0.3535  0.1891 -0.0417
  104OSM   H10F10639   4.263   6.444   9.650 -1.0149  0.2035  0.5742
  104OSM   C11F10640   4.269   6.302   9.479 -0.2695 -0.3223  0.0706
  104OSM   H11F10641   4.203   6.352   9.405  1.2710 -2.2000 -2.7610
  104OSM   H11G10642   4.243   6.198   9.452  0.3707 -0.0495 -1.7360
  104OSM   C12F10643   4.417   6.329   9.444 -0.4816 -0.8598  0.2123
  104OSM   H12F10644   4.490   6.286   9.516 -0.4755 -0.4046  0.4798
  104OSM   H12G10645   4.428   6.439   9.445  1.9410 -1.0438  0.7096
  104OSM   C13F10646   4.454   6.288   9.299 -0.3688 -0.5297 -0.5841
  104OSM   H13F10647   4.433   6.180   9.281 -2.9359 -0.2668  0.4180
  104OSM   H13G10648   4.564   6.296   9.300 -0.3892  0.5281  1.8978
  104OSM   C14F10649   4.393   6.380   9.197 -0.2695 -0.0126 -0.9228
  104OSM   H14F10650   4.388   6.487   9.229 -0.4323  0.1442 -1.4576
  104OSM   H14G10651   4.285   6.361   9.182 -1.0052  2.4733  0.5113
  104OSM   C15F10652   4.449   6.367   9.059  0.0948 -0.3301  0.2312
  104OSM   H15F10653   4.463   6.261   9.030 -0.8298 -0.7641  1.2952
  104OSM   H15G10654   4.542   6.428   9.061 -0.2299  0.1797  0.1259
  104OSM   C16F10655   4.354   6.427   8.964  0.3579 -0.3016 -0.1371
  104OSM   H16F10656   4.343   6.536   8.985  0.9676 -0.4360  0.9565
  104OSM   H16G10657   4.255   6.378   8.975 -0.4144  1.6421  2.3218
  104OSM   C17F10658   4.399   6.427   8.814  0.3265  0.3096  0.0988
  104OSM   H17F10659   4.408   6.329   8.762 -0.5786  0.1809  0.1603
  104OSM   H17G10660   4.498   6.477   8.811 -0.9194  2.8764 -2.0020
  104OSM   C18F10661   4.312   6.521   8.733 -0.1770  0.0136  0.4867
  104OSM   H18F10662   4.369   6.551   8.642  0.4920 -0.5777  0.7024
  104OSM   H18G10663   4.282   6.613   8.787 -0.1755  0.0187  0.4800
  104OSM   H18H10664   4.220   6.477   8.688  0.0570  1.6673 -1.7616
  105OSM      N10665   5.461   5.448  11.093  0.3760  0.2351  0.1537
  105OSM    C1510666   5.402   5.533  10.983 -0.3287 -0.5684 -0.1620
  105OSM   H15A10667   5.356   5.472  10.906 -0.0792 -0.6543 -0.2467
  105OSM   H15B10668   5.473   5.600  10.937  0.1759 -2.1529 -1.8550
  105OSM   H15C10669   5.319   5.596  11.009 -0.0894 -0.7794  1.1889
  105OSM    C1410670   5.506   5.540  11.194  0.0404 -0.0255  0.1438
  105OSM   H14A10671   5.573   5.616  11.158 -0.9818  1.2229  0.7469
  105OSM   H14B10672   5.555   5.478  11.267 -0.4993 -1.4025 -0.6372
  105OSM   H14C10673   5.420   5.579  11.248  0.9637  1.6740  0.4699
  105OSM    C1310674   5.361   5.359  11.154 -0.7685 -0.3552 -0.2201
  105OSM   H13A10675   5.333   5.280  11.086 -2.4375  1.6006 -1.9595
  105OSM   H13B10676   5.278   5.418  11.190  0.0991  2.3920 -2.2934
  105OSM   H13C10677   5.407   5.321  11.244 -3.1938  1.4048  1.9150
  105OSM    C1210678   5.574   5.362  11.033 -0.4246 -0.3066 -0.2226
  105OSM   H12A10679   5.596   5.286  11.106 -1.0734 -0.7728 -0.4970
  105OSM   H12B10680   5.667   5.414  11.022  0.5217 -1.5034  1.5338
  105OSM    C1110681   5.548   5.276  10.914 -0.1516  0.8049 -0.0907
  105OSM   H11A10682   5.643   5.222  10.892 -1.3873 -1.9947  0.9406
  105OSM   H11B10683   5.513   5.338  10.829  0.5909 -0.1758 -1.1565
  105OSM      P10684   5.434   5.030  10.893 -0.4266 -0.1531 -0.3387
  105OSM    O1310685   5.482   4.931  10.996  0.6807  0.0392  0.5668
  105OSM    O1410686   5.302   5.013  10.830 -0.4342 -0.2273 -0.5283
  105OSM    O1110687   5.532   5.026  10.768 -0.1155  0.1910  1.0147
  105OSM    O1210688   5.450   5.177  10.951 -0.5644 -0.0802 -0.4100
  105OSM    C1S10689   5.502   5.076  10.634 -0.8542  0.8063  0.2698
  105OSM    H1S10690   5.494   5.186  10.646 -3.8321  0.6812  0.1730
  105OSM    H1T10691   5.403   5.036  10.601 -1.8447  1.6668  2.0213
  105OSM     NF10692   5.587   5.097  10.394  0.8039 -0.4678 -0.1955
  105OSM    HNF10693   5.567   5.026  10.326 -0.7744 -1.4162  1.1718
  105OSM    C2S10694   5.618   5.039  10.532  0.3115 -0.7919 -0.1716
  105OSM    H2S10695   5.699   5.098  10.580  0.8170 -0.1519 -1.7330
  105OSM    C3S10696   5.654   4.887  10.529 -0.1095  0.3947  0.1376
  105OSM    H3S10697   5.569   4.835  10.479  0.8925 -0.1248 -1.1117
  105OSM     O310698   5.680   4.826  10.654  0.3726  0.0396 -0.1060
  105OSM    HO310699   5.643   4.885  10.721 -0.8873 -2.4947  1.6001
  105OSM    C4S10700   5.764   4.867  10.428  0.5878  0.2483  0.4355
  105OSM    H4S10701   5.721   4.865  10.326  0.9490  1.3922  0.2400
  105OSM    C5S10702   5.896   4.872  10.456 -0.4935 -0.1674  0.2371
  105OSM    H5S10703   5.921   4.885  10.563  0.6178 -1.6649  0.1875
  105OSM    C6S10704   6.011   4.869  10.357 -0.0178  0.6208 -0.1622
  105OSM    H6S10705   6.069   4.776  10.376  1.5811  2.1848  3.7214
  105OSM    H6T10706   6.080   4.954  10.376  2.1069 -1.1287  0.3577
  105OSM    C7S10707   5.966   4.876  10.212 -0.4418 -0.4926 -0.2549
  105OSM    H7S10708   5.900   4.966  10.209  0.4135  0.2054  1.0251
  105OSM    H7T10709   5.900   4.788  10.196 -1.2668 -0.2162  1.4464
  105OSM    C8S10710   6.078   4.875  10.111  0.5668 -0.1260 -0.5303
  105OSM    H8S10711   6.105   4.767  10.109 -0.8701 -0.5527  1.0195
  105OSM    H8T10712   6.162   4.937  10.150 -0.2901 -0.1856  1.5221
  105OSM    C9S10713   6.030   4.914   9.968 -0.1338 -0.8495 -0.0744
  105OSM    H9S10714   5.988   5.016   9.980 -2.4044 -1.5999 -1.0966
  105OSM    H9T10715   5.944   4.848   9.943 -1.7240 -0.3130  3.3589
  105OSM   C10S10716   6.131   4.899   9.854  0.3090  0.2128  0.5332
  105OSM   H10S10717   6.156   4.792   9.839 -0.4558  0.2190 -0.9311
  105OSM   H10T10718   6.222   4.953   9.888  0.5503 -0.3319  0.7686
  105OSM   C11S10719   6.095   4.946   9.709 -0.3171 -0.0661  0.6519
  105OSM   H11S10720   6.194   4.950   9.661  0.6530 -0.1705  2.5561
  105OSM   H11T10721   6.048   5.046   9.717  0.7512  0.3848  1.5166
  105OSM   C12S10722   6.000   4.847   9.632  0.0084  0.1882  0.0239
  105OSM   H12S10723   5.923   4.828   9.709  0.7915 -0.4712  0.6676
  105OSM   H12T10724   6.053   4.752   9.610 -2.1976 -0.9178 -0.8000
  105OSM   C13S10725   5.950   4.888   9.489 -0.3439  0.0136 -0.4974
  105OSM   H13S10726   5.887   4.978   9.506 -0.8329 -0.6934  1.8749
  105OSM   H13T10727   5.883   4.811   9.447  0.1926  0.0372 -1.4229
  105OSM   C14S10728   6.055   4.910   9.384 -0.6671 -0.1118 -0.5026
  105OSM   H14S10729   6.118   4.821   9.362  0.6184  0.3685  1.0974
  105OSM   H14T10730   6.132   4.983   9.416  0.6083 -0.3377 -2.8505
  105OSM   C15S10731   5.999   4.968   9.252 -0.0969 -0.4473 -0.2508
  105OSM   H15S10732   5.957   5.067   9.282  1.0849  0.7515 -2.3269
  105OSM   H15T10733   5.921   4.900   9.213 -1.0468  0.4697 -0.0195
  105OSM   C16S10734   6.095   4.994   9.143  0.6501 -0.0469 -0.3680
  105OSM   H16S10735   6.151   4.899   9.128  2.6380  1.3513 -2.6496
  105OSM   H16T10736   6.163   5.074   9.179  1.6831 -1.4356  0.9100
  105OSM   C17S10737   6.021   5.022   9.017 -0.1552  0.3979  0.4705
  105OSM   H17S10738   5.967   5.119   9.020  0.8913  0.9816  1.4111
  105OSM   H17T10739   5.951   4.939   8.993 -0.0445 -0.1343  1.8776
  105OSM   C18S10740   6.114   5.039   8.904  0.8882  0.5044 -0.1158
  105OSM   H18S10741   6.189   5.117   8.929 -0.2691  1.3300  0.9228
  105OSM   H18T10742   6.060   5.073   8.813 -0.2574 -0.1366  0.2926
  105OSM   H18U10743   6.151   4.938   8.879 -0.4406 -0.3943  1.3135
  105OSM    C1F10744   5.588   5.227  10.367  0.4785 -0.4934  0.9274
  105OSM     OF10745   5.602   5.313  10.454 -0.1937 -0.3854  0.4952
  105OSM    C2F10746   5.568   5.272  10.224 -1.0980  0.0586  0.0228
  105OSM    H2F10747   5.555   5.383  10.224  1.3817  0.4564 -2.3661
  105OSM    H2G10748   5.478   5.219  10.189 -1.9999  1.9542 -0.6611
  105OSM    C3F10749   5.688   5.240  10.130  0.0118  0.1275 -0.3817
  105OSM    H3F10750   5.688   5.128  10.131 -0.6670  0.1109  0.6569
  105OSM    H3G10751   5.783   5.276  10.175  0.1462 -1.2855  0.5700
  105OSM    C4F10752   5.673   5.286   9.982 -0.1669  0.9024 -0.1103
  105OSM    H4F10753   5.669   5.397   9.980 -0.7513  0.8889 -0.0714
  105OSM    H4G10754   5.571   5.260   9.945  0.0731  1.3859 -1.1765
  105OSM    C5F10755   5.771   5.226   9.878  0.2664  0.0530 -0.2558
  105OSM    H5F10756   5.782   5.116   9.886 -0.4229 -0.0866 -1.0520
  105OSM    H5G10757   5.867   5.278   9.898 -1.4235  3.1092  0.5785
  105OSM    C6F10758   5.732   5.279   9.733 -0.8020  0.4771  0.2534
  105OSM    H6F10759   5.715   5.389   9.733 -1.9937  0.3052  0.5118
  105OSM    H6G10760   5.635   5.230   9.708  0.1644 -0.6930 -1.3994
  105OSM    C7F10761   5.832   5.227   9.629  0.8387 -0.3652  0.0128
  105OSM    H7F10762   5.843   5.119   9.652 -0.6449 -0.5323  0.0887
  105OSM    H7G10763   5.925   5.286   9.638 -0.5949  2.0225 -0.0961
  105OSM    C8F10764   5.788   5.245   9.479  0.1440  0.2160 -0.1973
  105OSM    H8F10765   5.692   5.193   9.464  0.3161  0.3019 -1.8231
  105OSM    H8G10766   5.859   5.183   9.420 -1.0895 -0.1694 -1.3118
  105OSM    C9F10767   5.769   5.385   9.430 -0.3642  0.3873  0.0378
  105OSM    H9F10768   5.711   5.443   9.503 -0.5678 -0.1267  0.2939
  105OSM   C10F10769   5.799   5.433   9.313 -0.0936 -0.3196 -0.0981
  105OSM   H10F10770   5.790   5.542   9.299  0.5359 -0.2579 -0.0560
  105OSM   C11F10771   5.873   5.354   9.207 -0.0481 -0.3277  0.2698
  105OSM   H11F10772   5.826   5.343   9.107  0.4308  1.4513 -0.1864
  105OSM   H11G10773   5.876   5.247   9.236 -2.0575 -1.3434 -2.8297
  105OSM   C12F10774   6.023   5.389   9.192 -0.6744 -0.3073  0.2073
  105OSM   H12F10775   6.085   5.301   9.163 -0.2783 -0.2925  0.9873
  105OSM   H12G10776   6.063   5.417   9.292 -0.8355  2.5746 -0.4535
  105OSM   C13F10777   6.040   5.516   9.104 -0.5227 -0.0913 -0.1396
  105OSM   H13F10778   5.991   5.605   9.151  1.0673  1.1928 -0.8091
  105OSM   H13G10779   5.989   5.506   9.006  0.8845 -0.1108 -0.8894
  105OSM   C14F10780   6.191   5.549   9.083 -0.3439 -0.8882  0.6190
  105OSM   H14F10781   6.222   5.455   9.033  5.0534  1.2168 -0.6968
  105OSM   H14G10782   6.246   5.559   9.179 -0.1583 -2.6006  0.7273
  105OSM   C15F10783   6.232   5.665   8.984  0.2163  0.2720 -0.1171
  105OSM   H15F10784   6.231   5.759   9.044  1.9437 -0.2433  0.7931
  105OSM   H15G10785   6.164   5.688   8.900 -0.8170  1.8331  1.0768
  105OSM   C16F10786   6.376   5.647   8.931 -1.4871  0.0552  0.2027
  105OSM   H16F10787   6.388   5.560   8.863  0.9689  0.1073  0.4640
  105OSM   H16G10788   6.443   5.632   9.019 -1.8121 -0.5154  0.3613
  105OSM   C17F10789   6.421   5.780   8.865 -0.4443 -0.0646  0.7507
  105OSM   H17F10790   6.387   5.873   8.916 -2.0551 -0.2282  0.0544
  105OSM   H17G10791   6.362   5.772   8.771  1.0897 -0.5499 -0.2077
  105OSM   C18F10792   6.569   5.772   8.831 -0.6048 -0.4480  0.1315
  105OSM   H18F10793   6.594   5.846   8.752  1.2168  0.2700  1.3061
  105OSM   H18G10794   6.587   5.671   8.788  1.7795 -0.3861  0.8456
  105OSM   H18H10795   6.624   5.793   8.925  3.1164 -4.2649 -0.8942
  106OSM      N10796   5.042   3.550  10.879  0.0895  0.6825  1.1207
  106OSM    C1510797   5.139   3.543  11.000 -0.7664  0.0517  0.0223
  106OSM   H15A10798   5.174   3.441  11.012  3.4128  1.5615  2.8640
  106OSM   H15B10799   5.092   3.571  11.093 -0.6180  1.4042 -0.2967
  106OSM   H15C10800   5.228   3.603  10.986 -0.8927  0.7467  1.9878
  106OSM    C1410801   4.928   3.468  10.919  0.1808 -0.2564  0.4644
  106OSM   H14A10802   4.870   3.516  10.997  2.0668  0.0489  1.7711
  106OSM   H14B10803   4.953   3.366  10.945 -2.4716 -1.1208 -0.1652
  106OSM   H14C10804   4.869   3.467  10.829  0.7029  0.9390  0.0916
  106OSM    C1310805   5.001   3.695  10.868 -0.0381  1.0344  0.1226
  106OSM   H13A10806   4.965   3.732  10.773  0.6945  1.7394  0.1101
  106OSM   H13B10807   5.088   3.758  10.882  1.1056 -0.3619 -0.4991
  106OSM   H13C10808   4.931   3.734  10.941 -1.2721  2.1087 -1.5528
  106OSM    C1210809   5.103   3.491  10.751  0.9660 -0.1479  0.6847
  106OSM   H12A10810   5.032   3.522  10.676  0.1863 -1.4665  0.8564
  106OSM   H12B10811   5.122   3.385  10.746  1.6534 -0.0298  0.6504
  106OSM    C1110812   5.246   3.557  10.708 -0.2097 -0.3883  0.0767
  106OSM   H11A10813   5.233   3.666  10.724 -1.5986 -0.3800 -0.9392
  106OSM   H11B10814   5.253   3.543  10.598 -0.5913 -0.3827  0.0542
  106OSM      P10815   5.506   3.499  10.725  0.1192 -0.0118 -0.1172
  106OSM    O1310816   5.586   3.581  10.820 -0.3101 -0.2533 -0.0279
  106OSM    O1410817   5.546   3.359  10.705 -0.9107 -0.2780  0.2117
  106OSM    O1110818   5.514   3.581  10.585  0.0298  0.2950 -0.6172
  106OSM    O1210819   5.357   3.508  10.777  0.3244  0.3555  0.1312
  106OSM    C1S10820   5.588   3.520  10.480 -0.6691  0.1880  0.4207
  106OSM    H1S10821   5.544   3.423  10.451  0.3504 -0.4997  1.1061
  106OSM    H1T10822   5.688   3.479  10.508  0.7669  1.7195 -2.0112
  106OSM     NF10823   5.666   3.567  10.242  0.2960  0.5222 -0.2517
  106OSM    HNF10824   5.765   3.564  10.225  0.6631 -0.6663  1.8621
  106OSM    C2S10825   5.611   3.624  10.363  0.2540 -0.2646  0.3003
  106OSM    H2S10826   5.512   3.662  10.330  0.6826  0.3416 -0.3311
  106OSM    C3S10827   5.699   3.741  10.416  0.2367  0.2185 -0.3833
  106OSM    H3S10828   5.801   3.698  10.406  0.7186  1.4528 -0.9291
  106OSM     O310829   5.688   3.783  10.551 -0.4368 -0.3063 -1.1106
  106OSM    HO310830   5.626   3.723  10.592  1.8315 -0.0948  3.0783
  106OSM    C4S10831   5.686   3.861  10.334 -0.0851  0.4629  0.1090
  106OSM    H4S10832   5.593   3.917  10.353  0.5834  1.1576  1.5000
  106OSM    C5S10833   5.778   3.921  10.255 -0.2043 -0.2134 -0.3585
  106OSM    H5S10834   5.883   3.889  10.267 -0.1218 -0.5662 -1.8590
  106OSM    C6S10835   5.773   4.048  10.176 -0.5761 -0.9103  0.1853
  106OSM    H6S10836   5.834   4.132  10.215 -1.4822 -0.7499  1.3326
  106OSM    H6T10837   5.672   4.095  10.171  0.0738  0.5301  0.0121
  106OSM    C7S10838   5.807   4.007  10.032 -0.1362 -0.2373 -0.2112
  106OSM    H7S10839   5.734   3.934   9.991 -0.7552  0.7791 -0.9672
  106OSM    H7T10840   5.910   3.968  10.016  1.2797  2.5103  1.3063
  106OSM    C8S10841   5.797   4.124   9.934 -0.1299 -0.0210  0.2669
  106OSM    H8S10842   5.881   4.194   9.958 -0.2633 -0.1653  1.2102
  106OSM    H8T10843   5.707   4.188   9.941  0.2257  0.5630 -0.3299
  106OSM    C9S10844   5.806   4.086   9.785  0.0037  0.7032 -0.4044
  106OSM    H9S10845   5.811   4.181   9.727 -0.8332  1.1743  0.2708
  106OSM    H9T10846   5.711   4.038   9.755 -0.6882  2.4498 -1.1095
  106OSM   C10S10847   5.924   3.989   9.748  0.0915 -0.6170 -0.2252
  106OSM   H10S10848   5.948   3.918   9.830  2.3675 -0.7975 -0.9790
  106OSM   H10T10849   6.021   4.039   9.730  0.6738 -2.4635 -2.8798
  106OSM   C11S10850   5.890   3.916   9.606 -0.1225 -0.1049 -1.1884
  106OSM   H11S10851   5.791   3.865   9.615  0.4208 -0.9098  0.9931
  106OSM   H11T10852   5.961   3.835   9.579  0.4316  0.4810 -1.5147
  106OSM   C12S10853   5.877   4.025   9.493 -0.4913  0.4398  0.1415
  106OSM   H12S10854   5.954   4.104   9.503 -1.4390  1.4750 -0.5106
  106OSM   H12T10855   5.778   4.076   9.501 -2.2555 -2.4902 -1.2662
  106OSM   C13S10856   5.875   3.967   9.353  0.3547  0.3733  0.5993
  106OSM   H13S10857   5.799   3.886   9.350  1.3790 -0.6381 -2.4525
  106OSM   H13T10858   5.970   3.909   9.345  1.1342  1.4596  1.7272
  106OSM   C14S10859   5.853   4.068   9.242 -0.2032 -0.2372  0.3299
  106OSM   H14S10860   5.937   4.139   9.254  1.1714 -1.8232  0.5171
  106OSM   H14T10861   5.760   4.129   9.248 -0.5973 -0.5888 -1.5335
  106OSM   C15S10862   5.859   4.012   9.098  0.0296  0.4714 -0.6592
  106OSM   H15S10863   5.777   3.941   9.075  2.5901 -3.0137  0.2165
  106OSM   H15T10864   5.959   3.965   9.096  0.0510  0.1496  2.4161
  106OSM   C16S10865   5.871   4.127   8.997 -0.8210  0.2950 -0.1054
  106OSM   H16S10866   5.955   4.195   9.021 -0.6866  0.5935 -1.3673
  106OSM   H16T10867   5.778   4.188   9.001 -1.4284 -0.4835 -1.6784
  106OSM   C17S10868   5.882   4.062   8.856  0.3941 -0.0176  0.0427
  106OSM   H17S10869   5.788   4.008   8.832  0.5623  0.5436 -2.1136
  106OSM   H17T10870   5.965   3.989   8.852 -0.4357 -1.0608  1.2486
  106OSM   C18S10871   5.902   4.167   8.743 -0.0501 -0.9818  0.5793
  106OSM   H18S10872   5.856   4.266   8.766  0.6351 -0.7687  1.0348
  106OSM   H18T10873   5.875   4.123   8.644 -1.2013 -0.2416  0.5455
  106OSM   H18U10874   6.010   4.190   8.742 -0.7034  2.7439 -0.9074
  106OSM    C1F10875   5.589   3.501  10.155  0.2708  0.9042  0.7662
  106OSM     OF10876   5.482   3.455  10.199 -0.1125 -0.7214  0.1386
  106OSM    C2F10877   5.629   3.487  10.016 -0.5573  0.4558  0.3469
  106OSM    H2F10878   5.548   3.525   9.951 -3.3570  0.1637  3.4419
  106OSM    H2G10879   5.654   3.380   9.997 -0.8041  0.0596  2.0509
  106OSM    C3F10880   5.759   3.566   9.980  0.7930  0.2503  0.2447
  106OSM    H3F10881   5.844   3.503  10.014  2.0329  0.9726 -1.3367
  106OSM    H3G10882   5.748   3.666  10.026 -3.1919 -0.3116  0.8454
  106OSM    C4F10883   5.779   3.599   9.830 -0.0568  0.3254 -0.3270
  106OSM    H4F10884   5.872   3.659   9.815  0.8599 -0.6756  1.1471
  106OSM    H4G10885   5.682   3.650   9.808 -0.3716 -0.6388 -1.2464
  106OSM    C5F10886   5.786   3.473   9.743  0.0706  0.0935  0.2011
  106OSM    H5F10887   5.704   3.406   9.776 -0.8509  0.4477 -1.2610
  106OSM    H5G10888   5.881   3.423   9.772 -0.4737 -0.4293  1.1390
  106OSM    C6F10889   5.782   3.508   9.597 -0.4906  0.0541  0.1722
  106OSM    H6F10890   5.839   3.427   9.547 -0.2894  0.7436 -0.7555
  106OSM    H6G10891   5.840   3.598   9.569 -1.1645 -0.1790 -2.2818
  106OSM    C7F10892   5.630   3.519   9.546  0.0809 -0.2372 -0.0449
  106OSM    H7F10893   5.585   3.608   9.595  0.5789  0.1958 -0.3613
  106OSM    H7G10894   5.576   3.429   9.583 -0.3168  0.7433  1.9083
  106OSM    C8F10895   5.610   3.523   9.391  0.3869  0.0994  0.3157
  106OSM    H8F10896   5.505   3.491   9.375  0.6198  0.7148 -3.2645
  106OSM    H8G10897   5.667   3.437   9.351 -0.5663 -0.4297  0.0920
  106OSM    C9F10898   5.642   3.645   9.315 -0.3936 -0.1031  0.3304
  106OSM    H9F10899   5.717   3.701   9.373 -1.6961  1.0265  0.9903
  106OSM   C10F10900   5.599   3.693   9.193 -0.1230 -0.5270  0.1110
  106OSM   H10F10901   5.625   3.793   9.155  0.7906 -0.9345 -0.3644
  106OSM   C11F10902   5.499   3.626   9.110 -0.0289  0.5794 -0.5116
  106OSM   H11F10903   5.490   3.521   9.143  3.4943  0.1199 -0.6200
  106OSM   H11G10904   5.542   3.626   9.007 -0.1717  0.1281 -0.5706
  106OSM   C12F10905   5.355   3.681   9.123 -0.0436 -0.2205  0.1251
  106OSM   H12F10906   5.356   3.787   9.090 -0.6085 -0.0450  0.6613
  106OSM   H12G10907   5.326   3.680   9.231  2.3798  0.5640  0.8489
  106OSM   C13F10908   5.250   3.622   9.024 -1.0015 -0.4484 -0.0782
  106OSM   H13F10909   5.293   3.606   8.923  0.0837  0.8551  0.1554
  106OSM   H13G10910   5.162   3.687   9.006  0.9621  2.2471 -0.4799
  106OSM   C14F10911   5.198   3.484   9.087  0.2446 -0.1934  0.7263
  106OSM   H14F10912   5.156   3.515   9.184  1.1403  3.5196  0.0795
  106OSM   H14G10913   5.285   3.418   9.109  2.0481  2.4456  1.9963
  106OSM   C15F10914   5.093   3.410   8.997  0.0604  0.3438 -0.2541
  106OSM   H15F10915   5.141   3.375   8.903 -1.2624 -2.1282 -0.0882
  106OSM   H15G10916   5.011   3.480   8.971  2.0675  2.1107 -2.2817
  106OSM   C16F10917   5.028   3.284   9.061  0.2270  0.1005 -0.5835
  106OSM   H16F10918   5.109   3.209   9.071  1.9337  1.9898  0.7626
  106OSM   H16G10919   4.962   3.250   8.979 -0.7652 -2.5342  1.2088
  106OSM   C17F10920   4.945   3.305   9.187 -0.2435  0.6515 -0.3480
  106OSM   H17F10921   4.996   3.339   9.279 -1.7222 -0.1703  0.8300
  106OSM   H17G10922   4.919   3.203   9.220 -2.2244  1.8918  2.3637
  106OSM   C18F10923   4.821   3.393   9.164  0.0314  0.5414  0.1800
  106OSM   H18F10924   4.758   3.407   9.255 -1.8034  0.5338 -1.0271
  106OSM   H18G10925   4.748   3.353   9.089  0.9869  3.3327 -2.4484
  106OSM   H18H10926   4.841   3.493   9.120  0.1516  0.7866  0.7824
  107OSM      N10927   1.556   1.637  11.202  0.2259 -1.0721 -0.1499
  107OSM    C1510928   1.426   1.695  11.169  1.2448  0.4498 -0.2686
  107OSM   H15A10929   1.428   1.738  11.070 -0.2133  1.0829 -0.0491
  107OSM   H15B10930   1.385   1.766  11.240 -0.0586  1.1632 -1.6790
  107OSM   H15C10931   1.352   1.618  11.154  1.0550  0.9871 -2.3948
  107OSM    C1410932   1.657   1.739  11.180 -0.3946 -0.6357  0.0103
  107OSM   H14A10933   1.668   1.755  11.074 -2.3203  1.2234  0.0228
  107OSM   H14B10934   1.747   1.717  11.236 -0.9661 -2.0630  0.3909
  107OSM   H14C10935   1.621   1.832  11.222  1.0616  0.0105 -0.0852
  107OSM    C1310936   1.566   1.588  11.343  0.2797  0.9672  0.1990
  107OSM   H13A10937   1.561   1.670  11.413  0.6242 -0.4518  1.9790
  107OSM   H13B10938   1.658   1.533  11.358  0.8515  1.7199 -0.4536
  107OSM   H13C10939   1.480   1.524  11.356  2.4055 -2.3488 -0.6177
  107OSM    C1210940   1.590   1.514  11.115 -0.1909 -0.3922  0.2813
  107OSM   H12A10941   1.513   1.439  11.126 -0.0680 -0.8365 -1.5678
  107OSM   H12B10942   1.680   1.470  11.158  1.2082 -0.9991 -2.9858
  107OSM    C1110943   1.611   1.531  10.963 -0.3771  0.5989 -0.0892
  107OSM   H11A10944   1.534   1.597  10.919  0.6679  2.6849  1.0673
  107OSM   H11B10945   1.604   1.431  10.914 -0.1433 -0.0577  1.1608
  107OSM      P10946   1.879   1.524  10.949 -0.0720 -0.0182 -0.0954
  107OSM    O1310947   1.978   1.634  10.932  0.1071  0.6175  0.4527
  107OSM    O1410948   1.884   1.444  11.074 -0.1169 -0.4419 -0.3375
  107OSM    O1110949   1.883   1.428  10.822  0.4578  0.0124 -0.4795
  107OSM    O1210950   1.734   1.588  10.928  0.0815  0.3064  0.1030
  107OSM    C1S10951   1.884   1.483  10.692  0.1998 -0.0518 -0.0526
  107OSM    H1S10952   1.969   1.552  10.673  2.0684 -1.9780  0.8091
  107OSM    H1T10953   1.784   1.530  10.682 -0.1836 -0.4645  1.5748
  107OSM     NF10954   1.892   1.439  10.448 -0.1506 -0.7147 -0.3571
  107OSM    HNF10955   1.817   1.434  10.382  0.8348  2.6218 -1.9595
  107OSM    C2S10956   1.896   1.374  10.577 -0.0195  0.7298  0.2851
  107OSM    H2S10957   1.985   1.310  10.594 -0.9135 -0.8180 -0.6781
  107OSM    C3S10958   1.790   1.262  10.599  0.1529  0.3068  0.7309
  107OSM    H3S10959   1.695   1.306  10.563  0.0403  0.1337  0.8154
  107OSM     O310960   1.776   1.213  10.733  0.8161  0.7111  0.2547
  107OSM    HO310961   1.831   1.264  10.793  1.1331  2.1360 -1.1800
  107OSM    C4S10962   1.806   1.141  10.500  0.7558 -0.3289  0.1263
  107OSM    H4S10963   1.749   1.156  10.407 -0.9054  0.8597  1.2765
  107OSM    C5S10964   1.892   1.034  10.517  0.0556 -0.7557  0.0723
  107OSM    H5S10965   1.970   1.034  10.594  0.2224 -0.0691 -0.0937
  107OSM    C6S10966   1.895   0.915  10.431  0.1077 -0.6463 -0.5977
  107OSM    H6S10967   1.893   0.819  10.486 -0.6639 -1.3316 -1.7856
  107OSM    H6T10968   1.997   0.918  10.387  0.5080 -0.0289  0.3561
  107OSM    C7S10969   1.798   0.909  10.315  0.1961 -0.3086  0.4692
  107OSM    H7S10970   1.805   1.006  10.261  0.8667  2.0553  4.4557
  107OSM    H7T10971   1.696   0.890  10.355 -0.1365  0.8875  0.2403
  107OSM    C8S10972   1.831   0.794  10.213  0.3288  0.2799 -0.1208
  107OSM    H8S10973   1.789   0.698  10.251  1.2949 -0.8306 -1.7080
  107OSM    H8T10974   1.938   0.791  10.185  0.4076  2.0637 -0.1195
  107OSM    C9S10975   1.754   0.810  10.077  0.2352 -0.0799 -0.3101
  107OSM    H9S10976   1.794   0.908  10.045  0.3821 -0.2872 -0.7726
  107OSM    H9T10977   1.645   0.811  10.100  0.2555  2.0522 -0.1241
  107OSM   C10S10978   1.803   0.691   9.991  0.5070 -0.0922  0.2196
  107OSM   H10S10979   1.791   0.597  10.049 -2.2778  0.9270  1.5064
  107OSM   H10T10980   1.909   0.713   9.966  0.2142  0.2090 -0.7883
  107OSM   C11S10981   1.729   0.674   9.855  0.7424 -0.4615 -0.6559
  107OSM   H11S10982   1.711   0.776   9.815 -0.6023 -0.9882 -1.4654
  107OSM   H11T10983   1.633   0.627   9.885  0.2654 -0.0657 -1.5302
  107OSM   C12S10984   1.781   0.579   9.752  0.2615 -0.4720 -0.1246
  107OSM   H12S10985   1.788   0.475   9.792  0.7461 -1.1004 -1.7631
  107OSM   H12T10986   1.888   0.596   9.727  0.1725 -0.2235 -0.3334
  107OSM   C13S10987   1.691   0.573   9.629 -0.2236 -0.4270 -1.0304
  107OSM   H13S10988   1.691   0.670   9.575  0.8472  0.4043  0.3852
  107OSM   H13T10989   1.592   0.553   9.677  0.3539  0.3713  0.5782
  107OSM   C14S10990   1.728   0.470   9.518 -0.3632  0.6872  0.2167
  107OSM   H14S10991   1.696   0.366   9.545  0.4340 -0.3878 -2.6437
  107OSM   H14T10992   1.837   0.465   9.502 -0.4866  2.0070 -1.2849
  107OSM   C15S10993   1.662   0.506   9.389 -0.2635 -0.1392  1.0151
  107OSM   H15S10994   1.699   0.604   9.353 -2.2580 -0.1847 -1.4167
  107OSM   H15T10995   1.553   0.518   9.408 -0.4722 -0.2087 -0.0628
  107OSM   C16S10996   1.683   0.381   9.295 -0.2535 -0.3215  0.1095
  107OSM   H16S10997   1.619   0.305   9.345 -2.1870  0.3150 -1.2579
  107OSM   H16T10998   1.783   0.337   9.310 -1.9885 -4.5818  0.4232
  107OSM   C17S10999   1.654   0.421   9.147  0.3682 -0.0562  0.7716
  107OSM   H17S11000   1.727   0.496   9.110 -0.9005 -0.1020 -2.0362
  107OSM   H17T11001   1.554   0.468   9.136  0.8386  0.3690 -2.6506
  107OSM   C18S11002   1.653   0.306   9.043 -0.2291 -0.0932 -0.5526
  107OSM   H18S11003   1.584   0.223   9.068  0.5005 -0.7768 -0.7509
  107OSM   H18T11004   1.759   0.271   9.041 -0.3592 -0.6800  1.3279
  107OSM   H18U11005   1.617   0.333   8.942 -1.1057 -0.0102 -0.2218
  107OSM    C1F11006   1.991   1.520  10.417 -0.3760 -0.7261  0.6153
  107OSM     OF11007   2.099   1.513  10.475  0.4100 -0.3427 -0.3453
  107OSM    C2F11008   1.965   1.606  10.298  0.0772 -0.7233  0.0326
  107OSM    H2F11009   1.939   1.707  10.334  0.7858 -0.4477 -0.2234
  107OSM    H2G11010   1.874   1.564  10.249  0.9905 -0.5904 -1.8730
  107OSM    C3F11011   2.087   1.603  10.204 -1.1589 -0.0708 -0.5473
  107OSM    H3F11012   2.118   1.496  10.202 -1.1124 -0.0724  0.0716
  107OSM    H3G11013   2.171   1.657  10.252 -1.4643 -0.4128  0.3946
  107OSM    C4F11014   2.050   1.652  10.059  0.2254  0.2250  0.2484
  107OSM    H4F11015   2.034   1.762  10.059 -0.2020  0.1640  0.6268
  107OSM    H4G11016   1.953   1.603  10.037 -0.2168  1.9803 -2.0902
  107OSM    C5F11017   2.152   1.618   9.951 -0.6566 -0.4105 -0.0778
  107OSM    H5F11018   2.185   1.512   9.962  2.5127  0.5367  0.5021
  107OSM    H5G11019   2.239   1.681   9.979 -0.6306  0.0863 -1.2483
  107OSM    C6F11020   2.109   1.651   9.807 -0.3452 -1.0932  0.0860
  107OSM    H6F11021   2.194   1.655   9.735 -2.0807 -1.6179 -2.1061
  107OSM    H6G11022   2.050   1.745   9.817 -1.1419 -1.8276  3.2666
  107OSM    C7F11023   2.016   1.538   9.761  0.2102 -0.1101 -0.0593
  107OSM    H7F11024   1.925   1.523   9.822 -0.0151 -0.1733 -0.4029
  107OSM    H7G11025   2.058   1.438   9.783  0.2349 -0.1304 -0.1975
  107OSM    C8F11026   1.990   1.538   9.607  0.4540 -0.0638 -0.0425
  107OSM    H8F11027   1.956   1.642   9.586  0.8522  0.5116  1.9188
  107OSM    H8G11028   1.899   1.482   9.576 -1.0122  0.5370  2.8319
  107OSM    C9F11029   2.114   1.501   9.529  0.0540 -0.6220  0.1102
  107OSM    H9F11030   2.198   1.568   9.554  0.0398  0.3043 -2.0795
  107OSM   C10F11031   2.139   1.403   9.442 -0.5878  0.3579  0.1391
  107OSM   H10F11032   2.244   1.383   9.416 -0.2633  1.6477  0.3731
  107OSM   C11F11033   2.040   1.299   9.391 -0.3187 -0.5165 -0.0666
  107OSM   H11F11034   1.947   1.289   9.452  1.8028  1.6522  4.0184
  107OSM   H11G11035   2.094   1.203   9.397  1.5691  0.5634  1.5593
  107OSM   C12F11036   2.008   1.321   9.247 -0.1230  0.7592 -0.8034
  107OSM   H12F11037   1.936   1.240   9.223 -0.0774  1.2423 -2.7220
  107OSM   H12G11038   2.099   1.304   9.185  0.2213  0.2883 -0.1882
  107OSM   C13F11039   1.933   1.451   9.210 -0.4418 -0.5080  0.3789
  107OSM   H13F11040   2.010   1.531   9.207 -1.4777  0.4979 -0.9945
  107OSM   H13G11041   1.877   1.489   9.298 -0.2187  0.5084  0.0981
  107OSM   C14F11042   1.864   1.441   9.078  0.3538  0.1358 -0.1078
  107OSM   H14F11043   1.929   1.387   9.006 -0.4848 -0.1567 -0.6572
  107OSM   H14G11044   1.866   1.543   9.033  0.4633  0.1021 -0.1793
  107OSM   C15F11045   1.723   1.379   9.087  0.2763  0.1145 -0.1664
  107OSM   H15F11046   1.644   1.441   9.134 -0.7434  0.7420 -2.5392
  107OSM   H15G11047   1.722   1.279   9.134  0.2687 -0.3473 -1.1119
  107OSM   C16F11048   1.662   1.369   8.939  0.1558 -0.5980  0.0155
  107OSM   H16F11049   1.690   1.270   8.897 -0.1036 -1.2312  1.3086
  107OSM   H16G11050   1.711   1.444   8.873 -0.9073 -0.5882 -0.8091
  107OSM   C17F11051   1.516   1.395   8.934  0.5178 -0.2742 -0.6925
  107OSM   H17F11052   1.500   1.501   8.961  0.0208  0.5645 -3.8293
  107OSM   H17G11053   1.477   1.320   9.006  0.1366  0.2401 -0.3626
  107OSM   C18F11054   1.442   1.369   8.800 -0.5432  0.1469  0.4764
  107OSM   H18F11055   1.447   1.262   8.773  0.2955  0.0885  0.8639
  107OSM   H18G11056   1.505   1.420   8.724 -1.6481  0.3095 -0.3716
  107OSM   H18H11057   1.340   1.413   8.792 -0.3212  0.4374 -1.2184
  108OSM      N11058   4.637   4.949  10.894  0.0708  0.2762  0.2175
  108OSM    C1511059   4.777   4.974  10.931 -0.0188  0.0897  0.1665
  108OSM   H15A11060   4.829   4.902  10.871 -3.6177 -2.2817 -0.4122
  108OSM   H15B11061   4.798   4.947  11.033 -2.3836  1.6560  1.1609
  108OSM   H15C11062   4.803   5.076  10.906 -1.3527  0.6432  0.9309
  108OSM    C1411063   4.620   4.793  10.934 -0.2872 -0.3767 -0.5383
  108OSM   H14A11064   4.524   4.761  10.896 -0.1123  1.6689 -3.0405
  108OSM   H14B11065   4.625   4.783  11.041 -0.6087 -1.5003 -0.6149
  108OSM   H14C11066   4.699   4.732  10.894 -1.0230 -1.0649 -0.9658
  108OSM    C1311067   4.542   5.022  10.983  0.0775 -0.2979 -0.4414
  108OSM   H13A11068   4.555   5.129  10.987  0.0223 -0.2643 -1.0695
  108OSM   H13B11069   4.556   4.980  11.082  2.8032 -1.0793 -1.0895
  108OSM   H13C11070   4.440   5.001  10.953  1.0178 -1.5261 -3.0647
  108OSM    C1211071   4.606   4.967  10.741  0.0526  0.0097 -0.2373
  108OSM   H12A11072   4.677   4.897  10.699  0.7859  1.3069 -1.2235
  108OSM   H12B11073   4.630   5.065  10.704  1.6985 -0.7005 -1.1881
  108OSM    C1111074   4.464   4.943  10.691  0.0215  0.6372  0.3704
  108OSM   H11A11075   4.454   4.934  10.580 -1.5501  1.2248  0.4423
  108OSM   H11B11076   4.420   5.038  10.725 -1.2202 -0.0980  0.8942
  108OSM      P11077   4.240   4.838  10.771 -0.0709 -0.1551 -0.0038
  108OSM    O1311078   4.216   4.771  10.901  0.1174 -0.9160 -0.7553
  108OSM    O1411079   4.204   4.978  10.772  0.0658 -0.0232  0.0920
  108OSM    O1111080   4.173   4.759  10.652  0.5950 -0.3301  0.2507
  108OSM    O1211081   4.396   4.827  10.743 -0.1625  0.1631 -0.2261
  108OSM    C1S11082   4.218   4.760  10.515  0.6840 -0.9881 -0.4430
  108OSM    H1S11083   4.308   4.821  10.495 -0.4575  0.8432 -0.2630
  108OSM    H1T11084   4.146   4.813  10.449  0.7189  2.4862  2.0289
  108OSM     NF11085   4.282   4.640  10.323 -0.1759  0.1114 -0.0799
  108OSM    HNF11086   4.222   4.589  10.262  1.4379 -1.1085 -0.7069
  108OSM    C2S11087   4.241   4.622  10.461  0.9639 -0.3791 -0.6267
  108OSM    H2S11088   4.324   4.568  10.511  0.1591 -1.7745 -0.7515
  108OSM    C3S11089   4.116   4.534  10.493  0.1169 -0.0221  0.1454
  108OSM    H3S11090   4.020   4.583  10.465  0.1445 -0.7191 -1.2554
  108OSM     O311091   4.111   4.487  10.628 -0.0602 -0.2260 -0.1340
  108OSM    HO311092   4.196   4.521  10.656 -1.0586  1.6543  0.8274
  108OSM    C4S11093   4.121   4.407  10.412  0.1389  0.1116 -0.1775
  108OSM    H4S11094   4.198   4.332  10.436 -1.5237 -2.1001 -1.3282
  108OSM    C5S11095   4.039   4.382  10.308 -0.6347  0.3119 -0.1926
  108OSM    H5S11096   3.965   4.454  10.271 -2.8755 -1.6807  0.2137
  108OSM    C6S11097   4.057   4.256  10.229 -0.2659 -0.3395 -0.0092
  108OSM    H6S11098   3.963   4.198  10.221 -0.7273  0.2723  0.7361
  108OSM    H6T11099   4.131   4.183  10.267  1.6963 -0.3672 -3.4696
  108OSM    C7S11100   4.116   4.297  10.090 -0.1396  0.3890 -0.2575
  108OSM    H7S11101   4.203   4.366  10.101 -0.5090  1.3574 -2.7932
  108OSM    H7T11102   4.033   4.340  10.029  0.1369  0.8728 -0.2992
  108OSM    C8S11103   4.170   4.172  10.021 -0.9123  0.2239  0.7387
  108OSM    H8S11104   4.096   4.089  10.018 -2.5074  1.6278 -1.6940
  108OSM    H8T11105   4.267   4.141  10.066 -1.0136 -1.5153 -0.1728
  108OSM    C9S11106   4.197   4.208   9.876  0.0071 -0.5707 -0.1600
  108OSM    H9S11107   4.268   4.293   9.877  1.4310 -1.6897  1.8230
  108OSM    H9T11108   4.101   4.238   9.828  0.3445  0.9388  0.0808
  108OSM   C10S11109   4.267   4.097   9.795 -0.1696 -0.6503 -0.5778
  108OSM   H10S11110   4.198   4.011   9.784 -0.0507 -0.5611 -2.2891
  108OSM   H10T11111   4.359   4.063   9.847  0.1304  0.9528  0.0209
  108OSM   C11S11112   4.305   4.147   9.657  0.0469  1.0352  0.0577
  108OSM   H11S11113   4.353   4.247   9.659 -0.5073  1.3082  1.5170
  108OSM   H11T11114   4.203   4.163   9.617  0.4716  0.7704 -1.1517
  108OSM   C12S11115   4.381   4.042   9.580 -1.0120  0.4401 -0.2499
  108OSM   H12S11116   4.329   3.945   9.593 -0.6665  0.0618 -1.5282
  108OSM   H12T11117   4.488   4.032   9.608 -0.8158 -2.6082 -1.6938
  108OSM   C13S11118   4.384   4.042   9.428 -0.2603 -0.9974  0.1809
  108OSM   H13S11119   4.279   4.042   9.395 -0.2782  0.0459  0.1927
  108OSM   H13T11120   4.421   3.951   9.376  1.4975 -0.4456  0.3665
  108OSM   C14S11121   4.449   4.169   9.365 -0.3036  0.2473  0.1150
  108OSM   H14S11122   4.545   4.184   9.419  2.7115  0.2567 -4.6085
  108OSM   H14T11123   4.389   4.263   9.375 -0.8181  0.0022 -0.5910
  108OSM   C15S11124   4.485   4.141   9.214 -0.1341 -0.4591  0.7678
  108OSM   H15S11125   4.538   4.043   9.207 -1.0503 -0.8910 -0.2026
  108OSM   H15T11126   4.567   4.210   9.184 -1.0892  0.4191  0.1359
  108OSM   C16S11127   4.364   4.142   9.121 -0.2810 -0.5481 -0.4920
  108OSM   H16S11128   4.297   4.229   9.140 -0.3995 -0.3288 -1.8075
  108OSM   H16T11129   4.305   4.056   9.157  0.8793 -0.7322  1.0941
  108OSM   C17S11130   4.394   4.135   8.967 -0.6595  0.4483 -0.4576
  108OSM   H17S11131   4.444   4.228   8.934  0.8634 -0.1714 -0.0273
  108OSM   H17T11132   4.299   4.135   8.911 -0.5152 -0.7910 -0.7436
  108OSM   C18S11133   4.482   4.020   8.915 -0.6473  0.1945 -0.2551
  108OSM   H18S11134   4.583   4.050   8.950 -1.0207 -0.7118  1.7144
  108OSM   H18T11135   4.493   4.014   8.804  1.0682 -0.6527 -0.0841
  108OSM   H18U11136   4.445   3.924   8.956 -0.1831 -0.7234 -1.8743
  108OSM    C1F11137   4.392   4.715  10.287  0.4278 -0.2324  0.4931
  108OSM     OF11138   4.485   4.741  10.361 -0.3058  0.0536  0.0356
  108OSM    C2F11139   4.396   4.758  10.139  0.3133 -0.0998  0.5390
  108OSM    H2F11140   4.292   4.772  10.101  1.3828  1.1780 -2.1594
  108OSM    H2G11141   4.427   4.671  10.076 -0.5846  0.5708 -0.8844
  108OSM    C3F11142   4.484   4.882  10.117  0.4834 -0.2729 -0.0054
  108OSM    H3F11143   4.578   4.859  10.170  0.6129 -0.0020 -0.1156
  108OSM    H3G11144   4.445   4.968  10.176  0.4264  1.1447 -1.9782
  108OSM    C4F11145   4.501   4.928   9.973  0.1336  0.4383  0.0333
  108OSM    H4F11146   4.410   4.980   9.938 -0.8121 -0.5219  0.9910
  108OSM    H4G11147   4.523   4.845   9.903 -1.9300 -1.6877  1.7439
  108OSM    C5F11148   4.618   5.028   9.974  0.0861  0.3313  0.0029
  108OSM    H5F11149   4.708   5.002  10.035 -0.3723 -1.7216 -0.1170
  108OSM    H5G11150   4.580   5.119  10.026 -0.8176 -0.2244  0.3327
  108OSM    C6F11151   4.669   5.081   9.838  0.2917 -0.4370  0.5122
  108OSM    H6F11152   4.741   5.010   9.792 -0.1619 -1.4093  1.2656
  108OSM    H6G11153   4.724   5.176   9.862 -1.0960 -0.1246  2.7606
  108OSM    C7F11154   4.559   5.122   9.737  0.2836 -0.4339 -0.2721
  108OSM    H7F11155   4.488   5.193   9.785  0.8980 -0.1836  0.2920
  108OSM    H7G11156   4.509   5.032   9.695  2.7656 -1.1938 -1.8406
  108OSM    C8F11157   4.620   5.182   9.610  0.8934  0.0719 -0.0150
  108OSM    H8F11158   4.688   5.262   9.646  0.0573  1.2537 -0.9784
  108OSM    H8G11159   4.531   5.231   9.565 -0.6271 -1.4896  1.1740
  108OSM    C9F11160   4.691   5.083   9.517 -0.0753 -0.1729  0.4417
  108OSM    H9F11161   4.794   5.052   9.543  1.3654  2.7432 -1.2746
  108OSM   C10F11162   4.644   5.034   9.404 -0.6227 -0.2123  0.4108
  108OSM   H10F11163   4.713   4.973   9.344  0.6124  1.3786  0.1538
  108OSM   C11F11164   4.507   5.058   9.341  0.0589  0.4205 -0.7227
  108OSM   H11F11165   4.435   5.074   9.424  1.8925  0.2240  0.9751
  108OSM   H11G11166   4.471   4.968   9.286  0.7338 -0.2071 -0.1602
  108OSM   C12F11167   4.476   5.185   9.252 -0.0883  0.7892  0.3710
  108OSM   H12F11168   4.531   5.275   9.285 -1.5336  1.3787  1.2771
  108OSM   H12G11169   4.368   5.211   9.257 -0.1545  0.5638  0.1614
  108OSM   C13F11170   4.508   5.165   9.102  0.0475 -0.4594 -0.3228
  108OSM   H13F11171   4.616   5.155   9.078 -0.4154 -0.4730 -2.5495
  108OSM   H13G11172   4.471   5.255   9.048  0.5644 -1.2514 -2.0626
  108OSM   C14F11173   4.421   5.054   9.034 -0.3961  0.0761 -0.3675
  108OSM   H14F11174   4.319   5.071   9.075 -0.2860 -1.0930  0.4550
  108OSM   H14G11175   4.448   4.950   9.064  0.2765  0.3894  0.1175
  108OSM   C15F11176   4.409   5.058   8.888 -0.0309  0.4121  0.8467
  108OSM   H15F11177   4.368   5.158   8.861  1.7287  0.5410 -1.6878
  108OSM   H15G11178   4.338   4.983   8.847  0.3971 -0.6144  1.9469
  108OSM   C16F11179   4.545   5.019   8.811  0.1512  0.0845  0.0129
  108OSM   H16F11180   4.578   4.918   8.845  0.2528 -0.0715 -0.5449
  108OSM   H16G11181   4.628   5.088   8.837  0.3997 -0.7682  1.6498
  108OSM   C17F11182   4.518   5.029   8.659 -0.0053 -0.2208 -0.0561
  108OSM   H17F11183   4.464   5.125   8.639  3.0627  1.5279 -0.5819
  108OSM   H17G11184   4.457   4.945   8.621  0.5205 -0.7414  0.2419
  108OSM   C18F11185   4.640   5.033   8.567  0.0432  0.0786  0.0491
  108OSM   H18F11186   4.691   5.130   8.580 -0.4605  0.2938  0.4718
  108OSM   H18G11187   4.615   5.014   8.460 -0.9804 -3.6215  0.7914
  108OSM   H18H11188   4.718   4.956   8.586  2.0014  1.7694 -0.7692
  109OSM      N11189   3.863   4.653  10.870  0.3462 -0.3576 -0.0149
  109OSM    C1511190   3.725   4.593  10.892 -0.4472  0.3523 -0.1440
  109OSM   H15A11191   3.650   4.652  10.841 -1.4996 -0.3953  0.5042
  109OSM   H15B11192   3.696   4.580  10.995  1.2290 -0.9092  0.2077
  109OSM   H15C11193   3.719   4.491  10.858 -2.2860  0.4443 -0.2023
  109OSM    C1411194   3.883   4.774  10.963 -0.6559  0.4289 -0.1335
  109OSM   H14A11195   3.838   4.745  11.056 -0.4538 -0.7847 -0.3903
  109OSM   H14B11196   3.827   4.854  10.916  0.7336  1.0892 -0.7313
  109OSM   H14C11197   3.986   4.805  10.970 -0.6672  0.2997  0.7283
  109OSM    C1311198   3.962   4.552  10.909  0.0598 -0.6304  0.6610
  109OSM   H13A11199   4.060   4.589  10.885  0.0090  0.4755  2.0346
  109OSM   H13B11200   3.960   4.459  10.854 -0.4091 -0.4157  0.3072
  109OSM   H13C11201   3.950   4.524  11.013  0.8505 -0.6870  0.7433
  109OSM    C1211202   3.893   4.698  10.723 -0.1190 -0.0825  0.6892
  109OSM   H12A11203   3.870   4.619  10.654  0.5925  0.0634  0.2743
  109OSM   H12B11204   4.000   4.712  10.715 -0.2918 -0.1003 -3.3718
  109OSM    C1111205   3.825   4.827  10.675 -0.5113  0.2310 -1.2555
  109OSM   H11A11206   3.873   4.859  10.579  2.4721  0.9883  0.3769
  109OSM   H11B11207   3.847   4.909  10.747 -0.4462 -2.5455  2.1114
  109OSM      P11208   3.616   4.714  10.563 -0.0984  0.5995  0.0415
  109OSM    O1311209   3.710   4.633  10.485  0.1488 -0.0539 -0.6559
  109OSM    O1411210   3.509   4.644  10.641 -0.2161 -0.4553  0.8335
  109OSM    O1111211   3.548   4.811  10.460 -0.3730  0.2681 -0.3928
  109OSM    O1211212   3.684   4.814  10.665 -0.6906 -0.6313  0.2091
  109OSM    C1S11213   3.575   4.950  10.442 -0.5232 -0.8079 -0.6111
  109OSM    H1S11214   3.683   4.972  10.459 -0.7157 -0.0165 -0.3395
  109OSM    H1T11215   3.531   5.012  10.523  1.5115 -1.3246  0.9816
  109OSM     NF11216   3.605   5.112  10.246  0.0095  0.0972  0.0563
  109OSM    HNF11217   3.566   5.204  10.251 -0.2007 -0.0497  2.6747
  109OSM    C2S11218   3.524   5.011  10.306  0.8643  0.3870 -0.2575
  109OSM    H2S11219   3.512   4.922  10.240 -1.5134 -0.6148  1.3856
  109OSM    C3S11220   3.378   5.055  10.316 -0.1966  0.2436 -0.0915
  109OSM    H3S11221   3.369   5.135  10.392 -0.0877 -0.7753  1.0280
  109OSM     O311222   3.303   4.946  10.379  0.7892 -0.1607 -0.4390
  109OSM    HO311223   3.368   4.885  10.414 -1.1993 -0.6666  2.8079
  109OSM    C4S11224   3.318   5.090  10.184 -0.9007  0.2476 -0.4380
  109OSM    H4S11225   3.293   5.009  10.114 -1.1929  0.7485 -0.9181
  109OSM    C5S11226   3.274   5.213  10.146 -0.4282  0.8302  0.4370
  109OSM    H5S11227   3.293   5.297  10.215  0.7655  1.5101 -0.6750
  109OSM    C6S11228   3.203   5.246  10.016 -0.6215  0.4309  0.5386
  109OSM    H6S11229   3.234   5.342   9.970  0.0986 -0.1611 -0.2576
  109OSM    H6T11230   3.098   5.261  10.046 -0.1594  1.2940  1.8016
  109OSM    C7S11231   3.204   5.141   9.905 -0.1655  0.5073 -0.2779
  109OSM    H7S11232   3.157   5.047   9.942 -2.0377  1.4828 -0.0499
  109OSM    H7T11233   3.308   5.120   9.872  1.6980 -0.1746  5.0111
  109OSM    C8S11234   3.131   5.168   9.780  1.2085 -0.4349  0.5260
  109OSM    H8S11235   3.173   5.261   9.738  1.4952 -0.9481 -0.3617
  109OSM    H8T11236   3.020   5.176   9.776  1.3387  3.9210  1.1811
  109OSM    C9S11237   3.172   5.080   9.659 -0.3396  0.6393  0.4836
  109OSM    H9S11238   3.144   4.979   9.696 -0.8657  1.6294  3.0038
  109OSM    H9T11239   3.282   5.092   9.643 -0.0042  0.9457  2.6452
  109OSM   C10S11240   3.105   5.132   9.527  0.0889 -0.6966 -0.0583
  109OSM   H10S11241   3.144   5.224   9.480  0.9686  0.9289  3.5409
  109OSM   H10T11242   3.000   5.159   9.550  0.9100  2.5355  0.4234
  109OSM   C11S11243   3.118   5.024   9.414  0.3142 -0.8629 -0.2513
  109OSM   H11S11244   3.107   4.921   9.454  1.2765 -1.2646 -0.9915
  109OSM   H11T11245   3.226   5.031   9.390  1.3397 -3.0434  3.0188
  109OSM   C12S11246   3.031   5.042   9.290 -0.3276  0.4826 -0.2602
  109OSM   H12S11247   3.052   5.146   9.260 -0.7157  1.4347  2.4795
  109OSM   H12T11248   2.926   5.025   9.322  0.4118 -2.2832  1.0024
  109OSM   C13S11249   3.058   4.925   9.192 -0.6312 -0.2530 -0.3086
  109OSM   H13S11250   3.047   4.827   9.244 -3.2734 -0.6754 -1.5355
  109OSM   H13T11251   3.162   4.924   9.152 -1.4613 -0.5720 -2.5977
  109OSM   C14S11252   2.953   4.931   9.074  0.2691 -0.1743 -0.2350
  109OSM   H14S11253   2.857   4.943   9.130  1.0779 -0.3006  1.2280
  109OSM   H14T11254   2.948   4.837   9.016  1.6704 -0.0045 -0.6598
  109OSM   C15S11255   2.994   5.048   8.982  0.9549  0.0149  0.1944
  109OSM   H15S11256   3.092   5.012   8.942  2.1851  2.2744  0.9995
  109OSM   H15T11257   3.029   5.135   9.041  1.0788  0.3506 -0.3583
  109OSM   C16S11258   2.885   5.111   8.897 -0.3889  0.2754  0.3252
  109OSM   H16S11259   2.797   5.137   8.961 -1.1751 -0.0014 -0.6162
  109OSM   H16T11260   2.860   5.039   8.816  3.3547 -1.5514  0.6035
  109OSM   C17S11261   2.932   5.235   8.833  0.8867 -0.9550 -0.4712
  109OSM   H17S11262   2.956   5.313   8.908  0.9076 -2.1716  0.8244
  109OSM   H17T11263   2.842   5.284   8.790  1.9264  0.5923 -0.9747
  109OSM   C18S11264   3.048   5.218   8.738  0.4078 -0.5633  0.1961
  109OSM   H18S11265   3.142   5.205   8.796  0.6374 -1.1173 -0.2938
  109OSM   H18T11266   3.068   5.302   8.668 -3.3890 -0.1566 -0.6411
  109OSM   H18U11267   3.036   5.121   8.687  1.7104 -0.7183  0.1605
  109OSM    C1F11268   3.735   5.104  10.219 -0.9583 -0.9270 -0.6117
  109OSM     OF11269   3.810   5.013  10.247  0.6481  0.1440  0.3476
  109OSM    C2F11270   3.803   5.223  10.147  0.2616  0.3392 -0.0998
  109OSM    H2F11271   3.897   5.189  10.099  1.0331 -0.2421  1.7638
  109OSM    H2G11272   3.833   5.301  10.220  2.3476 -0.7406  0.2493
  109OSM    C3F11273   3.716   5.303  10.039 -0.3645  0.2408 -0.3511
  109OSM    H3F11274   3.782   5.390  10.017 -0.9861  0.7698 -0.1619
  109OSM    H3G11275   3.631   5.346  10.097  0.7961 -1.3825  2.8116
  109OSM    C4F11276   3.681   5.230   9.907 -0.2072 -0.2617 -0.0374
  109OSM    H4F11277   3.648   5.128   9.936  0.3391 -1.5020 -3.3575
  109OSM    H4G11278   3.776   5.226   9.849  0.7459 -0.9093  1.4749
  109OSM    C5F11279   3.574   5.293   9.828 -0.7680 -0.4742  0.0297
  109OSM    H5F11280   3.605   5.399   9.821 -1.9161 -0.1334 -0.1226
  109OSM    H5G11281   3.482   5.282   9.888 -0.8676  0.0821 -0.0200
  109OSM    C6F11282   3.566   5.238   9.682  0.3242  0.0878 -0.2602
  109OSM    H6F11283   3.462   5.247   9.645  0.8367 -1.1999 -2.1922
  109OSM    H6G11284   3.600   5.132   9.681 -2.0278 -0.7442  0.4184
  109OSM    C7F11285   3.665   5.317   9.588 -0.1612  0.5257 -0.7374
  109OSM    H7F11286   3.766   5.320   9.635  0.0921  0.1702 -1.2378
  109OSM    H7G11287   3.625   5.419   9.575 -1.7238 -0.1569 -1.5228
  109OSM    C8F11288   3.673   5.239   9.452 -0.4010  0.3798 -0.9381
  109OSM    H8F11289   3.710   5.135   9.465 -1.4040  0.1961  0.7990
  109OSM    H8G11290   3.755   5.288   9.396 -0.6358 -0.2802 -1.8845
  109OSM    C9F11291   3.543   5.238   9.379  0.1689 -0.3851 -0.2488
  109OSM    H9F11292   3.466   5.178   9.428  0.8867 -1.0204  0.1194
  109OSM   C10F11293   3.512   5.293   9.257  0.3653  0.0445 -0.6872
  109OSM   H10F11294   3.408   5.291   9.221  0.5756 -1.8096 -1.2511
  109OSM   C11F11295   3.603   5.369   9.163 -0.4262  0.0253  0.5586
  109OSM   H11F11296   3.697   5.404   9.209 -0.2403  1.1769 -0.6300
  109OSM   H11G11297   3.546   5.460   9.133  3.1512  1.5303 -2.3370
  109OSM   C12F11298   3.636   5.290   9.029  0.5270 -1.3666  0.0844
  109OSM   H12F11299   3.687   5.195   9.055  2.4034 -0.9816 -1.9051
  109OSM   H12G11300   3.710   5.346   8.969 -1.9117  0.2496 -1.6185
  109OSM   C13F11301   3.508   5.240   8.952 -1.1264  0.2789 -0.0345
  109OSM   H13F11302   3.427   5.316   8.949 -1.2127  0.1808 -2.8938
  109OSM   H13G11303   3.471   5.149   9.003 -1.1847 -0.4583 -1.3379
  109OSM   C14F11304   3.542   5.210   8.808 -0.0873  0.4837  0.5524
  109OSM   H14F11305   3.452   5.164   8.761 -0.0340  1.3026 -0.3870
  109OSM   H14G11306   3.634   5.149   8.799 -0.3289 -0.1640  2.1165
  109OSM   C15F11307   3.571   5.334   8.720  0.2421 -0.3042 -0.3434
  109OSM   H15F11308   3.658   5.385   8.767 -1.8288  1.9536  1.2585
  109OSM   H15G11309   3.483   5.401   8.731  0.9436  0.5187  0.4235
  109OSM   C16F11310   3.615   5.314   8.573  1.0197 -0.5121 -0.1293
  109OSM   H16F11311   3.533   5.254   8.528  0.5417 -1.6504  2.1297
  109OSM   H16G11312   3.702   5.246   8.579  1.3703 -0.1712 -1.1765
  109OSM   C17F11313   3.642   5.448   8.502  0.1266  0.3298 -0.2314
  109OSM   H17F11314   3.566   5.523   8.531 -1.3200 -0.2839 -2.1816
  109OSM   H17G11315   3.637   5.423   8.394  1.4340  3.8968 -1.2318
  109OSM   C18F11316   3.778   5.508   8.537  0.5898 -0.5137  0.2552
  109OSM   H18F11317   3.771   5.615   8.508 -0.4657 -0.9998 -1.4537
  109OSM   H18G11318   3.866   5.476   8.478  2.9542  3.2161  1.4190
  109OSM   H18H11319   3.803   5.489   8.643  0.9504  2.1280  0.7291
  110OSM      N11320   3.898   6.634  10.756 -0.0189  0.3348  0.2463
  110OSM    C1511321   3.835   6.499  10.798  0.4406 -0.1552  0.3160
  110OSM   H15A11322   3.744   6.484  10.743  0.9632  0.5774 -0.7855
  110OSM   H15B11323   3.811   6.503  10.903  0.2960  1.1517  0.2511
  110OSM   H15C11324   3.911   6.427  10.772 -0.2601 -0.3159 -1.4318
  110OSM    C1411325   3.924   6.650  10.607 -0.6844 -0.3276 -0.6483
  110OSM   H14A11326   3.848   6.707  10.555  0.0122  1.7955  0.5619
  110OSM   H14B11327   3.940   6.555  10.559  2.4911  0.3547 -1.1570
  110OSM   H14C11328   4.022   6.693  10.591 -0.0513 -2.0773 -1.7358
  110OSM    C1311329   3.793   6.748  10.790  0.5572 -0.4140 -0.4399
  110OSM   H13A11330   3.822   6.838  10.738  0.3447  0.6754  1.2589
  110OSM   H13B11331   3.787   6.764  10.897  4.2415 -1.1078 -0.0053
  110OSM   H13C11332   3.701   6.711  10.747  0.9941 -2.4307  0.2230
  110OSM    C1211333   4.030   6.662  10.834  0.2461  0.1921 -0.0139
  110OSM   H12A11334   4.001   6.645  10.937  0.3777 -1.6986 -0.2508
  110OSM   H12B11335   4.049   6.768  10.826 -0.1160  0.3376  0.9293
  110OSM    C1111336   4.162   6.586  10.802 -0.1420 -0.3885 -0.2258
  110OSM   H11A11337   4.242   6.629  10.866  1.2874  0.1061 -2.2609
  110OSM   H11B11338   4.181   6.609  10.696  1.4471  0.2620  0.1718
  110OSM      P11339   4.272   6.350  10.782 -0.2711 -0.0712  0.5160
  110OSM    O1311340   4.386   6.384  10.872 -0.3614  0.0067 -0.1291
  110OSM    O1411341   4.227   6.209  10.779  0.8335  0.3521  0.5588
  110OSM    O1111342   4.304   6.397  10.637 -0.0164  0.3821  0.3314
  110OSM    O1211343   4.150   6.440  10.812  0.4363  0.4663 -0.0846
  110OSM    C1S11344   4.210   6.374  10.538  0.2255 -0.5298  0.8611
  110OSM    H1S11345   4.131   6.452  10.545  0.6971 -0.0255  0.6410
  110OSM    H1T11346   4.165   6.273  10.531  1.6765 -1.1421 -0.3380
  110OSM     NF11347   4.177   6.368  10.291 -0.0656 -0.0501 -0.9563
  110OSM    HNF11348   4.162   6.273  10.264 -1.5602  0.0242 -0.4681
  110OSM    C2S11349   4.280   6.389  10.391  0.1554 -0.3237 -0.5783
  110OSM    H2S11350   4.321   6.492  10.390  3.8642 -1.5553  2.4817
  110OSM    C3S11351   4.408   6.295  10.379  0.0739  0.4430 -0.0125
  110OSM    H3S11352   4.365   6.195  10.359 -1.7147  1.1115  0.3311
  110OSM     O311353   4.494   6.299  10.494 -0.0712  0.1289  0.1898
  110OSM    HO311354   4.445   6.365  10.543 -3.6135 -1.2263 -1.2638
  110OSM    C4S11355   4.482   6.333  10.256  0.0980 -0.0684 -0.9398
  110OSM    H4S11356   4.454   6.285  10.161 -1.3813 -1.9066  0.3514
  110OSM    C5S11357   4.572   6.434  10.248 -0.2696  0.5416  0.3367
  110OSM    H5S11358   4.583   6.497  10.338 -1.0330 -0.3361  1.0684
  110OSM    C6S11359   4.644   6.480  10.118 -0.2212 -0.6281  0.3428
  110OSM    H6S11360   4.755   6.481  10.121 -0.1272  2.2731 -0.6189
  110OSM    H6T11361   4.616   6.585  10.096 -1.0724 -0.7438  0.8293
  110OSM    C7S11362   4.610   6.390   9.999 -0.2715  0.0215  0.3255
  110OSM    H7S11363   4.502   6.386   9.974  0.2446 -1.6404 -1.9414
  110OSM    H7T11364   4.656   6.289  10.008 -1.4201 -1.0210 -3.5933
  110OSM    C8S11365   4.696   6.433   9.875  0.5462  0.4102  0.1854
  110OSM    H8S11366   4.804   6.411   9.892  1.1686  3.5580  0.9516
  110OSM    H8T11367   4.676   6.541   9.859 -0.0176  0.2430 -0.2735
  110OSM    C9S11368   4.662   6.347   9.758  0.2658  0.2634  0.2635
  110OSM    H9S11369   4.551   6.344   9.752  0.1433  1.3420  1.3900
  110OSM    H9T11370   4.698   6.244   9.779  2.2139  0.5926 -1.1600
  110OSM   C10S11371   4.735   6.401   9.632  0.4968  0.8463 -0.1392
  110OSM   H10S11372   4.716   6.331   9.548 -0.9522  1.0883 -0.0308
  110OSM   H10T11373   4.846   6.401   9.642  0.7518 -2.1031 -1.6418
  110OSM   C11S11374   4.681   6.540   9.580  0.6498  0.0730 -0.1215
  110OSM   H11S11375   4.716   6.624   9.643  0.4766  0.1757 -0.1631
  110OSM   H11T11376   4.571   6.553   9.585  0.7523  0.9141  0.0951
  110OSM   C12S11377   4.743   6.568   9.440 -0.2135 -0.4250 -0.6120
  110OSM   H12S11378   4.703   6.487   9.375 -0.5769  0.5570 -1.6353
  110OSM   H12T11379   4.853   6.570   9.453 -0.4477 -0.1497  1.8402
  110OSM   C13S11380   4.699   6.708   9.390  0.8232  0.1038 -0.2710
  110OSM   H13S11381   4.722   6.786   9.464  2.5172 -0.5456 -0.0789
  110OSM   H13T11382   4.588   6.701   9.398  0.8543  1.5819  2.8728
  110OSM   C14S11383   4.760   6.746   9.254  0.1276 -0.5177 -0.0501
  110OSM   H14S11384   4.867   6.720   9.245  0.0158 -0.5295 -1.6541
  110OSM   H14T11385   4.751   6.856   9.239  1.4898 -0.0458  2.1932
  110OSM   C15S11386   4.673   6.691   9.141 -0.5430 -0.0040 -0.6071
  110OSM   H15S11387   4.573   6.727   9.174  0.4096  1.1459  1.2074
  110OSM   H15T11388   4.679   6.580   9.140 -0.3956 -0.0623  1.4499
  110OSM   C16S11389   4.707   6.750   9.005  1.1235  0.4056  0.1041
  110OSM   H16S11390   4.818   6.749   8.994  1.0330  0.8617 -0.9091
  110OSM   H16T11391   4.676   6.856   9.015  1.2004  0.5415 -0.9504
  110OSM   C17S11392   4.638   6.683   8.884 -0.3443 -0.2609 -0.0071
  110OSM   H17S11393   4.530   6.683   8.911 -0.5345  2.2996 -0.5121
  110OSM   H17T11394   4.666   6.576   8.872 -0.0687 -0.3041  0.9380
  110OSM   C18S11395   4.656   6.767   8.755  0.5377  0.4463  0.1658
  110OSM   H18S11396   4.756   6.765   8.706  2.1656 -0.5209  3.2742
  110OSM   H18T11397   4.646   6.874   8.782 -0.0595  0.4639 -0.0962
  110OSM   H18U11398   4.578   6.737   8.681  1.0323 -1.5717  0.3872
  110OSM    C1F11399   4.081   6.461  10.261 -0.0924  0.3824 -0.7928
  110OSM     OF11400   4.078   6.571  10.313 -0.7682  0.6156  0.3075
  110OSM    C2F11401   3.986   6.419  10.151  0.3801 -0.3176 -0.5038
  110OSM    H2F11402   3.898   6.362  10.189  0.6319 -0.6050 -0.3474
  110OSM    H2G11403   4.042   6.361  10.074  2.0301  2.1725 -1.2809
  110OSM    C3F11404   3.926   6.545  10.078 -0.3400 -0.7626 -0.2646
  110OSM    H3F11405   4.004   6.623  10.084  0.5612 -1.6343 -0.4163
  110OSM    H3G11406   3.845   6.581  10.146  0.3775 -1.0415  0.7609
  110OSM    C4F11407   3.880   6.524   9.937 -0.6005  0.2320 -0.2086
  110OSM    H4F11408   3.796   6.451   9.936  0.6052 -1.1932 -0.1478
  110OSM    H4G11409   3.957   6.465   9.884 -1.3841 -0.5452 -0.5127
  110OSM    C5F11410   3.848   6.647   9.860 -0.4387 -0.8823  1.9114
  110OSM    H5F11411   3.922   6.727   9.882 -2.0677  0.3261  3.3102
  110OSM    H5G11412   3.754   6.686   9.905 -1.4860 -0.8663 -0.1698
  110OSM    C6F11413   3.841   6.626   9.706 -0.4734 -0.5438 -0.2177
  110OSM    H6F11414   3.939   6.593   9.665  0.7100  0.8296  1.3380
  110OSM    H6G11415   3.823   6.732   9.679  1.1530 -0.3839 -0.7667
  110OSM    C7F11416   3.724   6.543   9.657  0.3687  0.8020 -0.4572
  110OSM    H7F11417   3.620   6.579   9.676 -0.3329 -0.8691 -0.9916
  110OSM    H7G11418   3.727   6.445   9.709 -1.3741  1.4608  1.0253
  110OSM    C8F11419   3.734   6.515   9.505  0.4640 -0.2520 -0.4744
  110OSM    H8F11420   3.839   6.496   9.471  0.2723  0.2364 -1.3663
  110OSM    H8G11421   3.702   6.607   9.451 -1.2425 -0.2631  0.4842
  110OSM    C9F11422   3.653   6.398   9.472  0.3396 -0.3147  0.5913
  110OSM    H9F11423   3.555   6.390   9.520 -0.1447  0.4424 -0.2426
  110OSM   C10F11424   3.695   6.301   9.384  0.1440  0.2933 -0.8052
  110OSM   H10F11425   3.626   6.221   9.353  0.3289  0.3341 -1.3351
  110OSM   C11F11426   3.818   6.313   9.302  0.6356  0.4718 -0.5764
  110OSM   H11F11427   3.900   6.256   9.350  0.0033 -0.1664 -0.2364
  110OSM   H11G11428   3.838   6.420   9.283 -1.3176  0.3415 -4.5777
  110OSM   C12F11429   3.795   6.253   9.162  0.5498 -0.2455 -0.6558
  110OSM   H12F11430   3.722   6.312   9.103  0.9518  0.8644 -0.0748
  110OSM   H12G11431   3.760   6.148   9.172  1.5324 -0.5562 -0.3327
  110OSM   C13F11432   3.920   6.258   9.082  0.4404 -0.4157  0.8204
  110OSM   H13F11433   3.980   6.345   9.119  0.7954  0.5213 -1.7777
  110OSM   H13G11434   3.906   6.284   8.975  1.1384  2.0133  1.2503
  110OSM   C14F11435   3.993   6.127   9.099  0.6939  0.7246  0.7827
  110OSM   H14F11436   3.915   6.050   9.081  2.9033 -0.7915 -3.9462
  110OSM   H14G11437   4.043   6.113   9.198  1.3904 -0.9377  0.2372
  110OSM   C15F11438   4.107   6.103   8.999 -0.6321 -0.1053  0.3829
  110OSM   H15F11439   4.184   6.177   9.032  1.3003 -1.4378 -0.9647
  110OSM   H15G11440   4.075   6.118   8.894 -0.9326  0.4644  0.5498
  110OSM   C16F11441   4.166   5.963   9.011 -0.5356  0.4212 -0.1402
  110OSM   H16F11442   4.188   5.924   9.113  1.2129  0.3076 -0.5233
  110OSM   H16G11443   4.270   5.967   8.971  0.5262 -0.2957  2.3290
  110OSM   C17F11444   4.098   5.845   8.932 -0.2202  0.7725 -0.1662
  110OSM   H17F11445   4.088   5.886   8.829 -0.9891 -1.5417 -1.0789
  110OSM   H17G11446   4.000   5.834   8.981 -0.8107  2.4804 -0.8946
  110OSM   C18F11447   4.170   5.714   8.922 -0.8743 -0.1105  0.2068
  110OSM   H18F11448   4.109   5.631   8.880 -1.5223  0.5440 -0.1495
  110OSM   H18G11449   4.191   5.671   9.023 -0.7873 -0.6028 -0.0187
  110OSM   H18H11450   4.269   5.709   8.872 -0.9427  0.9127 -0.0508
  111OSM      N11451   1.126   2.610  11.163  0.6570 -0.2713  0.1927
  111OSM    C1511452   0.977   2.655  11.153 -0.5422  0.5532 -0.9591
  111OSM   H15A11453   0.927   2.643  11.248  1.3249 -3.6793 -0.2785
  111OSM   H15B11454   0.917   2.595  11.086 -0.2280 -1.3630  0.3612
  111OSM   H15C11455   0.960   2.756  11.119 -0.6922 -0.0659 -2.8418
  111OSM    C1411456   1.205   2.721  11.219  0.3825  0.2245 -0.0409
  111OSM   H14A11457   1.302   2.684  11.248  0.0316 -0.3149  0.4670
  111OSM   H14B11458   1.155   2.761  11.305  1.7785  1.8451  0.0730
  111OSM   H14C11459   1.218   2.802  11.148 -2.1161  3.1376  2.5744
  111OSM    C1311460   1.140   2.483  11.254 -0.1218 -0.1043  0.0707
  111OSM   H13A11461   1.246   2.466  11.268 -0.2496  0.3941  1.8469
  111OSM   H13B11462   1.078   2.406  11.211  0.0822 -1.1525  1.6022
  111OSM   H13C11463   1.119   2.495  11.359  0.0819  1.6219 -0.0479
  111OSM    C1211464   1.167   2.580  11.016  0.0215 -0.3040 -0.2877
  111OSM   H12A11465   1.107   2.496  10.985 -3.1255  1.1244  1.4261
  111OSM   H12B11466   1.271   2.552  11.014  0.0890 -0.0305 -0.7238
  111OSM    C1111467   1.148   2.680  10.901 -0.8308  0.2130  0.0204
  111OSM   H11A11468   1.044   2.719  10.892 -1.3595 -0.9299  0.8168
  111OSM   H11B11469   1.180   2.630  10.807  2.5817 -0.0536  1.2047
  111OSM      P11470   1.361   2.833  10.854 -0.2184 -0.2698  0.0558
  111OSM    O1311471   1.406   2.963  10.914 -0.8647  0.4206 -0.1598
  111OSM    O1411472   1.460   2.724  10.865  0.5837  0.7145 -0.6354
  111OSM    O1111473   1.318   2.852  10.702 -0.3662  0.5482 -0.0179
  111OSM    O1211474   1.230   2.790  10.921 -0.4405 -0.4824  0.4730
  111OSM    C1S11475   1.352   2.749  10.619  0.3258  0.3537  0.2172
  111OSM    H1S11476   1.309   2.651  10.651  2.7812 -0.9665 -0.2982
  111OSM    H1T11477   1.462   2.734  10.618  0.3966 -0.3991  4.4075
  111OSM     NF11478   1.344   2.673  10.387 -0.5822 -0.0255 -0.0548
  111OSM    HNF11479   1.440   2.678  10.361 -0.5600 -0.8258 -0.1532
  111OSM    C2S11480   1.292   2.773  10.478  0.6330  0.0675 -0.6803
  111OSM    H2S11481   1.181   2.766  10.481  0.5110  1.9736  1.4828
  111OSM    C3S11482   1.320   2.919  10.426  0.4243 -0.2340  0.1005
  111OSM    H3S11483   1.430   2.933  10.418  0.1415  1.2930 -2.0211
  111OSM     O311484   1.274   3.029  10.512  0.0554  0.1930  0.1644
  111OSM    HO311485   1.252   2.984  10.594 -0.2523 -1.1969 -0.6436
  111OSM    C4S11486   1.268   2.932  10.286 -0.4010  0.5827 -0.2400
  111OSM    H4S11487   1.336   2.888  10.212  0.3767  0.8253  0.3224
  111OSM    C5S11488   1.154   2.991  10.250 -0.1273  0.1530  0.8233
  111OSM    H5S11489   1.091   3.039  10.327  1.3140  0.4968  1.8354
  111OSM    C6S11490   1.118   2.997  10.099  0.0316  0.0509 -0.5971
  111OSM    H6S11491   1.069   3.095  10.078  3.7080  2.3697  0.6271
  111OSM    H6T11492   1.041   2.920  10.080 -0.2603  0.5054 -1.3287
  111OSM    C7S11493   1.225   2.962  10.002 -0.1490 -0.2897  0.8165
  111OSM    H7S11494   1.260   2.857  10.007  0.3146 -0.3093 -1.6325
  111OSM    H7T11495   1.316   3.023  10.021 -0.9028  1.3027 -0.4620
  111OSM    C8S11496   1.180   3.003   9.858 -0.2554 -0.2617  0.6606
  111OSM    H8S11497   1.187   3.113   9.849 -0.6960  0.2334  4.5040
  111OSM    H8T11498   1.073   2.986   9.836 -0.3855  1.3262 -0.0786
  111OSM    C9S11499   1.255   2.938   9.748  0.0885 -0.8342 -0.0258
  111OSM    H9S11500   1.246   2.828   9.753 -1.4075 -0.7004  0.7177
  111OSM    H9T11501   1.361   2.974   9.743  0.3876 -1.8089 -0.8675
  111OSM   C10S11502   1.187   2.987   9.620  0.5547 -0.7243 -0.2146
  111OSM   H10S11503   1.182   3.098   9.630  0.4198 -0.7333 -0.1800
  111OSM   H10T11504   1.088   2.938   9.611  0.8602 -1.4309  0.1733
  111OSM   C11S11505   1.260   2.957   9.497 -0.1684  0.2246  0.5994
  111OSM   H11S11506   1.294   2.852   9.501 -2.4944 -0.6522 -1.0855
  111OSM   H11T11507   1.348   3.022   9.478  0.3236 -0.9872 -1.4933
  111OSM   C12S11508   1.171   2.976   9.369 -0.2191 -0.0972 -0.1299
  111OSM   H12S11509   1.145   3.080   9.341 -0.4009 -0.0792  0.1059
  111OSM   H12T11510   1.076   2.926   9.394 -0.1965 -0.0378  0.0732
  111OSM   C13S11511   1.227   2.909   9.247 -0.4759 -0.4433 -0.0258
  111OSM   H13S11512   1.291   2.822   9.271 -0.0216  0.2965  1.5801
  111OSM   H13T11513   1.289   2.994   9.210  0.4388 -1.7668 -1.6316
  111OSM   C14S11514   1.125   2.860   9.144 -0.4785 -1.3242  0.4159
  111OSM   H14S11515   1.046   2.807   9.202 -0.1977 -0.6602  1.4377
  111OSM   H14T11516   1.174   2.798   9.067 -0.0442  0.0992 -0.5002
  111OSM   C15S11517   1.065   2.980   9.060 -0.1476 -0.1701  0.0221
  111OSM   H15S11518   1.152   3.028   9.011  1.3288 -1.7463  0.9608
  111OSM   H15T11519   1.017   3.043   9.137 -1.1359 -0.4033 -0.3921
  111OSM   C16S11520   0.966   2.927   8.951 -0.3076 -0.8031  0.1972
  111OSM   H16S11521   0.874   2.989   8.962  0.2648 -0.3546  3.7222
  111OSM   H16T11522   0.929   2.829   8.987 -0.6679 -0.5292  0.5880
  111OSM   C17S11523   1.009   2.914   8.801  0.3314 -0.1539  0.2946
  111OSM   H17S11524   1.082   2.831   8.798  1.1532  0.5793 -2.4950
  111OSM   H17T11525   1.065   3.005   8.770 -1.4906  1.2179  0.7888
  111OSM   C18S11526   0.894   2.877   8.709 -0.3980  0.0875  0.4886
  111OSM   H18S11527   0.852   2.779   8.741  1.1592 -0.6109  0.4930
  111OSM   H18T11528   0.935   2.866   8.606 -1.5401 -1.1942  0.1471
  111OSM   H18U11529   0.821   2.960   8.708  1.5071  1.8531 -0.4299
  111OSM    C1F11530   1.311   2.544  10.383  0.0896 -0.1072 -0.7634
  111OSM     OF11531   1.227   2.500  10.456  0.0571 -0.5410 -0.2006
  111OSM    C2F11532   1.390   2.453  10.297  0.0508 -0.8334  0.6493
  111OSM    H2F11533   1.488   2.425  10.341  0.0689 -0.7784  0.6440
  111OSM    H2G11534   1.401   2.506  10.199 -0.3611 -0.4632  0.7975
  111OSM    C3F11535   1.320   2.319  10.295  0.5095  0.0718  0.0267
  111OSM    H3F11536   1.212   2.324  10.268  0.0544 -0.8756  1.5646
  111OSM    H3G11537   1.334   2.260  10.388 -0.8316  0.1018  0.2790
  111OSM    C4F11538   1.373   2.223  10.190 -0.8956 -1.7711  0.3401
  111OSM    H4F11539   1.316   2.127  10.189  0.4127 -2.6452 -2.6973
  111OSM    H4G11540   1.483   2.205  10.197 -0.4266  0.3698 -0.6419
  111OSM    C5F11541   1.374   2.274  10.047 -0.3718  0.2102 -0.0350
  111OSM    H5F11542   1.417   2.375  10.037  0.6007 -0.3234 -1.5012
  111OSM    H5G11543   1.276   2.283   9.995  0.1191 -0.3807 -1.1006
  111OSM    C6F11544   1.473   2.197   9.951  0.0295  0.1283 -1.2445
  111OSM    H6F11545   1.461   2.087   9.965  1.1990 -0.0089 -1.1623
  111OSM    H6G11546   1.575   2.226   9.986 -0.4908  0.6898 -0.1528
  111OSM    C7F11547   1.466   2.244   9.809  0.9859 -0.4855  0.5925
  111OSM    H7F11548   1.461   2.355   9.804 -2.9560 -0.5266  0.7755
  111OSM    H7G11549   1.377   2.199   9.759  0.9687  2.4746 -2.3408
  111OSM    C8F11550   1.595   2.206   9.727 -0.0001  0.8892  0.4517
  111OSM    H8F11551   1.637   2.107   9.751 -0.5847  0.4785 -0.1611
  111OSM    H8G11552   1.667   2.280   9.766  0.0723  1.3310 -0.4930
  111OSM    C9F11553   1.565   2.196   9.579  0.5743 -0.6409 -0.4190
  111OSM    H9F11554   1.495   2.116   9.553  2.1356 -2.1357 -0.2164
  111OSM   C10F11555   1.608   2.278   9.479 -0.2484  0.0976  0.5832
  111OSM   H10F11556   1.574   2.259   9.376  2.2878 -0.7258 -0.1928
  111OSM   C11F11557   1.698   2.400   9.496 -0.4465  0.1794  0.3764
  111OSM   H11F11558   1.753   2.397   9.593  1.2289 -0.8329 -0.5800
  111OSM   H11G11559   1.641   2.495   9.483  3.3245  2.6287  0.0777
  111OSM   C12F11560   1.813   2.417   9.389 -0.7421  0.3486 -0.0535
  111OSM   H12F11561   1.876   2.326   9.387  2.5708  2.4685  0.5791
  111OSM   H12G11562   1.889   2.495   9.410 -0.3601  0.2833 -1.1435
  111OSM   C13F11563   1.756   2.443   9.241  0.4794  0.4522 -1.1371
  111OSM   H13F11564   1.702   2.540   9.243 -0.7477 -0.2012  1.1289
  111OSM   H13G11565   1.682   2.367   9.206  2.9498 -2.3820 -0.5979
  111OSM   C14F11566   1.860   2.426   9.130 -0.0575  0.0598 -0.5843
  111OSM   H14F11567   1.880   2.316   9.130  1.9493  0.3593  0.7360
  111OSM   H14G11568   1.961   2.467   9.151  0.2833  0.0350 -2.0877
  111OSM   C15F11569   1.812   2.481   8.996  0.0591 -0.1535  0.0246
  111OSM   H15F11570   1.758   2.570   9.033 -0.7474 -0.2593 -0.8543
  111OSM   H15G11571   1.736   2.410   8.956 -1.3512  2.0059 -1.3077
  111OSM   C16F11572   1.932   2.525   8.906 -0.3466 -0.6196  0.1881
  111OSM   H16F11573   1.985   2.613   8.948  2.3370 -1.3791 -1.3216
  111OSM   H16G11574   1.893   2.562   8.809  2.1454 -1.1197 -1.1135
  111OSM   C17F11575   2.040   2.417   8.879 -0.0364  0.2566  0.9386
  111OSM   H17F11576   2.087   2.383   8.973 -0.8711  1.0262  1.6586
  111OSM   H17G11577   2.120   2.470   8.824 -0.6346  1.0314  0.7876
  111OSM   C18F11578   1.982   2.312   8.790  0.1882 -0.2365 -0.4245
  111OSM   H18F11579   2.046   2.221   8.791  0.8732  0.2103  1.3159
  111OSM   H18G11580   1.970   2.351   8.687  3.6331  3.1933  0.2685
  111OSM   H18H11581   1.879   2.292   8.826 -0.6485  2.8163 -0.9029
  112OSM      N11582   3.606   0.442  11.100 -0.0360  0.0247  0.4111
  112OSM    C1511583   3.533   0.495  11.216  0.2557 -0.1485  0.2445
  112OSM   H15A11584   3.543   0.439  11.308 -1.8105  1.4670  1.5553
  112OSM   H15B11585   3.427   0.502  11.194  0.0979 -0.7518  0.7603
  112OSM   H15C11586   3.565   0.596  11.235  1.3721 -0.9951  3.3743
  112OSM    C1411587   3.748   0.463  11.124 -0.4166  0.0922  0.1953
  112OSM   H14A11588   3.793   0.412  11.207  2.0318 -0.8709 -1.6196
  112OSM   H14B11589   3.770   0.568  11.138  3.0370 -0.4519 -0.3774
  112OSM   H14C11590   3.803   0.428  11.038 -0.2011  0.6494  0.1013
  112OSM    C1311591   3.589   0.292  11.083  0.2738  0.6429 -0.2978
  112OSM   H13A11592   3.648   0.249  11.003 -2.7090 -2.5875 -0.9825
  112OSM   H13B11593   3.483   0.279  11.065  0.1309 -0.5881  1.2274
  112OSM   H13C11594   3.600   0.241  11.177 -0.8540 -0.3154 -0.6587
  112OSM    C1211595   3.560   0.504  10.977 -0.5857  0.4577  0.1268
  112OSM   H12A11596   3.622   0.456  10.903  0.9298  0.4007  1.3887
  112OSM   H12B11597   3.591   0.607  10.973 -2.6445  1.1165 -0.0869
  112OSM    C1111598   3.410   0.513  10.940 -0.0765 -0.2997 -0.0910
  112OSM   H11A11599   3.369   0.410  10.942 -0.2712 -0.2348 -0.6714
  112OSM   H11B11600   3.392   0.546  10.836 -0.8643 -1.8016 -0.4662
  112OSM      P11601   3.366   0.762  10.997 -0.0955  0.2365 -0.2279
  112OSM    O1311602   3.294   0.846  11.096 -0.0057  0.3448  0.3207
  112OSM    O1411603   3.515   0.783  10.992 -0.2641 -0.5669  0.5684
  112OSM    O1111604   3.310   0.790  10.850  0.1595 -0.0615 -0.1160
  112OSM    O1211605   3.337   0.604  11.024 -0.1282  0.1368 -0.2064
  112OSM    C1S11606   3.172   0.765  10.818 -0.0323 -0.8100  0.3352
  112OSM    H1S11607   3.105   0.832  10.876  1.6230  0.5914  0.7047
  112OSM    H1T11608   3.163   0.655  10.836 -1.5701 -0.9321 -0.9727
  112OSM     NF11609   3.012   0.782  10.640 -0.0543  0.1653 -0.2464
  112OSM    HNF11610   2.978   0.689  10.638  2.1657 -0.7171 -2.4306
  112OSM    C2S11611   3.153   0.786  10.661 -0.3976  0.5209 -0.1574
  112OSM    H2S11612   3.184   0.888  10.629 -3.3609  0.6915 -3.0515
  112OSM    C3S11613   3.239   0.679  10.588  0.0724 -0.9023 -0.1889
  112OSM    H3S11614   3.206   0.576  10.616  0.4560 -0.7136  0.9782
  112OSM     O311615   3.385   0.673  10.610 -0.2001  0.0768 -0.0263
  112OSM    HO311616   3.399   0.733  10.684  1.5861  0.7483 -0.8375
  112OSM    C4S11617   3.214   0.689  10.438  0.6205  0.5215  0.1931
  112OSM    H4S11618   3.146   0.610  10.404 -1.3314  0.8971  2.8919
  112OSM    C5S11619   3.261   0.773  10.350 -0.6046  0.5700 -0.3302
  112OSM    H5S11620   3.340   0.839  10.389  0.2538 -0.6780  0.0933
  112OSM    C6S11621   3.234   0.789  10.203  0.2170  0.5758 -0.0211
  112OSM    H6S11622   3.153   0.718  10.175 -0.6883  1.4924  0.1871
  112OSM    H6T11623   3.323   0.756  10.146 -0.8543 -0.8991 -0.9132
  112OSM    C7S11624   3.205   0.934  10.168  0.1257  0.3028  0.1747
  112OSM    H7S11625   3.302   0.988  10.176  1.5980 -1.8138 -1.7720
  112OSM    H7T11626   3.116   0.981  10.213  0.6343  0.4575  1.0463
  112OSM    C8S11627   3.186   0.946  10.018 -0.4119  0.1070  0.0428
  112OSM    H8S11628   3.091   0.894   9.990  0.6142 -0.6178 -2.4017
  112OSM    H8T11629   3.271   0.889   9.975 -0.2997 -0.0536  0.4688
  112OSM    C9S11630   3.177   1.088   9.973  0.2513 -0.7409 -0.4777
  112OSM    H9S11631   3.107   1.142  10.039 -0.8809 -0.3896 -1.9171
  112OSM    H9T11632   3.138   1.103   9.870 -0.8594 -2.2923 -0.3162
  112OSM   C10S11633   3.315   1.164   9.980 -0.9538 -0.8407  0.2605
  112OSM   H10S11634   3.344   1.186  10.085 -0.7241  1.0211 -0.1537
  112OSM   H10T11635   3.286   1.258   9.930 -1.2541 -0.8812  0.3579
  112OSM   C11S11636   3.440   1.108   9.899 -0.3613  0.2521  0.1089
  112OSM   H11S11637   3.467   1.012   9.949  1.2449 -0.2489 -1.6033
  112OSM   H11T11638   3.531   1.166   9.925  1.2652 -1.8996 -0.4787
  112OSM   C12S11639   3.431   1.054   9.759  0.4090 -0.1452  0.0305
  112OSM   H12S11640   3.352   0.976   9.758  0.3831 -0.1104 -0.4929
  112OSM   H12T11641   3.524   1.003   9.723  0.1463 -0.5387 -0.0999
  112OSM   C13S11642   3.387   1.162   9.663 -0.2116 -0.5015 -0.3117
  112OSM   H13S11643   3.447   1.254   9.678 -0.5778 -0.3144 -0.0044
  112OSM   H13T11644   3.282   1.192   9.683 -0.3170 -0.3522 -1.0536
  112OSM   C14S11645   3.390   1.115   9.518 -0.3433  0.5197 -0.6348
  112OSM   H14S11646   3.302   1.049   9.502 -0.7913  0.5485  1.4456
  112OSM   H14T11647   3.475   1.045   9.502 -1.2428 -0.2656 -2.2467
  112OSM   C15S11648   3.396   1.225   9.420  0.5636 -0.2558 -0.1516
  112OSM   H15S11649   3.482   1.294   9.434  0.1173  0.2157  0.3327
  112OSM   H15T11650   3.304   1.287   9.433 -0.0583 -1.0477 -0.6866
  112OSM   C16S11651   3.399   1.175   9.271  0.3733 -0.7637  0.0476
  112OSM   H16S11652   3.325   1.092   9.269 -1.0305  0.4368  0.7641
  112OSM   H16T11653   3.501   1.137   9.246  1.5341  2.3220 -0.2965
  112OSM   C17S11654   3.350   1.268   9.168  0.4024 -0.0826  0.3103
  112OSM   H17S11655   3.247   1.302   9.195  0.2523  0.9374 -1.3915
  112OSM   H17T11656   3.333   1.231   9.064 -0.2444  0.7236  0.1174
  112OSM   C18S11657   3.435   1.392   9.145 -0.6297  0.7931 -0.0301
  112OSM   H18S11658   3.446   1.437   9.246 -1.5624 -0.2210  0.5401
  112OSM   H18T11659   3.385   1.463   9.076  0.2469  2.5076  0.9974
  112OSM   H18U11660   3.535   1.374   9.101 -0.3139  0.2678  0.8778
  112OSM    C1F11661   2.923   0.886  10.648 -0.3812  0.2434 -0.6907
  112OSM     OF11662   2.952   0.996  10.691  0.0309 -0.3455  0.0876
  112OSM    C2F11663   2.787   0.843  10.615  0.0718 -0.2747 -0.1642
  112OSM    H2F11664   2.734   0.848  10.712  1.9547  0.9462  0.8707
  112OSM    H2G11665   2.794   0.739  10.577  0.1042  0.1559 -1.4117
  112OSM    C3F11666   2.723   0.946  10.514  0.2130 -0.1544  0.1524
  112OSM    H3F11667   2.719   1.050  10.554 -2.7453  0.6053 -1.7961
  112OSM    H3G11668   2.620   0.917  10.484  0.4141 -0.5914 -0.1316
  112OSM    C4F11669   2.796   0.956  10.381 -0.1159  0.0785 -0.6299
  112OSM    H4F11670   2.846   0.857  10.375 -1.1800 -0.5005 -0.1563
  112OSM    H4G11671   2.883   1.026  10.382 -0.1416  0.1376  1.1709
  112OSM    C5F11672   2.703   0.984  10.265  0.5708 -0.8146  0.2715
  112OSM    H5F11673   2.674   1.091  10.270 -0.3284 -1.0893  1.1546
  112OSM    H5G11674   2.618   0.913  10.252  1.4378 -1.9381  0.5428
  112OSM    C6F11675   2.781   0.985  10.139  0.8229 -0.6909 -0.3620
  112OSM    H6F11676   2.817   0.886  10.103  1.2119 -0.4079 -0.7385
  112OSM    H6G11677   2.866   1.056  10.147 -0.8295  1.3131  0.3928
  112OSM    C7F11678   2.695   1.021  10.013 -0.2711 -0.9418  0.1311
  112OSM    H7F11679   2.626   1.104  10.036 -0.5586 -1.3752  0.8798
  112OSM    H7G11680   2.625   0.936  10.000 -1.5248 -0.6969  3.9755
  112OSM    C8F11681   2.781   1.074   9.904 -0.4897  0.2229  0.5338
  112OSM    H8F11682   2.839   0.984   9.874 -0.9725 -0.0897  0.5263
  112OSM    H8G11683   2.851   1.157   9.928 -1.6092  0.5220  3.0355
  112OSM    C9F11684   2.694   1.125   9.796 -0.0329 -0.0781 -0.1433
  112OSM    H9F11685   2.599   1.177   9.817  0.8739  1.0223  1.5033
  112OSM   C10F11686   2.718   1.093   9.672 -0.8022  0.3368  0.7294
  112OSM   H10F11687   2.660   1.144   9.594  0.7740  3.0411  1.2063
  112OSM   C11F11688   2.841   1.024   9.615  0.1408  0.4627 -0.1406
  112OSM   H11F11689   2.793   0.942   9.558  0.3873 -0.7707  1.3386
  112OSM   H11G11690   2.908   0.984   9.695 -1.5402 -2.2072  0.0393
  112OSM   C12F11691   2.934   1.122   9.524 -0.8568  0.2463 -0.4576
  112OSM   H12F11692   3.030   1.071   9.500 -1.0797 -1.1655  1.4059
  112OSM   H12G11693   2.950   1.212   9.587 -0.7190 -0.2462  0.2188
  112OSM   C13F11694   2.871   1.168   9.394 -0.2649 -0.0839  0.3474
  112OSM   H13F11695   2.780   1.226   9.421  0.1690  0.7294  0.1167
  112OSM   H13G11696   2.826   1.083   9.339 -3.4377  0.2750  2.1417
  112OSM   C14F11697   2.965   1.267   9.313  0.5173  0.0925 -0.1500
  112OSM   H14F11698   3.061   1.214   9.297  2.0291  2.6498 -0.1096
  112OSM   H14G11699   2.981   1.360   9.372 -0.3714  0.7856 -0.9660
  112OSM   C15F11700   2.905   1.320   9.180 -0.3375 -0.4089  0.3249
  112OSM   H15F11701   2.979   1.390   9.136  0.1852 -0.8626  0.4673
  112OSM   H15G11702   2.810   1.373   9.202 -0.5543 -0.6515 -0.0200
  112OSM   C16F11703   2.879   1.212   9.080  0.1202  0.3918  0.5128
  112OSM   H16F11704   2.771   1.184   9.081 -0.4210  2.0045 -2.0945
  112OSM   H16G11705   2.946   1.130   9.114  2.2563  1.2950 -1.3097
  112OSM   C17F11706   2.920   1.238   8.933 -0.4190  0.4624  0.3038
  112OSM   H17F11707   3.004   1.170   8.907 -1.0600 -0.8309  1.4737
  112OSM   H17G11708   2.950   1.345   8.929  1.7451 -0.0339  1.7847
  112OSM   C18F11709   2.803   1.226   8.837  0.3079  0.3367  0.7587
  112OSM   H18F11710   2.721   1.290   8.876 -0.1139 -0.6188  1.5097
  112OSM   H18G11711   2.766   1.122   8.820 -0.9542  1.3555 -3.9872
  112OSM   H18H11712   2.822   1.250   8.731  0.1639 -1.0701  0.3889
  113OSM      N11713   4.629   3.205  10.702  0.6038  0.2769 -0.8959
  113OSM    C1511714   4.705   3.192  10.829 -0.0184  0.0099  0.3372
  113OSM   H15A11715   4.707   3.085  10.847 -0.9361  0.0020  0.4751
  113OSM   H15B11716   4.659   3.240  10.914  0.6350  2.3654 -0.5846
  113OSM   H15C11717   4.802   3.237  10.817 -0.6283  2.3651  3.1718
  113OSM    C1411718   4.489   3.143  10.713  0.4350  0.4951  0.0593
  113OSM   H14A11719   4.438   3.188  10.797 -1.8913 -1.2921 -0.2927
  113OSM   H14B11720   4.489   3.036  10.726  0.6618  0.3016 -1.3638
  113OSM   H14C11721   4.423   3.161  10.630 -0.6384 -2.6685  0.0694
  113OSM    C1311722   4.615   3.359  10.690  0.8194  0.2610 -0.8656
  113OSM   H13A11723   4.542   3.384  10.614  1.1516  1.0189 -0.9418
  113OSM   H13B11724   4.707   3.414  10.675  0.7078  1.0818  1.2456
  113OSM   H13C11725   4.568   3.384  10.783 -1.1685  0.7758 -1.9395
  113OSM    C1211726   4.704   3.162  10.576 -0.4403  0.0192 -0.3232
  113OSM   H12A11727   4.661   3.206  10.487 -1.4082  1.3024  0.7252
  113OSM   H12B11728   4.703   3.055  10.562 -0.0879 -0.5455  3.0599
  113OSM    C1111729   4.855   3.206  10.569  0.0454 -0.8522  0.2899
  113OSM   H11A11730   4.858   3.315  10.590 -0.7486 -0.3275 -2.0858
  113OSM   H11B11731   4.892   3.195  10.465  1.3473  2.3006  0.2981
  113OSM      P11732   5.092   3.136  10.656  0.1642  0.3225 -0.5171
  113OSM    O1311733   5.154   3.171  10.784 -0.1683 -0.2081 -0.4060
  113OSM    O1411734   5.139   3.010  10.592  0.2307  0.0726  0.6794
  113OSM    O1111735   5.117   3.255  10.558 -0.6379 -0.3978  0.2222
  113OSM    O1211736   4.934   3.143  10.667 -0.2607  0.4783  0.1016
  113OSM    C1S11737   5.234   3.259  10.482 -0.0390 -0.1328  0.1662
  113OSM    H1S11738   5.307   3.179  10.506 -0.1936  0.1208  1.5673
  113OSM    H1T11739   5.280   3.354  10.515 -0.6029  0.0680  0.3894
  113OSM     NF11740   5.304   3.243  10.254 -0.1527  0.2443  0.4927
  113OSM    HNF11741   5.370   3.310  10.222 -0.5723  1.9008  2.8092
  113OSM    C2S11742   5.188   3.271  10.332 -0.0200 -0.2322 -0.3481
  113OSM    H2S11743   5.114   3.189  10.316  2.6180 -2.9322  0.2624
  113OSM    C3S11744   5.120   3.404  10.307 -0.2494 -0.0440  0.7263
  113OSM    H3S11745   5.195   3.483  10.332  1.7872 -1.2705 -1.1008
  113OSM     O311746   5.009   3.438  10.388  0.2901 -0.5548  0.1475
  113OSM    HO311747   5.017   3.380  10.465 -2.1675  2.0462  2.5966
  113OSM    C4S11748   5.090   3.411  10.162  0.3702 -1.0186  0.0825
  113OSM    H4S11749   5.184   3.424  10.107  1.2164 -1.3253  1.4018
  113OSM    C5S11750   4.973   3.394  10.093 -0.3973 -0.1542  0.0398
  113OSM    H5S11751   4.877   3.382  10.144 -1.5293  1.4567 -1.6028
  113OSM    C6S11752   4.960   3.408   9.946 -0.5011  0.3190 -0.0281
  113OSM    H6S11753   5.049   3.453   9.897  0.6133 -0.3822  1.2774
  113OSM    H6T11754   4.872   3.473   9.927 -2.0523 -1.2025  1.5146
  113OSM    C7S11755   4.925   3.273   9.882  0.7941  0.2172 -0.0294
  113OSM    H7S11756   4.913   3.297   9.774 -1.5906 -1.5038 -0.2381
  113OSM    H7T11757   4.824   3.250   9.921  0.8567 -0.3259 -0.1787
  113OSM    C8S11758   5.021   3.154   9.899  0.0977 -0.4759  0.1519
  113OSM    H8S11759   5.021   3.108  10.001  0.3307  0.3629  0.5383
  113OSM    H8T11760   5.124   3.190   9.877  0.4283 -0.8382  1.0384
  113OSM    C9S11761   4.988   3.047   9.806  0.0603 -0.2122 -0.3168
  113OSM    H9S11762   4.881   3.015   9.806  0.1466 -0.5046 -0.5066
  113OSM    H9T11763   5.040   2.951   9.824  0.7899  0.0174 -1.1337
  113OSM   C10S11764   5.037   3.087   9.665 -0.1783 -0.2367  0.4167
  113OSM   H10S11765   5.148   3.091   9.665 -0.1622  1.4333 -2.0288
  113OSM   H10T11766   5.007   3.189   9.634  2.1717  0.7959  1.3230
  113OSM   C11S11767   4.994   2.987   9.566 -0.5332  0.2607 -0.0709
  113OSM   H11S11768   4.883   2.993   9.560 -0.6034 -1.3390 -0.8969
  113OSM   H11T11769   5.009   2.882   9.596  1.8413  0.5564 -0.0786
  113OSM   C12S11770   5.044   3.016   9.426 -0.0999  0.4688  0.1359
  113OSM   H12S11771   5.038   3.122   9.392 -1.9620  0.3962  0.1468
  113OSM   H12T11772   4.987   2.950   9.357 -0.1783  2.4516 -1.8049
  113OSM   C13S11773   5.189   2.976   9.405 -0.2946 -0.0432  0.2329
  113OSM   H13S11774   5.201   2.869   9.434  1.4570 -0.2856 -1.1805
  113OSM   H13T11775   5.257   3.036   9.469  0.2435 -0.0156 -0.3566
  113OSM   C14S11776   5.238   2.973   9.261 -0.2742 -0.2401  0.1703
  113OSM   H14S11777   5.348   2.963   9.247 -0.4623  0.2081 -2.0116
  113OSM   H14T11778   5.219   3.080   9.235 -0.1034 -0.0715  0.7327
  113OSM   C15S11779   5.168   2.880   9.159  0.1494 -0.3368 -0.7511
  113OSM   H15S11780   5.057   2.876   9.157  0.1789 -1.3021 -0.8573
  113OSM   H15T11781   5.203   2.776   9.176  0.0859 -0.4667 -1.3947
  113OSM   C16S11782   5.210   2.905   9.015 -0.4831  0.8090 -1.0904
  113OSM   H16S11783   5.319   2.924   9.017 -0.7037  2.2340  1.7326
  113OSM   H16T11784   5.155   2.989   8.967  1.7356  1.9998 -1.6766
  113OSM   C17S11785   5.194   2.783   8.914  0.2363 -0.6159 -0.3559
  113OSM   H17S11786   5.084   2.774   8.911  0.1907 -1.2284  1.5735
  113OSM   H17T11787   5.248   2.702   8.967  0.1188  0.0854  0.8718
  113OSM   C18S11788   5.263   2.800   8.782  0.0364  0.5481  0.3534
  113OSM   H18S11789   5.218   2.892   8.738  0.9656 -0.0127 -1.8731
  113OSM   H18T11790   5.248   2.708   8.722  2.2805  0.1175  0.3533
  113OSM   H18U11791   5.374   2.799   8.789 -0.0073  0.3181  1.0823
  113OSM    C1F11792   5.336   3.119  10.232 -0.6938  0.4460 -0.1233
  113OSM     OF11793   5.261   3.031  10.270 -0.1036  0.5006  0.5035
  113OSM    C2F11794   5.464   3.084  10.170 -0.5787 -0.1764  0.4171
  113OSM    H2F11795   5.544   3.086  10.247 -1.7397  0.4697  1.6574
  113OSM    H2G11796   5.497   3.153  10.089  1.1942  0.8196  1.9357
  113OSM    C3F11797   5.477   2.931  10.118  0.0697  0.2880 -0.3036
  113OSM    H3F11798   5.464   2.866  10.208 -2.3981  2.6860  1.2278
  113OSM    H3G11799   5.581   2.926  10.079  0.7273 -1.5127  1.5163
  113OSM    C4F11800   5.387   2.891  10.008 -0.6203 -0.1279  0.8608
  113OSM    H4F11801   5.285   2.877  10.050 -1.4485 -2.6885 -1.7059
  113OSM    H4G11802   5.420   2.787   9.987  0.0683 -0.2488  2.4132
  113OSM    C5F11803   5.372   2.970   9.877 -0.5339 -0.4139  0.5012
  113OSM    H5F11804   5.320   3.063   9.910  1.1855  0.9812 -0.5355
  113OSM    H5G11805   5.306   2.917   9.806 -2.3214  0.9164  1.0769
  113OSM    C6F11806   5.501   3.007   9.806  0.8934 -0.4158 -0.0348
  113OSM    H6F11807   5.555   2.912   9.784  0.5320 -0.6337 -0.0029
  113OSM    H6G11808   5.563   3.081   9.860 -1.9447  0.6758  1.9634
  113OSM    C7F11809   5.454   3.081   9.680  0.1853 -0.2099  0.1461
  113OSM    H7F11810   5.385   3.163   9.710  2.3715  2.3540 -1.3358
  113OSM    H7G11811   5.399   3.011   9.613 -0.1854  0.2250 -0.0137
  113OSM    C8F11812   5.568   3.137   9.595 -0.8743 -0.6901  0.3180
  113OSM    H8F11813   5.629   3.207   9.655 -1.2886 -0.2960  0.2878
  113OSM    H8G11814   5.529   3.202   9.513  0.0649  0.5950  0.8667
  113OSM    C9F11815   5.653   3.030   9.536 -0.2773 -0.0620 -0.6783
  113OSM    H9F11816   5.705   2.968   9.611  2.1937 -0.8167 -2.8618
  113OSM   C10F11817   5.689   3.002   9.409  0.1932  0.5304 -0.0945
  113OSM   H10F11818   5.736   2.908   9.378 -2.0452 -0.1067 -1.8497
  113OSM   C11F11819   5.641   3.078   9.286  0.3395  0.6185 -0.1591
  113OSM   H11F11820   5.588   3.172   9.312  0.5459  0.9363 -0.8652
  113OSM   H11G11821   5.571   3.023   9.220 -0.1846  0.7519  0.2814
  113OSM   C12F11822   5.754   3.135   9.205  0.5828 -0.4972  0.0642
  113OSM   H12F11823   5.816   3.058   9.153  1.3568 -0.7525  1.3194
  113OSM   H12G11824   5.825   3.193   9.268 -0.7010  0.9460  0.2180
  113OSM   C13F11825   5.697   3.225   9.101 -0.4830  0.3613  0.0481
  113OSM   H13F11826   5.787   3.263   9.047  0.8065 -0.2159  1.6832
  113OSM   H13G11827   5.633   3.306   9.141 -0.6147  1.1227 -1.6459
  113OSM   C14F11828   5.605   3.147   8.997 -0.9877 -0.2232  0.1383
  113OSM   H14F11829   5.517   3.099   9.045  0.0849 -1.1721  1.2084
  113OSM   H14G11830   5.669   3.067   8.953  0.4028  0.5747  0.6691
  113OSM   C15F11831   5.569   3.233   8.878  0.6038 -0.9162 -0.0811
  113OSM   H15F11832   5.644   3.316   8.876 -0.8861  0.4823 -1.9191
  113OSM   H15G11833   5.469   3.279   8.890  0.1941 -1.3953 -1.5398
  113OSM   C16F11834   5.579   3.167   8.744 -0.2237 -0.4049  0.0135
  113OSM   H16F11835   5.684   3.152   8.710 -0.1459  0.7899 -0.3345
  113OSM   H16G11836   5.528   3.236   8.673 -1.5222 -3.0720 -1.8240
  113OSM   C17F11837   5.509   3.034   8.720 -0.0674  0.5128  0.6001
  113OSM   H17F11838   5.418   3.027   8.783 -0.4446  0.4425  0.0524
  113OSM   H17G11839   5.570   2.947   8.751  0.3947  0.2358 -0.9841
  113OSM   C18F11840   5.466   3.014   8.573  0.1583 -0.4027 -0.7977
  113OSM   H18F11841   5.417   2.915   8.558 -0.8058 -0.6844  3.1904
  113OSM   H18G11842   5.560   3.021   8.514 -0.1707  0.2145 -1.2628
  113OSM   H18H11843   5.400   3.097   8.540 -0.5224 -1.0221 -1.0192
  114OSM      N11844   6.348   0.491  10.913  0.1097  0.3120  0.0001
  114OSM    C1511845   6.305   0.634  10.900 -0.6371  0.5647  0.2924
  114OSM   H15A11846   6.282   0.668  11.000 -0.0748 -2.2822  1.4657
  114OSM   H15B11847   6.215   0.627  10.842 -1.5926  0.0261  1.7778
  114OSM   H15C11848   6.378   0.703  10.860  0.5778  0.0604  1.5589
  114OSM    C1411849   6.467   0.478  10.997 -0.5441  0.0976 -0.4186
  114OSM   H14A11850   6.454   0.511  11.099 -3.2145 -1.1791 -0.2485
  114OSM   H14B11851   6.548   0.527  10.945  1.9497 -2.7761  0.4703
  114OSM   H14C11852   6.499   0.375  10.994  0.0086  0.2829 -2.0647
  114OSM    C1311853   6.235   0.405  10.966  0.0004  0.1236  0.3681
  114OSM   H13A11854   6.145   0.437  10.915 -1.1165 -0.0252  2.1817
  114OSM   H13B11855   6.218   0.405  11.072 -0.4963 -1.9348  0.3306
  114OSM   H13C11856   6.255   0.304  10.935  1.7650  0.6078 -0.2376
  114OSM    C1211857   6.381   0.441  10.770 -0.4343 -0.0104 -0.4501
  114OSM   H12A11858   6.472   0.494  10.747 -0.4829 -0.8150 -2.7754
  114OSM   H12B11859   6.308   0.478  10.699 -0.2747  1.7457  0.2558
  114OSM    C1111860   6.396   0.287  10.733 -0.7578  0.1983 -0.1310
  114OSM   H11A11861   6.427   0.277  10.627 -1.7026 -0.1167 -0.3907
  114OSM   H11B11862   6.290   0.252  10.726 -1.1454  0.7857  2.0057
  114OSM      P11863   6.630   0.203  10.804  0.6050  0.2849  0.1042
  114OSM    O1311864   6.679   0.336  10.822  0.1024  0.3162 -0.4871
  114OSM    O1411865   6.676   0.101  10.896 -0.3168  0.2103 -0.6266
  114OSM    O1111866   6.650   0.140  10.663  0.1159  0.2456 -0.2103
  114OSM    O1211867   6.473   0.208  10.823  0.4518 -0.1916 -0.0527
  114OSM    C1S11868   6.585   0.012  10.638 -0.1786 -0.4568 -0.1046
  114OSM    H1S11869   6.478   0.022  10.668 -0.3697  2.3349 -1.3586
  114OSM    H1T11870   6.623  -0.063  10.710  0.0451  0.1864  0.4586
  114OSM     NF11871   6.480  -0.134  10.478  0.6385  0.0472 -0.2273
  114OSM    HNF11872   6.507  -0.229  10.462 -0.8450 -0.6257  1.0596
  114OSM    C2S11873   6.578  -0.031  10.489  0.3606 -0.1863 -0.8017
  114OSM    H2S11874   6.544   0.054  10.427  1.9056  0.9458 -0.1404
  114OSM    C3S11875   6.720  -0.073  10.464  0.4549  0.1666 -0.5881
  114OSM    H3S11876   6.729  -0.169  10.521 -1.7349  0.1205 -0.2342
  114OSM     O311877   6.818   0.026  10.497  0.3252 -0.0419 -0.0421
  114OSM    HO311878   6.761   0.091  10.538  0.4571  1.3518 -1.9342
  114OSM    C4S11879   6.746  -0.105  10.322  0.8249 -0.4737  0.2712
  114OSM    H4S11880   6.702  -0.031  10.253 -0.4587 -1.1298  0.3581
  114OSM    C5S11881   6.801  -0.222  10.278  0.8941  0.2475  0.6399
  114OSM    H5S11882   6.843  -0.290  10.354 -0.9961  0.3480  1.8447
  114OSM    C6S11883   6.828  -0.272  10.132 -0.5886  0.5084  0.3984
  114OSM    H6S11884   6.761  -0.223  10.057 -2.8497 -0.8166  1.4373
  114OSM    H6T11885   6.796  -0.375  10.107  2.8445 -0.0464 -2.5019
  114OSM    C7S11886   6.972  -0.241  10.101  0.1553  0.3407 -0.6249
  114OSM    H7S11887   7.033  -0.317  10.154 -1.4831 -0.2619  0.4800
  114OSM    H7T11888   6.998  -0.143  10.147 -2.3988  0.3023  1.1181
  114OSM    C8S11889   7.007  -0.232   9.952  0.5603  0.7619 -0.5536
  114OSM    H8S11890   7.086  -0.155   9.943  0.3544  0.9929 -0.3974
  114OSM    H8T11891   6.922  -0.191   9.894 -2.0550 -2.8320  0.3403
  114OSM    C9S11892   7.050  -0.358   9.885  0.0531  0.1033  0.6449
  114OSM    H9S11893   6.956  -0.413   9.863  1.7583 -3.5161  1.7307
  114OSM    H9T11894   7.105  -0.424   9.955 -1.2299 -1.2646  0.4133
  114OSM   C10S11895   7.138  -0.333   9.755 -0.0244  0.4468 -0.1594
  114OSM   H10S11896   7.202  -0.423   9.745  1.2558  1.3396 -0.2923
  114OSM   H10T11897   7.201  -0.241   9.757  0.3396  0.2540 -1.5901
  114OSM   C11S11898   7.050  -0.328   9.626  0.0878 -1.2618 -0.0771
  114OSM   H11S11899   6.996  -0.232   9.609 -0.8259 -2.0903 -2.3157
  114OSM   H11T11900   6.977  -0.411   9.622 -2.8155  1.0516  0.7119
  114OSM   C12S11901   7.144  -0.343   9.511 -0.2133 -0.0692  0.7394
  114OSM   H12S11902   7.186  -0.446   9.515  1.8109  0.5484 -1.9660
  114OSM   H12T11903   7.228  -0.271   9.511  1.0819 -1.5146  0.0027
  114OSM   C13S11904   7.055  -0.337   9.372  0.5367  0.1648 -0.6104
  114OSM   H13S11905   6.989  -0.248   9.374 -1.5763 -1.3182 -0.9926
  114OSM   H13T11906   7.001  -0.433   9.368  0.3295  0.2189  0.5136
  114OSM   C14S11907   7.146  -0.339   9.246  0.2581 -0.2587  0.3379
  114OSM   H14S11908   7.240  -0.396   9.266  0.0041 -0.0292  2.3076
  114OSM   H14T11909   7.172  -0.238   9.207  1.1747 -0.6009  0.0278
  114OSM   C15S11910   7.079  -0.408   9.131  0.0917  0.0972  0.1915
  114OSM   H15S11911   6.975  -0.370   9.123 -0.9151 -2.3314  0.7691
  114OSM   H15T11912   7.068  -0.518   9.142 -0.8694  0.3962  3.2676
  114OSM   C16S11913   7.157  -0.372   9.001 -0.6468 -0.3108  0.0575
  114OSM   H16S11914   7.266  -0.367   9.020 -1.0415  3.1050  2.2020
  114OSM   H16T11915   7.135  -0.268   8.971 -0.2164 -0.2583 -0.0848
  114OSM   C17S11916   7.105  -0.454   8.881 -0.7000 -0.3524 -0.0713
  114OSM   H17S11917   6.995  -0.473   8.884 -0.8002 -0.3304 -2.1738
  114OSM   H17T11918   7.152  -0.555   8.888 -0.8506 -0.3736  0.7125
  114OSM   C18S11919   7.133  -0.388   8.740  0.4321  0.1612 -0.1265
  114OSM   H18S11920   7.076  -0.293   8.732 -1.2615 -0.7779  0.2981
  114OSM   H18T11921   7.096  -0.451   8.657  0.9590 -0.3441  0.0200
  114OSM   H18U11922   7.235  -0.350   8.719 -0.1203  3.1753  1.9532
  114OSM    C1F11923   6.345  -0.117  10.480  0.0958  0.4548  0.2838
  114OSM     OF11924   6.307  -0.008  10.512  0.1650  0.0576  0.0907
  114OSM    C2F11925   6.265  -0.246  10.451 -1.0087  0.2229  0.4501
  114OSM    H2F11926   6.264  -0.310  10.542 -1.4489 -0.3724  0.0290
  114OSM    H2G11927   6.318  -0.302  10.371 -0.8908  2.1066 -0.8575
  114OSM    C3F11928   6.128  -0.212  10.393  0.0861  0.0917  0.3966
  114OSM    H3F11929   6.135  -0.162  10.293  2.2932 -0.2303  0.3380
  114OSM    H3G11930   6.074  -0.149  10.467  0.4820 -1.6546  2.2255
  114OSM    C4F11931   6.036  -0.323  10.348  0.5874  0.2460  0.4428
  114OSM    H4F11932   5.942  -0.279  10.311  0.2631  0.9602  2.0497
  114OSM    H4G11933   6.018  -0.397  10.430 -0.9366 -0.3099 -0.3631
  114OSM    C5F11934   6.091  -0.409  10.229 -0.5778 -0.1793  0.8223
  114OSM    H5F11935   6.181  -0.461  10.266  0.5188  1.0135 -0.0550
  114OSM    H5G11936   6.110  -0.344  10.141  0.7982 -0.0884  1.1669
  114OSM    C6F11937   5.971  -0.500  10.187 -0.6802  1.0716 -0.6541
  114OSM    H6F11938   5.884  -0.433  10.166 -0.6895  1.5138  0.6840
  114OSM    H6G11939   5.930  -0.558  10.273 -0.2151  1.1025 -0.4065
  114OSM    C7F11940   5.980  -0.600  10.074 -0.4199 -0.2277  0.4632
  114OSM    H7F11941   5.873  -0.619  10.053 -0.5626  0.6766  0.3589
  114OSM    H7G11942   6.033  -0.692  10.108 -2.6037 -1.2130  1.4145
  114OSM    C8F11943   6.060  -0.551   9.953 -0.0535 -0.4448 -0.0068
  114OSM    H8F11944   6.166  -0.535   9.984 -0.3670 -1.0515  1.4524
  114OSM    H8G11945   6.019  -0.452   9.924  3.9121  2.0522  1.9680
  114OSM    C9F11946   6.075  -0.651   9.842  0.0626 -0.4163 -0.4102
  114OSM    H9F11947   6.056  -0.756   9.870 -3.3214 -0.3913 -2.0180
  114OSM   C10F11948   6.089  -0.629   9.711 -0.2861 -0.2663 -0.0687
  114OSM   H10F11949   6.105  -0.719   9.651 -3.4593 -2.7217  2.3731
  114OSM   C11F11950   6.102  -0.498   9.643  0.3667  0.1026  0.1436
  114OSM   H11F11951   6.152  -0.429   9.715  1.6345  0.6156 -1.1927
  114OSM   H11G11952   6.003  -0.455   9.619  0.1481  0.5211  1.6752
  114OSM   C12F11953   6.175  -0.502   9.503 -0.9486  0.3996 -0.6862
  114OSM   H12F11954   6.280  -0.533   9.520 -1.4063 -0.0318  1.7371
  114OSM   H12G11955   6.193  -0.398   9.468  0.3510  0.3964 -0.0851
  114OSM   C13F11956   6.111  -0.581   9.387 -0.0882  0.3555 -0.6452
  114OSM   H13F11957   6.013  -0.536   9.361  0.8458  2.4458 -0.6968
  114OSM   H13G11958   6.100  -0.689   9.414  0.1695  0.1698 -1.2854
  114OSM   C14F11959   6.201  -0.577   9.260 -0.8901  0.0234  0.3119
  114OSM   H14F11960   6.298  -0.628   9.279 -0.8393 -0.0766 -0.2105
  114OSM   H14G11961   6.208  -0.471   9.227  0.5473 -0.1432  0.0065
  114OSM   C15F11962   6.142  -0.657   9.146  0.1426  0.2897 -0.0986
  114OSM   H15F11963   6.049  -0.604   9.115  0.1938  0.8735  0.7048
  114OSM   H15G11964   6.104  -0.758   9.174 -1.0931  1.2392  1.9104
  114OSM   C16F11965   6.224  -0.646   9.018  0.5461 -0.0533 -0.7961
  114OSM   H16F11966   6.326  -0.688   9.028  0.7998  0.8304  0.4637
  114OSM   H16G11967   6.253  -0.540   9.005  2.3551 -0.2632  1.0222
  114OSM   C17F11968   6.153  -0.728   8.913  0.4148  0.2323  0.6888
  114OSM   H17F11969   6.050  -0.688   8.900  0.6058  0.7731  0.7846
  114OSM   H17G11970   6.140  -0.834   8.941 -2.3722 -0.6540 -3.0784
  114OSM   C18F11971   6.212  -0.694   8.779 -0.0109 -0.8132 -0.7133
  114OSM   H18F11972   6.321  -0.707   8.767 -0.0019 -1.8215  0.2919
  114OSM   H18G11973   6.180  -0.589   8.767 -0.7349 -0.8385  0.7675
  114OSM   H18H11974   6.168  -0.756   8.696 -0.3365 -1.2518 -0.2230
  115OSM      N11975   1.032   6.178  10.880  0.4794  0.6454  0.1815
  115OSM    C1511976   0.911   6.087  10.847  0.0451 -0.6264  0.3836
  115OSM   H15A11977   0.910   6.054  10.744  1.0632  2.4904 -0.7314
  115OSM   H15B11978   0.816   6.134  10.871  0.7282  0.1610  1.6523
  115OSM   H15C11979   0.901   5.993  10.900  1.0379 -1.1463 -0.3136
  115OSM    C1411980   1.033   6.212  11.021 -0.3773  0.3347 -0.5631
  115OSM   H14A11981   1.126   6.261  11.048  0.9055 -1.6459 -1.2015
  115OSM   H14B11982   1.013   6.121  11.075 -2.1154  1.0401  0.0355
  115OSM   H14C11983   0.951   6.274  11.055 -0.0504 -0.2237  1.3289
  115OSM    C1311984   1.152   6.087  10.856  0.1167 -0.8709  0.4170
  115OSM   H13A11985   1.236   6.127  10.910 -0.4028 -1.3126  1.5897
  115OSM   H13B11986   1.179   6.065  10.754  1.6028 -1.5258  0.9290
  115OSM   H13C11987   1.130   5.992  10.903 -0.0526 -0.3636  1.3910
  115OSM    C1211988   1.025   6.304  10.793 -0.0694  0.2203 -0.2418
  115OSM   H12A11989   0.954   6.372  10.837 -0.5631 -0.1636 -0.4359
  115OSM   H12B11990   0.990   6.271  10.696  2.1855 -0.9044 -0.7410
  115OSM    C1111991   1.159   6.385  10.759  0.6159  0.5659  0.0874
  115OSM   H11A11992   1.115   6.469  10.701 -1.3851 -1.5179 -1.6047
  115OSM   H11B11993   1.227   6.321  10.699  0.8862  1.1311 -0.2152
  115OSM      P11994   1.365   6.416  10.927 -0.3163 -0.2746 -0.4064
  115OSM    O1311995   1.373   6.480  11.057 -0.2616 -0.4538 -0.2080
  115OSM    O1411996   1.404   6.274  10.926  0.3338  0.3582 -0.0262
  115OSM    O1111997   1.439   6.501  10.816 -0.0332 -0.0701 -0.4029
  115OSM    O1211998   1.219   6.426  10.883  0.6877 -0.6048  0.7132
  115OSM    C1S11999   1.412   6.636  10.779 -0.7225 -0.4462 -0.3192
  115OSM    H1S12000   1.450   6.698  10.863 -1.8901  0.1725 -0.2408
  115OSM    H1T12001   1.304   6.650  10.761 -0.4211  1.4904 -0.8152
  115OSM     NF12002   1.460   6.839  10.642  0.7698 -0.5441  0.0762
  115OSM    HNF12003   1.389   6.873  10.580  0.0815 -2.3386 -0.2008
  115OSM    C2S12004   1.483   6.689  10.652 -0.3972  0.9922 -0.0695
  115OSM    H2S12005   1.593   6.672  10.663 -0.5389 -1.2229 -1.4288
  115OSM    C3S12006   1.446   6.608  10.525 -0.4086 -0.0781  0.0544
  115OSM    H3S12007   1.337   6.619  10.507 -0.0688  0.4240 -1.9632
  115OSM     O312008   1.478   6.469  10.530 -0.0717 -0.9238 -0.4218
  115OSM    HO312009   1.483   6.448  10.623  0.1669 -0.3032 -0.2906
  115OSM    C4S12010   1.522   6.663  10.409 -0.6081 -0.6524 -0.4118
  115OSM    H4S12011   1.626   6.687  10.434 -0.9200 -0.0323  0.3180
  115OSM    C5S12012   1.468   6.705  10.291  0.3980 -0.3484  0.0825
  115OSM    H5S12013   1.358   6.704  10.288  0.1541  3.2883  1.9906
  115OSM    C6S12014   1.552   6.772  10.182 -0.5755  0.0678 -0.2186
  115OSM    H6S12015   1.653   6.740  10.215 -0.6031  0.7783  0.5671
  115OSM    H6T12016   1.547   6.882  10.197 -0.1317  0.1777 -0.8384
  115OSM    C7S12017   1.534   6.725  10.039 -0.7375  0.0302  0.1845
  115OSM    H7S12018   1.430   6.745  10.006 -0.4288 -0.1440 -0.9742
  115OSM    H7T12019   1.538   6.614  10.029 -0.8934  0.1835 -2.3627
  115OSM    C8S12020   1.638   6.774   9.935 -0.7540  0.2878 -0.2705
  115OSM    H8S12021   1.734   6.734   9.973 -0.5565  0.2006 -0.8466
  115OSM    H8T12022   1.645   6.885   9.946  0.3759  0.1338  0.8198
  115OSM    C9S12023   1.612   6.730   9.788  0.0204 -0.3355  0.1817
  115OSM    H9S12024   1.509   6.764   9.766  0.1404  0.5748  0.9628
  115OSM    H9T12025   1.619   6.620   9.775 -0.5267 -0.4393  0.7671
  115OSM   C10S12026   1.705   6.789   9.686 -0.0223  0.0321  0.1350
  115OSM   H10S12027   1.809   6.770   9.719  0.4073  0.1727 -1.0757
  115OSM   H10T12028   1.685   6.898   9.685  0.3148  0.1312  1.7365
  115OSM   C11S12029   1.662   6.743   9.540 -0.2625 -0.0026  0.6278
  115OSM   H11S12030   1.559   6.768   9.507 -0.1719 -0.6677 -0.1986
  115OSM   H11T12031   1.673   6.633   9.552 -1.0604 -0.0048  1.4734
  115OSM   C12S12032   1.758   6.793   9.433 -0.2777 -0.0974  0.6549
  115OSM   H12S12033   1.858   6.781   9.478  0.2424  3.9447  0.9021
  115OSM   H12T12034   1.743   6.902   9.416 -1.5498 -0.3806 -0.2233
  115OSM   C13S12035   1.751   6.723   9.302 -0.1384 -0.0546  0.7132
  115OSM   H13S12036   1.810   6.629   9.290 -1.9954 -1.0209 -1.8141
  115OSM   H13T12037   1.805   6.793   9.234 -0.7055 -0.9226 -0.6876
  115OSM   C14S12038   1.611   6.705   9.246 -0.0239 -0.5661 -0.0209
  115OSM   H14S12039   1.562   6.804   9.252 -0.0059 -0.6020  0.8387
  115OSM   H14T12040   1.558   6.629   9.307  0.8284 -1.7740 -0.7330
  115OSM   C15S12041   1.615   6.637   9.105 -0.7906 -0.8676 -0.4929
  115OSM   H15S12042   1.511   6.625   9.069 -0.5473 -0.3283 -1.4120
  115OSM   H15T12043   1.654   6.535   9.128 -1.2919 -0.7969  0.7380
  115OSM   C16S12044   1.701   6.705   9.003  0.1065 -0.1090  0.3941
  115OSM   H16S12045   1.806   6.728   9.030  0.1916  3.3066 -2.2010
  115OSM   H16T12046   1.658   6.808   8.997 -0.3625 -0.3291 -0.0624
  115OSM   C17S12047   1.688   6.657   8.859 -0.6394 -0.3867 -1.0560
  115OSM   H17S12048   1.733   6.734   8.794 -1.8977  1.3929  0.0908
  115OSM   H17T12049   1.580   6.637   8.839 -0.2188 -1.1476 -2.6907
  115OSM   C18S12050   1.780   6.535   8.843 -0.1127  0.2058  0.7556
  115OSM   H18S12051   1.790   6.497   8.739 -0.3576 -1.4601  1.2981
  115OSM   H18T12052   1.753   6.447   8.905 -1.1075  1.4153  2.1054
  115OSM   H18U12053   1.883   6.568   8.866 -0.0710  0.5794  0.0518
  115OSM    C1F12054   1.524   6.922  10.728  0.6835  0.2097  0.3627
  115OSM     OF12055   1.616   6.877  10.791  0.1051  0.4905 -0.2736
  115OSM    C2F12056   1.492   7.070  10.720  0.3756  0.0251  0.4763
  115OSM    H2F12057   1.426   7.089  10.806 -0.1890 -1.4904  0.4106
  115OSM    H2G12058   1.442   7.096  10.624 -0.1891  0.4825  0.8917
  115OSM    C3F12059   1.621   7.154  10.730 -0.3258  0.0936 -0.1183
  115OSM    H3F12060   1.668   7.140  10.829  0.6365  0.7358 -0.4735
  115OSM    H3G12061   1.585   7.259  10.723 -0.8026 -0.0989 -0.6859
  115OSM    C4F12062   1.716   7.140  10.607  0.1873  0.2559  0.2060
  115OSM    H4F12063   1.759   7.038  10.604  0.9673  0.5905 -0.3083
  115OSM    H4G12064   1.802   7.210  10.620 -0.2936  0.9281 -0.1534
  115OSM    C5F12065   1.646   7.181  10.472 -0.1650  0.8057  0.4703
  115OSM    H5F12066   1.589   7.276  10.479 -2.1012 -0.3114  0.5586
  115OSM    H5G12067   1.575   7.098  10.451 -0.3294  0.4847  2.1180
  115OSM    C6F12068   1.748   7.198  10.364 -0.2676  1.0056  0.3382
  115OSM    H6F12069   1.828   7.270  10.392 -0.7024  1.3821  0.6097
  115OSM    H6G12070   1.704   7.240  10.271 -0.8326 -0.1620  0.0563
  115OSM    C7F12071   1.825   7.069  10.327 -0.3266  0.4122  0.5504
  115OSM    H7F12072   1.747   6.999  10.290  3.4564 -3.5370 -0.9342
  115OSM    H7G12073   1.864   7.031  10.424 -2.1484  2.4970  2.2017
  115OSM    C8F12074   1.922   7.087  10.213 -0.3374 -0.4145  0.4001
  115OSM    H8F12075   2.012   7.147  10.237  0.2761 -0.4756 -1.5165
  115OSM    H8G12076   1.876   7.151  10.135 -2.1269 -0.9370  0.9905
  115OSM    C9F12077   1.977   6.959  10.150  0.0934 -0.0863 -0.3022
  115OSM    H9F12078   2.013   6.893  10.230 -1.0708  0.1357  0.4292
  115OSM   C10F12079   1.992   6.926  10.018  0.1192  0.7462 -0.0390
  115OSM   H10F12080   2.034   6.826  10.004 -1.1060  0.1888  0.1107
  115OSM   C11F12081   1.962   7.008   9.898 -0.2460  0.3766  0.0228
  115OSM   H11F12082   1.976   7.117   9.917  3.4416 -0.1750  1.2518
  115OSM   H11G12083   1.854   6.996   9.876 -0.1102  1.1065 -1.1753
  115OSM   C12F12084   2.047   6.955   9.777 -0.0574  0.2877 -0.2319
  115OSM   H12F12085   2.039   6.844   9.774 -0.7211  0.3296 -0.1235
  115OSM   H12G12086   2.155   6.972   9.797  0.1856  0.3137 -1.5079
  115OSM   C13F12087   2.011   7.003   9.640 -0.3342  0.0456  0.4603
  115OSM   H13F12088   2.009   7.113   9.628  0.6472  0.1822  1.3724
  115OSM   H13G12089   1.908   6.964   9.625  0.5701 -3.0824  1.4996
  115OSM   C14F12090   2.101   6.943   9.530  0.0688 -0.4053 -0.4249
  115OSM   H14F12091   2.103   6.834   9.550  0.2852 -0.0547  1.7454
  115OSM   H14G12092   2.203   6.980   9.552  0.2288 -1.2481  0.2698
  115OSM   C15F12093   2.073   6.994   9.383  0.4081 -0.6487 -0.4234
  115OSM   H15F12094   2.148   7.071   9.355  1.1374 -1.5491 -1.0117
  115OSM   H15G12095   1.981   7.055   9.373  0.4963 -0.2771  0.8622
  115OSM   C16F12096   2.085   6.885   9.279  0.1006  0.0718  0.2825
  115OSM   H16F12097   2.013   6.804   9.302 -2.7306  1.9899 -1.1988
  115OSM   H16G12098   2.183   6.835   9.286  2.0201  3.6181  1.2798
  115OSM   C17F12099   2.051   6.941   9.141  0.1923  0.4100 -0.4248
  115OSM   H17F12100   2.125   7.021   9.119  1.0719  0.0702  1.1442
  115OSM   H17G12101   1.956   6.997   9.153  0.3738  0.5882  0.2310
  115OSM   C18F12102   2.051   6.841   9.027 -0.5060  0.1329  0.4021
  115OSM   H18F12103   2.037   6.734   9.051 -4.1266  0.8822  2.3758
  115OSM   H18G12104   2.135   6.850   8.955 -1.2396  1.1898 -0.3563
  115OSM   H18H12105   1.951   6.849   8.979 -0.3424 -1.7722 -0.3463
  116OSM      N12106   0.699   2.124  10.647 -0.5182 -0.1700 -0.0369
  116OSM    C1512107   0.670   2.206  10.521 -0.2835  0.1318 -0.1928
  116OSM   H15A12108   0.566   2.199  10.493 -0.6498 -0.3036  1.2115
  116OSM   H15B12109   0.732   2.163  10.443 -0.7774  0.4440 -0.7683
  116OSM   H15C12110   0.694   2.311  10.522  1.3792 -0.2245  0.2951
  116OSM    C1412111   0.677   1.978  10.625 -0.0672  0.9976  0.4473
  116OSM   H14A12112   0.710   1.921  10.710 -2.3803 -0.4662  0.4515
  116OSM   H14B12113   0.726   1.946  10.535 -0.5118  1.1319  0.1506
  116OSM   H14C12114   0.574   1.957  10.601  0.9205 -4.6148 -0.1019
  116OSM    C1312115   0.850   2.129  10.659 -0.0334 -1.0733  0.7719
  116OSM   H13A12116   0.883   2.095  10.756  0.6296 -0.1150  0.9048
  116OSM   H13B12117   0.897   2.226  10.653  0.1128 -1.2320 -2.8596
  116OSM   H13C12118   0.907   2.086  10.578 -1.6095  1.8276 -2.1735
  116OSM    C1212119   0.624   2.187  10.764 -0.8120 -0.2660 -0.6030
  116OSM   H12A12120   0.518   2.169  10.756 -0.8002 -0.4963 -0.2893
  116OSM   H12B12121   0.630   2.294  10.755 -0.2321  0.1868  3.3515
  116OSM    C1112122   0.668   2.152  10.911  0.7204  0.0517 -0.2356
  116OSM   H11A12123   0.666   2.041  10.911  1.5477  0.0244  0.3447
  116OSM   H11B12124   0.594   2.190  10.986 -0.2409 -1.3656 -0.4181
  116OSM      P12125   0.818   2.341  10.991  0.0328  0.0784 -0.3140
  116OSM    O1312126   0.752   2.365  11.122  0.1310  0.5484  0.0015
  116OSM    O1412127   0.964   2.371  10.986 -0.2255  0.1897 -0.1002
  116OSM    O1112128   0.746   2.434  10.879  0.1244  0.2916 -0.3797
  116OSM    O1212129   0.792   2.197  10.937 -0.9649 -0.0651 -0.6318
  116OSM    C1S12130   0.825   2.491  10.770 -0.1101  0.5358 -1.1734
  116OSM    H1S12131   0.848   2.411  10.697  1.4569 -0.4870  0.3422
  116OSM    H1T12132   0.921   2.533  10.808 -0.5705 -0.6614  1.6344
  116OSM     NF12133   0.812   2.652  10.582  0.4035 -0.1420  0.0850
  116OSM    HNF12134   0.836   2.748  10.581  0.9781 -0.2887 -0.7325
  116OSM    C2S12135   0.745   2.609  10.703  0.0519  0.3211  0.2722
  116OSM    H2S12136   0.644   2.572  10.673  0.2723 -1.2820  1.3718
  116OSM    C3S12137   0.706   2.723  10.808 -0.0692 -1.1308  0.2465
  116OSM    H3S12138   0.797   2.777  10.843  0.0642 -0.8803 -0.4785
  116OSM     O312139   0.647   2.674  10.927 -0.0116  0.2491  0.4357
  116OSM    HO312140   0.688   2.587  10.926  4.1677  1.9447 -2.5516
  116OSM    C4S12141   0.616   2.829  10.738  0.9579 -0.5245  0.1197
  116OSM    H4S12142   0.524   2.783  10.698 -0.6158  1.8958  0.6996
  116OSM    C5S12143   0.631   2.963  10.736 -0.1444  0.1412  0.4249
  116OSM    H5S12144   0.728   3.005  10.767 -0.3499  1.2913 -0.4191
  116OSM    C6S12145   0.550   3.074  10.663 -0.1629  0.0497 -0.8466
  116OSM    H6S12146   0.530   3.148  10.743 -3.3913 -4.4016  3.0997
  116OSM    H6T12147   0.455   3.034  10.621  0.4119 -0.1457 -1.9797
  116OSM    C7S12148   0.629   3.153  10.550 -0.0138  0.3456  0.7365
  116OSM    H7S12149   0.727   3.171  10.599  0.0807  0.5160  0.4872
  116OSM    H7T12150   0.579   3.248  10.524  0.8947  1.3306  2.4275
  116OSM    C8S12151   0.661   3.076  10.419 -0.3327  0.8002  0.0303
  116OSM    H8S12152   0.563   3.049  10.375 -1.4095  2.0282  1.5613
  116OSM    H8T12153   0.710   2.979  10.442  0.8657  0.8665 -1.9637
  116OSM    C9S12154   0.761   3.147  10.329 -1.2352 -0.8396  0.0430
  116OSM    H9S12155   0.864   3.153  10.370 -1.0465  1.0695 -0.6092
  116OSM    H9T12156   0.718   3.248  10.311  0.4983  0.0407  0.6868
  116OSM   C10S12157   0.768   3.081  10.192 -0.1512  0.3621  0.0231
  116OSM   H10S12158   0.663   3.047  10.180  0.7080 -2.0144 -1.3432
  116OSM   H10T12159   0.849   3.005  10.189 -0.3487  0.1646 -2.1782
  116OSM   C11S12160   0.787   3.176  10.074 -0.2601  0.2519 -0.2495
  116OSM   H11S12161   0.890   3.214  10.091  0.0805 -0.5696 -0.4356
  116OSM   H11T12162   0.711   3.257  10.071 -2.1673 -1.4754 -1.5937
  116OSM   C12S12163   0.773   3.107   9.934  0.5419  0.6149  0.4616
  116OSM   H12S12164   0.664   3.090   9.917  0.4343 -1.8175  2.8227
  116OSM   H12T12165   0.820   3.007   9.943  0.2106  0.5417  1.6556
  116OSM   C13S12166   0.823   3.181   9.814 -0.0293 -0.5549  0.3464
  116OSM   H13S12167   0.934   3.189   9.814 -0.0168 -0.6424  1.0777
  116OSM   H13T12168   0.787   3.286   9.822  3.3332  0.6879  0.9532
  116OSM   C14S12169   0.776   3.118   9.686 -0.1028 -0.2710 -0.5957
  116OSM   H14S12170   0.668   3.094   9.681 -0.2927 -0.4367  2.3217
  116OSM   H14T12171   0.824   3.018   9.672  2.0477  0.6377 -0.1215
  116OSM   C15S12172   0.816   3.194   9.555 -0.2638 -0.7368 -0.3057
  116OSM   H15S12173   0.927   3.199   9.554 -0.2735  0.1888 -2.4472
  116OSM   H15T12174   0.779   3.298   9.570 -0.5973 -0.5988 -1.9224
  116OSM   C16S12175   0.747   3.135   9.431  0.5007 -0.1661 -0.5178
  116OSM   H16S12176   0.637   3.144   9.443  0.5458  0.9230 -0.7803
  116OSM   H16T12177   0.779   3.030   9.415 -1.3675 -0.7985 -0.3029
  116OSM   C17S12178   0.788   3.210   9.313 -0.4189  0.7502  0.6478
  116OSM   H17S12179   0.898   3.195   9.318 -0.5956 -1.3103 -0.4777
  116OSM   H17T12180   0.758   3.316   9.320  1.0651  1.3227 -0.8670
  116OSM   C18S12181   0.740   3.140   9.184  0.0094 -0.3002  0.3016
  116OSM   H18S12182   0.765   3.032   9.177 -0.0224 -0.2431 -0.8633
  116OSM   H18T12183   0.787   3.201   9.105 -1.1081 -1.6584 -1.4820
  116OSM   H18U12184   0.632   3.157   9.165  0.2855 -0.2612 -1.3255
  116OSM    C1F12185   0.835   2.582  10.473  0.5403 -0.1299  0.1684
  116OSM     OF12186   0.806   2.464  10.471  0.2316 -0.2028  0.3260
  116OSM    C2F12187   0.869   2.655  10.355  0.4616 -0.0200  0.5724
  116OSM    H2F12188   0.940   2.736  10.382  0.8648 -0.5797  1.1867
  116OSM    H2G12189   0.777   2.711  10.327  1.8109  2.5865  0.9873
  116OSM    C3F12190   0.924   2.566  10.246  1.0981 -0.3676 -0.2095
  116OSM    H3F12191   0.844   2.495  10.218 -1.8919  2.1235  1.3857
  116OSM    H3G12192   1.010   2.510  10.288 -0.2513 -2.5152 -0.1642
  116OSM    C4F12193   0.982   2.640  10.124 -0.0875 -0.1511 -0.0812
  116OSM    H4F12194   1.062   2.710  10.157 -0.0736 -0.5438  0.7576
  116OSM    H4G12195   0.909   2.708  10.076  0.8257  1.6392  0.9253
  116OSM    C5F12196   1.030   2.543  10.013  0.1186  0.1406  0.6865
  116OSM    H5F12197   0.942   2.483   9.984 -1.5596  3.9578 -3.1980
  116OSM    H5G12198   1.104   2.474  10.058  0.5190 -0.0582 -0.2551
  116OSM    C6F12199   1.073   2.606   9.880 -0.0239 -0.6483  0.0117
  116OSM    H6F12200   1.155   2.680   9.895 -0.6562  0.1108 -0.1689
  116OSM    H6G12201   0.990   2.661   9.831  2.0612  1.8323 -1.0109
  116OSM    C7F12202   1.127   2.496   9.785 -0.3192  0.0251  0.5341
  116OSM    H7F12203   1.044   2.426   9.765  0.1793 -0.0455 -1.4470
  116OSM    H7G12204   1.205   2.434   9.836  0.5489  2.5408  2.5084
  116OSM    C8F12205   1.194   2.538   9.647  0.1267 -0.1874 -0.2228
  116OSM    H8F12206   1.234   2.444   9.603 -2.2469 -1.2418 -0.2502
  116OSM    H8G12207   1.268   2.617   9.671 -0.9669  0.2883  1.7958
  116OSM    C9F12208   1.103   2.609   9.559 -0.6281  0.4371  0.3205
  116OSM    H9F12209   1.047   2.688   9.610 -0.3990  0.5014  0.4727
  116OSM   C10F12210   1.074   2.576   9.432  0.0679 -0.1254  0.0432
  116OSM   H10F12211   1.012   2.637   9.365  0.1192 -0.7287 -0.5621
  116OSM   C11F12212   1.134   2.467   9.356  0.6054  0.2176  0.8043
  116OSM   H11F12213   1.057   2.399   9.314  1.8442  0.0275 -1.3545
  116OSM   H11G12214   1.207   2.404   9.412 -0.3197 -3.9399 -2.1941
  116OSM   C12F12215   1.216   2.530   9.243 -0.5562  0.1296  0.1363
  116OSM   H12F12216   1.292   2.600   9.285 -1.3357  2.3457 -1.9237
  116OSM   H12G12217   1.156   2.591   9.172  1.3996  1.2554 -0.6376
  116OSM   C13F12218   1.291   2.426   9.154 -0.5873 -0.0276 -0.2082
  116OSM   H13F12219   1.210   2.370   9.103  0.1255 -1.0423 -0.2449
  116OSM   H13G12220   1.349   2.353   9.214  0.0038  0.3644 -0.3040
  116OSM   C14F12221   1.392   2.484   9.055 -0.3792 -0.3583  0.6252
  116OSM   H14F12222   1.475   2.538   9.104  0.2317  0.2057 -0.9582
  116OSM   H14G12223   1.319   2.545   8.998  0.8282 -0.1733 -0.7915
  116OSM   C15F12224   1.452   2.373   8.966  0.2424  0.5027  0.0403
  116OSM   H15F12225   1.376   2.292   8.966  2.7052 -2.0854  2.5922
  116OSM   H15G12226   1.550   2.341   9.008  0.9645  3.1986  0.5627
  116OSM   C16F12227   1.491   2.433   8.830 -0.0094  0.4107 -0.2341
  116OSM   H16F12228   1.573   2.507   8.841 -1.3275  1.8972 -0.0784
  116OSM   H16G12229   1.402   2.490   8.794 -0.0318  0.2951 -0.3657
  116OSM   C17F12230   1.547   2.322   8.737 -0.4573 -0.1194 -0.1857
  116OSM   H17F12231   1.459   2.259   8.712  0.2525 -0.2389 -2.7224
  116OSM   H17G12232   1.612   2.254   8.796 -1.2592  1.8227  3.1557
  116OSM   C18F12233   1.613   2.350   8.601  0.1313 -0.9280 -0.0472
  116OSM   H18F12234   1.626   2.248   8.560 -4.1679 -0.8853 -2.0860
  116OSM   H18G12235   1.707   2.404   8.626 -0.1740 -0.4237  0.0377
  116OSM   H18H12236   1.540   2.415   8.548 -0.5937  0.2190  2.2018
  117OSM      N12237   4.352   2.532  11.090  0.3781 -0.2365  0.5545
  117OSM    C1512238   4.221   2.594  11.040 -0.0274 -0.2870  0.7379
  117OSM   H15A12239   4.161   2.506  11.018 -0.6638  0.1824  0.5644
  117OSM   H15B12240   4.235   2.653  10.951  0.3414 -1.5312 -0.0590
  117OSM   H15C12241   4.175   2.656  11.115  1.9139  0.6515  1.1948
  117OSM    C1412242   4.424   2.643  11.154  0.0257 -0.6788  0.0117
  117OSM   H14A12243   4.435   2.718  11.076 -2.0071 -1.9968 -1.6704
  117OSM   H14B12244   4.519   2.613  11.195 -0.5879 -1.0609  1.1845
  117OSM   H14C12245   4.363   2.691  11.228 -1.8371 -1.1823 -1.1273
  117OSM    C1312246   4.317   2.432  11.195  0.2204  0.0131 -0.1294
  117OSM   H13A12247   4.265   2.346  11.156  1.0834 -0.8968  0.6570
  117OSM   H13B12248   4.247   2.486  11.257 -1.2625 -2.3443  0.3597
  117OSM   H13C12249   4.395   2.399  11.262 -2.7037 -0.9503  3.0633
  117OSM    C1212250   4.436   2.468  10.974  0.2471 -0.0921  0.1531
  117OSM   H12A12251   4.380   2.386  10.931  2.1065 -0.8953 -0.8889
  117OSM   H12B12252   4.527   2.425  11.014 -1.2789 -2.4609  1.2903
  117OSM    C1112253   4.475   2.551  10.854  0.9685 -0.0401 -0.1070
  117OSM   H11A12254   4.397   2.619  10.813 -0.4568 -2.0561 -0.8607
  117OSM   H11B12255   4.495   2.477  10.774  0.7484  0.5794 -0.7528
  117OSM      P12256   4.622   2.776  10.838  0.1136  0.1287 -0.2008
  117OSM    O1312257   4.504   2.860  10.884 -0.4954 -0.8422  0.1058
  117OSM    O1412258   4.751   2.811  10.896 -0.5589 -0.5400  0.1209
  117OSM    O1112259   4.625   2.774  10.682 -0.5014 -0.4210 -0.0436
  117OSM    O1212260   4.587   2.631  10.877  0.0053 -0.2188 -0.2256
  117OSM    C1S12261   4.754   2.747  10.623 -0.5588  0.4514  1.0438
  117OSM    H1S12262   4.800   2.654  10.664  0.7153 -0.1059 -1.4303
  117OSM    H1T12263   4.823   2.834  10.630  1.9669 -1.1706 -1.5496
  117OSM     NF12264   4.883   2.678  10.419  0.2756 -0.0886  0.1121
  117OSM    HNF12265   4.930   2.736  10.353 -1.4985 -0.8038 -1.8854
  117OSM    C2S12266   4.758   2.732  10.464  0.4349 -0.0047  0.8363
  117OSM    H2S12267   4.687   2.650  10.441  0.9277 -0.2378  0.1235
  117OSM    C3S12268   4.700   2.864  10.392 -0.3374 -0.0970 -0.6413
  117OSM    H3S12269   4.764   2.955  10.399  0.0100 -0.1932 -2.1939
  117OSM     O312270   4.575   2.904  10.452  0.1441  0.4122  0.5902
  117OSM    HO312271   4.580   2.862  10.538 -0.3097  0.3443  0.5860
  117OSM    C4S12272   4.686   2.834  10.250 -0.7394  0.3713 -0.5158
  117OSM    H4S12273   4.614   2.753  10.227  0.1888 -0.3426 -0.9534
  117OSM    C5S12274   4.746   2.894  10.142  0.3147 -0.6474  0.3017
  117OSM    H5S12275   4.807   2.984  10.158 -0.2483 -0.5024  1.8598
  117OSM    C6S12276   4.719   2.855   9.996 -0.2189  0.5833 -0.2286
  117OSM    H6S12277   4.815   2.856   9.942 -1.0096  1.5364 -1.6877
  117OSM    H6T12278   4.651   2.929   9.949 -0.0698 -0.2102 -1.7342
  117OSM    C7S12279   4.653   2.718   9.967  0.1521  0.3264 -0.8498
  117OSM    H7S12280   4.560   2.737  10.025  1.7440 -1.0731  2.4430
  117OSM    H7T12281   4.714   2.646  10.025  1.8990  1.6882 -0.8857
  117OSM    C8S12282   4.627   2.683   9.819  0.1489 -0.5531 -0.9476
  117OSM    H8S12283   4.582   2.772   9.770 -0.1699 -0.0240  0.2604
  117OSM    H8T12284   4.560   2.595   9.823 -2.1510  1.1588  1.2386
  117OSM    C9S12285   4.759   2.661   9.750 -0.7650  0.7783  0.0642
  117OSM    H9S12286   4.808   2.578   9.805 -0.9653  0.1288 -0.7205
  117OSM    H9T12287   4.814   2.758   9.748  0.0192  0.3410 -0.6080
  117OSM   C10S12288   4.738   2.626   9.599  0.1023 -0.2621 -0.6102
  117OSM   H10S12289   4.673   2.703   9.552  0.0379 -0.9491 -1.6706
  117OSM   H10T12290   4.670   2.538   9.604 -3.2346  2.1578  0.2275
  117OSM   C11S12291   4.862   2.589   9.516 -0.6458  0.3136  0.2954
  117OSM   H11S12292   4.897   2.491   9.555 -1.1284 -0.0692 -0.2129
  117OSM   H11T12293   4.938   2.669   9.532  2.2853 -1.8242 -1.8668
  117OSM   C12S12294   4.842   2.584   9.364 -0.0685 -0.1235 -0.2449
  117OSM   H12S12295   4.770   2.502   9.342 -0.9526  0.3492  0.8285
  117OSM   H12T12296   4.940   2.560   9.317 -0.5878 -1.1752 -0.8191
  117OSM   C13S12297   4.787   2.705   9.281 -0.3135  0.4688 -0.1387
  117OSM   H13S12298   4.859   2.790   9.284 -1.3169  1.3230  0.4909
  117OSM   H13T12299   4.694   2.743   9.329 -0.7977 -0.6374 -0.1625
  117OSM   C14S12300   4.755   2.666   9.135 -0.3026 -0.7322  0.2193
  117OSM   H14S12301   4.659   2.612   9.124  0.1157 -1.6376  0.9446
  117OSM   H14T12302   4.847   2.612   9.105  1.0629  2.0384 -0.9166
  117OSM   C15S12303   4.755   2.784   9.028 -0.7039 -0.5606 -0.1885
  117OSM   H15S12304   4.862   2.814   9.025 -1.0817  1.0406  0.7531
  117OSM   H15T12305   4.697   2.873   9.062  1.5266  0.9758 -0.1838
  117OSM   C16S12306   4.702   2.746   8.893  0.4281  0.4067 -0.3366
  117OSM   H16S12307   4.595   2.731   8.915  0.7244  0.7260  1.4901
  117OSM   H16T12308   4.751   2.649   8.870 -2.0099 -1.0199  0.1417
  117OSM   C17S12309   4.734   2.847   8.788 -0.2081 -0.7569 -0.4173
  117OSM   H17S12310   4.663   2.830   8.703 -1.9708  3.5075 -0.0155
  117OSM   H17T12311   4.836   2.838   8.746  0.6592 -0.0856  1.4476
  117OSM   C18S12312   4.717   2.998   8.816  0.0747  0.3990 -0.2030
  117OSM   H18S12313   4.608   3.016   8.822 -0.1304 -1.1452  1.1694
  117OSM   H18T12314   4.742   3.050   8.721  0.4584 -1.3545 -1.1057
  117OSM   H18U12315   4.769   3.036   8.906 -1.6360 -2.8906  2.3633
  117OSM    C1F12316   4.937   2.570  10.460  0.5222  0.1036  0.2764
  117OSM     OF12317   4.879   2.475  10.513  0.1852 -0.9755  0.0977
  117OSM    C2F12318   5.085   2.562  10.439 -0.3151  0.1418  0.2707
  117OSM    H2F12319   5.130   2.526  10.535  0.3114 -1.0172 -0.4333
  117OSM    H2G12320   5.130   2.663  10.428  0.3028 -0.0813  0.6549
  117OSM    C3F12321   5.121   2.471  10.322  0.5682  0.0789 -0.5580
  117OSM    H3F12322   5.084   2.368  10.344  0.8169 -0.4590 -2.4119
  117OSM    H3G12323   5.231   2.457  10.323  0.9102  2.4362  0.2880
  117OSM    C4F12324   5.074   2.514  10.182  0.5952  0.0646 -0.4345
  117OSM    H4F12325   4.964   2.533  10.176  0.4949 -0.8700 -1.8045
  117OSM    H4G12326   5.096   2.430  10.113  2.5725 -0.8564  1.2063
  117OSM    C5F12327   5.126   2.650  10.125 -0.0512 -0.0626 -0.2126
  117OSM    H5F12328   5.233   2.657  10.155  0.0878 -1.0945 -0.4417
  117OSM    H5G12329   5.063   2.727  10.175 -0.8623 -1.9701  1.8408
  117OSM    C6F12330   5.109   2.659   9.973  0.2369 -0.3287 -0.5520
  117OSM    H6F12331   5.161   2.755   9.953  2.7662 -1.1358  1.7032
  117OSM    H6G12332   4.999   2.664   9.953 -0.0926  2.0732  1.3368
  117OSM    C7F12333   5.170   2.558   9.883 -0.3170 -0.1293 -0.4383
  117OSM    H7F12334   5.115   2.464   9.905 -1.1401  0.0592 -1.6047
  117OSM    H7G12335   5.279   2.555   9.906 -0.7789 -0.6818  1.9262
  117OSM    C8F12336   5.153   2.607   9.739  0.1859 -0.9609 -0.5767
  117OSM    H8F12337   5.194   2.710   9.739 -0.0432 -0.8185  1.9621
  117OSM    H8G12338   5.044   2.618   9.718  0.8777  2.8358 -3.4900
  117OSM    C9F12339   5.221   2.511   9.652 -0.3915 -0.3757 -0.1664
  117OSM    H9F12340   5.189   2.407   9.669  0.1577 -0.4236  0.6400
  117OSM   C10F12341   5.328   2.532   9.569  0.6830  0.1989 -0.1950
  117OSM   H10F12342   5.357   2.442   9.513 -2.3808 -0.2477 -1.3071
  117OSM   C11F12343   5.405   2.657   9.543 -0.1596 -0.0295  0.1938
  117OSM   H11F12344   5.342   2.747   9.558  0.8720  0.8267 -0.4305
  117OSM   H11G12345   5.445   2.669   9.440 -0.4929 -1.2560 -0.0915
  117OSM   C12F12346   5.526   2.672   9.647  0.4836  0.2809 -0.2229
  117OSM   H12F12347   5.473   2.683   9.744 -1.3171 -1.5876 -0.9214
  117OSM   H12G12348   5.577   2.766   9.617  2.3524 -1.4276 -2.8337
  117OSM   C13F12349   5.627   2.554   9.638  0.0982 -0.2873 -0.0223
  117OSM   H13F12350   5.580   2.453   9.641 -1.1750  0.2727 -0.4133
  117OSM   H13G12351   5.704   2.566   9.717 -1.0895 -0.6198  1.2120
  117OSM   C14F12352   5.712   2.554   9.508 -0.2937 -0.3369  0.7391
  117OSM   H14F12353   5.767   2.649   9.492  0.9217 -1.3596 -1.7703
  117OSM   H14G12354   5.631   2.530   9.435  1.1277  0.5417 -1.2219
  117OSM   C15F12355   5.821   2.442   9.482  0.1257 -0.6095  0.5363
  117OSM   H15F12356   5.768   2.345   9.477  1.5302 -1.4055  0.6825
  117OSM   H15G12357   5.871   2.440   9.581 -1.4477  1.2246  1.4504
  117OSM   C16F12358   5.908   2.468   9.369 -0.4430  0.6253  0.5837
  117OSM   H16F12359   5.954   2.568   9.382  0.5505  0.6567 -2.3195
  117OSM   H16G12360   5.852   2.468   9.273 -0.7951 -0.3474  0.7792
  117OSM   C17F12361   6.029   2.372   9.362  0.1173  1.0173  0.3679
  117OSM   H17F12362   6.076   2.386   9.263 -1.4139  2.9211 -0.1418
  117OSM   H17G12363   5.990   2.268   9.365  2.5282  0.0407  0.4900
  117OSM   C18F12364   6.128   2.365   9.479 -0.1120 -0.5253 -0.4431
  117OSM   H18F12365   6.190   2.456   9.490 -2.2210  1.0606 -1.0418
  117OSM   H18G12366   6.205   2.287   9.459  1.8088  1.5625 -1.7226
  117OSM   H18H12367   6.072   2.364   9.574 -1.7595  0.1981 -1.3669
  118OSM      N12368   4.665   4.125  11.435  0.2581 -0.4993  0.5270
  118OSM    C1512369   4.697   4.199  11.556 -0.8047  0.4893  0.3286
  118OSM   H15A12370   4.804   4.210  11.560 -0.9354  2.3742 -0.4867
  118OSM   H15B12371   4.664   4.145  11.644 -1.1538 -0.8769 -0.6135
  118OSM   H15C12372   4.649   4.296  11.551  0.5017  1.0980 -1.0445
  118OSM    C1412373   4.762   4.012  11.423 -0.1830  0.4805 -0.0477
  118OSM   H14A12374   4.862   4.053  11.425  0.6571 -1.2604 -1.9751
  118OSM   H14B12375   4.747   3.966  11.327 -0.3391  1.4414 -0.4937
  118OSM   H14C12376   4.760   3.936  11.501  2.6494 -1.6640 -1.8396
  118OSM    C1312377   4.526   4.073  11.448 -0.0810  0.7743  0.7351
  118OSM   H13A12378   4.507   4.020  11.356  1.4146  0.9220  0.3237
  118OSM   H13B12379   4.457   4.156  11.441  1.3641  2.0784  1.4798
  118OSM   H13C12380   4.515   3.996  11.523 -2.1627 -1.7044 -1.8555
  118OSM    C1212381   4.682   4.220  11.314  0.5548 -0.1946  0.1903
  118OSM   H12A12382   4.784   4.254  11.316 -0.0472  1.6851  0.6338
  118OSM   H12B12383   4.622   4.307  11.335 -2.1042 -2.3922  2.8418
  118OSM    C1112384   4.638   4.163  11.171 -0.1664  0.0557  0.5719
  118OSM   H11A12385   4.638   4.247  11.099 -0.5527  1.0509  1.6844
  118OSM   H11B12386   4.535   4.121  11.181  0.3313 -0.7261  3.2535
  118OSM      P12387   4.693   3.932  11.050 -0.1353 -0.3772 -0.5846
  118OSM    O1312388   4.804   3.837  11.049  0.0666 -0.2878  0.4089
  118OSM    O1412389   4.567   3.885  11.110 -0.4646  0.0558  0.0224
  118OSM    O1112390   4.663   3.991  10.905 -0.5099  0.5246  0.1720
  118OSM    O1212391   4.729   4.065  11.123 -0.1394  0.1658 -0.2373
  118OSM    C1S12392   4.768   3.989  10.809  0.0598 -0.9465 -0.0560
  118OSM    H1S12393   4.797   3.883  10.790 -1.8746 -1.6121  0.4443
  118OSM    H1T12394   4.856   4.042  10.851  0.5930 -3.3755  2.1897
  118OSM     NF12395   4.847   4.030  10.586  0.6054 -0.3586 -0.3522
  118OSM    HNF12396   4.877   4.122  10.561 -2.2222  0.6166 -0.5139
  118OSM    C2S12397   4.729   4.040  10.670  0.4401  0.3165  0.0884
  118OSM    H2S12398   4.663   3.964  10.624  0.0689  0.5040  0.3077
  118OSM    C3S12399   4.664   4.185  10.675 -0.0958 -0.0548  0.6466
  118OSM    H3S12400   4.731   4.265  10.713 -0.9202  1.1302 -0.2820
  118OSM     O312401   4.551   4.203  10.759 -0.6528 -0.3046 -0.4342
  118OSM    HO312402   4.563   4.138  10.828 -2.9339  0.7084  1.0178
  118OSM    C4S12403   4.632   4.217  10.533  0.1045  0.0205  0.3407
  118OSM    H4S12404   4.713   4.256  10.470 -1.8180  0.6062 -1.9144
  118OSM    C5S12405   4.514   4.208  10.471 -0.5285  0.0303 -0.1431
  118OSM    H5S12406   4.436   4.183  10.544  0.6908  0.7715  1.4537
  118OSM    C6S12407   4.486   4.244  10.328 -0.7194  0.0039  0.4442
  118OSM    H6S12408   4.398   4.312  10.326 -1.8767 -1.4211  0.3182
  118OSM    H6T12409   4.461   4.152  10.270  1.7792  0.1673 -1.0521
  118OSM    C7S12410   4.593   4.308  10.238 -0.3110 -0.0961 -0.5479
  118OSM    H7S12411   4.688   4.250  10.233  0.3133  0.9431 -1.0988
  118OSM    H7T12412   4.624   4.404  10.284 -0.5824 -0.8018  1.1632
  118OSM    C8S12413   4.541   4.327  10.096  0.4400  0.2179  0.3144
  118OSM    H8S12414   4.438   4.367  10.111 -0.6931 -1.4491 -2.2353
  118OSM    H8T12415   4.524   4.229  10.045 -1.3181  1.8195 -2.4321
  118OSM    C9S12416   4.634   4.404  10.007  0.3502  0.0965  0.2136
  118OSM    H9S12417   4.728   4.346   9.995  0.8198  0.9833 -0.4900
  118OSM    H9T12418   4.670   4.492  10.064  0.7281  0.7462 -0.9941
  118OSM   C10S12419   4.574   4.426   9.864  0.4973 -0.5098 -0.2816
  118OSM   H10S12420   4.480   4.484   9.880  0.6781 -0.6311  1.3919
  118OSM   H10T12421   4.547   4.338   9.803  1.2005 -1.2373  0.4355
  118OSM   C11S12422   4.684   4.501   9.792  0.0999 -0.4301 -0.4003
  118OSM   H11S12423   4.777   4.441   9.792 -0.1140 -0.7831  0.4623
  118OSM   H11T12424   4.706   4.592   9.851 -0.5049  1.0518 -2.3500
  118OSM   C12S12425   4.647   4.536   9.651  0.1896  0.6205  0.0735
  118OSM   H12S12426   4.618   4.440   9.603  0.2703  0.7306 -0.1990
  118OSM   H12T12427   4.742   4.564   9.600 -0.0467  0.6660 -0.3422
  118OSM   C13S12428   4.548   4.653   9.627 -0.1625  0.1656  0.2011
  118OSM   H13S12429   4.566   4.745   9.686  2.6717 -2.0205  3.0908
  118OSM   H13T12430   4.446   4.612   9.645 -1.1823  3.3870  2.8113
  118OSM   C14S12431   4.545   4.704   9.481  0.3217  0.0587  0.2495
  118OSM   H14S12432   4.639   4.761   9.464  1.2505 -1.7867 -1.1429
  118OSM   H14T12433   4.462   4.778   9.479 -1.2678 -1.6168  1.8001
  118OSM   C15S12434   4.518   4.598   9.371  0.7791 -0.7901 -0.5175
  118OSM   H15S12435   4.416   4.555   9.374  0.6569 -0.4456  1.7004
  118OSM   H15T12436   4.599   4.523   9.371  0.6097 -0.9726  0.3665
  118OSM   C16S12437   4.521   4.680   9.242 -0.2474 -0.4734  0.2965
  118OSM   H16S12438   4.622   4.724   9.237 -0.4877  0.0797  0.2950
  118OSM   H16T12439   4.443   4.756   9.222  1.5050  0.8081 -2.1160
  118OSM   C17S12440   4.506   4.595   9.106  0.4228 -0.1272 -0.5675
  118OSM   H17S12441   4.412   4.536   9.117  0.4889 -0.6710 -2.5798
  118OSM   H17T12442   4.592   4.527   9.090 -0.9822 -1.7274 -1.5379
  118OSM   C18S12443   4.486   4.696   8.995 -0.6689  0.4469  0.3404
  118OSM   H18S12444   4.570   4.766   9.015 -0.0466 -0.5087  1.2525
  118OSM   H18T12445   4.391   4.752   8.991  0.0110  1.6499  0.5026
  118OSM   H18U12446   4.511   4.661   8.893 -0.6144 -1.5258  0.9805
  118OSM    C1F12447   4.896   3.919  10.528 -0.7756 -0.5601  0.2969
  118OSM     OF12448   4.843   3.818  10.556 -0.1700  0.7632 -0.5108
  118OSM    C2F12449   5.006   3.930  10.431  0.6566 -0.3832  0.6189
  118OSM    H2F12450   5.035   4.036  10.419  1.3927 -0.7950 -1.6726
  118OSM    H2G12451   4.971   3.898  10.330 -0.1811  0.9770  0.4491
  118OSM    C3F12452   5.137   3.846  10.459 -0.6421  0.2927 -0.1709
  118OSM    H3F12453   5.107   3.739  10.451 -1.4937  0.6022 -1.4806
  118OSM    H3G12454   5.163   3.867  10.565 -1.4109 -0.9267  0.2839
  118OSM    C4F12455   5.258   3.869  10.374  0.3707 -0.7386  0.2769
  118OSM    H4F12456   5.348   3.812  10.406 -1.2055 -2.9171  1.0113
  118OSM    H4G12457   5.291   3.975  10.366  1.8131 -1.1229  0.8691
  118OSM    C5F12458   5.226   3.829  10.224  0.3400  0.5271 -0.1593
  118OSM    H5F12459   5.128   3.862  10.185  0.0071 -1.3099 -0.9989
  118OSM    H5G12460   5.221   3.719  10.243  1.3793  0.7419  1.6746
  118OSM    C6F12461   5.347   3.848  10.132 -0.2264  0.3763 -0.5793
  118OSM    H6F12462   5.431   3.784  10.167 -0.2432  0.2712 -0.7347
  118OSM    H6G12463   5.371   3.957  10.133 -1.6584  0.7196 -0.9478
  118OSM    C7F12464   5.308   3.825   9.985  0.4935 -0.2959 -0.1949
  118OSM    H7F12465   5.231   3.902   9.962  0.2903  0.0244  1.4384
  118OSM    H7G12466   5.271   3.721   9.975 -0.3490 -0.0987  0.6943
  118OSM    C8F12467   5.430   3.844   9.898 -0.1395  0.6080  0.0180
  118OSM    H8F12468   5.518   3.819   9.960  0.4010  3.2519  0.4638
  118OSM    H8G12469   5.457   3.950   9.880  2.2336 -0.3466 -2.7079
  118OSM    C9F12470   5.414   3.762   9.770 -0.0503  0.8559  0.0479
  118OSM    H9F12471   5.417   3.654   9.789 -0.2475  1.0074  1.0200
  118OSM   C10F12472   5.427   3.804   9.640  0.1937 -0.6602 -0.0030
  118OSM   H10F12473   5.410   3.728   9.563 -0.5386 -0.0309 -0.4753
  118OSM   C11F12474   5.444   3.941   9.590  0.0323  0.1413  0.5815
  118OSM   H11F12475   5.516   3.950   9.506 -0.2937  0.2119  0.3115
  118OSM   H11G12476   5.472   4.004   9.677 -0.3838  0.6029  0.3842
  118OSM   C12F12477   5.313   3.998   9.535  0.0403 -0.2494 -0.1591
  118OSM   H12F12478   5.323   4.106   9.513 -1.2115 -0.3826 -1.4877
  118OSM   H12G12479   5.237   3.988   9.615  0.6164  0.3357  0.4807
  118OSM   C13F12480   5.256   3.944   9.402  0.0033  0.0471  0.7128
  118OSM   H13F12481   5.243   3.834   9.408  3.4487 -0.4625  1.0856
  118OSM   H13G12482   5.343   3.962   9.335  0.5652 -0.3560  1.3163
  118OSM   C14F12483   5.120   4.020   9.357  0.6049  0.5770  0.2936
  118OSM   H14F12484   5.156   4.122   9.333  1.1176  0.2810 -0.2456
  118OSM   H14G12485   5.053   4.029   9.444 -2.9491 -1.4548 -1.9597
  118OSM   C15F12486   5.032   3.941   9.254 -0.7787 -1.1764  0.7188
  118OSM   H15F12487   4.994   3.848   9.302  0.9245 -1.4611  1.5701
  118OSM   H15G12488   5.102   3.916   9.172  2.2064 -1.6796  3.2051
  118OSM   C16F12489   4.912   4.009   9.194 -0.2727 -0.0818 -0.1004
  118OSM   H16F12490   4.942   4.106   9.150  1.7864  1.4090  4.0659
  118OSM   H16G12491   4.829   4.021   9.267 -1.7529 -1.6639 -1.4388
  118OSM   C17F12492   4.857   3.915   9.076  0.7098  0.5689 -0.3692
  118OSM   H17F12493   4.938   3.918   9.000  1.0797  0.9211  0.0251
  118OSM   H17G12494   4.769   3.962   9.029 -2.3593 -2.5206  1.8040
  118OSM   C18F12495   4.815   3.773   9.136  0.4480  0.2645  0.8715
  118OSM   H18F12496   4.746   3.777   9.222  1.1253  1.7279  1.3901
  118OSM   H18G12497   4.902   3.720   9.181 -0.8534 -3.5838 -0.7413
  118OSM   H18H12498   4.777   3.711   9.052  0.9363  1.1895 -0.0609
  119OSM      N12499   2.769   3.121  10.889 -0.7590 -0.0129  0.9390
  119OSM    C1512500   2.814   3.225  10.785 -0.2349 -0.8955  1.0143
  119OSM   H15A12501   2.734   3.247  10.716  0.7451  1.9218  0.6087
  119OSM   H15B12502   2.899   3.197  10.726 -0.7114  0.6381 -0.5149
  119OSM   H15C12503   2.844   3.320  10.828  0.9200 -1.1227  0.7339
  119OSM    C1412504   2.866   3.112  10.999 -0.2055 -0.2933 -0.3899
  119OSM   H14A12505   2.828   3.056  11.083 -1.4176  0.1825 -0.5948
  119OSM   H14B12506   2.885   3.211  11.039 -0.5505 -0.0162 -0.8910
  119OSM   H14C12507   2.958   3.070  10.962  0.5314  1.4716 -0.6682
  119OSM    C1312508   2.637   3.154  10.947  0.3198 -0.2940 -0.3819
  119OSM   H13A12509   2.563   3.171  10.871 -0.0478 -1.5849 -0.3442
  119OSM   H13B12510   2.642   3.240  11.012 -0.6096  0.4813 -1.3049
  119OSM   H13C12511   2.612   3.071  11.012 -1.3618  1.4909  1.4201
  119OSM    C1212512   2.759   2.985  10.817  0.1778  0.3891  0.2265
  119OSM   H12A12513   2.853   2.967  10.767 -0.5678 -0.3066 -0.9711
  119OSM   H12B12514   2.691   2.991  10.733  1.1246  2.8578 -0.4707
  119OSM    C1112515   2.727   2.858  10.905 -0.3172 -0.0775  0.4170
  119OSM   H11A12516   2.792   2.872  10.994 -2.6759  1.2216  2.0102
  119OSM   H11B12517   2.766   2.766  10.855  4.1527  1.4164  0.7521
  119OSM      P12518   2.485   2.757  10.894 -0.3018  0.2796  0.0268
  119OSM    O1312519   2.533   2.627  10.939 -0.0523 -0.1399 -0.0197
  119OSM    O1412520   2.343   2.797  10.937  0.6657 -0.3721  0.0410
  119OSM    O1112521   2.493   2.769  10.736 -0.1191  0.2614  0.0476
  119OSM    O1212522   2.592   2.864  10.945 -0.1880  0.1540 -0.1365
  119OSM    C1S12523   2.507   2.646  10.663 -0.2378  0.3666 -0.2869
  119OSM    H1S12524   2.421   2.583  10.694 -0.0010  0.2755  0.1926
  119OSM    H1T12525   2.608   2.600  10.673 -0.2986  0.5665  1.6913
  119OSM     NF12526   2.467   2.569  10.436  0.0484 -0.2526  0.6944
  119OSM    HNF12527   2.544   2.534  10.384 -1.1415  1.1842 -2.2784
  119OSM    C2S12528   2.490   2.686  10.510 -0.5541  0.7181  0.1278
  119OSM    H2S12529   2.399   2.748  10.500 -0.9550  0.3717  1.4782
  119OSM    C3S12530   2.614   2.760  10.460 -0.1617 -0.8471 -0.0013
  119OSM    H3S12531   2.702   2.693  10.470  1.3355  1.1324  0.8511
  119OSM     O312532   2.641   2.873  10.546  0.3121 -0.5187  0.2968
  119OSM    HO312533   2.607   2.851  10.634 -1.1194  1.0446  0.1939
  119OSM    C4S12534   2.609   2.819  10.314  0.3705 -0.4325  0.0040
  119OSM    H4S12535   2.656   2.765  10.231 -2.8452 -0.6715 -1.8179
  119OSM    C5S12536   2.544   2.934  10.280 -0.4488  1.0088  0.2416
  119OSM    H5S12537   2.510   3.001  10.361  1.7280  2.9679 -0.3629
  119OSM    C6S12538   2.528   2.998  10.144 -0.0692  0.3688  0.3749
  119OSM    H6S12539   2.586   3.092  10.131 -0.6208  0.6387 -0.2395
  119OSM    H6T12540   2.422   3.033  10.146  0.6758  2.9962 -1.0658
  119OSM    C7S12541   2.553   2.902  10.031  0.0083  0.1856  0.5524
  119OSM    H7S12542   2.481   2.817  10.037  0.6399 -0.4647 -0.8529
  119OSM    H7T12543   2.661   2.877  10.030  0.3599  1.5811  0.6436
  119OSM    C8S12544   2.517   2.982   9.898 -0.3366 -0.1787  0.4232
  119OSM    H8S12545   2.595   3.062   9.895  1.4133 -1.7996 -3.0269
  119OSM    H8T12546   2.421   3.036   9.909  0.5810  1.4456  0.8323
  119OSM    C9S12547   2.518   2.890   9.782 -0.1609  0.5541  0.0585
  119OSM    H9S12548   2.429   2.824   9.783  0.8527 -0.8649  0.6306
  119OSM    H9T12549   2.609   2.827   9.791 -1.0407 -0.8157 -0.3164
  119OSM   C10S12550   2.501   2.970   9.649  0.3326  0.6292  0.6991
  119OSM   H10S12551   2.553   3.065   9.674  1.3852 -0.0836  1.2946
  119OSM   H10T12552   2.395   2.990   9.622  0.6451 -2.0607 -3.3464
  119OSM   C11S12553   2.570   2.899   9.531  0.8199  0.0863  0.6572
  119OSM   H11S12554   2.531   2.796   9.533  1.6267 -0.2494  3.3592
  119OSM   H11T12555   2.680   2.884   9.543  1.1289 -0.4124 -2.1043
  119OSM   C12S12556   2.552   2.979   9.400 -0.8222  0.2364 -0.2557
  119OSM   H12S12557   2.524   3.077   9.445 -0.5172  0.1894  0.0407
  119OSM   H12T12558   2.456   2.958   9.349 -1.8798 -0.4850  1.8942
  119OSM   C13S12559   2.674   2.972   9.305  0.5638  0.0235  0.6204
  119OSM   H13S12560   2.672   2.869   9.264 -1.3429  1.0606 -2.2609
  119OSM   H13T12561   2.769   2.995   9.357  1.2100  2.2921 -1.3493
  119OSM   C14S12562   2.656   3.057   9.172  0.1732  0.0316 -0.0426
  119OSM   H14S12563   2.634   3.162   9.200  3.8490  0.5819  1.3312
  119OSM   H14T12564   2.573   3.014   9.112  0.6368  0.6384 -1.1467
  119OSM   C15S12565   2.782   3.050   9.081 -0.3651 -0.2314  0.0254
  119OSM   H15S12566   2.802   2.941   9.077 -1.5777 -0.4908  0.6675
  119OSM   H15T12567   2.870   3.090   9.135  0.4924  1.3947 -2.4203
  119OSM   C16S12568   2.751   3.117   8.946 -0.3036 -0.5634  0.1406
  119OSM   H16S12569   2.652   3.077   8.914 -1.7878  2.0049  1.2717
  119OSM   H16T12570   2.825   3.096   8.866 -0.4260 -0.5358  0.0205
  119OSM   C17S12571   2.743   3.272   8.966 -0.2276  0.2138 -0.1265
  119OSM   H17S12572   2.809   3.298   9.051 -0.3597 -1.6591  0.6007
  119OSM   H17T12573   2.641   3.309   8.989  0.3023  2.3897 -1.0703
  119OSM   C18S12574   2.796   3.336   8.839  0.1027 -0.2779 -0.0564
  119OSM   H18S12575   2.754   3.297   8.743 -1.0157  0.4406  0.1231
  119OSM   H18T12576   2.906   3.336   8.828  0.1418  0.3471  0.3088
  119OSM   H18U12577   2.760   3.441   8.833  0.4632 -0.2486 -3.6483
  119OSM    C1F12578   2.358   2.500  10.447  0.8871 -0.3835 -0.2291
  119OSM     OF12579   2.263   2.555  10.502 -0.5674  0.5962 -0.0715
  119OSM    C2F12580   2.351   2.365  10.376  0.2517 -0.3346  0.6096
  119OSM    H2F12581   2.247   2.332  10.398 -0.3023 -0.4065 -1.8802
  119OSM    H2G12582   2.432   2.307  10.425  0.8886  0.9172  1.1047
  119OSM    C3F12583   2.382   2.380  10.225  0.4559 -0.4939 -0.0967
  119OSM    H3F12584   2.383   2.280  10.177 -0.9669 -0.6249  0.0966
  119OSM    H3G12585   2.472   2.443  10.217 -0.6854  1.7609  2.8645
  119OSM    C4F12586   2.268   2.446  10.143  0.6716  0.2052  0.3752
  119OSM    H4F12587   2.241   2.544  10.186 -0.7628 -0.6348  1.5059
  119OSM    H4G12588   2.178   2.381  10.155  1.6425 -1.4434 -0.8444
  119OSM    C5F12589   2.288   2.467   9.990 -0.6329 -0.0498  0.0599
  119OSM    H5F12590   2.307   2.362   9.960  0.7344  0.4113 -0.7959
  119OSM    H5G12591   2.385   2.520   9.979 -1.4031  1.3658 -0.1389
  119OSM    C6F12592   2.172   2.541   9.923 -0.1069 -0.0866 -0.4387
  119OSM    H6F12593   2.082   2.510   9.980 -0.4969 -0.3519 -1.1801
  119OSM    H6G12594   2.150   2.502   9.821 -0.4413 -0.1676 -0.3377
  119OSM    C7F12595   2.193   2.689   9.925  0.3895 -0.3855  0.0748
  119OSM    H7F12596   2.270   2.708   9.848  2.9860 -1.5072  2.2599
  119OSM    H7G12597   2.238   2.707  10.025  2.3372  0.8649 -0.9662
  119OSM    C8F12598   2.062   2.759   9.883 -0.2471 -0.5404  0.3329
  119OSM    H8F12599   1.975   2.700   9.919  0.4912 -1.2093  1.0424
  119OSM    H8G12600   2.038   2.763   9.774 -0.1917 -0.1865  0.3335
  119OSM    C9F12601   2.052   2.897   9.942 -0.5425 -0.7224  0.1516
  119OSM    H9F12602   2.076   2.906  10.049 -1.4499 -1.6504  0.4481
  119OSM   C10F12603   2.025   3.011   9.877  0.2313 -0.4095 -0.1088
  119OSM   H10F12604   2.023   3.108   9.928  2.0043  0.9355 -2.3741
  119OSM   C11F12605   1.995   3.020   9.727  0.3043  0.5493 -0.4660
  119OSM   H11F12606   1.888   3.049   9.717 -0.5107 -0.9978  2.7065
  119OSM   H11G12607   2.009   2.920   9.681 -1.0418 -0.6052  1.4893
  119OSM   C12F12608   2.087   3.117   9.650 -0.4109 -0.5579 -0.7145
  119OSM   H12F12609   2.193   3.090   9.670 -0.0957  1.3152  0.4373
  119OSM   H12G12610   2.075   3.215   9.701  0.0482 -1.1595  0.5952
  119OSM   C13F12611   2.058   3.132   9.503 -0.9124 -0.5779 -0.1749
  119OSM   H13F12612   2.136   3.190   9.448  0.9998 -2.4714  0.4374
  119OSM   H13G12613   1.958   3.176   9.480 -0.1691  2.2467  1.4783
  119OSM   C14F12614   2.066   2.997   9.431  0.6594 -0.6789  1.0364
  119OSM   H14F12615   1.973   2.936   9.429  0.7330 -0.7682  0.0374
  119OSM   H14G12616   2.138   2.931   9.484  2.3707  0.4808  0.2295
  119OSM   C15F12617   2.124   3.004   9.291  0.5390 -0.6694  0.1804
  119OSM   H15F12618   2.227   3.041   9.313 -0.4262  0.9330  2.2842
  119OSM   H15G12619   2.074   3.085   9.236 -0.9354 -1.3897  0.4091
  119OSM   C16F12620   2.126   2.877   9.203  0.2669 -0.4705  0.4162
  119OSM   H16F12621   2.031   2.826   9.228  0.9570 -1.6894  0.6651
  119OSM   H16G12622   2.206   2.800   9.216 -1.1914 -2.1933 -0.3411
  119OSM   C17F12623   2.129   2.900   9.052 -0.4869 -0.2881  0.1755
  119OSM   H17F12624   2.055   2.980   9.028  1.9889  2.8155  2.2152
  119OSM   H17G12625   2.114   2.812   8.985  0.6160  1.1456 -2.1021
  119OSM   C18F12626   2.264   2.958   9.009  0.5376  0.4369  0.5585
  119OSM   H18F12627   2.305   3.020   9.091  1.4240  2.1920 -1.1166
  119OSM   H18G12628   2.258   3.022   8.918 -0.8165 -1.4133 -0.7446
  119OSM   H18H12629   2.342   2.879   8.998  2.5940  2.4175  0.2450
  120OSM      N12630   2.888   5.142  10.568  0.2721  0.2663  0.1646
  120OSM    C1512631   2.883   5.016  10.655  0.2096 -0.6933 -0.3444
  120OSM   H15A12632   2.868   4.928  10.595  0.4630 -0.7129 -0.3821
  120OSM   H15B12633   2.807   5.024  10.731 -0.3284  0.2206 -0.9510
  120OSM   H15C12634   2.980   5.005  10.703  0.0530 -0.6870 -0.0263
  120OSM    C1412635   2.921   5.263  10.652  0.3095 -0.2471  0.3958
  120OSM   H14A12636   3.026   5.261  10.679  0.3346  1.5284  0.5563
  120OSM   H14B12637   2.854   5.271  10.736 -2.2857 -2.3033 -1.3034
  120OSM   H14C12638   2.908   5.347  10.586 -1.7281 -0.0023  1.0623
  120OSM    C1312639   2.991   5.119  10.463  0.0948 -0.3059  0.5902
  120OSM   H13A12640   3.000   5.205  10.398  0.9929 -0.6232  0.2725
  120OSM   H13B12641   2.968   5.036  10.397  0.0174 -0.2068  0.4928
  120OSM   H13C12642   3.089   5.087  10.495  0.0093 -2.1056 -0.7839
  120OSM    C1212643   2.755   5.162  10.504  0.5676  0.8338  0.2283
  120OSM   H12A12644   2.684   5.162  10.585 -0.5212 -3.9207 -0.4723
  120OSM   H12B12645   2.730   5.073  10.448  1.1219  1.6629 -1.4242
  120OSM    C1112646   2.732   5.271  10.401 -0.0424 -1.2012  0.3881
  120OSM   H11A12647   2.634   5.260  10.350  1.0313  0.9241 -2.4383
  120OSM   H11B12648   2.802   5.253  10.316  0.9547  0.8463  0.7095
  120OSM      P12649   2.642   5.471  10.545  0.6791  0.2798  0.0316
  120OSM    O1312650   2.610   5.384  10.656  0.1535 -0.0831  0.1172
  120OSM    O1412651   2.690   5.606  10.584 -0.5448  0.1298  0.7437
  120OSM    O1112652   2.507   5.479  10.456  0.3058  0.3141 -0.2585
  120OSM    O1212653   2.750   5.403  10.453 -0.3548 -0.5023 -0.3010
  120OSM    C1S12654   2.453   5.613  10.424 -0.3374 -0.1919 -0.9947
  120OSM    H1S12655   2.503   5.704  10.465 -1.1745  1.1831 -2.8855
  120OSM    H1T12656   2.345   5.622  10.449 -0.3754  1.8072 -1.6836
  120OSM     NF12657   2.421   5.771  10.235 -0.4004  0.8861  0.1753
  120OSM    HNF12658   2.330   5.771  10.194  0.1530  1.6411 -1.1026
  120OSM    C2S12659   2.468   5.635  10.269  0.0666  0.3867 -0.3494
  120OSM    H2S12660   2.574   5.629  10.237  0.2517  2.5463 -0.3082
  120OSM    C3S12661   2.392   5.522  10.185  0.1010  0.4212  1.3571
  120OSM    H3S12662   2.283   5.542  10.189 -0.7661 -0.8081 -5.0312
  120OSM     O312663   2.417   5.386  10.227 -0.6616  0.0787  0.1510
  120OSM    HO312664   2.471   5.402  10.305 -2.5031  0.8768  1.3199
  120OSM    C4S12665   2.422   5.541  10.035 -0.4541 -0.3348  0.1021
  120OSM    H4S12666   2.342   5.600   9.986  0.1234  0.3736 -0.0032
  120OSM    C5S12667   2.518   5.489   9.962  0.1355 -0.3904  0.4780
  120OSM    H5S12668   2.592   5.420  10.005  0.5992 -0.1210  0.1179
  120OSM    C6S12669   2.557   5.509   9.821  0.0191 -0.3440 -0.3271
  120OSM    H6S12670   2.569   5.407   9.777 -2.8162 -0.7540 -0.3455
  120OSM    H6T12671   2.657   5.555   9.809 -0.1154 -0.7051 -3.8107
  120OSM    C7S12672   2.470   5.595   9.730  0.1827 -0.4595 -0.1295
  120OSM    H7S12673   2.454   5.695   9.776  0.0867 -0.6881  0.3403
  120OSM    H7T12674   2.367   5.555   9.722 -0.1963  0.5473 -0.3402
  120OSM    C8S12675   2.518   5.631   9.598 -0.6574 -0.3135 -0.4350
  120OSM    H8S12676   2.606   5.699   9.600 -0.1661 -0.9425 -0.4049
  120OSM    H8T12677   2.435   5.690   9.554 -0.8983 -0.4457 -0.1597
  120OSM    C9S12678   2.556   5.521   9.489 -0.1849 -0.7721  0.7448
  120OSM    H9S12679   2.472   5.451   9.470 -1.2708 -0.3179  3.4646
  120OSM    H9T12680   2.636   5.462   9.539  2.9166  1.1036 -1.5786
  120OSM   C10S12681   2.595   5.578   9.352 -0.6429 -0.3722 -0.1115
  120OSM   H10S12682   2.681   5.648   9.362 -1.3748  0.2393  3.0565
  120OSM   H10T12683   2.517   5.648   9.315  0.2080  0.8591  0.3735
  120OSM   C11S12684   2.622   5.479   9.233 -0.3042 -0.2015 -0.0717
  120OSM   H11S12685   2.523   5.430   9.222  0.2692 -1.2759 -0.5740
  120OSM   H11T12686   2.700   5.404   9.258 -1.8869 -2.0967 -0.5918
  120OSM   C12S12687   2.652   5.535   9.090 -0.1578 -0.6856  0.1678
  120OSM   H12S12688   2.757   5.570   9.087 -0.7126  1.1722  0.9296
  120OSM   H12T12689   2.584   5.619   9.064  1.2280  0.3624 -0.1600
  120OSM   C13S12690   2.636   5.443   8.967 -0.1109  0.7702  0.1396
  120OSM   H13S12691   2.529   5.417   8.986 -0.2029  0.7428 -0.3944
  120OSM   H13T12692   2.706   5.357   8.975 -2.0222 -0.6893  3.0370
  120OSM   C14S12693   2.632   5.510   8.830  0.4691 -0.4761 -0.1567
  120OSM   H14S12694   2.734   5.553   8.817 -0.1147  0.7376 -0.8442
  120OSM   H14T12695   2.566   5.598   8.833 -1.0827 -1.6180  0.4224
  120OSM   C15S12696   2.583   5.425   8.711  0.0304  0.2439  0.5891
  120OSM   H15S12697   2.474   5.401   8.710 -0.0797  0.6732  1.3217
  120OSM   H15T12698   2.639   5.330   8.726 -0.7850 -0.4722 -0.6977
  120OSM   C16S12699   2.635   5.490   8.584 -0.1528  0.5461 -0.3455
  120OSM   H16S12700   2.731   5.542   8.607 -0.9026  2.2678 -1.0054
  120OSM   H16T12701   2.557   5.564   8.558 -2.6917 -1.1691  1.8496
  120OSM   C17S12702   2.664   5.390   8.468  0.2831 -0.5436 -0.9543
  120OSM   H17S12703   2.573   5.332   8.443 -2.2360  2.3198  0.8602
  120OSM   H17T12704   2.750   5.329   8.502  0.2793 -0.1576 -0.2313
  120OSM   C18S12705   2.696   5.472   8.342 -0.2582  0.5586  0.2223
  120OSM   H18S12706   2.768   5.556   8.352  0.3543  0.2758 -1.4784
  120OSM   H18T12707   2.607   5.512   8.290  0.2313  0.3288 -0.8312
  120OSM   H18U12708   2.740   5.402   8.267  0.1518  0.3631  0.6413
  120OSM    C1F12709   2.494   5.875  10.265 -0.3672 -0.0597  0.1253
  120OSM     OF12710   2.603   5.863  10.311 -0.8840 -0.1574  0.2799
  120OSM    C2F12711   2.443   6.009  10.220  0.0100  0.1525  0.1344
  120OSM    H2F12712   2.439   6.090  10.296  2.8820  0.3283  0.2310
  120OSM    H2G12713   2.340   5.999  10.181 -0.6626  1.5424  1.4569
  120OSM    C3F12714   2.524   6.069  10.105  0.4739  0.5061  0.1967
  120OSM    H3F12715   2.627   6.090  10.141  1.1572  3.3387 -2.9388
  120OSM    H3G12716   2.471   6.165  10.087  1.8389  1.0813 -0.9608
  120OSM    C4F12717   2.506   5.991   9.979  0.6606 -0.5359 -0.1546
  120OSM    H4F12718   2.399   5.992   9.949  0.5669  0.2703  0.1874
  120OSM    H4G12719   2.537   5.886   9.998  0.0738 -0.8191 -0.7272
  120OSM    C5F12720   2.602   6.033   9.863  0.2172 -0.1201  0.1742
  120OSM    H5F12721   2.697   6.058   9.915 -1.5645  0.6193  3.4049
  120OSM    H5G12722   2.576   6.134   9.825  2.2577  0.4023  0.0904
  120OSM    C6F12723   2.625   5.920   9.760 -0.6645 -1.0175 -0.4652
  120OSM    H6F12724   2.523   5.887   9.733 -0.3563 -1.0237 -1.6781
  120OSM    H6G12725   2.673   5.835   9.812  0.7876 -0.2039 -0.4158
  120OSM    C7F12726   2.713   5.977   9.647 -0.5944 -0.1312 -0.0847
  120OSM    H7F12727   2.743   5.885   9.593 -1.4416 -0.3227 -0.2406
  120OSM    H7G12728   2.811   6.019   9.678  0.8547 -2.7295 -0.8695
  120OSM    C8F12729   2.651   6.061   9.543  0.1935 -0.3090  0.0460
  120OSM    H8F12730   2.732   6.111   9.487  0.6470 -0.0801  0.8905
  120OSM    H8G12731   2.603   6.149   9.591 -0.4631 -0.4210 -0.3872
  120OSM    C9F12732   2.557   5.989   9.451  0.1731 -0.3711 -0.1032
  120OSM    H9F12733   2.453   5.982   9.487  0.2080 -2.3054 -0.2548
  120OSM   C10F12734   2.580   5.941   9.320  0.2921  0.1247  0.3596
  120OSM   H10F12735   2.518   5.869   9.264  0.4963 -0.0945  0.4159
  120OSM   C11F12736   2.713   5.954   9.243  0.8135 -0.3132 -0.4094
  120OSM   H11F12737   2.746   5.859   9.198 -0.7742 -0.8398 -0.5343
  120OSM   H11G12738   2.797   5.972   9.314 -0.4594 -0.0455  1.1104
  120OSM   C12F12739   2.717   6.058   9.134 -0.3978 -0.3521  0.1589
  120OSM   H12F12740   2.749   6.151   9.186  0.1989  0.6649 -1.9133
  120OSM   H12G12741   2.621   6.096   9.093  1.5394  1.0391 -3.6123
  120OSM   C13F12742   2.807   6.025   9.017 -0.3867  0.7002 -0.3478
  120OSM   H13F12743   2.860   5.934   9.052 -2.5627 -0.0493  1.2312
  120OSM   H13G12744   2.877   6.109   8.998  1.1111 -0.9612 -2.8002
  120OSM   C14F12745   2.726   5.986   8.892  0.0076 -0.1382  0.3914
  120OSM   H14F12746   2.673   6.080   8.866 -0.7162 -0.4630  0.6799
  120OSM   H14G12747   2.647   5.915   8.924 -0.3953 -0.4060 -1.1049
  120OSM   C15F12748   2.808   5.918   8.784  0.3336  0.6347  0.4604
  120OSM   H15F12749   2.825   5.810   8.805  1.0428  0.5303 -0.5742
  120OSM   H15G12750   2.908   5.967   8.786  0.5145  0.2521  2.2029
  120OSM   C16F12751   2.758   5.928   8.636  0.5193 -0.7141  0.3482
  120OSM   H16F12752   2.745   6.036   8.616 -0.6639 -0.2242  3.2093
  120OSM   H16G12753   2.662   5.872   8.637  1.8858 -3.2465 -0.6417
  120OSM   C17F12754   2.864   5.865   8.541 -0.2038  0.4158  0.4996
  120OSM   H17F12755   2.797   5.811   8.471 -2.2110  1.9622  1.1319
  120OSM   H17G12756   2.914   5.779   8.591 -2.4306 -1.4988 -0.4104
  120OSM   C18F12757   2.967   5.959   8.464 -0.2999 -0.5136  0.1960
  120OSM   H18F12758   2.977   6.060   8.510 -2.6407 -0.0410 -0.2514
  120OSM   H18G12759   2.932   5.979   8.361  0.9148  1.9658  0.1782
  120OSM   H18H12760   3.063   5.905   8.446  0.1523  0.1851  0.4515
  121OSM      N12761   3.754   2.419  11.249 -0.7399  0.4422  0.3382
  121OSM    C1512762   3.613   2.387  11.294 -0.0673 -0.3814 -0.2520
  121OSM   H15A12763   3.609   2.372  11.401 -1.4693  2.0318  0.1142
  121OSM   H15B12764   3.584   2.292  11.252  1.3994 -0.9487 -0.0334
  121OSM   H15C12765   3.543   2.465  11.269 -2.8425 -2.3922  0.7053
  121OSM    C1412766   3.784   2.545  11.318  0.2419  0.3459 -0.9702
  121OSM   H14A12767   3.751   2.537  11.421  0.0139  3.3407 -0.7174
  121OSM   H14B12768   3.723   2.627  11.285 -0.9976  0.4611  1.3421
  121OSM   H14C12769   3.886   2.577  11.316  1.2915 -2.5155  0.2477
  121OSM    C1312770   3.850   2.316  11.303  0.3776 -0.4620  0.4388
  121OSM   H13A12771   3.851   2.327  11.411 -0.6573 -3.0221  0.7837
  121OSM   H13B12772   3.951   2.329  11.268  0.1099  0.7407  0.0522
  121OSM   H13C12773   3.814   2.216  11.285  0.8916 -1.0082  2.2778
  121OSM    C1212774   3.759   2.452  11.096  0.1086 -0.2620  0.3443
  121OSM   H12A12775   3.691   2.534  11.081 -0.2909 -0.6725 -0.1182
  121OSM   H12B12776   3.728   2.362  11.045  0.5544 -0.1043 -0.2274
  121OSM    C1112777   3.892   2.493  11.030  0.0058 -0.2740 -0.4765
  121OSM   H11A12778   3.933   2.585  11.079 -0.0934  0.3617 -1.5551
  121OSM   H11B12779   3.896   2.510  10.920 -0.4356 -1.5587 -0.6992
  121OSM      P12780   4.009   2.268  10.969 -0.5420  0.0461  0.0590
  121OSM    O1312781   4.133   2.192  11.010  0.4164 -0.6107 -0.4845
  121OSM    O1412782   3.882   2.197  10.963 -0.1238 -0.4525  0.4732
  121OSM    O1112783   4.038   2.345  10.835 -0.3257  0.2269 -0.0657
  121OSM    O1212784   3.987   2.397  11.060 -0.4454 -0.0675  0.0581
  121OSM    C1S12785   4.105   2.278  10.730 -0.5397  0.9362  0.0665
  121OSM    H1S12786   4.057   2.181  10.705  0.7606  0.0089  1.0344
  121OSM    H1T12787   4.207   2.247  10.761 -0.6349  1.0154  0.4604
  121OSM     NF12788   4.167   2.287  10.479 -0.6229  0.6719 -0.0140
  121OSM    HNF12789   4.262   2.296  10.447  0.0828 -2.9350  0.6279
  121OSM    C2S12790   4.122   2.362  10.596  0.1491 -1.1059  0.9809
  121OSM    H2S12791   4.022   2.405  10.573 -0.1703 -1.9724  0.7322
  121OSM    C3S12792   4.218   2.484  10.629  0.8357 -0.1681  0.3399
  121OSM    H3S12793   4.309   2.459  10.688  0.9337  2.9049  1.6475
  121OSM     O312794   4.159   2.579  10.715 -0.3038 -0.3658 -0.1389
  121OSM    HO312795   4.081   2.532  10.744 -0.6618 -1.8062 -3.0765
  121OSM    C4S12796   4.265   2.551  10.502  0.2703  0.8470  0.5642
  121OSM    H4S12797   4.367   2.529  10.466 -0.4854  0.2324 -1.3347
  121OSM    C5S12798   4.203   2.642  10.424 -0.2243  0.1951  0.2608
  121OSM    H5S12799   4.097   2.667  10.440 -0.1275  1.0622 -0.3977
  121OSM    C6S12800   4.267   2.708  10.301 -0.0697 -0.7631  0.3377
  121OSM    H6S12801   4.375   2.686  10.289 -0.0318  0.0736 -1.1551
  121OSM    H6T12802   4.260   2.819  10.293 -1.7465 -0.9451 -1.5809
  121OSM    C7S12803   4.179   2.663  10.182 -0.7729  0.0622 -0.1662
  121OSM    H7S12804   4.077   2.706  10.178 -2.0165 -2.7618 -1.1303
  121OSM    H7T12805   4.164   2.553  10.179 -2.8510  0.2903  0.3497
  121OSM    C8S12806   4.251   2.691  10.050 -0.0747 -0.3044  0.9795
  121OSM    H8S12807   4.342   2.628  10.046 -0.0236 -0.3403  2.2961
  121OSM    H8T12808   4.277   2.798  10.037 -0.2694 -0.1921  1.4930
  121OSM    C9S12809   4.176   2.642   9.924 -0.1291 -0.0056 -0.4282
  121OSM    H9S12810   4.088   2.705   9.903  0.3096  0.2940 -1.4556
  121OSM    H9T12811   4.151   2.534   9.931 -1.5850  0.2811 -0.9833
  121OSM   C10S12812   4.252   2.646   9.790  0.4396  0.2348  0.3633
  121OSM   H10S12813   4.350   2.593   9.792  0.6311  0.6003  0.9543
  121OSM   H10T12814   4.291   2.749   9.778 -0.9330  0.5736 -1.8100
  121OSM   C11S12815   4.171   2.596   9.668  1.0123 -0.2452 -0.7639
  121OSM   H11S12816   4.065   2.627   9.681  0.8903 -0.4934 -1.1342
  121OSM   H11T12817   4.164   2.486   9.687  1.2788 -0.2785 -0.8534
  121OSM   C12S12818   4.214   2.618   9.527 -0.1391 -0.4723 -0.1007
  121OSM   H12S12819   4.173   2.535   9.465  1.6323 -1.4386 -0.0381
  121OSM   H12T12820   4.323   2.627   9.511 -0.0009 -1.1441  0.4206
  121OSM   C13S12821   4.137   2.738   9.473 -0.1858 -0.4071 -0.7732
  121OSM   H13S12822   4.140   2.813   9.554 -2.6482 -3.4106  2.3901
  121OSM   H13T12823   4.030   2.711   9.461 -0.8333  1.4601  0.4060
  121OSM   C14S12824   4.193   2.790   9.339 -0.1708 -0.7703 -0.2793
  121OSM   H14S12825   4.298   2.813   9.366  0.3383 -1.9641 -1.1484
  121OSM   H14T12826   4.147   2.887   9.309  1.5564 -0.7777 -3.2240
  121OSM   C15S12827   4.180   2.700   9.220  0.3144 -0.3183 -0.0830
  121OSM   H15S12828   4.085   2.643   9.232 -0.5484  0.9542 -0.5489
  121OSM   H15T12829   4.251   2.616   9.234 -0.1861 -0.8466 -0.6639
  121OSM   C16S12830   4.190   2.754   9.079  0.1573 -0.0425  0.0527
  121OSM   H16S12831   4.289   2.804   9.070  1.2577 -2.0926  0.0414
  121OSM   H16T12832   4.103   2.823   9.072 -0.6588 -1.1052 -0.4944
  121OSM   C17S12833   4.188   2.638   8.976  0.1598 -0.4021 -0.2508
  121OSM   H17S12834   4.098   2.575   8.994 -1.6267  1.8425 -0.7737
  121OSM   H17T12835   4.280   2.579   8.995  0.1168 -0.3146  0.2318
  121OSM   C18S12836   4.167   2.699   8.830  0.7407  0.3518 -0.5737
  121OSM   H18S12837   4.069   2.750   8.822 -0.4046 -1.5283  0.6093
  121OSM   H18T12838   4.166   2.613   8.761  1.3244  0.3503 -0.5858
  121OSM   H18U12839   4.251   2.770   8.818 -0.2550  2.0606  1.7041
  121OSM    C1F12840   4.107   2.183  10.433 -0.4469  0.9326  0.6739
  121OSM     OF12841   4.008   2.147  10.491  0.1037 -0.1507  0.5134
  121OSM    C2F12842   4.168   2.117  10.309  0.3647  1.0313  0.5391
  121OSM    H2F12843   4.213   2.023  10.346 -1.2311  1.0465  2.6702
  121OSM    H2G12844   4.243   2.186  10.263  1.5195 -1.2042 -1.1521
  121OSM    C3F12845   4.046   2.086  10.225 -0.2460 -0.3289 -0.3987
  121OSM    H3F12846   3.966   2.164  10.226 -0.2317 -0.2929  0.9625
  121OSM    H3G12847   3.993   2.010  10.286 -0.9215  3.1030  3.8096
  121OSM    C4F12848   4.081   2.020  10.088 -0.0449 -0.2499  0.7701
  121OSM    H4F12849   3.989   1.983  10.039  1.1221 -1.1619 -0.8212
  121OSM    H4G12850   4.152   1.937  10.110 -0.8443 -0.8753  1.0296
  121OSM    C5F12851   4.134   2.133  10.005 -0.1964 -0.1634  0.4079
  121OSM    H5F12852   4.237   2.155  10.040  0.1857 -0.8271 -0.2819
  121OSM    H5G12853   4.067   2.222  10.009 -0.2461 -0.1585 -0.3616
  121OSM    C6F12854   4.138   2.092   9.853  0.3346 -0.6090 -0.0303
  121OSM    H6F12855   4.030   2.102   9.827 -0.1945  0.1081  2.2157
  121OSM    H6G12856   4.165   1.986   9.837 -0.3040 -0.7096 -0.4996
  121OSM    C7F12857   4.231   2.194   9.778 -0.4078  0.6794 -0.0432
  121OSM    H7F12858   4.335   2.165   9.806 -0.9428 -0.9925  0.2610
  121OSM    H7G12859   4.217   2.296   9.821  0.2529  0.7368  0.0472
  121OSM    C8F12860   4.211   2.182   9.636 -0.3804  0.2504  0.1534
  121OSM    H8F12861   4.101   2.191   9.621 -0.1626  0.9863 -1.1087
  121OSM    H8G12862   4.232   2.078   9.603 -1.6951 -0.0806  0.3070
  121OSM    C9F12863   4.293   2.282   9.555 -0.6036 -0.1455 -0.1779
  121OSM    H9F12864   4.320   2.376   9.606 -1.7207 -0.2866  0.7147
  121OSM   C10F12865   4.345   2.266   9.432 -0.0855 -0.3241  0.1854
  121OSM   H10F12866   4.413   2.341   9.390 -0.8301  0.3341  0.1336
  121OSM   C11F12867   4.312   2.149   9.344 -0.0627 -0.3102 -0.4062
  121OSM   H11F12868   4.205   2.123   9.356  0.2178 -1.5437 -0.4523
  121OSM   H11G12869   4.363   2.054   9.372 -0.4389  0.1593  2.1944
  121OSM   C12F12870   4.327   2.172   9.191  0.2214 -0.5410 -0.1330
  121OSM   H12F12871   4.263   2.256   9.155  2.0677  1.3941  0.8712
  121OSM   H12G12872   4.293   2.084   9.132  2.0681 -1.1034 -0.4270
  121OSM   C13F12873   4.474   2.192   9.150  0.8008 -0.2315 -0.0274
  121OSM   H13F12874   4.539   2.104   9.171  1.9491  0.4308 -0.7126
  121OSM   H13G12875   4.510   2.282   9.204 -0.9167  0.7818 -0.5058
  121OSM   C14F12876   4.509   2.225   9.002  0.3377 -0.2622  1.2425
  121OSM   H14F12877   4.441   2.312   8.994  1.4693  0.8271  2.8516
  121OSM   H14G12878   4.477   2.142   8.936 -0.3942  0.8722  0.1218
  121OSM   C15F12879   4.658   2.264   8.956 -0.8619 -0.1381 -0.1784
  121OSM   H15F12880   4.725   2.175   8.953  0.1733  0.6088  0.0986
  121OSM   H15G12881   4.703   2.334   9.030  2.0639  1.3914 -3.1313
  121OSM   C16F12882   4.660   2.330   8.816 -0.1983 -0.1224 -0.4629
  121OSM   H16F12883   4.621   2.432   8.841  1.1888 -0.1804  2.2769
  121OSM   H16G12884   4.596   2.268   8.751  1.0793 -1.8860 -0.0957
  121OSM   C17F12885   4.798   2.348   8.746 -0.3373  0.4294  0.6405
  121OSM   H17F12886   4.830   2.247   8.714 -0.4299  0.9848 -1.3634
  121OSM   H17G12887   4.856   2.391   8.830  0.1667 -1.8237  1.5150
  121OSM   C18F12888   4.797   2.438   8.629 -0.0467 -0.5042  0.3825
  121OSM   H18F12889   4.893   2.440   8.573 -1.0311  1.2613 -1.3778
  121OSM   H18G12890   4.769   2.542   8.656 -0.2094 -0.1529 -1.0365
  121OSM   H18H12891   4.715   2.402   8.563  0.8745 -0.8886 -0.5715
  122OSM      N12892   5.066   0.514  11.079  0.2784  0.1233  0.7486
  122OSM    C1512893   5.067   0.542  10.940 -0.8536 -0.0490 -0.1367
  122OSM   H15A12894   5.012   0.635  10.935 -0.2774  0.3050  0.0630
  122OSM   H15B12895   5.023   0.467  10.875 -0.9836 -0.8548  0.8637
  122OSM   H15C12896   5.169   0.556  10.907 -1.1808 -1.0346 -1.7097
  122OSM    C1412897   5.129   0.379  11.107  0.2820  1.0739  0.3111
  122OSM   H14A12898   5.110   0.345  11.208  1.1415 -0.7153 -0.0811
  122OSM   H14B12899   5.237   0.376  11.100  0.2985 -2.5458  0.1124
  122OSM   H14C12900   5.082   0.315  11.034  0.8425  2.2764 -1.1483
  122OSM    C1312901   5.137   0.618  11.157 -0.7100 -0.3316 -0.1236
  122OSM   H13A12902   5.101   0.719  11.145  0.6399  0.2396  0.3599
  122OSM   H13B12903   5.242   0.625  11.130 -0.3065 -0.5859  1.2820
  122OSM   H13C12904   5.141   0.596  11.263  1.0535  1.1155  0.1703
  122OSM    C1212905   4.919   0.506  11.126  0.5185 -0.2556 -0.5212
  122OSM   H12A12906   4.875   0.604  11.113  2.3122  0.6099 -0.4016
  122OSM   H12B12907   4.925   0.498  11.234  0.3826 -0.7815 -0.5517
  122OSM    C1112908   4.821   0.395  11.069  0.0119  0.7249  0.4621
  122OSM   H11A12909   4.740   0.382  11.144 -2.5751  0.6777 -2.1810
  122OSM   H11B12910   4.871   0.297  11.059  3.1299  1.9811  2.3360
  122OSM      P12911   4.660   0.536  10.916 -0.0567  0.1222 -0.0035
  122OSM    O1312912   4.534   0.475  10.956 -0.0137  0.4015  0.2792
  122OSM    O1412913   4.684   0.670  10.975 -0.1830 -0.2566  0.8221
  122OSM    O1112914   4.656   0.556  10.757 -0.0922  0.2260 -0.4237
  122OSM    O1212915   4.769   0.433  10.941 -0.3361  0.2163  0.1418
  122OSM    C1S12916   4.769   0.547  10.672 -0.5554 -0.1197 -0.0438
  122OSM    H1S12917   4.849   0.483  10.714  1.4412  2.3364  0.1673
  122OSM    H1T12918   4.817   0.646  10.655  0.4362 -0.8398 -1.6793
  122OSM     NF12919   4.857   0.477  10.451 -0.8479  0.0884 -0.2643
  122OSM    HNF12920   4.878   0.537  10.374  0.3763 -1.3957 -1.1219
  122OSM    C2S12921   4.741   0.486  10.534  0.0479  1.2419 -0.3306
  122OSM    H2S12922   4.689   0.389  10.551  0.6573  0.9381 -0.2050
  122OSM    C3S12923   4.631   0.566  10.461  0.1619 -0.3156 -0.0334
  122OSM    H3S12924   4.678   0.653  10.412  0.5002  0.4693  1.5978
  122OSM     O312925   4.531   0.634  10.546  0.8205  0.6018 -0.1662
  122OSM    HO312926   4.564   0.605  10.631  1.1621  0.7295 -0.2531
  122OSM    C4S12927   4.568   0.486  10.348 -0.9304  0.0497 -0.4286
  122OSM    H4S12928   4.513   0.397  10.385  0.8138 -0.6445  0.6495
  122OSM    C5S12929   4.569   0.509  10.216 -0.2623  0.5032  0.7700
  122OSM    H5S12930   4.620   0.593  10.167  2.1958 -2.0161 -1.4033
  122OSM    C6S12931   4.502   0.412  10.119  0.6361  0.1377 -0.2299
  122OSM    H6S12932   4.458   0.322  10.166 -0.5424 -0.0211 -1.5812
  122OSM    H6T12933   4.584   0.383  10.050  1.1815  1.7955 -0.3225
  122OSM    C7S12934   4.394   0.484  10.028 -0.6430 -0.0996 -0.6434
  122OSM    H7S12935   4.458   0.547   9.962  0.3139  1.3777  1.5601
  122OSM    H7T12936   4.327   0.547  10.090 -1.4269 -0.6038 -0.9668
  122OSM    C8S12937   4.309   0.386   9.943  0.0276 -0.1777  0.0669
  122OSM    H8S12938   4.242   0.320  10.003 -2.4005 -0.1088 -2.4014
  122OSM    H8T12939   4.384   0.326   9.887  0.3155  0.3919 -0.1615
  122OSM    C9S12940   4.210   0.454   9.842 -0.2609 -0.1719  0.4113
  122OSM    H9S12941   4.268   0.497   9.757  1.4592  0.1329  1.6902
  122OSM    H9T12942   4.134   0.522   9.886  0.1174  0.2100  0.4806
  122OSM   C10S12943   4.117   0.341   9.787  0.0536 -0.3685  0.8287
  122OSM   H10S12944   4.051   0.312   9.872  3.3338 -2.2047  2.9835
  122OSM   H10T12945   4.172   0.248   9.761 -0.4265  0.1329 -2.3177
  122OSM   C11S12946   4.032   0.365   9.656 -0.1715  0.2208  0.4380
  122OSM   H11S12947   4.096   0.408   9.575 -0.5696 -1.4112 -0.7949
  122OSM   H11T12948   3.945   0.433   9.668  0.1988  0.6541  0.7148
  122OSM   C12S12949   3.978   0.237   9.592 -0.2760 -0.0406 -0.0044
  122OSM   H12S12950   3.917   0.195   9.675 -2.2100  3.0246  0.3035
  122OSM   H12T12951   4.065   0.172   9.571 -0.9571 -1.2542  0.8263
  122OSM   C13S12952   3.897   0.258   9.467  0.4672 -0.0522 -0.2106
  122OSM   H13S12953   3.813   0.317   9.509  1.2313 -1.1145  3.0777
  122OSM   H13T12954   3.854   0.159   9.439  2.4862 -2.5025  4.3698
  122OSM   C14S12955   3.970   0.322   9.353 -0.2629  0.6588  0.2392
  122OSM   H14S12956   4.045   0.252   9.309 -1.6394 -0.0391 -1.0773
  122OSM   H14T12957   4.014   0.418   9.386  1.5020  0.0843 -0.3136
  122OSM   C15S12958   3.865   0.347   9.254  0.1530 -0.1196 -0.3918
  122OSM   H15S12959   3.801   0.433   9.280  0.8768  0.3043  0.0251
  122OSM   H15T12960   3.800   0.259   9.237 -0.1198  0.1419 -0.7157
  122OSM   C16S12961   3.916   0.388   9.116 -0.4397  0.4955  0.5109
  122OSM   H16S12962   3.980   0.313   9.065  0.5306  0.2957  1.9361
  122OSM   H16T12963   3.972   0.483   9.126  1.1781 -0.5513  2.1991
  122OSM   C17S12964   3.788   0.410   9.025 -0.3222 -0.8492  0.5466
  122OSM   H17S12965   3.708   0.470   9.073 -0.7604  0.5047 -1.7010
  122OSM   H17T12966   3.748   0.311   8.996 -2.8386  0.1114  0.5321
  122OSM   C18S12967   3.826   0.496   8.901 -0.9223  0.9392 -0.1243
  122OSM   H18S12968   3.896   0.447   8.829 -0.5491 -0.9234  1.4169
  122OSM   H18T12969   3.881   0.583   8.942  0.9339 -0.1737 -0.1403
  122OSM   H18U12970   3.732   0.522   8.849 -1.2656  0.9270  0.4810
  122OSM    C1F12971   4.955   0.389  10.478  0.6732 -0.5093  0.0185
  122OSM     OF12972   4.954   0.302  10.567  0.2462 -0.5903 -0.1335
  122OSM    C2F12973   5.072   0.400  10.379  0.2124  0.1023  0.3970
  122OSM    H2F12974   5.107   0.505  10.391  0.1268  0.4663 -2.0642
  122OSM    H2G12975   5.034   0.397  10.275 -0.1413 -0.4857  0.5359
  122OSM    C3F12976   5.180   0.296  10.391  0.3041 -0.6136 -0.2104
  122OSM    H3F12977   5.139   0.192  10.388 -1.7618  0.0576  1.4014
  122OSM    H3G12978   5.223   0.311  10.493 -0.8159  0.5523  0.1144
  122OSM    C4F12979   5.274   0.301  10.275  0.7653 -0.3294  0.1153
  122OSM    H4F12980   5.380   0.287  10.303  0.6996 -0.5094  0.2817
  122OSM    H4G12981   5.276   0.394  10.216 -0.3273 -1.4514 -1.7897
  122OSM    C5F12982   5.217   0.196  10.180  0.2200 -0.1070 -0.4095
  122OSM    H5F12983   5.107   0.209  10.168 -0.0280 -1.2085  0.4389
  122OSM    H5G12984   5.244   0.092  10.209  0.9053 -0.2203 -1.4294
  122OSM    C6F12985   5.265   0.215  10.041  0.4923  0.1938  0.1995
  122OSM    H6F12986   5.375   0.223  10.031  0.6668 -1.9089  0.0608
  122OSM    H6G12987   5.220   0.314  10.018  1.8366  0.3998 -1.7327
  122OSM    C7F12988   5.197   0.118   9.937  0.4509  0.7705 -0.4150
  122OSM    H7F12989   5.094   0.092   9.971  0.3764  1.3761 -0.1601
  122OSM    H7G12990   5.259   0.026   9.937  0.1859  0.5583  1.0838
  122OSM    C8F12991   5.195   0.171   9.797 -0.9325  0.4868  0.5276
  122OSM    H8F12992   5.301   0.175   9.765 -0.1550  2.1776  3.0400
  122OSM    H8G12993   5.142   0.268   9.786 -3.1293 -0.4753  1.8283
  122OSM    C9F12994   5.131   0.074   9.700 -0.1372  0.2614  0.1866
  122OSM    H9F12995   5.082  -0.012   9.748 -1.4934  0.1697 -1.2812
  122OSM   C10F12996   5.135   0.082   9.566  0.6816 -0.8949 -0.2477
  122OSM   H10F12997   5.084   0.009   9.502  0.9626 -1.0990 -0.2397
  122OSM   C11F12998   5.192   0.205   9.501  1.0183  0.2428  0.3927
  122OSM   H11F12999   5.290   0.242   9.539  1.7816  0.0955 -1.3469
  122OSM   H11G13000   5.123   0.289   9.521 -0.1118  0.3613 -3.3221
  122OSM   C12F13001   5.211   0.195   9.350 -0.2470  0.3806 -0.5484
  122OSM   H12F13002   5.245   0.296   9.319  0.5914  0.3565  0.2541
  122OSM   H12G13003   5.114   0.167   9.302 -1.3120  0.7847  1.2717
  122OSM   C13F13004   5.326   0.098   9.311 -0.0225 -0.8354 -1.0591
  122OSM   H13F13005   5.294  -0.002   9.346  1.1283  0.1656  3.5288
  122OSM   H13G13006   5.424   0.125   9.355 -0.7002 -3.1316  2.2074
  122OSM   C14F13007   5.341   0.076   9.159  0.0707 -0.7021 -0.2570
  122OSM   H14F13008   5.354   0.178   9.118 -2.0246 -0.0574  0.5365
  122OSM   H14G13009   5.248   0.040   9.111  1.3156 -0.3180 -3.1363
  122OSM   C15F13010   5.453  -0.013   9.118  0.4848  0.7020  0.5007
  122OSM   H15F13011   5.454  -0.099   9.188  4.1791 -0.4444 -0.6804
  122OSM   H15G13012   5.552   0.035   9.131  0.4416  0.6517  1.0309
  122OSM   C16F13013   5.435  -0.081   8.976  0.5414 -0.2681 -0.3934
  122OSM   H16F13014   5.338  -0.133   8.965  0.1184  0.6781 -1.3039
  122OSM   H16G13015   5.513  -0.158   8.960 -1.0127 -1.8093 -0.8451
  122OSM   C17F13016   5.454   0.015   8.849 -0.0540  0.1711  0.7563
  122OSM   H17F13017   5.563   0.040   8.856 -0.0058  1.1422 -2.1927
  122OSM   H17G13018   5.387   0.103   8.857 -1.3074 -0.9045  3.1738
  122OSM   C18F13019   5.414  -0.070   8.723 -0.6917 -0.0647  0.4446
  122OSM   H18F13020   5.305  -0.089   8.712 -0.7875 -2.7277  4.0753
  122OSM   H18G13021   5.458  -0.172   8.727  0.0707  0.2889  1.5039
  122OSM   H18H13022   5.460  -0.021   8.635  0.3413 -1.1899  0.3231
  123OSM      N13023   0.805   4.257   6.081  0.5964  0.1300  0.3954
  123OSM    C1513024   0.870   4.123   6.075  1.3862  0.6941 -0.4384
  123OSM   H15A13025   0.905   4.100   5.975  1.9779 -1.0958  0.1364
  123OSM   H15B13026   0.785   4.058   6.093  0.8496  1.6157  0.4411
  123OSM   H15C13027   0.947   4.110   6.150 -1.1490  0.0066  2.2207
  123OSM    C1413028   0.870   4.351   5.988  0.1835 -0.5902  0.2002
  123OSM   H14A13029   0.823   4.449   5.995  1.3980 -0.0651  1.5262
  123OSM   H14B13030   0.860   4.310   5.889 -1.9023 -0.7040  0.4010
  123OSM   H14C13031   0.974   4.347   6.017  0.5882 -5.6299 -1.0094
  123OSM    C1313032   0.662   4.256   6.035 -0.6226  1.0333 -0.0031
  123OSM   H13A13033   0.660   4.278   5.930 -1.7661  1.7958  0.1572
  123OSM   H13B13034   0.624   4.338   6.095 -0.7299 -0.1405  1.6162
  123OSM   H13C13035   0.598   4.169   6.045 -1.1856  1.2740 -1.3335
  123OSM    C1213036   0.804   4.307   6.231 -0.3546  0.2466  0.6061
  123OSM   H12A13037   0.910   4.319   6.248 -0.0456 -0.7936 -0.4210
  123OSM   H12B13038   0.776   4.227   6.298 -0.7163  0.4481  0.6971
  123OSM    C1113039   0.712   4.430   6.278  0.6320  0.2320  0.1810
  123OSM   H11A13040   0.742   4.450   6.383  3.5118  0.7356 -0.6656
  123OSM   H11B13041   0.603   4.406   6.275  0.1869  2.0101  1.1482
  123OSM      P13042   0.654   4.679   6.229  0.2563 -0.2519 -0.2808
  123OSM    O1313043   0.719   4.793   6.173  0.9768 -0.5417  0.4239
  123OSM    O1413044   0.522   4.641   6.180  0.4429  0.7071  0.1128
  123OSM    O1113045   0.646   4.694   6.390 -0.1374  0.1884 -0.1388
  123OSM    O1213046   0.745   4.548   6.202  0.2067  0.0698  0.5412
  123OSM    C1S13047   0.544   4.636   6.471 -0.1447 -0.1530 -0.4284
  123OSM    H1S13048   0.504   4.544   6.422 -0.7841  0.0538 -0.3032
  123OSM    H1T13049   0.462   4.711   6.477 -0.5127 -0.6014  0.3818
  123OSM     NF13050   0.484   4.585   6.705 -0.0910 -0.1402 -0.1483
  123OSM    HNF13051   0.450   4.667   6.750  1.2758  0.6845 -0.5533
  123OSM    C2S13052   0.595   4.612   6.616  0.1459 -0.1186  0.0842
  123OSM    H2S13053   0.668   4.527   6.615  0.5459  0.1702  2.0418
  123OSM    C3S13054   0.678   4.736   6.663 -0.3082  0.1402 -0.0758
  123OSM    H3S13055   0.630   4.835   6.645  0.5296  0.2365 -2.0323
  123OSM     O313056   0.797   4.755   6.593  0.0263 -0.8548  0.5007
  123OSM    HO313057   0.779   4.710   6.510  1.6937 -1.4515  0.4207
  123OSM    C4S13058   0.717   4.719   6.810  0.6815 -0.0513  0.2933
  123OSM    H4S13059   0.732   4.614   6.837 -0.5245 -0.1854  0.4760
  123OSM    C5S13060   0.706   4.811   6.913 -0.2972  0.6994 -0.4647
  123OSM    H5S13061   0.652   4.906   6.898 -1.4706  0.0958 -0.2156
  123OSM    C6S13062   0.738   4.786   7.057 -0.3312  0.1394 -0.1974
  123OSM    H6S13063   0.673   4.706   7.096 -2.3404  2.4955  1.6019
  123OSM    H6T13064   0.703   4.877   7.111 -0.8803 -0.1555 -0.0516
  123OSM    C7S13065   0.883   4.750   7.082 -0.5695  0.5397 -0.4230
  123OSM    H7S13066   0.949   4.811   7.016 -2.8980 -0.8313 -4.2832
  123OSM    H7T13067   0.892   4.645   7.047  2.4574 -0.3067  2.3803
  123OSM    C8S13068   0.921   4.768   7.235 -0.4089  0.0140  0.3489
  123OSM    H8S13069   0.924   4.879   7.245 -2.1209  0.2533 -1.1877
  123OSM    H8T13070   1.026   4.733   7.247 -0.7821 -0.7831  1.4653
  123OSM    C9S13071   0.826   4.718   7.336  0.4437  0.2347 -1.2416
  123OSM    H9S13072   0.838   4.608   7.344 -1.5298 -0.0217 -1.1117
  123OSM    H9T13073   0.719   4.736   7.311  0.0870 -0.6440 -0.4077
  123OSM   C10S13074   0.844   4.782   7.475 -0.2785  0.1690 -0.5769
  123OSM   H10S13075   0.767   4.753   7.549  1.5205 -1.0155  0.9167
  123OSM   H10T13076   0.839   4.891   7.451  0.6546  0.7989  1.7639
  123OSM   C11S13077   0.982   4.761   7.544 -0.5107  0.0193  0.6551
  123OSM   H11S13078   1.067   4.817   7.499 -1.7956  0.7845 -0.9061
  123OSM   H11T13079   1.013   4.655   7.539  0.1990  0.2322  0.3359
  123OSM   C12S13080   0.975   4.798   7.696 -0.7434  0.5113 -0.5146
  123OSM   H12S13081   0.919   4.892   7.716 -0.8072  0.1488  1.1544
  123OSM   H12T13082   1.078   4.817   7.731  0.0840 -2.9179 -0.7400
  123OSM   C13S13083   0.927   4.680   7.781 -0.2966  0.5090  0.4033
  123OSM   H13S13084   0.939   4.586   7.722  0.4655  0.6782  0.2771
  123OSM   H13T13085   0.819   4.687   7.806 -0.8396 -1.3043 -1.1856
  123OSM   C14S13086   1.000   4.676   7.915  0.3420  0.8235 -0.1270
  123OSM   H14S13087   0.984   4.775   7.962 -0.7020  0.2492  0.7729
  123OSM   H14T13088   1.108   4.650   7.904  0.3007  0.3764  0.4535
  123OSM   C15S13089   0.927   4.588   8.013  1.0503  0.5590 -0.9966
  123OSM   H15S13090   0.933   4.482   7.982 -0.5846  0.2647 -0.4341
  123OSM   H15T13091   0.819   4.613   8.003  1.1663  0.5787 -2.2583
  123OSM   C16S13092   0.973   4.603   8.162 -0.0088 -0.4380  0.2273
  123OSM   H16S13093   0.970   4.709   8.194  1.8048 -0.3528  0.2286
  123OSM   H16T13094   1.079   4.570   8.167  0.2232  0.3778  0.8542
  123OSM   C17S13095   0.891   4.519   8.255  0.5779  0.4921 -0.5912
  123OSM   H17S13096   0.952   4.523   8.348  2.5194 -0.4009 -1.7423
  123OSM   H17T13097   0.885   4.411   8.232  0.3152 -0.2998  2.7810
  123OSM   C18S13098   0.750   4.575   8.282  0.5507 -0.3412 -0.1674
  123OSM   H18S13099   0.757   4.674   8.333 -1.8660  0.3792 -1.1028
  123OSM   H18T13100   0.705   4.515   8.363  2.0090 -0.3788  0.6636
  123OSM   H18U13101   0.698   4.590   8.185  0.8859 -0.6713 -0.3999
  123OSM    C1F13102   0.422   4.466   6.708 -0.1197  0.7726 -0.6763
  123OSM     OF13103   0.473   4.364   6.655  0.0500  0.0521  0.0661
  123OSM    C2F13104   0.289   4.454   6.781 -0.3866  0.4785  0.0751
  123OSM    H2F13105   0.217   4.391   6.725 -1.4612 -0.4210  2.3790
  123OSM    H2G13106   0.249   4.556   6.799  1.4531  1.2341  0.1699
  123OSM    C3F13107   0.308   4.373   6.907 -0.1947 -0.1643 -0.8551
  123OSM    H3F13108   0.324   4.264   6.893 -0.4172 -1.0888  4.1688
  123OSM    H3G13109   0.217   4.370   6.970  0.3268  0.8440 -0.0388
  123OSM    C4F13110   0.422   4.410   6.996 -0.2094 -0.4832 -0.7322
  123OSM    H4F13111   0.415   4.509   7.045  1.8911 -1.1918  1.1359
  123OSM    H4G13112   0.518   4.408   6.942 -1.3337 -2.9862 -2.8934
  123OSM    C5F13113   0.435   4.309   7.114  0.3711  0.5180 -0.2214
  123OSM    H5F13114   0.463   4.211   7.069  0.4752 -0.4391  1.8274
  123OSM    H5G13115   0.335   4.300   7.162  0.7035  1.1161  0.5993
  123OSM    C6F13116   0.541   4.336   7.217 -0.3472 -0.9822 -0.5734
  123OSM    H6F13117   0.508   4.422   7.279  0.7423 -0.4296 -0.7224
  123OSM    H6G13118   0.636   4.360   7.164  0.2462  0.4112  1.0349
  123OSM    C7F13119   0.573   4.218   7.308  0.4334  0.0308 -0.5121
  123OSM    H7F13120   0.615   4.133   7.251  0.2769 -0.4178  0.0294
  123OSM    H7G13121   0.486   4.176   7.363  0.4567  0.1431 -0.3875
  123OSM    C8F13122   0.676   4.257   7.416 -0.0405 -0.4776  0.2381
  123OSM    H8F13123   0.689   4.179   7.494  0.9215  0.2343  0.8133
  123OSM    H8G13124   0.638   4.339   7.480 -0.2498 -0.9668  0.7532
  123OSM    C9F13125   0.813   4.293   7.359 -0.3363 -0.1933  0.2829
  123OSM    H9F13126   0.803   4.378   7.290  0.1243 -1.7329 -1.7603
  123OSM   C10F13127   0.932   4.232   7.382 -0.0424  0.5451  0.3634
  123OSM   H10F13128   1.017   4.259   7.317 -1.6438  0.3753 -1.9282
  123OSM   C11F13129   0.943   4.111   7.467 -0.1716  0.7747 -0.0502
  123OSM   H11F13130   1.035   4.058   7.434 -1.4232 -0.7126 -1.3946
  123OSM   H11G13131   0.863   4.035   7.448  2.0636 -1.2388 -2.0588
  123OSM   C12F13132   0.979   4.129   7.617 -0.5255  0.1200  0.0471
  123OSM   H12F13133   1.081   4.170   7.630 -0.0412 -0.4607 -1.5607
  123OSM   H12G13134   0.981   4.023   7.650  1.2133 -0.8200 -2.7169
  123OSM   C13F13135   0.886   4.219   7.698  0.2012  0.8478  0.2400
  123OSM   H13F13136   0.780   4.188   7.707  0.5460  0.2973  3.1512
  123OSM   H13G13137   0.888   4.323   7.658  1.4881 -0.0607 -2.2899
  123OSM   C14F13138   0.914   4.229   7.858  1.0633 -0.3765 -0.2021
  123OSM   H14F13139   0.836   4.295   7.904  0.7679 -0.7659 -0.1326
  123OSM   H14G13140   1.011   4.282   7.869 -0.6141  3.4289 -1.7719
  123OSM   C15F13141   0.915   4.106   7.953 -0.0024  0.1142  0.0533
  123OSM   H15F13142   0.812   4.071   7.976  0.2306 -0.4553  0.2555
  123OSM   H15G13143   0.945   4.145   8.053 -0.5463 -2.2056  1.2128
  123OSM   C16F13144   1.009   3.986   7.921 -0.2534  0.0849 -0.3182
  123OSM   H16F13145   0.983   3.927   7.830  1.0215 -1.9675  0.5976
  123OSM   H16G13146   1.002   3.910   8.001  1.7277 -0.1917 -0.3727
  123OSM   C17F13147   1.155   4.030   7.897 -0.2236 -0.5752  0.4171
  123OSM   H17F13148   1.180   4.111   7.969  0.8641 -0.9691  0.5018
  123OSM   H17G13149   1.174   4.074   7.797  1.4038 -0.8258  0.5876
  123OSM   C18F13150   1.247   3.911   7.931 -0.0138 -0.4752  0.3098
  123OSM   H18F13151   1.352   3.948   7.938  0.4229 -1.4540 -0.6987
  123OSM   H18G13152   1.257   3.846   7.841  0.6573 -1.4791  1.0903
  123OSM   H18H13153   1.220   3.857   8.024  0.7552 -1.1488  0.1494
  124OSM      N13154   6.481   1.436   6.172 -0.3286  0.2208  0.2448
  124OSM    C1513155   6.605   1.469   6.095  1.0262 -0.0395  0.1487
  124OSM   H15A13156   6.632   1.573   6.101  0.8331  0.0323 -0.1894
  124OSM   H15B13157   6.594   1.446   5.990  0.4244 -0.0852  0.2192
  124OSM   H15C13158   6.689   1.414   6.135  0.1068 -2.2941 -0.8196
  124OSM    C1413159   6.463   1.285   6.182 -0.2090  0.2080 -0.1709
  124OSM   H14A13160   6.538   1.245   6.250 -0.7739 -0.4460  0.0718
  124OSM   H14B13161   6.477   1.229   6.092 -2.7645 -1.7716  0.5525
  124OSM   H14C13162   6.364   1.270   6.223 -0.7913  3.4589 -0.0935
  124OSM    C1313163   6.481   1.487   6.314 -0.1358  0.1212 -0.4674
  124OSM   H13A13164   6.489   1.595   6.320  3.4249 -0.0617  0.7670
  124OSM   H13B13165   6.573   1.453   6.360  0.0172  0.8772 -0.1935
  124OSM   H13C13166   6.401   1.447   6.374  0.2779  0.3737  0.2722
  124OSM    C1213167   6.362   1.499   6.107  0.4657 -0.2005  0.7085
  124OSM   H12A13168   6.273   1.467   6.160 -0.5660 -0.5875 -1.1717
  124OSM   H12B13169   6.344   1.455   6.010  2.9958  0.5911 -0.1846
  124OSM    C1113170   6.344   1.653   6.084 -0.1044 -0.3489 -0.5581
  124OSM   H11A13171   6.266   1.666   6.006 -0.6035  0.4352  0.0445
  124OSM   H11B13172   6.442   1.683   6.041  0.7208 -1.4835  0.4775
  124OSM      P13173   6.169   1.738   6.258 -0.0545  0.3914  0.4861
  124OSM    O1313174   6.102   1.866   6.224  0.6544  0.5706  0.1595
  124OSM    O1413175   6.096   1.613   6.230 -0.9386 -0.3312  0.7171
  124OSM    O1113176   6.216   1.738   6.407 -0.4955 -0.3219  0.2800
  124OSM    O1213177   6.316   1.725   6.206 -0.0208  0.3676  0.2633
  124OSM    C1S13178   6.320   1.824   6.459 -0.5366 -0.4835  0.4298
  124OSM    H1S13179   6.302   1.933   6.447  1.3420 -0.0010  1.6136
  124OSM    H1T13180   6.422   1.795   6.426 -0.7429 -1.4882  0.6459
  124OSM     NF13181   6.430   1.895   6.667 -0.2089  0.3634  0.1292
  124OSM    HNF13182   6.512   1.849   6.700 -0.4089 -0.2493 -0.2254
  124OSM    C2S13183   6.331   1.798   6.612  0.0748 -0.2886 -0.1331
  124OSM    H2S13184   6.237   1.833   6.659  0.4567  1.0441 -0.3140
  124OSM    C3S13185   6.366   1.649   6.640  0.2352 -0.5417 -0.4742
  124OSM    H3S13186   6.466   1.624   6.599 -0.0958 -2.5983 -0.1629
  124OSM     O313187   6.282   1.551   6.581  0.3023 -1.0766  0.1381
  124OSM    HO313188   6.234   1.597   6.511 -0.6370 -3.7337 -1.1034
  124OSM    C4S13189   6.377   1.618   6.789  0.0854  0.4875  1.0889
  124OSM    H4S13190   6.476   1.580   6.816  0.7888 -0.1691 -2.0318
  124OSM    C5S13191   6.278   1.603   6.885  0.1689 -0.6425  0.4601
  124OSM    H5S13192   6.176   1.606   6.845  0.6087 -0.6322 -0.6912
  124OSM    C6S13193   6.279   1.565   7.026  0.0639  0.2023  0.1790
  124OSM    H6S13194   6.199   1.491   7.048 -1.4090  2.2860  2.2682
  124OSM    H6T13195   6.264   1.657   7.086  1.4157  1.6053 -1.5327
  124OSM    C7S13196   6.422   1.507   7.073 -0.1781 -0.0102  0.0441
  124OSM    H7S13197   6.491   1.593   7.072  0.8424 -0.8119 -0.4987
  124OSM    H7T13198   6.458   1.439   6.993  0.1774 -0.2142  0.3723
  124OSM    C8S13199   6.425   1.443   7.217  0.5565 -0.6948 -0.0416
  124OSM    H8S13200   6.530   1.429   7.250  0.1892 -0.7445  1.1535
  124OSM    H8T13201   6.370   1.347   7.220 -1.7311  0.5493  0.7072
  124OSM    C9S13202   6.363   1.528   7.334  0.2857  0.1528 -0.0590
  124OSM    H9S13203   6.374   1.477   7.431 -0.6553 -4.1923 -1.9925
  124OSM    H9T13204   6.257   1.545   7.306  1.2543  3.4925 -2.4112
  124OSM   C10S13205   6.436   1.666   7.344  0.1179 -0.5432  0.0274
  124OSM   H10S13206   6.420   1.713   7.245 -1.0546 -0.5659  0.1923
  124OSM   H10T13207   6.546   1.667   7.356  0.1038 -0.7279  0.1642
  124OSM   C11S13208   6.373   1.755   7.453 -0.7083 -0.6515  0.3153
  124OSM   H11S13209   6.264   1.749   7.435 -0.5699  0.4153 -1.0192
  124OSM   H11T13210   6.397   1.863   7.442  0.0951 -0.6817  1.5780
  124OSM   C12S13211   6.395   1.709   7.596  0.1497  0.1960 -0.5971
  124OSM   H12S13212   6.503   1.709   7.620  0.1893 -0.2700 -0.7700
  124OSM   H12T13213   6.361   1.605   7.612 -0.5680  0.7585  2.2007
  124OSM   C13S13214   6.314   1.791   7.693  0.5389 -0.0090  0.4137
  124OSM   H13S13215   6.204   1.783   7.680  0.6850 -0.0128 -1.0168
  124OSM   H13T13216   6.334   1.900   7.689 -0.8322  0.2214 -2.8392
  124OSM   C14S13217   6.336   1.758   7.841 -0.5623  0.3372 -0.1978
  124OSM   H14S13218   6.289   1.842   7.896 -3.3609  0.0437 -1.9572
  124OSM   H14T13219   6.446   1.770   7.850 -0.3327  0.0799 -2.2300
  124OSM   C15S13220   6.286   1.627   7.885 -0.2746 -0.5223 -0.1073
  124OSM   H15S13221   6.337   1.547   7.828 -3.0786 -1.3078 -1.7163
  124OSM   H15T13222   6.177   1.617   7.865  0.1485 -1.6303 -2.0573
  124OSM   C16S13223   6.313   1.584   8.035  0.1018  0.1872  0.1217
  124OSM   H16S13224   6.421   1.557   8.035  0.8114  2.7363  0.8305
  124OSM   H16T13225   6.252   1.494   8.058 -3.2811  2.2035 -0.2764
  124OSM   C17S13226   6.284   1.691   8.137  0.3105  0.7998  0.4234
  124OSM   H17S13227   6.173   1.690   8.141  0.2415 -1.3275 -0.3558
  124OSM   H17T13228   6.333   1.786   8.110  0.7873 -0.0209 -1.8439
  124OSM   C18S13229   6.327   1.646   8.282 -0.4767 -0.3569 -0.4892
  124OSM   H18S13230   6.297   1.721   8.358  3.5230  1.7654 -0.7254
  124OSM   H18T13231   6.438   1.644   8.278 -0.4855  0.4099 -3.3488
  124OSM   H18U13232   6.286   1.546   8.308  0.3770 -0.6463 -0.2175
  124OSM    C1F13233   6.407   2.029   6.675 -0.3583  0.1330 -0.5887
  124OSM     OF13234   6.319   2.087   6.617  0.0088  0.1255  0.2473
  124OSM    C2F13235   6.509   2.110   6.756 -0.2323 -0.5909  0.2125
  124OSM    H2F13236   6.575   2.163   6.684 -2.0148  0.2807 -0.8639
  124OSM    H2G13237   6.563   2.038   6.821 -1.0011 -2.4456 -1.1089
  124OSM    C3F13238   6.439   2.221   6.843 -0.4006  0.0595  0.6913
  124OSM    H3F13239   6.353   2.179   6.899 -0.1486 -2.4919 -0.6630
  124OSM    H3G13240   6.404   2.291   6.764 -3.0078 -1.8764  0.0056
  124OSM    C4F13241   6.538   2.291   6.941 -0.8993 -0.0684  0.4174
  124OSM    H4F13242   6.488   2.374   6.996  0.1767 -0.0174  1.3555
  124OSM    H4G13243   6.626   2.330   6.885 -2.5047  0.8533 -1.6079
  124OSM    C5F13244   6.587   2.199   7.052  0.7390  0.6077 -0.2658
  124OSM    H5F13245   6.645   2.107   7.030  0.9067  0.6871 -0.1505
  124OSM    H5G13246   6.499   2.165   7.111  0.3100  1.1546 -0.5788
  124OSM    C6F13247   6.667   2.296   7.139  0.3461  0.4365  0.2788
  124OSM    H6F13248   6.602   2.385   7.156  0.4213  1.0589 -2.3052
  124OSM    H6G13249   6.756   2.337   7.087 -0.6404  0.9302 -1.0779
  124OSM    C7F13250   6.715   2.245   7.274  0.4007  0.2378  0.2312
  124OSM    H7F13251   6.748   2.338   7.324 -2.2428  1.8165 -0.7854
  124OSM    H7G13252   6.806   2.189   7.243  0.8411  1.5241 -0.8972
  124OSM    C8F13253   6.616   2.156   7.352  0.1147  0.1943  0.5466
  124OSM    H8F13254   6.671   2.093   7.424  0.5909 -1.2921 -1.0519
  124OSM    H8G13255   6.582   2.081   7.277  1.5880  0.5159 -0.4756
  124OSM    C9F13256   6.510   2.248   7.411 -0.1923  0.1971  0.2964
  124OSM    H9F13257   6.446   2.308   7.345 -1.2091  0.3860  1.4167
  124OSM   C10F13258   6.461   2.237   7.532 -0.3262  0.7357 -0.3633
  124OSM   H10F13259   6.377   2.299   7.566  0.2149  0.6863  1.1332
  124OSM   C11F13260   6.509   2.132   7.634 -0.1266 -0.5039  0.6887
  124OSM   H11F13261   6.619   2.128   7.648 -0.0365  1.3917  0.8095
  124OSM   H11G13262   6.472   2.038   7.589 -0.3537  0.6483 -1.6887
  124OSM   C12F13263   6.436   2.159   7.772  0.3230  0.0410  0.2041
  124OSM   H12F13264   6.459   2.076   7.842  0.7116  1.6544  2.0637
  124OSM   H12G13265   6.325   2.158   7.762  0.2030  0.4503  1.4075
  124OSM   C13F13266   6.490   2.278   7.857  0.2664  0.3175 -0.6595
  124OSM   H13F13267   6.479   2.369   7.794 -2.1848  1.1762  0.8545
  124OSM   H13G13268   6.597   2.253   7.876  0.4882  0.7853 -1.2763
  124OSM   C14F13269   6.419   2.287   7.997  0.6225 -0.3952  0.1073
  124OSM   H14F13270   6.403   2.183   8.031 -2.6101 -0.0072  0.1139
  124OSM   H14G13271   6.317   2.328   7.980  1.3585  0.8765 -1.4870
  124OSM   C15F13272   6.516   2.366   8.097  0.4766  0.9014  0.0439
  124OSM   H15F13273   6.569   2.450   8.047  0.6052  0.9986  0.3346
  124OSM   H15G13274   6.598   2.295   8.120 -1.2703 -0.9442  0.8210
  124OSM   C16F13275   6.454   2.402   8.230  0.2985 -0.0833 -0.0435
  124OSM   H16F13276   6.388   2.491   8.225 -0.5871 -0.7592 -0.5659
  124OSM   H16G13277   6.545   2.420   8.291  0.3290 -0.9703  0.1919
  124OSM   C17F13278   6.370   2.300   8.309  0.4398  0.2121 -0.8265
  124OSM   H17F13279   6.429   2.206   8.314  0.5818  0.2825 -1.1359
  124OSM   H17G13280   6.277   2.279   8.253  1.0128  0.7516 -2.0256
  124OSM   C18F13281   6.338   2.352   8.450  0.1547  0.8470  0.6026
  124OSM   H18F13282   6.435   2.392   8.486  0.5821  1.9324 -1.5969
  124OSM   H18G13283   6.316   2.263   8.514 -1.7605  0.8826  0.0631
  124OSM   H18H13284   6.258   2.429   8.455 -1.4437 -0.6651 -0.4554
  125OSM      N13285   5.387   2.228   6.151 -0.0983 -0.4395  0.1745
  125OSM    C1513286   5.498   2.256   6.050  0.6533  0.2190 -0.3076
  125OSM   H15A13287   5.585   2.197   6.076 -0.1950 -0.5823  0.8249
  125OSM   H15B13288   5.529   2.360   6.053  1.2693  0.0228  1.6848
  125OSM   H15C13289   5.471   2.231   5.948  0.2918  0.5639 -0.2990
  125OSM    C1413290   5.440   2.269   6.288 -0.0398  0.1208 -0.0074
  125OSM   H14A13291   5.367   2.334   6.335  3.3748  1.6377  3.8591
  125OSM   H14B13292   5.522   2.338   6.275  0.5961 -0.8710 -1.4134
  125OSM   H14C13293   5.488   2.192   6.347 -0.8359  0.8628  1.7016
  125OSM    C1313294   5.273   2.324   6.124 -0.4306  0.0167  0.1785
  125OSM   H13A13295   5.298   2.428   6.140 -3.0533  0.7125  0.1031
  125OSM   H13B13296   5.183   2.297   6.178  0.0121 -0.1294  0.8657
  125OSM   H13C13297   5.241   2.312   6.022 -3.8490  0.2044  1.1100
  125OSM    C1213298   5.341   2.086   6.155 -0.1108  0.0917 -0.6662
  125OSM   H12A13299   5.425   2.017   6.158  0.9316  1.3148 -0.9972
  125OSM   H12B13300   5.287   2.064   6.065  0.1234 -3.6504 -0.0650
  125OSM    C1113301   5.254   2.047   6.282  0.5002 -0.6523 -0.0586
  125OSM   H11A13302   5.157   2.101   6.288  2.1408  2.4747  0.3934
  125OSM   H11B13303   5.300   2.055   6.383  0.0026 -1.3935  0.2409
  125OSM      P13304   5.089   1.836   6.284 -0.2698 -0.0531 -0.0742
  125OSM    O1313305   4.979   1.889   6.198  0.0351  0.2404  0.1594
  125OSM    O1413306   5.113   1.692   6.274  0.1837  0.1359 -0.3175
  125OSM    O1113307   5.068   1.885   6.434  0.0129  0.1959  0.2883
  125OSM    O1213308   5.219   1.909   6.256  0.0727 -0.0850 -0.2849
  125OSM    C1S13309   5.142   1.829   6.542 -0.1016 -0.2421 -0.0399
  125OSM    H1S13310   5.250   1.857   6.550  0.4264 -2.2385  0.2469
  125OSM    H1T13311   5.163   1.721   6.527  0.1688 -0.1935 -0.0225
  125OSM     NF13312   5.139   1.810   6.792 -0.5203 -0.1654 -0.4045
  125OSM    HNF13313   5.110   1.729   6.843 -2.0536  1.0761  0.7846
  125OSM    C2S13314   5.053   1.839   6.673  0.3778  0.6837  0.0800
  125OSM    H2S13315   5.012   1.941   6.684 -1.4650 -0.1091  1.0950
  125OSM    C3S13316   4.922   1.750   6.656  0.2067 -0.2125 -0.0547
  125OSM    H3S13317   4.958   1.645   6.658  0.7650 -0.0479 -0.9435
  125OSM     O313318   4.854   1.773   6.529  0.6931 -0.3583 -0.1017
  125OSM    HO313319   4.921   1.830   6.491  2.0298 -0.4747  1.9379
  125OSM    C4S13320   4.833   1.786   6.769 -0.3216 -0.0868 -0.8542
  125OSM    H4S13321   4.872   1.740   6.862  0.0837 -0.2821 -1.1146
  125OSM    C5S13322   4.741   1.895   6.780  0.0982  0.2771 -0.4991
  125OSM    H5S13323   4.721   1.966   6.699 -0.8964  0.7611  0.1451
  125OSM    C6S13324   4.664   1.929   6.910  0.1992 -0.0330 -0.2221
  125OSM    H6S13325   4.555   1.920   6.895  0.1511 -1.5167  0.8568
  125OSM    H6T13326   4.686   2.033   6.945  1.6473  0.2601 -1.8270
  125OSM    C7S13327   4.680   1.840   7.036  0.1161  0.1070 -0.9049
  125OSM    H7S13328   4.696   1.739   6.992  0.1098  0.8569 -2.6986
  125OSM    H7T13329   4.589   1.839   7.100  0.7580  3.4023  0.2550
  125OSM    C8S13330   4.808   1.884   7.113  0.8331  0.6100  0.9069
  125OSM    H8S13331   4.788   1.942   7.205  0.8963  4.0367 -1.0946
  125OSM    H8T13332   4.866   1.957   7.053 -2.4819  1.5079 -1.4504
  125OSM    C9S13333   4.903   1.767   7.155  0.1360  0.8051  0.0602
  125OSM    H9S13334   4.913   1.683   7.083  1.4974  0.7233  0.3104
  125OSM    H9T13335   4.850   1.711   7.235  1.1475  1.9767  1.6115
  125OSM   C10S13336   5.051   1.812   7.167  0.4748 -0.1409  0.3081
  125OSM   H10S13337   5.078   1.867   7.074  1.6034 -2.3170 -0.7073
  125OSM   H10T13338   5.125   1.729   7.164  1.5569  0.6282  2.7196
  125OSM   C11S13339   5.063   1.893   7.297 -0.4709 -0.4066  0.2705
  125OSM   H11S13340   4.986   1.972   7.303 -2.1211 -2.0017  1.2294
  125OSM   H11T13341   5.165   1.938   7.289  0.1605 -1.8961 -0.5877
  125OSM   C12S13342   5.040   1.817   7.425 -0.2602 -0.4131 -0.4842
  125OSM   H12S13343   5.110   1.732   7.436 -1.9424 -1.6829  0.8560
  125OSM   H12T13344   4.941   1.767   7.420  0.8081 -2.8495  1.0194
  125OSM   C13S13345   5.059   1.904   7.554  0.5453 -0.3999  0.1783
  125OSM   H13S13346   5.133   1.983   7.530 -2.4457  2.1775 -1.2130
  125OSM   H13T13347   5.100   1.844   7.639  0.9007 -1.5984 -0.8101
  125OSM   C14S13348   4.929   1.965   7.603 -0.4417  0.6100  0.8158
  125OSM   H14S13349   4.852   1.886   7.593  2.1167 -1.9540  0.0198
  125OSM   H14T13350   4.885   2.041   7.535 -0.5329  1.3419  1.6725
  125OSM   C15S13351   4.932   2.033   7.745  0.9194 -0.2888  0.1047
  125OSM   H15S13352   4.840   2.092   7.764  0.6391 -0.7582  0.2462
  125OSM   H15T13353   5.020   2.100   7.750  0.9839 -0.4580  2.0646
  125OSM   C16S13354   4.938   1.927   7.859  0.6189 -0.0898 -0.2138
  125OSM   H16S13355   5.032   1.870   7.844  1.1905  0.9134 -0.5854
  125OSM   H16T13356   4.848   1.864   7.874 -0.2520  1.1999  0.1635
  125OSM   C17S13357   4.970   2.010   7.989  0.5914 -0.1079 -0.1549
  125OSM   H17S13358   4.880   2.069   8.014 -0.2326 -0.3986 -2.2788
  125OSM   H17T13359   5.058   2.076   7.975  0.8233 -0.0673  1.3296
  125OSM   C18S13360   4.983   1.927   8.119 -0.1442 -0.3049  0.0219
  125OSM   H18S13361   4.914   1.840   8.126 -1.3312  0.6510  0.5999
  125OSM   H18T13362   4.961   1.992   8.206  1.0649 -0.2185  0.2824
  125OSM   H18U13363   5.090   1.897   8.118 -0.4115 -1.4009 -1.9465
  125OSM    C1F13364   5.236   1.888   6.833 -0.0667  0.5954 -0.0246
  125OSM     OF13365   5.247   1.997   6.782 -0.0234  0.4974 -0.1160
  125OSM    C2F13366   5.331   1.851   6.950 -0.2345 -0.4355 -0.4213
  125OSM    H2F13367   5.419   1.804   6.904  0.2899 -0.5404  0.6468
  125OSM    H2G13368   5.267   1.779   7.005 -1.1507  0.6628  0.0057
  125OSM    C3F13369   5.369   1.972   7.047 -0.3098  0.1781  0.0300
  125OSM    H3F13370   5.281   2.032   7.076 -0.2925 -0.5532  1.7135
  125OSM    H3G13371   5.449   2.040   7.010  0.0154  0.7442  1.6877
  125OSM    C4F13372   5.429   1.906   7.174 -0.0903  0.2411 -1.5368
  125OSM    H4F13373   5.520   1.847   7.148 -1.2333 -2.4467  0.1423
  125OSM    H4G13374   5.354   1.830   7.202  2.0874 -0.8027  2.2380
  125OSM    C5F13375   5.465   2.012   7.277 -0.1990 -0.5759  0.2412
  125OSM    H5F13376   5.381   2.080   7.302  1.4111  1.1948  1.1752
  125OSM    H5G13377   5.537   2.083   7.230  0.2733 -2.4022 -1.9245
  125OSM    C6F13378   5.506   1.952   7.412  0.7504  0.4071  0.5691
  125OSM    H6F13379   5.594   1.887   7.395 -0.6533 -1.0801 -1.4605
  125OSM    H6G13380   5.420   1.883   7.426 -0.3702  1.4919 -0.6609
  125OSM    C7F13381   5.525   2.057   7.527  0.0402  0.2405 -0.1667
  125OSM    H7F13382   5.431   2.113   7.547 -0.6011 -1.0731  0.6617
  125OSM    H7G13383   5.606   2.126   7.497  0.7067  0.0461  1.0859
  125OSM    C8F13384   5.553   1.987   7.664  0.3477  0.0394 -0.1047
  125OSM    H8F13385   5.653   1.939   7.661 -0.5714 -2.1550  1.7885
  125OSM    H8G13386   5.478   1.906   7.677 -0.6394  1.0354  0.6237
  125OSM    C9F13387   5.544   2.095   7.769 -0.9082  0.4055  0.2926
  125OSM    H9F13388   5.588   2.191   7.741  0.8476 -0.2896  0.5631
  125OSM   C10F13389   5.487   2.082   7.886 -0.1323 -0.1405 -0.1756
  125OSM   H10F13390   5.498   2.180   7.935 -1.0576  2.9260 -5.3440
  125OSM   C11F13391   5.424   1.963   7.956  0.0400 -0.6752 -0.0182
  125OSM   H11F13392   5.392   1.880   7.889 -0.0935 -1.8991  1.4963
  125OSM   H11G13393   5.334   1.986   8.018  1.7363 -0.4504  2.4998
  125OSM   C12F13394   5.523   1.902   8.053 -0.0671  0.5672 -0.8465
  125OSM   H12F13395   5.609   1.852   8.003 -0.4148 -0.8426 -0.0873
  125OSM   H12G13396   5.474   1.835   8.127  0.9437  0.1978 -0.4792
  125OSM   C13F13397   5.606   1.998   8.140 -0.0897  0.4276  0.9899
  125OSM   H13F13398   5.661   2.066   8.072 -3.2567  2.0924 -0.0845
  125OSM   H13G13399   5.681   1.946   8.204 -0.5444 -2.2709 -0.4977
  125OSM   C14F13400   5.520   2.083   8.237  0.3861 -0.5088 -0.2222
  125OSM   H14F13401   5.441   2.022   8.287 -0.5968 -0.4318 -1.6233
  125OSM   H14G13402   5.458   2.162   8.190 -1.0578 -0.8388  1.0449
  125OSM   C15F13403   5.608   2.154   8.349 -0.8111 -0.0111  0.3829
  125OSM   H15F13404   5.677   2.083   8.399  0.3474  1.3297  0.7419
  125OSM   H15G13405   5.539   2.190   8.428  0.7216  1.6562  1.0380
  125OSM   C16F13406   5.682   2.272   8.291  0.6044 -0.0072 -0.4827
  125OSM   H16F13407   5.609   2.339   8.240 -1.3758 -1.6627  0.0320
  125OSM   H16G13408   5.763   2.246   8.219  0.5460  2.4079 -1.5014
  125OSM   C17F13409   5.735   2.368   8.400 -0.4272  0.1421  0.1241
  125OSM   H17F13410   5.660   2.378   8.482 -0.6973  0.7557 -0.1887
  125OSM   H17G13411   5.746   2.470   8.357  1.6306 -0.7719 -1.7160
  125OSM   C18F13412   5.865   2.328   8.455  0.0084 -0.2953  0.3502
  125OSM   H18F13413   5.912   2.400   8.525  0.7645  0.0022 -0.4506
  125OSM   H18G13414   5.930   2.326   8.365  0.7958  0.0699  0.8969
  125OSM   H18H13415   5.861   2.224   8.496  1.6943  0.2187  1.9773
  126OSM      N13416   2.618   2.738   6.422 -0.2466 -0.0013 -0.0240
  126OSM    C1513417   2.555   2.868   6.464  0.5000 -0.5123 -0.2145
  126OSM   H15A13418   2.616   2.919   6.537  0.1542  2.0696 -1.5942
  126OSM   H15B13419   2.454   2.851   6.498  0.4128  1.4792  0.6660
  126OSM   H15C13420   2.552   2.937   6.381  0.6772  1.4528  1.3455
  126OSM    C1413421   2.612   2.645   6.541  0.3348  0.1179 -0.1428
  126OSM   H14A13422   2.512   2.656   6.580  0.4378  2.1383 -0.3091
  126OSM   H14B13423   2.682   2.678   6.616  0.9449 -1.0020 -0.1976
  126OSM   H14C13424   2.618   2.539   6.525  0.3168 -0.3220  2.3329
  126OSM    C1313425   2.532   2.687   6.314 -0.9588 -0.9983 -0.3101
  126OSM   H13A13426   2.571   2.596   6.271  1.5826 -0.5652  0.9315
  126OSM   H13B13427   2.529   2.761   6.235  3.7510  1.3263  1.2913
  126OSM   H13C13428   2.434   2.681   6.360 -1.8146 -1.6766 -2.1210
  126OSM    C1213429   2.763   2.752   6.374  0.0569  0.6919 -0.0037
  126OSM   H12A13430   2.811   2.815   6.447 -6.1973  3.6750  2.2849
  126OSM   H12B13431   2.762   2.819   6.289 -1.2600 -0.3402 -0.8471
  126OSM    C1113432   2.851   2.618   6.351  0.0278  0.4042 -0.5015
  126OSM   H11A13433   2.949   2.639   6.303 -0.1017  0.3499 -0.7860
  126OSM   H11B13434   2.790   2.560   6.279  3.0436 -3.0576 -0.5432
  126OSM      P13435   2.986   2.624   6.571 -0.1433 -0.3800  0.1413
  126OSM    O1313436   3.114   2.628   6.495 -0.0916  0.2891 -0.0009
  126OSM    O1413437   2.934   2.757   6.605  0.0868 -0.0348 -0.0476
  126OSM    O1113438   3.001   2.529   6.696 -0.3126  0.1416 -0.0994
  126OSM    O1213439   2.880   2.547   6.474  0.0648 -0.2873 -1.1760
  126OSM    C1S13440   2.886   2.493   6.776 -0.2810 -0.0239  0.7758
  126OSM    H1S13441   2.829   2.412   6.725  1.6961 -0.7114 -0.4422
  126OSM    H1T13442   2.820   2.580   6.798  0.4566  0.1381  2.5363
  126OSM     NF13443   2.830   2.356   6.967  0.0173  0.0597 -0.2484
  126OSM    HNF13444   2.779   2.401   7.040  1.4454 -0.9497  1.4814
  126OSM    C2S13445   2.939   2.429   6.912 -0.0885 -0.3265  0.6618
  126OSM    H2S13446   3.019   2.366   6.868  0.2759  0.0965  0.7127
  126OSM    C3S13447   2.997   2.540   7.004 -0.2292  0.1626 -0.2901
  126OSM    H3S13448   2.914   2.609   7.032 -0.0515  0.4875 -0.5521
  126OSM     O313449   3.091   2.622   6.944  0.0137 -0.6794  0.3470
  126OSM    HO313450   3.067   2.607   6.852 -2.4293  0.5480  0.7193
  126OSM    C4S13451   3.063   2.486   7.126  1.1035 -0.4634 -0.3462
  126OSM    H4S13452   3.158   2.433   7.110  1.4952 -0.7312  2.3906
  126OSM    C5S13453   3.015   2.489   7.255 -0.4313  0.2146 -0.9530
  126OSM    H5S13454   2.920   2.539   7.280  0.0597  0.3426  0.7830
  126OSM    C6S13455   3.092   2.439   7.379  0.0370 -0.4014  0.0714
  126OSM    H6S13456   3.201   2.462   7.370 -0.0994  1.8204  2.7898
  126OSM    H6T13457   3.084   2.329   7.393 -0.2409 -0.2338  1.2803
  126OSM    C7S13458   3.042   2.500   7.512 -0.1288 -0.6138  0.2329
  126OSM    H7S13459   2.934   2.474   7.512  0.4747 -3.4255  0.7589
  126OSM    H7T13460   3.059   2.610   7.515 -0.5967 -0.4222 -1.9771
  126OSM    C8S13461   3.120   2.437   7.628 -0.0801  0.0626 -1.1199
  126OSM    H8S13462   3.220   2.486   7.626  0.2226 -0.4273  0.3382
  126OSM    H8T13463   3.128   2.327   7.617 -0.7485  0.0043 -1.0819
  126OSM    C9S13464   3.046   2.463   7.764 -0.0457 -0.2330 -0.2977
  126OSM    H9S13465   2.940   2.435   7.749 -0.0837  0.6468 -1.9599
  126OSM    H9T13466   3.042   2.573   7.780  0.9978 -0.3223  0.7021
  126OSM   C10S13467   3.114   2.395   7.884  0.7754 -0.0385 -0.1037
  126OSM   H10S13468   3.224   2.411   7.882  0.4195  2.9321 -0.1828
  126OSM   H10T13469   3.110   2.286   7.863  0.2499 -0.4705  2.0351
  126OSM   C11S13470   3.034   2.408   8.013  0.2368 -0.0310 -0.2721
  126OSM   H11S13471   2.930   2.370   8.017 -0.4022  1.5222 -1.1633
  126OSM   H11T13472   3.021   2.517   8.030 -0.9573 -0.5307  2.7281
  126OSM   C12S13473   3.114   2.366   8.147 -0.0107 -0.4397  0.8499
  126OSM   H12S13474   3.138   2.257   8.141  0.6137 -0.2542 -0.2636
  126OSM   H12T13475   3.053   2.393   8.236 -0.5836  3.1536 -0.4624
  126OSM   C13S13476   3.250   2.441   8.164  1.4245  0.1385 -0.6678
  126OSM   H13S13477   3.241   2.532   8.101  0.5809 -0.1964 -1.0357
  126OSM   H13T13478   3.320   2.374   8.109 -1.1889 -2.1997 -1.3536
  126OSM   C14S13479   3.278   2.457   8.309  0.0400 -0.7195  0.0833
  126OSM   H14S13480   3.282   2.355   8.353  2.5560 -0.7075 -0.0080
  126OSM   H14T13481   3.203   2.514   8.367  0.5726 -1.7632  1.8676
  126OSM   C15S13482   3.413   2.529   8.328 -0.0979  0.0094  0.2370
  126OSM   H15S13483   3.418   2.559   8.435  1.2514 -2.2770  0.8893
  126OSM   H15T13484   3.414   2.617   8.260 -1.7191  1.8120  2.3894
  126OSM   C16S13485   3.544   2.449   8.307  0.2087  0.4362  0.9635
  126OSM   H16S13486   3.627   2.522   8.311  0.7584  0.0297 -1.6528
  126OSM   H16T13487   3.539   2.405   8.205 -1.0197  0.9851  0.7732
  126OSM   C17S13488   3.560   2.335   8.408  0.2398  0.0028  0.4433
  126OSM   H17S13489   3.481   2.263   8.378  0.8781 -0.9836  1.0658
  126OSM   H17T13490   3.548   2.375   8.511  1.2383 -1.5654  1.1908
  126OSM   C18S13491   3.697   2.275   8.399  0.6833  0.1486  0.1776
  126OSM   H18S13492   3.748   2.252   8.495  0.8379 -1.2220 -0.2139
  126OSM   H18T13493   3.763   2.340   8.337 -0.3211  1.2722  0.2408
  126OSM   H18U13494   3.691   2.177   8.347 -1.2756  0.6219 -0.5720
  126OSM    C1F13495   2.793   2.235   6.919 -0.7850  0.3214 -0.2074
  126OSM     OF13496   2.879   2.165   6.863 -0.3753  0.2148 -0.3016
  126OSM    C2F13497   2.650   2.201   6.929 -0.2184  0.0298  0.7682
  126OSM    H2F13498   2.615   2.141   6.842  1.0280  1.1284 -0.5484
  126OSM    H2G13499   2.589   2.294   6.938  1.5942  1.4150 -0.4634
  126OSM    C3F13500   2.633   2.111   7.053 -1.0537 -0.8112 -0.9087
  126OSM    H3F13501   2.666   2.006   7.035 -0.5450 -0.3372 -3.0045
  126OSM    H3G13502   2.526   2.105   7.080 -0.8808  0.1263  0.0288
  126OSM    C4F13503   2.701   2.167   7.182  0.1380 -0.0087 -0.4204
  126OSM    H4F13504   2.686   2.276   7.193 -1.4033 -0.3127  0.7696
  126OSM    H4G13505   2.812   2.157   7.179  0.1113 -1.0040  0.9692
  126OSM    C5F13506   2.651   2.079   7.303  0.1909  0.2799 -0.1570
  126OSM    H5F13507   2.689   1.976   7.285  0.6181  0.1986  1.1050
  126OSM    H5G13508   2.541   2.091   7.309  0.0978 -1.0070  1.3047
  126OSM    C6F13509   2.714   2.123   7.439  0.0803 -0.2788  0.3847
  126OSM    H6F13510   2.818   2.152   7.416 -0.3737  2.3555  1.2823
  126OSM    H6G13511   2.704   2.041   7.513 -2.1530 -0.6177 -0.2101
  126OSM    C7F13512   2.651   2.251   7.490  0.2195  0.4262 -0.4070
  126OSM    H7F13513   2.540   2.243   7.493  0.1864  0.9948  2.3287
  126OSM    H7G13514   2.684   2.331   7.420  1.4652 -1.6349 -2.2785
  126OSM    C8F13515   2.687   2.270   7.632 -0.6438 -0.0212  0.5648
  126OSM    H8F13516   2.791   2.239   7.658 -0.1912  0.3154 -0.7421
  126OSM    H8G13517   2.623   2.209   7.700 -0.7994 -2.3668 -1.5299
  126OSM    C9F13518   2.678   2.419   7.673  0.6963 -0.2655  0.2169
  126OSM    H9F13519   2.701   2.499   7.600 -2.5385  0.0414 -0.6306
  126OSM   C10F13520   2.623   2.464   7.788  0.1595  0.1179 -0.0790
  126OSM   H10F13521   2.642   2.571   7.802 -3.7301  0.8949  0.4592
  126OSM   C11F13522   2.562   2.384   7.898 -0.0377  0.2813  0.1765
  126OSM   H11F13523   2.574   2.274   7.888  0.8577  0.4202 -0.3860
  126OSM   H11G13524   2.459   2.425   7.890 -1.2447 -2.6605 -0.5277
  126OSM   C12F13525   2.615   2.415   8.039 -0.7795  0.4181  0.3622
  126OSM   H12F13526   2.724   2.401   8.053 -0.5459  2.5005  0.9508
  126OSM   H12G13527   2.557   2.348   8.107 -1.2428  1.7347  1.3050
  126OSM   C13F13528   2.578   2.563   8.078 -0.2077  0.1699 -0.1976
  126OSM   H13F13529   2.469   2.583   8.071 -0.4734 -0.8531  0.7292
  126OSM   H13G13530   2.627   2.630   8.004  0.0035 -2.9735 -3.1318
  126OSM   C14F13531   2.619   2.612   8.216 -0.6049 -1.0738  0.0684
  126OSM   H14F13532   2.728   2.598   8.234 -0.5149 -0.1798  0.2638
  126OSM   H14G13533   2.572   2.555   8.299  2.2400 -1.8781  1.2601
  126OSM   C15F13534   2.575   2.758   8.239 -0.4535  0.0755 -0.1217
  126OSM   H15F13535   2.470   2.781   8.214  0.3378  0.6878 -3.3722
  126OSM   H15G13536   2.635   2.810   8.161 -1.4397 -2.1104 -2.4820
  126OSM   C16F13537   2.597   2.798   8.385  0.1136  0.1847  0.6313
  126OSM   H16F13538   2.701   2.762   8.400  0.0440  0.6251  2.4192
  126OSM   H16G13539   2.533   2.744   8.458 -0.0943 -1.6721 -0.8585
  126OSM   C17F13540   2.587   2.950   8.404  0.5294 -0.8317 -0.2757
  126OSM   H17F13541   2.484   2.976   8.436  0.8387  0.7247 -0.4572
  126OSM   H17G13542   2.602   3.007   8.310 -4.2415 -1.0743 -1.4379
  126OSM   C18F13543   2.679   3.009   8.522  0.1388  0.1841  0.1239
  126OSM   H18F13544   2.649   2.981   8.625 -0.0801  0.9092  0.2628
  126OSM   H18G13545   2.673   3.119   8.509 -0.5216  0.1054 -0.3121
  126OSM   H18H13546   2.784   2.982   8.498 -0.4454 -0.6287 -1.7368
  127OSM      N13547   3.249   1.715   6.752  0.1731  0.7227  0.6320
  127OSM    C1513548   3.241   1.576   6.809  0.2156 -0.6210  0.0404
  127OSM   H15A13549   3.136   1.552   6.815 -0.1393  0.1079 -2.3344
  127OSM   H15B13550   3.274   1.576   6.912 -1.1314  1.8561  0.5487
  127OSM   H15C13551   3.293   1.497   6.757  1.4380  1.3323 -1.8518
  127OSM    C1413552   3.149   1.802   6.819 -0.5855  0.6891 -0.3017
  127OSM   H14A13553   3.170   1.800   6.925 -0.3227  2.5204 -0.2895
  127OSM   H14B13554   3.053   1.761   6.791 -1.4805  3.2583 -1.2728
  127OSM   H14C13555   3.161   1.899   6.774  1.8045  0.7398  0.3024
  127OSM    C1313556   3.386   1.771   6.782  0.1917  0.3470  0.1837
  127OSM   H13A13557   3.460   1.703   6.744  0.3124  0.6278 -0.0890
  127OSM   H13B13558   3.398   1.770   6.889 -1.6721 -0.8433  0.4266
  127OSM   H13C13559   3.406   1.871   6.746 -1.2995  0.1622 -1.2918
  127OSM    C1213560   3.229   1.715   6.601 -0.4252 -0.3194  0.8155
  127OSM   H12A13561   3.235   1.819   6.572  1.1213 -0.0119  2.0694
  127OSM   H12B13562   3.130   1.681   6.575 -0.0444 -1.4817  0.8202
  127OSM    C1113563   3.324   1.631   6.508  0.1895  0.4315  0.0056
  127OSM   H11A13564   3.427   1.664   6.535  0.7581 -0.4698 -0.9604
  127OSM   H11B13565   3.295   1.666   6.406  1.0150  0.9676 -0.0522
  127OSM      P13566   3.389   1.391   6.428 -0.2962 -0.0350  0.1515
  127OSM    O1313567   3.298   1.341   6.315  0.3629 -0.0047  0.4416
  127OSM    O1413568   3.512   1.467   6.392 -0.3239  0.4643  0.1918
  127OSM    O1113569   3.418   1.282   6.531 -0.2049 -0.0766  0.2158
  127OSM    O1213570   3.300   1.489   6.513  0.0343  0.1264  0.1587
  127OSM    C1S13571   3.415   1.293   6.676  0.4100  0.1706 -0.2219
  127OSM    H1S13572   3.311   1.303   6.712  0.3094 -1.6177  0.0770
  127OSM    H1T13573   3.465   1.387   6.707  0.2952 -0.0792  0.7572
  127OSM     NF13574   3.461   1.211   6.890  0.6667  0.7968  0.2539
  127OSM    HNF13575   3.543   1.247   6.933  0.3289  2.0729 -0.1262
  127OSM    C2S13576   3.468   1.168   6.753  0.3106  0.5242 -0.3765
  127OSM    H2S13577   3.404   1.078   6.743  2.3402 -1.0374  0.0626
  127OSM    C3S13578   3.607   1.135   6.701  0.6835 -0.6797  0.0554
  127OSM    H3S13579   3.657   1.231   6.726 -0.6303 -0.9552  4.5387
  127OSM     O313580   3.626   1.118   6.561 -0.1379 -0.5197 -0.0605
  127OSM    HO313581   3.547   1.158   6.524 -3.0144 -0.2895  5.2958
  127OSM    C4S13582   3.671   1.035   6.787  0.4567  0.4033  0.0044
  127OSM    H4S13583   3.725   1.069   6.877  1.9115 -0.7608 -0.3961
  127OSM    C5S13584   3.661   0.903   6.761 -0.5088  0.1966 -0.1008
  127OSM    H5S13585   3.613   0.867   6.669 -0.8334 -1.6219  0.7433
  127OSM    C6S13586   3.719   0.786   6.845 -0.6291 -0.5400 -0.0014
  127OSM    H6S13587   3.805   0.746   6.787 -1.5974 -2.9068  0.0914
  127OSM    H6T13588   3.642   0.707   6.861 -3.1232  1.6337 -0.6192
  127OSM    C7S13589   3.767   0.835   6.980  0.7346  0.0632 -1.2276
  127OSM    H7S13590   3.829   0.927   6.980 -0.7051  1.0767 -1.9617
  127OSM    H7T13591   3.837   0.760   7.020  0.0595  0.1368  0.1723
  127OSM    C8S13592   3.657   0.854   7.089 -0.1511 -0.1705  0.7092
  127OSM    H8S13593   3.598   0.761   7.100  1.1953 -0.8405  2.7473
  127OSM    H8T13594   3.596   0.941   7.056  2.3682  1.1546 -0.8030
  127OSM    C9S13595   3.722   0.891   7.220  0.1529  0.6820 -0.2084
  127OSM    H9S13596   3.739   1.000   7.227  1.0592  0.5248  0.0841
  127OSM    H9T13597   3.823   0.846   7.228  0.1410  0.5518 -0.7298
  127OSM   C10S13598   3.645   0.855   7.343 -0.7249 -0.4730 -0.1960
  127OSM   H10S13599   3.635   0.745   7.347 -0.6292 -0.4719  3.5376
  127OSM   H10T13600   3.539   0.887   7.327 -0.7820 -0.4856  0.1513
  127OSM   C11S13601   3.695   0.905   7.485  0.0219 -0.6162  0.3532
  127OSM   H11S13602   3.716   1.015   7.482  0.6809 -0.7620 -1.1024
  127OSM   H11T13603   3.795   0.863   7.507  0.5678  1.3208  1.8698
  127OSM   C12S13604   3.600   0.851   7.588 -0.3544  0.0563 -0.7814
  127OSM   H12S13605   3.628   0.744   7.604 -1.1548  0.0891  1.1247
  127OSM   H12T13606   3.492   0.851   7.561 -1.4431 -1.5918  2.8740
  127OSM   C13S13607   3.616   0.927   7.721 -0.2503  0.9073 -0.2861
  127OSM   H13S13608   3.642   1.033   7.703 -1.0233  1.5737  2.1884
  127OSM   H13T13609   3.707   0.885   7.769 -0.9744 -0.7381 -0.2725
  127OSM   C14S13610   3.492   0.901   7.812 -0.4180 -0.4318  0.1629
  127OSM   H14S13611   3.482   0.792   7.832  0.2815 -0.5759 -0.2467
  127OSM   H14T13612   3.402   0.938   7.759  0.9699  0.8865 -1.3726
  127OSM   C15S13613   3.509   0.963   7.952 -0.2031  0.3684  0.2362
  127OSM   H15S13614   3.531   1.072   7.946 -1.2111  0.7931  3.1427
  127OSM   H15T13615   3.604   0.922   7.992 -0.8457 -1.1608  0.2285
  127OSM   C16S13616   3.398   0.936   8.055  0.5464 -0.2748 -0.6453
  127OSM   H16S13617   3.297   0.944   8.008  0.5327 -1.2424 -0.8161
  127OSM   H16T13618   3.410   1.017   8.129  0.0231 -1.4445  0.7890
  127OSM   C17S13619   3.405   0.791   8.115 -0.6284  0.3715  0.2013
  127OSM   H17S13620   3.502   0.746   8.145 -1.1936 -1.6981 -0.8716
  127OSM   H17T13621   3.373   0.728   8.029  0.9899  1.1210 -0.9886
  127OSM   C18S13622   3.308   0.768   8.228 -0.0119 -0.0080  0.0550
  127OSM   H18S13623   3.207   0.806   8.204 -0.9981 -0.9939  2.3759
  127OSM   H18T13624   3.340   0.818   8.322 -2.2529  0.2649  0.7290
  127OSM   H18U13625   3.295   0.661   8.253  2.2143 -1.0566 -2.7687
  127OSM    C1F13626   3.345   1.199   6.962 -0.4801 -0.6021  0.5106
  127OSM     OF13627   3.238   1.167   6.905 -0.3248 -0.7406 -0.4759
  127OSM    C2F13628   3.357   1.239   7.104 -0.1194 -0.0079  0.0308
  127OSM    H2F13629   3.292   1.329   7.109 -2.0182 -1.3641  1.5820
  127OSM    H2G13630   3.461   1.269   7.126  0.4361 -1.6614 -0.1986
  127OSM    C3F13631   3.316   1.130   7.195  0.8167 -0.2546 -0.8238
  127OSM    H3F13632   3.383   1.043   7.181  0.8886 -0.3467  0.0569
  127OSM    H3G13633   3.216   1.105   7.153  1.1344  1.0682 -2.4641
  127OSM    C4F13634   3.313   1.174   7.341  0.0501  0.0752 -0.1384
  127OSM    H4F13635   3.293   1.086   7.407 -1.5692 -0.0936 -0.8145
  127OSM    H4G13636   3.234   1.249   7.365 -0.6274 -0.8660  0.6488
  127OSM    C5F13637   3.449   1.218   7.401 -0.1659 -0.2759 -0.2658
  127OSM    H5F13638   3.468   1.318   7.357 -1.4310 -0.9885 -2.5842
  127OSM    H5G13639   3.523   1.146   7.359 -0.2092 -1.1181  1.0281
  127OSM    C6F13640   3.454   1.219   7.552 -0.1669  0.3055 -0.3701
  127OSM    H6F13641   3.551   1.251   7.594  0.1908  1.6856 -2.1312
  127OSM    H6G13642   3.449   1.112   7.582  2.7303  0.1309 -0.2253
  127OSM    C7F13643   3.348   1.300   7.624  0.7749 -0.7436  1.0949
  127OSM    H7F13644   3.257   1.280   7.563  1.0869 -0.1462  0.4010
  127OSM    H7G13645   3.362   1.410   7.612 -1.0554 -0.7656 -3.1829
  127OSM    C8F13646   3.327   1.256   7.767  0.8221  0.1239 -0.1257
  127OSM    H8F13647   3.350   1.149   7.781 -1.2660 -0.2971  0.2891
  127OSM    H8G13648   3.222   1.267   7.799  0.6759 -1.4497  0.0018
  127OSM    C9F13649   3.421   1.327   7.862 -0.2174 -0.5294 -0.7782
  127OSM    H9F13650   3.525   1.296   7.874  0.1810  1.6437  3.5280
  127OSM   C10F13651   3.384   1.412   7.962  0.4778 -0.0505  0.0835
  127OSM   H10F13652   3.461   1.457   8.026  1.7042 -1.6040 -0.2118
  127OSM   C11F13653   3.242   1.440   8.001  0.2914 -0.6120 -0.0963
  127OSM   H11F13654   3.203   1.353   8.058  0.9433 -0.4377  0.6397
  127OSM   H11G13655   3.184   1.464   7.910 -1.9677  2.3027  1.9006
  127OSM   C12F13656   3.238   1.565   8.102 -0.4379 -0.5135 -0.2091
  127OSM   H12F13657   3.283   1.660   8.067 -0.5441  0.1745  1.4286
  127OSM   H12G13658   3.305   1.542   8.188 -3.2546 -0.7217  2.1080
  127OSM   C13F13659   3.102   1.582   8.159 -0.1511  0.2558 -0.2156
  127OSM   H13F13660   3.031   1.614   8.079 -0.4415  0.8023  0.2447
  127OSM   H13G13661   3.112   1.667   8.230 -0.4731  0.4319 -0.3717
  127OSM   C14F13662   3.048   1.458   8.237  0.2573 -0.7307 -0.4521
  127OSM   H14F13663   3.132   1.414   8.295 -0.9279 -0.5454  1.4774
  127OSM   H14G13664   3.015   1.380   8.165 -0.7337  0.1251 -0.9571
  127OSM   C15F13665   2.935   1.491   8.333 -0.4147 -0.3964  0.0427
  127OSM   H15F13666   2.884   1.587   8.310  0.6565  0.2898  0.4781
  127OSM   H15G13667   2.988   1.518   8.427  1.5090 -1.9636 -0.5228
  127OSM   C16F13668   2.842   1.374   8.366  0.1900  0.4861  0.2621
  127OSM   H16F13669   2.907   1.284   8.377 -1.6493 -1.1278 -1.2539
  127OSM   H16G13670   2.774   1.348   8.282  1.1662 -2.2355  0.1934
  127OSM   C17F13671   2.751   1.384   8.490 -0.1715 -0.2269  0.1329
  127OSM   H17F13672   2.693   1.479   8.489 -1.6610 -1.0167  2.5732
  127OSM   H17G13673   2.818   1.392   8.579  1.2727  0.4218 -0.9767
  127OSM   C18F13674   2.650   1.270   8.505 -0.4184  0.0677  0.2479
  127OSM   H18F13675   2.574   1.262   8.424 -0.4496  1.4138  0.1149
  127OSM   H18G13676   2.591   1.300   8.595 -0.9090  0.9366 -0.3501
  127OSM   H18H13677   2.712   1.179   8.518 -0.9985 -0.2817  0.6160
  128OSM      N13678   4.164   3.961   6.286  0.3461  0.2963  0.3001
  128OSM    C1513679   4.101   3.820   6.303  0.1721 -0.9178 -0.1443
  128OSM   H15A13680   4.033   3.799   6.222  0.9249 -1.3760 -0.6650
  128OSM   H15B13681   4.042   3.819   6.394 -1.3329  0.8142 -1.0359
  128OSM   H15C13682   4.174   3.740   6.302 -1.0175 -2.0546  0.8790
  128OSM    C1413683   4.267   3.962   6.181  0.8397 -0.3560 -0.5607
  128OSM   H14A13684   4.311   4.060   6.187  0.3827 -0.2047  0.4531
  128OSM   H14B13685   4.219   3.933   6.089  0.6533  0.6798 -0.8012
  128OSM   H14C13686   4.356   3.907   6.210  1.6038  1.3969  0.5429
  128OSM    C1313687   4.048   4.047   6.238  0.1662  0.3706 -0.0128
  128OSM   H13A13688   4.073   4.140   6.190  0.9184 -0.6154 -1.6093
  128OSM   H13B13689   3.975   4.052   6.318 -0.5879 -2.3926 -0.4168
  128OSM   H13C13690   3.994   3.985   6.168  1.1393  1.0728 -1.4356
  128OSM    C1213691   4.211   4.005   6.420 -0.1525 -0.5065  0.4288
  128OSM   H12A13692   4.292   3.939   6.445  0.8764 -0.0168 -1.4257
  128OSM   H12B13693   4.134   3.982   6.493 -0.1813  1.6337  1.1618
  128OSM    C1113694   4.257   4.155   6.442 -0.4949 -0.1293  0.7645
  128OSM   H11A13695   4.273   4.172   6.551  1.2934 -0.4146  0.5823
  128OSM   H11B13696   4.172   4.221   6.412  0.9879  0.4467 -2.6644
  128OSM      P13697   4.388   4.323   6.292  0.0916 -0.0742  0.2669
  128OSM    O1313698   4.502   4.317   6.193  0.4975  0.4095 -0.3621
  128OSM    O1413699   4.263   4.362   6.226 -0.5479  0.1673  0.1582
  128OSM    O1113700   4.425   4.439   6.393 -0.6203  0.0046 -0.0711
  128OSM    O1213701   4.378   4.188   6.371  0.3978 -0.2347  0.0432
  128OSM    C1S13702   4.539   4.412   6.468  0.0413  0.5100 -0.1206
  128OSM    H1S13703   4.628   4.425   6.404  0.9663  1.7315  1.3276
  128OSM    H1T13704   4.542   4.315   6.522  0.2956 -0.0955 -1.2160
  128OSM     NF13705   4.687   4.516   6.639 -0.4362  0.1348  0.1997
  128OSM    HNF13706   4.712   4.463   6.720  0.3673  0.5803  0.2569
  128OSM    C2S13707   4.551   4.515   6.588 -0.2069  0.3198 -0.5183
  128OSM    H2S13708   4.530   4.619   6.556  0.7622  0.7535  0.2257
  128OSM    C3S13709   4.440   4.468   6.699  0.4786  0.3834  0.8811
  128OSM    H3S13710   4.457   4.365   6.737  0.2276  1.0172  2.8375
  128OSM     O313711   4.315   4.460   6.638 -0.0121  0.2066 -0.3384
  128OSM    HO313712   4.331   4.463   6.544 -1.7733 -0.3126 -0.6880
  128OSM    C4S13713   4.449   4.562   6.814  0.7745 -0.1172  0.1496
  128OSM    H4S13714   4.390   4.655   6.809  0.4882 -0.1819  1.8308
  128OSM    C5S13715   4.520   4.544   6.926  0.1110  0.6263 -0.5161
  128OSM    H5S13716   4.585   4.457   6.938 -1.7885 -0.8570 -0.5238
  128OSM    C6S13717   4.515   4.645   7.036  0.0498  0.0900  0.9154
  128OSM    H6S13718   4.418   4.699   7.040 -0.5228 -0.9130  1.2069
  128OSM    H6T13719   4.587   4.727   7.020  0.7090 -0.8438 -1.2430
  128OSM    C7S13720   4.528   4.586   7.172 -0.2085  0.5240  0.7080
  128OSM    H7S13721   4.625   4.533   7.180 -0.7326 -0.9775 -1.6932
  128OSM    H7T13722   4.443   4.517   7.190 -0.9093  1.7918  2.5408
  128OSM    C8S13723   4.508   4.679   7.292  0.0992 -0.4060 -0.2862
  128OSM    H8S13724   4.411   4.732   7.277 -0.2360 -1.4120 -2.0146
  128OSM    H8T13725   4.582   4.761   7.281 -0.4829 -0.1681 -3.4163
  128OSM    C9S13726   4.521   4.611   7.422 -1.1255 -0.0371  0.3321
  128OSM    H9S13727   4.616   4.553   7.424  0.4327  2.2752 -1.3696
  128OSM    H9T13728   4.436   4.540   7.432 -2.3319  1.0723 -1.4881
  128OSM   C10S13729   4.527   4.718   7.532 -0.9526  0.1346 -0.0142
  128OSM   H10S13730   4.447   4.795   7.518  0.7303  2.2531  1.3755
  128OSM   H10T13731   4.618   4.777   7.509  0.2487 -1.8285 -0.5034
  128OSM   C11S13732   4.505   4.658   7.672  0.0427  0.1039 -0.2045
  128OSM   H11S13733   4.567   4.568   7.695  1.0041  0.2739 -1.9641
  128OSM   H11T13734   4.396   4.639   7.670  0.1422 -0.5299  0.0722
  128OSM   C12S13735   4.537   4.767   7.779  0.1017 -0.7476  0.5296
  128OSM   H12S13736   4.472   4.853   7.755  1.4545  1.1740  3.2504
  128OSM   H12T13737   4.641   4.804   7.775 -0.3507  0.4886 -0.2532
  128OSM   C13S13738   4.528   4.715   7.926  0.0005 -0.0180  0.8209
  128OSM   H13S13739   4.613   4.646   7.945 -0.2204 -0.4716  0.2094
  128OSM   H13T13740   4.431   4.660   7.926 -0.7468  1.2393  0.2309
  128OSM   C14S13741   4.537   4.836   8.022  0.4325  0.2716  0.2074
  128OSM   H14S13742   4.438   4.884   8.007  1.1983  1.2790 -2.1616
  128OSM   H14T13743   4.616   4.906   7.987  0.4962 -0.1413 -0.4931
  128OSM   C15S13744   4.566   4.802   8.169  0.9664 -1.0951 -0.4375
  128OSM   H15S13745   4.554   4.896   8.226 -1.6149 -1.2333 -0.6403
  128OSM   H15T13746   4.675   4.783   8.172  0.7336 -2.7055 -0.8529
  128OSM   C16S13747   4.486   4.682   8.215  0.5733  0.9420  0.3036
  128OSM   H16S13748   4.497   4.597   8.145  2.5263 -0.0680  1.7400
  128OSM   H16T13749   4.378   4.706   8.222  0.5155  0.5784  0.7110
  128OSM   C17S13750   4.511   4.637   8.361 -0.0646  0.2586  0.1032
  128OSM   H17S13751   4.509   4.728   8.425  0.3840 -0.0898  0.6175
  128OSM   H17T13752   4.616   4.601   8.362 -0.3051 -0.4460  0.3419
  128OSM   C18S13753   4.416   4.544   8.429  1.1138  0.4850 -0.2897
  128OSM   H18S13754   4.433   4.538   8.539 -0.9674 -0.5023  0.0244
  128OSM   H18T13755   4.427   4.444   8.383 -0.0389  1.1594 -2.1515
  128OSM   H18U13756   4.311   4.570   8.403  1.3438 -0.3646 -2.1818
  128OSM    C1F13757   4.784   4.568   6.566 -0.9316 -0.4848 -0.1917
  128OSM     OF13758   4.760   4.635   6.459 -0.1525 -0.3589 -0.4423
  128OSM    C2F13759   4.927   4.529   6.601  0.4650 -0.6251 -0.5445
  128OSM    H2F13760   4.986   4.495   6.513 -0.3117 -1.4947 -0.7488
  128OSM    H2G13761   4.913   4.453   6.681 -1.8204  1.7038  1.4694
  128OSM    C3F13762   5.011   4.646   6.663 -0.5194  0.3803  0.0297
  128OSM    H3F13763   5.001   4.735   6.597 -1.9449  0.9826  1.0115
  128OSM    H3G13764   5.117   4.614   6.667 -1.3220 -2.4012  1.8632
  128OSM    C4F13765   4.976   4.688   6.808 -0.2498  0.2230 -0.5048
  128OSM    H4F13766   4.951   4.601   6.872  0.0669 -0.1550 -0.8972
  128OSM    H4G13767   4.884   4.749   6.794 -0.0454  0.9690  1.0900
  128OSM    C5F13768   5.079   4.791   6.874 -0.9769 -0.3188 -0.1627
  128OSM    H5F13769   5.076   4.864   6.790 -0.0534 -2.9384 -2.6488
  128OSM    H5G13770   5.171   4.734   6.896  0.3758  2.1462  0.9402
  128OSM    C6F13771   5.018   4.860   7.002 -0.2383 -0.8273  0.2734
  128OSM    H6F13772   4.921   4.909   6.980  0.0906 -0.9045 -1.5003
  128OSM    H6G13773   5.087   4.944   7.023 -1.4643  0.5732 -1.0811
  128OSM    C7F13774   5.000   4.769   7.122  0.4314  0.0989  0.7970
  128OSM    H7F13775   5.097   4.725   7.153  1.1499  0.8415 -0.3151
  128OSM    H7G13776   4.935   4.687   7.085  1.9923 -0.0271 -1.8772
  128OSM    C8F13777   4.933   4.846   7.240  0.5502  0.3582  0.4298
  128OSM    H8F13778   4.848   4.905   7.198 -1.0494 -1.4328  1.0404
  128OSM    H8G13779   5.007   4.924   7.267  2.4040 -1.0397 -0.4127
  128OSM    C9F13780   4.894   4.759   7.351 -0.5185 -0.1927  0.0592
  128OSM    H9F13781   4.822   4.681   7.321  1.0500 -1.2764 -1.0808
  128OSM   C10F13782   4.943   4.751   7.474 -1.2197 -0.5379 -0.0503
  128OSM   H10F13783   4.902   4.676   7.544  0.6481 -1.9330 -0.3824
  128OSM   C11F13784   5.050   4.832   7.534 -0.5378  1.1988  0.2961
  128OSM   H11F13785   5.042   4.943   7.531 -0.7409  1.1591 -0.9607
  128OSM   H11G13786   5.153   4.815   7.497  0.1138  1.1426  2.0349
  128OSM   C12F13787   5.075   4.793   7.686  0.4264 -0.0871  0.2113
  128OSM   H12F13788   5.182   4.804   7.713  0.5339 -0.0580 -0.2154
  128OSM   H12G13789   5.055   4.684   7.695 -0.8812 -0.0500 -1.6392
  128OSM   C13F13790   4.993   4.884   7.774  0.1690 -0.3718  0.6458
  128OSM   H13F13791   4.897   4.882   7.719 -1.0545  0.5705  2.6256
  128OSM   H13G13792   5.034   4.986   7.770  0.0517 -0.3715 -0.9666
  128OSM   C14F13793   4.964   4.829   7.910  0.6272  0.3196 -0.4995
  128OSM   H14F13794   4.916   4.729   7.909  1.2316  0.0273 -1.1900
  128OSM   H14G13795   4.905   4.906   7.964  1.0239 -1.4547  2.7121
  128OSM   C15F13796   5.087   4.807   8.002  0.5129  0.0353  0.7340
  128OSM   H15F13797   5.133   4.906   8.023 -1.3015  0.7933  1.4140
  128OSM   H15G13798   5.152   4.742   7.941 -2.3932  0.0502 -2.6936
  128OSM   C16F13799   5.066   4.748   8.147  0.7087 -0.0945  0.3305
  128OSM   H16F13800   5.166   4.729   8.193  0.0905 -0.7081  1.4726
  128OSM   H16G13801   5.002   4.659   8.132 -0.7736  1.2296 -1.7069
  128OSM   C17F13802   4.984   4.834   8.242  0.1166  0.0581  0.6362
  128OSM   H17F13803   4.889   4.850   8.186  1.1892  0.7833 -1.0524
  128OSM   H17G13804   5.040   4.930   8.247  2.5822 -1.1374 -1.6804
  128OSM   C18F13805   4.949   4.781   8.381 -0.1020 -0.0529 -0.2755
  128OSM   H18F13806   5.039   4.744   8.435  0.3819  0.2728 -0.8346
  128OSM   H18G13807   4.880   4.695   8.375  0.0060 -0.1493 -0.1585
  128OSM   H18H13808   4.902   4.864   8.437 -0.3200 -0.3484 -0.0197
  129OSM      N13809   2.942   0.359   6.244  0.1000 -0.0434  0.0305
  129OSM    C1513810   2.810   0.295   6.243 -0.0004 -0.7145 -0.3654
  129OSM   H15A13811   2.782   0.281   6.139  0.7964 -2.6918 -0.3629
  129OSM   H15B13812   2.730   0.356   6.281 -0.2036 -0.5026 -1.1092
  129OSM   H15C13813   2.801   0.196   6.286 -2.1069  0.0336  1.0659
  129OSM    C1413814   2.926   0.501   6.195 -0.0907  0.9487  0.1080
  129OSM   H14A13815   2.893   0.495   6.092  0.0200  0.9101  0.0750
  129OSM   H14B13816   3.020   0.552   6.201  0.4921 -0.2283  1.5705
  129OSM   H14C13817   2.862   0.562   6.258 -0.1418  1.6613 -0.6176
  129OSM    C1313818   2.988   0.358   6.387 -0.0916  0.4214  0.1579
  129OSM   H13A13819   3.080   0.415   6.395 -0.1297  0.5604 -0.3267
  129OSM   H13B13820   3.008   0.259   6.424  1.8377  0.3545 -0.9156
  129OSM   H13C13821   2.923   0.410   6.455 -0.2253  2.3436 -1.3402
  129OSM    C1213822   3.042   0.274   6.158 -0.6064 -0.0387  0.3411
  129OSM   H12A13823   3.015   0.284   6.054  2.3369 -1.7731 -0.7147
  129OSM   H12B13824   3.036   0.174   6.198  1.0927  0.6507  2.5666
  129OSM    C1113825   3.191   0.301   6.155  0.0003  0.5538 -0.0107
  129OSM   H11A13826   3.235   0.392   6.107  1.4723 -1.2448 -2.3011
  129OSM   H11B13827   3.229   0.226   6.083  4.4194  1.7489  0.7647
  129OSM      P13828   3.401   0.327   6.310 -0.4146 -0.0029 -0.4146
  129OSM    O1313829   3.491   0.239   6.231 -0.0533  0.5758 -0.1531
  129OSM    O1413830   3.413   0.474   6.291 -0.2529  0.3501 -0.1192
  129OSM    O1113831   3.424   0.299   6.462  0.1338 -0.1445  0.3192
  129OSM    O1213832   3.251   0.272   6.283  0.3272 -0.3663  0.4407
  129OSM    C1S13833   3.338   0.337   6.571 -0.4241  0.1725  0.1184
  129OSM    H1S13834   3.253   0.267   6.587 -1.2734  1.1694  0.0547
  129OSM    H1T13835   3.309   0.444   6.559 -0.0463  0.1664 -0.9156
  129OSM     NF13836   3.318   0.338   6.822  0.3803 -0.4049  0.1682
  129OSM    HNF13837   3.335   0.410   6.888 -0.6468  0.3527 -0.3621
  129OSM    C2S13838   3.410   0.325   6.709  0.1252  0.3092 -0.2471
  129OSM    H2S13839   3.452   0.222   6.710  0.8195  0.5833 -0.3268
  129OSM    C3S13840   3.523   0.427   6.721 -0.0945  0.9263 -0.5263
  129OSM    H3S13841   3.475   0.527   6.720 -0.3729  0.8584  1.6043
  129OSM     O313842   3.615   0.431   6.613  0.0221 -0.2660  0.6505
  129OSM    HO313843   3.565   0.394   6.540  0.1318 -0.7258  0.8016
  129OSM    C4S13844   3.603   0.413   6.845 -0.0331 -0.7980 -0.4070
  129OSM    H4S13845   3.572   0.483   6.924 -0.9040 -0.7923 -0.7486
  129OSM    C5S13846   3.706   0.322   6.867  0.3528 -0.5401 -0.3668
  129OSM    H5S13847   3.737   0.256   6.785 -2.7960 -1.4008 -0.9945
  129OSM    C6S13848   3.785   0.311   6.993  0.4310 -0.0759  0.2912
  129OSM    H6S13849   3.887   0.341   6.961  0.4355 -0.9397 -0.5614
  129OSM    H6T13850   3.768   0.207   7.029  2.3335 -0.9010 -1.0289
  129OSM    C7S13851   3.740   0.409   7.101  0.4716  0.5514 -0.7488
  129OSM    H7S13852   3.632   0.394   7.124  0.7508 -1.4205 -0.4723
  129OSM    H7T13853   3.754   0.517   7.085 -2.1992  0.6263 -3.4882
  129OSM    C8S13854   3.817   0.368   7.229 -0.3494 -0.3132  0.5200
  129OSM    H8S13855   3.922   0.373   7.192 -0.4065  0.3370  0.4305
  129OSM    H8T13856   3.787   0.264   7.255 -0.1025 -0.3080  0.8443
  129OSM    C9S13857   3.783   0.458   7.352 -0.0183  0.3374  0.2903
  129OSM    H9S13858   3.676   0.446   7.377 -0.2788  1.2016 -0.3470
  129OSM    H9T13859   3.812   0.562   7.326 -0.6785  0.0328 -1.8715
  129OSM   C10S13860   3.858   0.423   7.486 -0.0271  0.2743 -0.1445
  129OSM   H10S13861   3.964   0.395   7.466 -0.0246 -0.6624  1.0600
  129OSM   H10T13862   3.805   0.335   7.529 -0.0087 -0.8350 -2.2275
  129OSM   C11S13863   3.855   0.535   7.590  0.7154  0.1712  0.4284
  129OSM   H11S13864   3.748   0.543   7.620  0.1590 -1.1942 -1.0338
  129OSM   H11T13865   3.888   0.635   7.557 -0.4064  0.9661  1.6252
  129OSM   C12S13866   3.934   0.499   7.721  0.4353  0.1161  0.5832
  129OSM   H12S13867   4.025   0.444   7.691  1.6143  1.5621  1.3684
  129OSM   H12T13868   3.866   0.432   7.778 -0.7382  1.8442  1.3148
  129OSM   C13S13869   3.966   0.621   7.803 -0.1702 -0.7158 -0.3922
  129OSM   H13S13870   3.872   0.651   7.854 -0.4267  0.8468 -1.6626
  129OSM   H13T13871   4.000   0.708   7.741 -0.0680  0.1008  0.7767
  129OSM   C14S13872   4.074   0.596   7.912 -0.1151 -0.7254  0.5153
  129OSM   H14S13873   4.103   0.692   7.958  0.6403 -1.3421  1.3493
  129OSM   H14T13874   4.165   0.558   7.860  0.9564  2.1703  0.0850
  129OSM   C15S13875   4.038   0.489   8.023  0.2848 -0.0414 -0.3543
  129OSM   H15S13876   3.965   0.414   7.986 -2.0790  1.6668  0.6066
  129OSM   H15T13877   3.978   0.543   8.099  0.1078 -1.5361  0.6159
  129OSM   C16S13878   4.169   0.424   8.075 -0.2845  0.4658  0.0935
  129OSM   H16S13879   4.246   0.500   8.098  0.8693 -0.4551 -0.6316
  129OSM   H16T13880   4.208   0.377   7.983 -0.7212  0.6446 -0.1888
  129OSM   C17S13881   4.160   0.323   8.194 -0.2069 -0.2217  0.3717
  129OSM   H17S13882   4.261   0.311   8.239 -0.7679 -2.6016  1.1182
  129OSM   H17T13883   4.128   0.227   8.148 -0.1531 -1.3156  2.4898
  129OSM   C18S13884   4.077   0.377   8.309  0.0341 -0.3758  0.4011
  129OSM   H18S13885   3.968   0.360   8.295 -0.7148  0.2239  4.4377
  129OSM   H18T13886   4.100   0.484   8.322 -1.4303 -0.2598  2.3477
  129OSM   H18U13887   4.117   0.336   8.404  1.3823  1.2611  0.5765
  129OSM    C1F13888   3.212   0.258   6.848  0.1203 -0.2222  0.3513
  129OSM     OF13889   3.187   0.157   6.785  0.6248 -0.1963  0.4243
  129OSM    C2F13890   3.128   0.302   6.963  0.1801  0.9029  0.4862
  129OSM    H2F13891   3.020   0.286   6.941 -0.3040  3.3500  0.7723
  129OSM    H2G13892   3.128   0.412   6.979  0.2614  0.8823  0.6331
  129OSM    C3F13893   3.176   0.223   7.087  0.0926 -0.4715  0.0429
  129OSM    H3F13894   3.156   0.117   7.061  1.8066 -1.0113  0.7691
  129OSM    H3G13895   3.113   0.243   7.176 -0.6662 -1.4143 -0.2665
  129OSM    C4F13896   3.327   0.253   7.130 -0.1371  0.3941 -0.5416
  129OSM    H4F13897   3.348   0.360   7.152 -0.5271  0.2212  0.7911
  129OSM    H4G13898   3.385   0.226   7.039 -2.1039 -0.7835 -1.5262
  129OSM    C5F13899   3.362   0.179   7.264 -0.0982 -0.1048  0.0388
  129OSM    H5F13900   3.360   0.068   7.251  0.3532 -0.4307  2.3528
  129OSM    H5G13901   3.294   0.208   7.346  0.7764 -2.0820  1.5489
  129OSM    C6F13902   3.503   0.214   7.308 -0.9232  0.3092 -0.6606
  129OSM    H6F13903   3.523   0.323   7.305 -2.1761  0.5428 -1.1317
  129OSM    H6G13904   3.568   0.168   7.232 -0.5909  2.9152 -2.0550
  129OSM    C7F13905   3.550   0.149   7.442  0.4358  0.1233 -0.1274
  129OSM    H7F13906   3.660   0.164   7.444  0.9033 -2.6583  2.0579
  129OSM    H7G13907   3.533   0.040   7.438  0.0589  0.1694  0.0992
  129OSM    C8F13908   3.481   0.198   7.569 -0.6821 -0.3182 -0.1620
  129OSM    H8F13909   3.376   0.161   7.570 -0.5740 -0.6371 -0.3624
  129OSM    H8G13910   3.489   0.308   7.579  1.2407 -0.5850  1.9310
  129OSM    C9F13911   3.551   0.125   7.678  0.0571  0.1823 -0.1791
  129OSM    H9F13912   3.575   0.020   7.656  0.3994 -0.1820  1.7622
  129OSM   C10F13913   3.587   0.162   7.797 -0.2401  0.0995 -0.3002
  129OSM   H10F13914   3.642   0.089   7.857 -0.1119 -0.9990 -1.7075
  129OSM   C11F13915   3.571   0.305   7.848  0.6080 -0.3863  0.3625
  129OSM   H11F13916   3.498   0.360   7.784  0.2552 -0.0113  1.0738
  129OSM   H11G13917   3.657   0.376   7.845  0.0366  0.3692  1.4035
  129OSM   C12F13918   3.505   0.309   7.988  0.3425 -0.0385 -0.0885
  129OSM   H12F13919   3.419   0.239   7.988 -0.6266  1.1224 -0.3531
  129OSM   H12G13920   3.461   0.410   8.001 -1.7049 -1.0430  1.4585
  129OSM   C13F13921   3.599   0.277   8.108 -0.2015  0.2166 -0.6020
  129OSM   H13F13922   3.688   0.343   8.106  1.3405 -1.8101 -0.9088
  129OSM   H13G13923   3.636   0.173   8.114  1.8971  0.9604  0.2447
  129OSM   C14F13924   3.513   0.295   8.237  0.1598 -1.1494  0.4476
  129OSM   H14F13925   3.423   0.231   8.228  0.5844 -1.6518 -0.2988
  129OSM   H14G13926   3.456   0.390   8.224 -0.4876 -1.6307 -0.2777
  129OSM   C15F13927   3.587   0.281   8.367  0.0871 -1.2355 -0.0662
  129OSM   H15F13928   3.649   0.373   8.375 -0.9514 -0.4997 -0.2036
  129OSM   H15G13929   3.645   0.187   8.359 -1.6067 -2.1618 -3.6609
  129OSM   C16F13930   3.491   0.281   8.488 -0.9837  0.3717 -0.4868
  129OSM   H16F13931   3.421   0.196   8.473 -0.2882 -0.1119 -1.1591
  129OSM   H16G13932   3.442   0.380   8.480 -1.8531 -0.1216 -1.5182
  129OSM   C17F13933   3.568   0.265   8.616  0.1468  0.0877  0.5370
  129OSM   H17F13934   3.647   0.342   8.631  1.3421 -1.4184  2.5033
  129OSM   H17G13935   3.624   0.170   8.610 -0.3325 -0.4256  2.8696
  129OSM   C18F13936   3.483   0.253   8.745  0.3198  0.1215  0.2564
  129OSM   H18F13937   3.419   0.338   8.774  0.1172 -0.0627  0.3557
  129OSM   H18G13938   3.555   0.229   8.826  0.2093  1.2856  0.7150
  129OSM   H18H13939   3.414   0.167   8.731  0.3669  0.3610 -1.7124
  130OSM      N13940   0.805   1.646   6.428  0.0387 -0.0404 -0.1991
  130OSM    C1513941   0.844   1.761   6.347 -0.5847 -0.7186 -0.0472
  130OSM   H15A13942   0.886   1.736   6.251 -0.0466  3.0629 -0.9408
  130OSM   H15B13943   0.931   1.815   6.379 -0.4094 -0.4717 -0.9368
  130OSM   H15C13944   0.760   1.823   6.318 -0.2504 -1.3854 -2.6789
  130OSM    C1413945   0.778   1.691   6.574  0.3201  0.0276  0.2363
  130OSM   H14A13946   0.697   1.762   6.581  0.2736 -0.1276  1.6235
  130OSM   H14B13947   0.866   1.745   6.607 -1.5890  3.4990  0.1142
  130OSM   H14C13948   0.750   1.605   6.633  1.5307  0.5010  1.5873
  130OSM    C1313949   0.685   1.580   6.365 -0.5170  0.4832  0.8307
  130OSM   H13A13950   0.602   1.650   6.368 -2.2358 -1.3633 -0.8449
  130OSM   H13B13951   0.663   1.487   6.415 -1.0882  0.4456  0.5248
  130OSM   H13C13952   0.699   1.547   6.264  1.3245 -0.6606  1.4264
  130OSM    C1213953   0.923   1.548   6.426 -0.3701  0.1335 -0.2370
  130OSM   H12A13954   0.958   1.525   6.327 -1.0337  0.2444 -0.4991
  130OSM   H12B13955   0.877   1.459   6.468  2.0220 -1.0064  0.1834
  130OSM    C1113956   1.040   1.574   6.525 -0.2549 -0.5060 -0.0480
  130OSM   H11A13957   1.108   1.486   6.518 -0.0649 -0.2952 -1.1501
  130OSM   H11B13958   1.010   1.579   6.631  0.4831 -1.3701  0.2163
  130OSM      P13959   1.229   1.675   6.376  0.1557  0.6890 -0.0931
  130OSM    O1313960   1.178   1.597   6.264 -0.0663  0.6393 -0.1209
  130OSM    O1413961   1.302   1.802   6.347 -0.3201 -0.4692  0.6775
  130OSM    O1113962   1.328   1.573   6.450  0.2863  0.1431 -0.6417
  130OSM    O1213963   1.118   1.694   6.483  0.0683  0.6847  0.1453
  130OSM    C1S13964   1.459   1.610   6.490 -0.0415  0.0867  0.2037
  130OSM    H1S13965   1.494   1.710   6.457 -0.8394  0.2307 -0.2398
  130OSM    H1T13966   1.538   1.541   6.453  0.3247 -0.8112  2.4975
  130OSM     NF13967   1.601   1.658   6.676 -0.2066 -0.7467  0.2474
  130OSM    HNF13968   1.683   1.601   6.684 -0.5851 -1.4166 -0.5951
  130OSM    C2S13969   1.478   1.597   6.645 -0.1493  0.4023  0.0744
  130OSM    H2S13970   1.390   1.649   6.690 -2.2525 -3.2774  0.6876
  130OSM    C3S13971   1.451   1.450   6.692 -0.4816  0.1416 -0.3754
  130OSM    H3S13972   1.515   1.387   6.626 -0.7435  0.6837 -1.1628
  130OSM     O313973   1.325   1.399   6.662  1.2707  0.2416  0.0676
  130OSM    HO313974   1.306   1.457   6.588  0.2532  0.5273  0.5347
  130OSM    C4S13975   1.480   1.430   6.836  0.4375  0.0609  0.4668
  130OSM    H4S13976   1.588   1.427   6.852  0.4584 -0.3811  0.2403
  130OSM    C5S13977   1.396   1.449   6.940  0.0925 -0.1050  0.3420
  130OSM    H5S13978   1.289   1.474   6.932 -0.2538 -1.7866 -0.7271
  130OSM    C6S13979   1.444   1.445   7.086  0.4961  0.1437  0.0390
  130OSM    H6S13980   1.402   1.532   7.140 -0.3317 -1.7215  2.5911
  130OSM    H6T13981   1.555   1.448   7.091  0.4542 -0.3976  2.4149
  130OSM    C7S13982   1.407   1.307   7.152  0.5954  0.6967  0.3529
  130OSM    H7S13983   1.414   1.231   7.071 -1.1210  1.0048 -0.1342
  130OSM    H7T13984   1.307   1.307   7.200  0.0966  1.8371 -0.6522
  130OSM    C8S13985   1.506   1.270   7.263  0.4601 -0.3605  0.5660
  130OSM    H8S13986   1.609   1.272   7.220  0.9004 -1.1422  1.5219
  130OSM    H8T13987   1.485   1.169   7.305  2.1168 -0.2832  1.6879
  130OSM    C9S13988   1.495   1.373   7.377 -0.4026  0.0280  0.3040
  130OSM    H9S13989   1.387   1.372   7.403 -0.3312 -1.7590  0.6121
  130OSM    H9T13990   1.524   1.476   7.345  0.3960 -0.1675  0.3987
  130OSM   C10S13991   1.571   1.343   7.513 -0.2323  0.1669 -0.1822
  130OSM   H10S13992   1.679   1.336   7.489 -0.6346 -4.5576 -1.4714
  130OSM   H10T13993   1.535   1.242   7.541  1.1183 -0.5121 -0.8606
  130OSM   C11S13994   1.534   1.432   7.633 -0.0585 -0.5279 -0.1027
  130OSM   H11S13995   1.424   1.436   7.617 -0.5246 -1.0951  2.4291
  130OSM   H11T13996   1.584   1.530   7.618 -0.8407 -0.0612  0.2754
  130OSM   C12S13997   1.559   1.358   7.764  0.2044  0.6676 -0.9899
  130OSM   H12S13998   1.656   1.306   7.747 -1.2307 -2.3211 -0.7057
  130OSM   H12T13999   1.486   1.274   7.772 -0.9616  1.7789  1.0644
  130OSM   C13S14000   1.541   1.442   7.893 -0.0425 -0.6797  0.3917
  130OSM   H13S14001   1.463   1.520   7.878  2.0110  1.0604 -2.3230
  130OSM   H13T14002   1.636   1.498   7.902  0.2166 -0.5524 -2.3347
  130OSM   C14S14003   1.512   1.368   8.026  0.0886 -0.2577 -0.2385
  130OSM   H14S14004   1.417   1.311   8.020 -1.1463  1.6595  0.2298
  130OSM   H14T14005   1.505   1.437   8.112  0.3142  0.3677 -0.7111
  130OSM   C15S14006   1.618   1.257   8.055  0.0054 -0.0178  0.3499
  130OSM   H15S14007   1.713   1.315   8.049 -1.2751  2.0953 -0.8049
  130OSM   H15T14008   1.621   1.179   7.976  0.0073  3.1869 -3.0890
  130OSM   C16S14009   1.610   1.198   8.199 -0.1225 -0.3338  0.4113
  130OSM   H16S14010   1.506   1.169   8.228  0.2378 -1.2656  0.8088
  130OSM   H16T14011   1.640   1.273   8.275 -0.4615  1.2865 -0.9813
  130OSM   C17S14012   1.700   1.067   8.205 -0.4167  0.2471 -0.4392
  130OSM   H17S14013   1.807   1.090   8.184 -0.4144  0.1071 -0.5900
  130OSM   H17T14014   1.667   1.005   8.119 -0.6057 -1.0778  0.5472
  130OSM   C18S14015   1.691   0.991   8.336 -0.6234 -0.3196 -0.4783
  130OSM   H18S14016   1.723   0.885   8.332 -1.0985 -0.4733 -0.2297
  130OSM   H18T14017   1.585   0.983   8.369 -0.4581  2.0529  0.8915
  130OSM   H18U14018   1.749   1.047   8.413  1.1859  0.8178 -2.5695
  130OSM    C1F14019   1.624   1.795   6.671  0.7024  0.5949 -0.5858
  130OSM     OF14020   1.531   1.878   6.669 -0.2545 -0.2856  0.0054
  130OSM    C2F14021   1.766   1.837   6.665  0.2275  0.3618 -0.2457
  130OSM    H2F14022   1.804   1.848   6.561 -1.2423  1.9359 -0.6648
  130OSM    H2G14023   1.827   1.754   6.706  1.4257  0.4190 -1.8010
  130OSM    C3F14024   1.793   1.967   6.736  0.0144 -0.0453  0.5840
  130OSM    H3F14025   1.709   2.036   6.716  0.4808  0.3527 -0.0714
  130OSM    H3G14026   1.881   2.016   6.688 -1.4255  0.5432 -1.6238
  130OSM    C4F14027   1.822   1.953   6.885  0.2317  1.0753 -0.2253
  130OSM    H4F14028   1.921   1.904   6.895 -1.2246 -1.6321  3.4922
  130OSM    H4G14029   1.754   1.884   6.938  0.8234  0.8178  0.2144
  130OSM    C5F14030   1.821   2.085   6.959  0.2443  0.2113 -0.0471
  130OSM    H5F14031   1.717   2.124   6.949  0.2416 -0.0276 -1.0953
  130OSM    H5G14032   1.883   2.148   6.892 -1.2684  0.9708 -0.7719
  130OSM    C6F14033   1.857   2.067   7.107 -0.1700  0.0027 -0.3994
  130OSM    H6F14034   1.966   2.087   7.120 -0.2193 -0.2511  0.4426
  130OSM    H6G14035   1.820   1.965   7.131 -1.5911  0.3769 -0.9195
  130OSM    C7F14036   1.780   2.165   7.193  0.3423  0.4043 -0.1422
  130OSM    H7F14037   1.674   2.140   7.171 -0.1169  0.9369  1.3278
  130OSM    H7G14038   1.805   2.270   7.166  1.6677  0.6000  1.6186
  130OSM    C8F14039   1.800   2.157   7.344  0.1404 -0.1523 -0.3413
  130OSM    H8F14040   1.789   2.052   7.379 -1.4917 -0.0668 -0.5124
  130OSM    H8G14041   1.724   2.216   7.399  0.3518  0.6780 -0.9339
  130OSM    C9F14042   1.934   2.220   7.361  0.3086 -0.1401 -0.5817
  130OSM    H9F14043   1.986   2.252   7.270  0.0517 -0.4869 -0.8474
  130OSM   C10F14044   1.994   2.232   7.484 -0.2049  0.3287 -0.0953
  130OSM   H10F14045   2.098   2.269   7.482 -0.5783  1.3626 -1.1365
  130OSM   C11F14046   1.932   2.194   7.618 -0.3859 -0.0485  0.0015
  130OSM   H11F14047   1.994   2.115   7.666 -0.1919 -0.4528 -0.8773
  130OSM   H11G14048   1.837   2.139   7.602  1.8830 -3.9843 -1.1605
  130OSM   C12F14049   1.904   2.314   7.712 -0.5909 -0.4744 -0.1677
  130OSM   H12F14050   1.875   2.408   7.659  0.5318 -0.2656 -0.4427
  130OSM   H12G14051   2.001   2.336   7.763  0.6137 -1.7356 -1.7956
  130OSM   C13F14052   1.822   2.273   7.835 -0.1029 -0.9836  0.0771
  130OSM   H13F14053   1.870   2.190   7.891  0.4327 -0.4992  0.3391
  130OSM   H13G14054   1.729   2.225   7.797  0.6254 -2.1837 -0.2314
  130OSM   C14F14055   1.790   2.392   7.925 -0.0076  0.7187  0.3358
  130OSM   H14F14056   1.750   2.473   7.861  1.4111 -0.0698 -1.6495
  130OSM   H14G14057   1.879   2.425   7.982  0.8210  0.2135 -0.6441
  130OSM   C15F14058   1.688   2.351   8.037 -0.9148  0.0351  0.2987
  130OSM   H15F14059   1.738   2.268   8.093  0.9300 -0.2578 -1.6416
  130OSM   H15G14060   1.589   2.329   7.992 -1.4739  3.1330 -0.1724
  130OSM   C16F14061   1.662   2.458   8.142  0.7946 -0.5449  0.1981
  130OSM   H16F14062   1.583   2.422   8.212  0.0889 -0.2945 -0.4550
  130OSM   H16G14063   1.607   2.541   8.093 -1.4042 -0.8612  1.9426
  130OSM   C17F14064   1.784   2.521   8.220 -0.0452  0.0176 -0.0617
  130OSM   H17F14065   1.851   2.580   8.154  0.0677 -0.4598 -0.3730
  130OSM   H17G14066   1.853   2.437   8.241  1.2502  0.6298 -1.7165
  130OSM   C18F14067   1.742   2.599   8.349 -0.4282 -0.0972  0.4955
  130OSM   H18F14068   1.688   2.690   8.315 -0.4227  0.4225  1.8410
  130OSM   H18G14069   1.824   2.629   8.418 -1.7318  2.6437  0.9575
  130OSM   H18H14070   1.670   2.540   8.409  0.4374 -1.0860  0.6044
  131OSM      N14071   2.858   6.377   6.227 -0.5953  0.0152 -0.1346
  131OSM    C1514072   2.796   6.507   6.185 -0.1895  0.4798 -0.4192
  131OSM   H15A14073   2.863   6.541   6.107  1.6346 -1.0011  0.4042
  131OSM   H15B14074   2.783   6.574   6.269  0.2990 -0.7139  0.6546
  131OSM   H15C14075   2.700   6.476   6.148 -1.5050  2.3025  1.2720
  131OSM    C1414076   2.774   6.307   6.333 -0.6591 -0.3199 -0.1557
  131OSM   H14A14077   2.824   6.219   6.369 -0.7400  0.4099  1.8558
  131OSM   H14B14078   2.671   6.287   6.309 -1.5552  0.7657  2.4754
  131OSM   H14C14079   2.767   6.368   6.421 -0.7487 -0.5339 -0.0145
  131OSM    C1314080   2.851   6.286   6.112  0.1759 -0.4342 -0.0587
  131OSM   H13A14081   2.920   6.319   6.035  0.2878  1.5915  0.8419
  131OSM   H13B14082   2.755   6.303   6.067  0.4728  1.4155 -0.0597
  131OSM   H13C14083   2.864   6.184   6.144 -3.4694 -0.7264  0.9185
  131OSM    C1214084   3.005   6.393   6.273  0.4584  0.1417  0.8942
  131OSM   H12A14085   3.032   6.305   6.330 -1.4731 -0.4650  0.9623
  131OSM   H12B14086   3.024   6.476   6.340  0.0768  0.9685  0.0110
  131OSM    C1114087   3.118   6.419   6.157  0.5672 -0.8831 -0.1252
  131OSM   H11A14088   3.112   6.324   6.099 -0.6640 -0.9358  0.0566
  131OSM   H11B14089   3.224   6.418   6.190  0.4913  0.7391  0.2094
  131OSM      P14090   3.121   6.672   6.121  0.1025 -0.5097 -0.4329
  131OSM    O1314091   3.258   6.698   6.095  0.0549  0.1034  0.1541
  131OSM    O1414092   3.029   6.770   6.063 -0.2989 -0.4189  0.4201
  131OSM    O1114093   3.116   6.654   6.283  0.5890 -0.0317  0.3922
  131OSM    O1214094   3.087   6.531   6.070 -0.0478  0.1593 -0.4954
  131OSM    C1S14095   3.089   6.766   6.364 -0.0698  0.2341 -0.8750
  131OSM    H1S14096   2.991   6.808   6.333 -0.8756  0.4901  1.7520
  131OSM    H1T14097   3.156   6.854   6.346 -1.6867  1.2129 -2.4308
  131OSM     NF14098   3.012   6.822   6.599 -0.5660 -0.4057 -0.1877
  131OSM    HNF14099   3.068   6.863   6.671 -1.0714 -0.2369  0.1133
  131OSM    C2S14100   3.077   6.719   6.513  0.4884  0.6892  0.3955
  131OSM    H2S14101   3.014   6.629   6.531  1.8235  0.0670  2.2066
  131OSM    C3S14102   3.220   6.661   6.555  0.6493 -0.0586 -0.0648
  131OSM    H3S14103   3.290   6.748   6.552 -1.2383  1.5633  0.3702
  131OSM     O314104   3.271   6.558   6.469  0.0290 -0.2007 -0.3193
  131OSM    HO314105   3.242   6.590   6.383 -1.3865 -1.5238 -0.3738
  131OSM    C4S14106   3.214   6.623   6.703  0.5572  0.7140 -0.1608
  131OSM    H4S14107   3.259   6.700   6.768 -0.3407 -0.0442  1.4106
  131OSM    C5S14108   3.178   6.504   6.752  0.6305  0.7895 -0.6686
  131OSM    H5S14109   3.159   6.412   6.694 -0.4572 -0.3922  1.4474
  131OSM    C6S14110   3.170   6.475   6.904 -0.1095  0.1414  0.3448
  131OSM    H6S14111   3.260   6.424   6.944  0.6829  1.4021  0.2259
  131OSM    H6T14112   3.082   6.410   6.922  0.9623 -2.2957 -2.4105
  131OSM    C7S14113   3.151   6.601   6.990  0.1813 -0.5369  0.0050
  131OSM    H7S14114   3.074   6.669   6.948  1.5994  0.3756 -1.1715
  131OSM    H7T14115   3.241   6.665   6.997  0.8459 -1.5020  0.6573
  131OSM    C8S14116   3.118   6.560   7.134  0.0878 -0.8869 -0.8038
  131OSM    H8S14117   3.190   6.480   7.163  2.2503  1.2911  0.1638
  131OSM    H8T14118   3.014   6.523   7.143 -0.2066 -0.1446 -1.1222
  131OSM    C9S14119   3.124   6.668   7.235  0.0645 -0.3753 -0.5254
  131OSM    H9S14120   3.036   6.735   7.235  0.8763  0.7997  1.4506
  131OSM    H9T14121   3.220   6.723   7.221 -0.1645 -0.2349 -1.6853
  131OSM   C10S14122   3.126   6.605   7.370  0.1002 -0.6790 -0.0702
  131OSM   H10S14123   3.192   6.516   7.360  1.1428  0.2936 -2.4352
  131OSM   H10T14124   3.026   6.575   7.409 -0.1353 -0.6790 -0.6649
  131OSM   C11S14125   3.194   6.700   7.471 -0.5772  0.9005  0.1327
  131OSM   H11S14126   3.160   6.804   7.453  2.3673  2.5617  3.1397
  131OSM   H11T14127   3.305   6.693   7.468 -0.6622 -0.6514 -0.1136
  131OSM   C12S14128   3.150   6.664   7.618 -0.8766 -0.5739  0.1319
  131OSM   H12S14129   3.165   6.556   7.639 -0.4581 -0.4019  0.7715
  131OSM   H12T14130   3.043   6.676   7.648 -0.2071  0.7208  2.2364
  131OSM   C13S14131   3.226   6.751   7.729 -0.1052 -0.0871  0.1967
  131OSM   H13S14132   3.222   6.850   7.680  0.8411 -0.2299 -0.1886
  131OSM   H13T14133   3.330   6.714   7.744  0.1655  1.9204  5.0725
  131OSM   C14S14134   3.160   6.766   7.861  0.3717 -0.0252  0.6582
  131OSM   H14S14135   3.151   6.664   7.905  1.7612 -2.1055 -3.3471
  131OSM   H14T14136   3.059   6.809   7.843  0.6033 -0.0643 -0.8984
  131OSM   C15S14137   3.239   6.856   7.958  0.4786 -0.2979  0.3422
  131OSM   H15S14138   3.242   6.953   7.904 -0.7903 -1.3067 -1.6346
  131OSM   H15T14139   3.343   6.818   7.961  0.9031  0.8450  0.4728
  131OSM   C16S14140   3.197   6.867   8.102 -0.5603  0.0499 -0.2764
  131OSM   H16S14141   3.087   6.876   8.100 -0.4774  1.4935  0.3243
  131OSM   H16T14142   3.234   6.965   8.137 -3.2680  1.0212  0.0632
  131OSM   C17S14143   3.252   6.748   8.179 -1.1190 -0.1173 -0.2210
  131OSM   H17S14144   3.361   6.748   8.155 -1.5785  2.1070 -2.8496
  131OSM   H17T14145   3.217   6.657   8.125 -1.9069 -0.5111  0.9208
  131OSM   C18S14146   3.227   6.754   8.329 -0.6680 -0.1192 -0.0458
  131OSM   H18S14147   3.295   6.829   8.375 -0.6681  0.1559 -0.4913
  131OSM   H18T14148   3.260   6.655   8.367 -2.3240  0.0539  2.0094
  131OSM   H18U14149   3.119   6.760   8.355 -0.4271  0.7420  0.8346
  131OSM    C1F14150   2.895   6.883   6.587 -0.3557 -0.2359  0.7051
  131OSM     OF14151   2.820   6.848   6.493  0.0006  0.4090 -0.8172
  131OSM    C2F14152   2.857   6.985   6.690  0.0448 -0.1081  0.9216
  131OSM    H2F14153   2.863   7.089   6.652 -1.5352 -0.4452 -0.3822
  131OSM    H2G14154   2.934   6.976   6.769  0.6804  0.0761  0.3278
  131OSM    C3F14155   2.723   6.949   6.753 -0.6334  0.4221  0.0618
  131OSM    H3F14156   2.644   6.967   6.677 -0.6399  1.0604  0.2123
  131OSM    H3G14157   2.682   7.019   6.829 -1.1915 -1.0919  1.2099
  131OSM    C4F14158   2.721   6.811   6.816 -0.2465  0.2354  0.5448
  131OSM    H4F14159   2.797   6.808   6.898  1.9073 -3.5900 -1.3077
  131OSM    H4G14160   2.747   6.730   6.745 -1.7127 -0.4285  0.7396
  131OSM    C5F14161   2.590   6.783   6.893  0.2627 -0.3855 -0.0800
  131OSM    H5F14162   2.501   6.783   6.826 -1.3184 -2.7241  1.8729
  131OSM    H5G14163   2.579   6.865   6.968  2.1941  0.1315 -0.2852
  131OSM    C6F14164   2.583   6.643   6.965 -0.1309  0.5451 -0.6828
  131OSM    H6F14165   2.687   6.632   7.002 -0.1270  2.5955  0.0526
  131OSM    H6G14166   2.562   6.566   6.888 -0.6581  1.2726 -1.2772
  131OSM    C7F14167   2.490   6.629   7.093 -0.3375 -0.5194  0.3580
  131OSM    H7F14168   2.426   6.538   7.089  0.0706 -0.8787  1.4965
  131OSM    H7G14169   2.422   6.713   7.068  1.5055  1.0003  0.2017
  131OSM    C8F14170   2.576   6.665   7.219  0.4247 -0.0265  0.6352
  131OSM    H8F14171   2.500   6.708   7.288 -0.5448  0.7572 -0.8771
  131OSM    H8G14172   2.650   6.742   7.190  2.5379 -2.2557 -0.2136
  131OSM    C9F14173   2.651   6.557   7.278 -0.0535  0.8213 -0.2379
  131OSM    H9F14174   2.721   6.501   7.214  1.4497  3.3764 -0.9824
  131OSM   C10F14175   2.643   6.519   7.406  0.1828  0.4292  0.5891
  131OSM   H10F14176   2.696   6.425   7.428 -1.4842 -0.9560 -1.0046
  131OSM   C11F14177   2.548   6.563   7.510  0.3920 -0.3139  1.0029
  131OSM   H11F14178   2.496   6.473   7.551 -1.1253  0.1212  0.0967
  131OSM   H11G14179   2.473   6.636   7.474  2.0484  0.8935 -0.1314
  131OSM   C12F14180   2.619   6.643   7.624  0.6501  0.6379  0.6372
  131OSM   H12F14181   2.546   6.674   7.701  1.8293  1.3147  1.5211
  131OSM   H12G14182   2.679   6.731   7.595 -0.2008  1.5866  1.6822
  131OSM   C13F14183   2.728   6.559   7.701  0.1300 -0.3497  0.1054
  131OSM   H13F14184   2.806   6.521   7.631 -1.5151  0.0477 -2.0461
  131OSM   H13G14185   2.671   6.484   7.759 -1.4487  0.4592 -0.3442
  131OSM   C14F14186   2.812   6.644   7.808  0.5431 -0.0463  0.2309
  131OSM   H14F14187   2.850   6.734   7.755 -0.1681  0.2441  0.2072
  131OSM   H14G14188   2.901   6.581   7.833 -0.5948 -2.1684 -0.8021
  131OSM   C15F14189   2.730   6.684   7.930 -0.0275 -0.3920  0.3141
  131OSM   H15F14190   2.691   6.594   7.983 -0.3714 -0.5727 -0.2328
  131OSM   H15G14191   2.640   6.740   7.896  0.6716  0.4629 -0.1388
  131OSM   C16F14192   2.810   6.776   8.026  0.4043  0.1929  0.0881
  131OSM   H16F14193   2.837   6.860   7.959  0.8307  0.3854  0.4955
  131OSM   H16G14194   2.911   6.732   8.043 -0.4067 -2.3184 -1.0900
  131OSM   C17F14195   2.746   6.808   8.155 -0.4264  0.1863 -0.3723
  131OSM   H17F14196   2.661   6.880   8.149 -0.4452  0.6605  3.1354
  131OSM   H17G14197   2.811   6.867   8.223 -0.0724 -1.1174  0.4764
  131OSM   C18F14198   2.712   6.684   8.252 -0.2112 -0.3704 -0.1308
  131OSM   H18F14199   2.804   6.623   8.269  0.1001 -0.5211 -2.1379
  131OSM   H18G14200   2.640   6.623   8.194 -1.2510  0.8091 -0.1033
  131OSM   H18H14201   2.678   6.710   8.355  1.0132 -2.1140  0.7772
  132OSM      N14202   6.490   0.732   6.174  0.4116 -0.2619  0.3971
  132OSM    C1514203   6.492   0.881   6.169  0.2008 -0.0403 -0.5686
  132OSM   H15A14204   6.574   0.931   6.217 -0.8853  1.5640 -0.2903
  132OSM   H15B14205   6.407   0.919   6.225 -1.8223 -1.2840 -2.5933
  132OSM   H15C14206   6.490   0.927   6.071 -1.7522  1.4901  0.1257
  132OSM    C1414207   6.369   0.688   6.098 -0.1763  0.2092 -0.1130
  132OSM   H14A14208   6.365   0.734   6.000 -0.8396  1.8941  0.6561
  132OSM   H14B14209   6.279   0.726   6.144 -0.7066 -0.8759 -0.2256
  132OSM   H14C14210   6.358   0.581   6.103  0.5110  0.2080  2.2875
  132OSM    C1314211   6.612   0.681   6.101 -0.5485  0.0081  0.3600
  132OSM   H13A14212   6.705   0.713   6.146  0.9186 -1.8426 -1.1794
  132OSM   H13B14213   6.612   0.726   6.003  0.2160  3.0649  1.6641
  132OSM   H13C14214   6.609   0.573   6.096  0.2757  0.0177 -0.9070
  132OSM    C1214215   6.479   0.677   6.315  0.5843  0.4431 -0.5310
  132OSM   H12A14216   6.484   0.569   6.308  0.4902  0.4606 -0.8742
  132OSM   H12B14217   6.385   0.702   6.362  0.5883  0.5050 -0.5564
  132OSM    C1114218   6.588   0.719   6.421 -0.2903  0.2062 -0.3661
  132OSM   H11A14219   6.583   0.648   6.506  0.0906 -2.5290 -2.5057
  132OSM   H11B14220   6.567   0.822   6.458 -1.3290  0.6979 -2.2002
  132OSM      P14221   6.831   0.806   6.378 -0.2393 -0.0186 -0.2802
  132OSM    O1314222   6.958   0.733   6.339 -0.3831 -0.0812 -0.1486
  132OSM    O1414223   6.788   0.921   6.298  0.0753 -0.0640  0.3454
  132OSM    O1114224   6.831   0.859   6.520  0.5907 -0.1742  0.0518
  132OSM    O1214225   6.719   0.698   6.372  0.7981  0.0399 -0.5644
  132OSM    C1S14226   6.846   0.775   6.635  0.2880 -0.5663 -0.1445
  132OSM    H1S14227   6.947   0.730   6.646  0.1161 -0.7865  0.5700
  132OSM    H1T14228   6.780   0.687   6.632 -1.7100  0.8289  0.5875
  132OSM     NF14229   6.859   0.774   6.882 -0.1243  0.4303 -0.2797
  132OSM    HNF14230   6.779   0.723   6.913  0.7635 -0.6626  0.2566
  132OSM    C2S14231   6.815   0.856   6.767  0.5905  0.2991  0.4503
  132OSM    H2S14232   6.868   0.954   6.773 -1.0294  1.2797 -0.4279
  132OSM    C3S14233   6.658   0.898   6.774  0.2262  0.2386  0.3357
  132OSM    H3S14234   6.601   0.809   6.739 -0.7795  1.1480 -0.4107
  132OSM     O314235   6.616   1.010   6.691 -0.6277  0.1780 -0.2045
  132OSM    HO314236   6.674   1.015   6.614 -0.9188  1.3347 -0.3635
  132OSM    C4S14237   6.621   0.918   6.919 -0.1887  0.1940 -0.0340
  132OSM    H4S14238   6.687   0.990   6.969  0.2281 -0.2458  0.0601
  132OSM    C5S14239   6.521   0.865   6.987  0.7248 -0.8901  0.3400
  132OSM    H5S14240   6.441   0.815   6.932 -1.2643  0.1798  2.1048
  132OSM    C6S14241   6.489   0.893   7.134 -0.5684 -0.3992  0.9267
  132OSM    H6S14242   6.406   0.828   7.168  0.3122 -0.4359  3.1448
  132OSM    H6T14243   6.454   0.998   7.143 -1.3010 -0.7913  3.1166
  132OSM    C7S14244   6.610   0.876   7.226 -0.8264  0.5780 -0.0882
  132OSM    H7S14245   6.695   0.940   7.194 -0.8885 -0.5786 -2.8224
  132OSM    H7T14246   6.637   0.769   7.220 -3.6915 -0.2717  0.6648
  132OSM    C8S14247   6.568   0.916   7.368  0.9429 -0.1221  0.8284
  132OSM    H8S14248   6.503   0.834   7.406  0.9240 -0.9000 -0.7873
  132OSM    H8T14249   6.496   1.000   7.374 -0.4885 -1.2579  0.0683
  132OSM    C9S14250   6.688   0.921   7.457 -0.1297  0.1965  0.0950
  132OSM    H9S14251   6.736   1.020   7.450  1.0822 -0.4043 -0.2682
  132OSM    H9T14252   6.754   0.836   7.429 -1.6182 -1.5938  1.6420
  132OSM   C10S14253   6.661   0.897   7.607 -0.1273  0.4226  0.4306
  132OSM   H10S14254   6.595   0.812   7.634  0.7893 -0.8542 -1.1575
  132OSM   H10T14255   6.623   0.985   7.663  1.7241  1.4490  0.1444
  132OSM   C11S14256   6.786   0.876   7.684 -0.0374 -0.3179 -0.6144
  132OSM   H11S14257   6.859   0.957   7.662  1.7091 -1.0736  2.0060
  132OSM   H11T14258   6.843   0.791   7.642  1.2472 -0.3072  1.0313
  132OSM   C12S14259   6.775   0.851   7.834  0.6829  0.6362  0.2996
  132OSM   H12S14260   6.690   0.780   7.846  0.3406  1.1025  0.6364
  132OSM   H12T14261   6.740   0.944   7.882 -0.6919 -0.3611  1.3322
  132OSM   C13S14262   6.892   0.780   7.900 -0.1863  0.0167 -0.0274
  132OSM   H13S14263   6.905   0.678   7.857 -0.7744 -0.2359  0.3881
  132OSM   H13T14264   6.867   0.752   8.004  0.7468  1.8081  0.7175
  132OSM   C14S14265   7.016   0.861   7.924  0.6167 -1.0157 -0.6766
  132OSM   H14S14266   6.988   0.956   7.972  0.6615 -1.9853  1.3739
  132OSM   H14T14267   7.056   0.890   7.824  0.2898  0.8219 -0.3033
  132OSM   C15S14268   7.129   0.786   8.011  0.0632 -0.2925  0.3297
  132OSM   H15S14269   7.207   0.864   8.025 -1.1245  0.6310  2.1714
  132OSM   H15T14270   7.174   0.709   7.945 -1.4803  0.5117 -1.7448
  132OSM   C16S14271   7.104   0.737   8.155 -0.0334  0.2479 -0.2757
  132OSM   H16S14272   7.035   0.649   8.155  0.2898 -0.0199  0.7978
  132OSM   H16T14273   7.060   0.816   8.220 -1.2584 -0.7972  0.2222
  132OSM   C17S14274   7.236   0.696   8.221  0.4202  0.1207 -0.9538
  132OSM   H17S14275   7.310   0.778   8.220 -0.7521  1.2336 -2.5468
  132OSM   H17T14276   7.277   0.614   8.158 -1.4582 -0.0168 -2.0759
  132OSM   C18S14277   7.215   0.643   8.367 -0.2316  0.1142  0.3337
  132OSM   H18S14278   7.150   0.553   8.363  0.3758 -0.3068 -0.9521
  132OSM   H18T14279   7.170   0.723   8.429  0.5683  2.2256 -1.6358
  132OSM   H18U14280   7.309   0.608   8.414 -0.8765 -1.2909  0.6407
  132OSM    C1F14281   6.985   0.756   6.909  0.1334 -0.4165  0.2980
  132OSM     OF14282   7.070   0.822   6.853 -0.2665 -0.7631 -0.1450
  132OSM    C2F14283   7.026   0.643   6.993 -0.5451 -0.3780 -0.7318
  132OSM    H2F14284   7.097   0.586   6.929  0.7606  0.4564 -0.0746
  132OSM    H2G14285   6.940   0.574   7.005 -0.5952 -0.8405 -3.1490
  132OSM    C3F14286   7.099   0.699   7.123 -0.7706 -0.0263 -0.0719
  132OSM    H3F14287   7.177   0.765   7.079  2.6276 -3.6603 -0.0157
  132OSM    H3G14288   7.161   0.615   7.159 -1.3020 -0.4307 -0.0915
  132OSM    C4F14289   7.002   0.773   7.216 -0.2188 -0.4735  0.2085
  132OSM    H4F14290   6.917   0.704   7.236 -0.5431 -0.1563 -0.0653
  132OSM    H4G14291   6.971   0.869   7.170 -0.2882 -0.0912  1.0457
  132OSM    C5F14292   7.072   0.793   7.354  0.1407  0.0295 -0.2728
  132OSM    H5F14293   7.022   0.861   7.426  1.7469  0.7460  0.2225
  132OSM    H5G14294   7.177   0.829   7.344  0.1046  0.1146 -0.3496
  132OSM    C6F14295   7.086   0.663   7.444 -0.4270 -0.0013 -0.0064
  132OSM    H6F14296   7.130   0.579   7.387  2.4878  1.1645  0.3525
  132OSM    H6G14297   6.983   0.634   7.474 -1.1947  1.4263 -1.1172
  132OSM    C7F14298   7.188   0.683   7.564  0.2403  0.1389  0.5347
  132OSM    H7F14299   7.187   0.785   7.609  1.3162  0.0332  0.8045
  132OSM    H7G14300   7.294   0.689   7.531 -0.2864  1.3570 -1.0863
  132OSM    C8F14301   7.173   0.587   7.686 -0.3980  0.6153  0.2640
  132OSM    H8F14302   7.073   0.584   7.734 -1.9553 -1.4293 -2.7899
  132OSM    H8G14303   7.243   0.628   7.761  1.4004 -1.0552 -0.4184
  132OSM    C9F14304   7.212   0.444   7.652 -0.2338 -0.5035 -0.3186
  132OSM    H9F14305   7.228   0.423   7.545  1.2216  0.3030 -0.2969
  132OSM   C10F14306   7.218   0.349   7.748 -0.2800 -0.0079 -0.3932
  132OSM   H10F14307   7.265   0.254   7.717 -0.4498 -0.0268 -0.5962
  132OSM   C11F14308   7.190   0.360   7.896 -0.4401 -0.2389  0.0798
  132OSM   H11F14309   7.083   0.337   7.916 -0.4901  1.4159  2.0223
  132OSM   H11G14310   7.205   0.460   7.942  1.9243 -0.7577  0.6236
  132OSM   C12F14311   7.288   0.269   7.974 -0.2267 -0.3328  0.3866
  132OSM   H12F14312   7.395   0.292   7.956 -0.2843 -0.0249  0.4327
  132OSM   H12G14313   7.263   0.162   7.958 -1.4013 -0.1445  0.7973
  132OSM   C13F14314   7.251   0.291   8.122 -0.2886 -1.0304  0.4047
  132OSM   H13F14315   7.143   0.271   8.138 -0.2054 -2.1614 -0.3222
  132OSM   H13G14316   7.272   0.395   8.154  0.1663 -1.3191  1.0723
  132OSM   C14F14317   7.316   0.191   8.215 -0.2636  0.2039 -0.3519
  132OSM   H14F14318   7.426   0.193   8.202  0.1740 -4.9545  0.4618
  132OSM   H14G14319   7.285   0.087   8.192  1.8381 -0.2879 -1.2153
  132OSM   C15F14320   7.273   0.225   8.357 -0.0317  0.8840  0.1137
  132OSM   H15F14321   7.164   0.230   8.382  0.2526  0.7084  1.4891
  132OSM   H15G14322   7.322   0.321   8.380 -0.9751  2.2142 -2.9720
  132OSM   C16F14323   7.330   0.113   8.452 -0.2572  0.1967 -0.1052
  132OSM   H16F14324   7.354   0.151   8.554  2.1403 -2.0272  0.2694
  132OSM   H16G14325   7.426   0.087   8.403 -0.3124  1.5549 -0.9662
  132OSM   C17F14326   7.243  -0.010   8.459 -0.5923  0.5066 -0.4602
  132OSM   H17F14327   7.221  -0.052   8.358  1.5369 -1.1350 -0.3239
  132OSM   H17G14328   7.147   0.018   8.508 -1.0458  0.9826 -1.5923
  132OSM   C18F14329   7.303  -0.129   8.544  0.0304  1.7991 -0.4734
  132OSM   H18F14330   7.402  -0.161   8.503 -0.3413 -1.4478  0.8445
  132OSM   H18G14331   7.245  -0.223   8.537  2.6597 -0.3271  2.8353
  132OSM   H18H14332   7.321  -0.098   8.649  1.8955  0.3473 -0.2940
  133OSM      N14333   4.413   5.725   6.062  0.1931  0.1969  0.2796
  133OSM    C1514334   4.432   5.581   6.104  0.0039  0.3080 -0.1656
  133OSM   H15A14335   4.346   5.548   6.160 -0.2809  0.8807 -0.2598
  133OSM   H15B14336   4.522   5.577   6.163 -1.2005  2.1586  1.9336
  133OSM   H15C14337   4.424   5.503   6.030 -0.7231 -1.5824  1.8250
  133OSM    C1414338   4.526   5.772   5.971 -0.0743  0.3525 -0.2703
  133OSM   H14A14339   4.528   5.724   5.875  0.8556  0.2582 -0.2185
  133OSM   H14B14340   4.613   5.742   6.027 -1.6966 -3.1730  0.6274
  133OSM   H14C14341   4.514   5.878   5.954  2.1657  0.2496 -3.1919
  133OSM    C1314342   4.285   5.715   5.986  0.5975  0.5630  0.7300
  133OSM   H13A14343   4.303   5.667   5.891 -0.3056 -0.3270  0.9935
  133OSM   H13B14344   4.249   5.816   5.968  0.4353  0.3603 -0.1549
  133OSM   H13C14345   4.208   5.660   6.038  0.7575  1.8169  2.3633
  133OSM    C1214346   4.404   5.818   6.189 -0.8535  0.3249 -0.0103
  133OSM   H12A14347   4.486   5.805   6.258 -1.0273 -0.4998  0.0576
  133OSM   H12B14348   4.324   5.779   6.250  1.4361  0.2229  3.1907
  133OSM    C1114349   4.381   5.966   6.172  0.1280 -0.6833  0.5239
  133OSM   H11A14350   4.464   6.003   6.108 -0.5139  0.5884  0.3967
  133OSM   H11B14351   4.385   6.014   6.272 -0.6624 -0.2176  0.3437
  133OSM      P14352   4.211   6.123   6.069  0.0912 -0.2733  0.1957
  133OSM    O1314353   4.326   6.183   5.996  0.2940  0.7758 -0.2240
  133OSM    O1414354   4.083   6.109   5.997  0.0653 -0.2196 -0.0168
  133OSM    O1114355   4.188   6.207   6.194  0.3336  0.2694 -0.6631
  133OSM    O1214356   4.249   5.981   6.123  0.0882  0.1752 -0.1638
  133OSM    C1S14357   4.097   6.160   6.293 -1.1866 -0.4173 -0.1542
  133OSM    H1S14358   4.089   6.050   6.299 -1.2778 -0.3667  0.8076
  133OSM    H1T14359   3.998   6.205   6.271 -1.0555 -0.2107 -0.3296
  133OSM     NF14360   4.095   6.132   6.540 -0.9872  0.3914 -0.2239
  133OSM    HNF14361   4.022   6.172   6.596 -0.7483 -1.9109  1.9025
  133OSM    C2S14362   4.154   6.208   6.431 -0.9137  0.6630 -0.3513
  133OSM    H2S14363   4.264   6.199   6.438 -0.7358  2.9175  0.6184
  133OSM    C3S14364   4.116   6.360   6.449 -0.3479 -0.1260  0.5296
  133OSM    H3S14365   4.007   6.357   6.470 -0.7341 -1.5918 -1.4402
  133OSM     O314366   4.135   6.434   6.331  0.5700  0.2979 -0.5606
  133OSM    HO314367   4.159   6.361   6.273  0.9205  0.6730 -0.8893
  133OSM    C4S14368   4.180   6.415   6.574  0.0943  0.4574  0.0258
  133OSM    H4S14369   4.121   6.398   6.666  1.7066 -0.6367  0.9128
  133OSM    C5S14370   4.307   6.465   6.581  0.1050  0.2145  0.1390
  133OSM    H5S14371   4.377   6.453   6.497  0.2503 -1.4360  0.4537
  133OSM    C6S14372   4.384   6.517   6.703  0.2752  0.1428 -0.0652
  133OSM    H6S14373   4.401   6.627   6.700  0.1620  0.1453 -1.5232
  133OSM    H6T14374   4.484   6.471   6.717 -0.3368 -0.9876  0.7408
  133OSM    C7S14375   4.305   6.475   6.829 -0.2180 -0.4509  0.1466
  133OSM    H7S14376   4.291   6.365   6.823 -0.5614 -0.3585 -1.0593
  133OSM    H7T14377   4.205   6.525   6.829 -0.2845 -0.5472 -0.9186
  133OSM    C8S14378   4.375   6.513   6.962  0.1203  0.0339 -0.2322
  133OSM    H8S14379   4.383   6.624   6.965 -1.3858  0.1272  1.4081
  133OSM    H8T14380   4.481   6.478   6.958  0.4126  0.9644 -2.4037
  133OSM    C9S14381   4.303   6.463   7.088 -0.3377 -0.3365  0.1012
  133OSM    H9S14382   4.279   6.356   7.071  0.4414 -0.4142 -0.5930
  133OSM    H9T14383   4.209   6.523   7.093  1.3881  2.8378 -1.9549
  133OSM   C10S14384   4.381   6.491   7.220 -0.0114 -0.1741  0.5194
  133OSM   H10S14385   4.388   6.601   7.232  1.1179 -0.0324 -1.0918
  133OSM   H10T14386   4.483   6.450   7.203 -0.2373 -0.8274  0.6888
  133OSM   C11S14387   4.318   6.436   7.357  0.1805 -0.3081  0.8480
  133OSM   H11S14388   4.305   6.326   7.341  0.0128 -0.3941  1.5470
  133OSM   H11T14389   4.221   6.487   7.375 -0.2207 -0.3887 -0.9117
  133OSM   C12S14390   4.412   6.446   7.481  0.3587  0.0586  0.0470
  133OSM   H12S14391   4.432   6.552   7.506 -2.8823  0.3050  2.2308
  133OSM   H12T14392   4.505   6.392   7.453  0.4688  0.6317 -0.7272
  133OSM   C13S14393   4.347   6.388   7.605  0.0788  0.2601 -0.3357
  133OSM   H13S14394   4.298   6.290   7.590 -2.0160  1.1505  0.3052
  133OSM   H13T14395   4.269   6.451   7.652  0.3340 -0.6892  1.4431
  133OSM   C14S14396   4.449   6.380   7.723  0.4849 -0.6402  0.0279
  133OSM   H14S14397   4.516   6.296   7.695 -1.1828 -2.0169 -0.0270
  133OSM   H14T14398   4.403   6.335   7.815  0.8862 -0.9964  0.0586
  133OSM   C15S14399   4.540   6.500   7.765  0.3660  0.3446  0.1925
  133OSM   H15S14400   4.590   6.554   7.683  0.4140  1.0342  0.6674
  133OSM   H15T14401   4.617   6.460   7.834 -1.6817 -1.1041  1.7787
  133OSM   C16S14402   4.441   6.588   7.844 -0.1177  0.2202 -0.0405
  133OSM   H16S14403   4.414   6.526   7.932 -2.2160  0.3862 -0.5091
  133OSM   H16T14404   4.355   6.627   7.786  0.6061  1.6521 -0.2111
  133OSM   C17S14405   4.511   6.718   7.908 -0.5557  0.6346 -0.0772
  133OSM   H17S14406   4.587   6.670   7.973  0.0128  0.2619 -0.9963
  133OSM   H17T14407   4.445   6.775   7.976  1.7126  3.6482 -0.2184
  133OSM   C18S14408   4.572   6.814   7.800  0.0787  0.7723  0.3816
  133OSM   H18S14409   4.638   6.755   7.733 -0.5231 -0.5454  0.9076
  133OSM   H18T14410   4.626   6.899   7.847 -1.8789  2.1671  0.2255
  133OSM   H18U14411   4.495   6.863   7.737  0.3249 -0.5151 -0.9613
  133OSM    C1F14412   4.124   6.006   6.571  0.0598 -0.2750 -0.4322
  133OSM     OF14413   4.204   5.951   6.507  0.2827 -0.1848 -0.0942
  133OSM    C2F14414   4.053   5.951   6.692  0.1646  0.3361 -0.5225
  133OSM    H2F14415   3.952   5.998   6.699  0.6170  1.2140  0.2628
  133OSM    H2G14416   4.100   5.999   6.781 -0.0363  0.1835 -0.3316
  133OSM    C3F14417   4.052   5.801   6.692  0.2557 -0.4932 -0.4541
  133OSM    H3F14418   4.157   5.766   6.704  0.0051 -0.8425  0.8409
  133OSM    H3G14419   4.020   5.759   6.595 -0.1239 -2.9656  0.6693
  133OSM    C4F14420   3.975   5.747   6.812 -0.1418  0.3372 -0.4053
  133OSM    H4F14421   3.980   5.636   6.806  0.8555  0.3974 -0.8900
  133OSM    H4G14422   3.867   5.775   6.813  0.6437  3.7322 -0.1023
  133OSM    C5F14423   4.033   5.786   6.949 -0.4075 -0.2148  0.2022
  133OSM    H5F14424   4.036   5.895   6.972  0.5962  0.1898 -1.6502
  133OSM    H5G14425   4.137   5.746   6.946  0.0101  0.8820 -2.0530
  133OSM    C6F14426   3.951   5.723   7.064 -0.4896 -0.4670  0.1117
  133OSM    H6F14427   3.935   5.618   7.031  0.5993 -0.4026 -0.6611
  133OSM    H6G14428   3.852   5.774   7.065  0.4552  1.5059 -1.0568
  133OSM    C7F14429   4.025   5.734   7.203 -0.2690  0.3652 -0.0469
  133OSM    H7F14430   4.011   5.836   7.245 -2.6646 -0.3563  1.0789
  133OSM    H7G14431   4.127   5.691   7.197 -0.9931 -1.3575 -0.6530
  133OSM    C8F14432   3.950   5.656   7.318 -0.2336 -0.7790  0.4929
  133OSM    H8F14433   3.839   5.667   7.312 -0.3321  2.4370  4.0174
  133OSM    H8G14434   3.983   5.706   7.412 -1.0700  0.7054  0.0387
  133OSM    C9F14435   3.989   5.510   7.317  0.2294 -0.6724 -0.4323
  133OSM    H9F14436   4.015   5.480   7.214 -0.2908 -0.5326 -0.6067
  133OSM   C10F14437   4.014   5.427   7.419 -0.2415  0.1375  0.0209
  133OSM   H10F14438   4.028   5.320   7.397 -2.2038 -0.4862  1.5182
  133OSM   C11F14439   3.989   5.456   7.563  0.2110 -0.2360 -0.2135
  133OSM   H11F14440   3.901   5.523   7.571 -0.8968 -1.6063 -0.5377
  133OSM   H11G14441   4.083   5.503   7.600  0.8959 -1.9550  0.3343
  133OSM   C12F14442   3.947   5.355   7.668 -0.3986 -0.6472 -0.0024
  133OSM   H12F14443   4.031   5.285   7.693 -0.2868 -0.2395  0.8152
  133OSM   H12G14444   3.860   5.288   7.650 -2.2990  1.4265  0.9628
  133OSM   C13F14445   3.929   5.421   7.807  0.2151  0.3793  0.0774
  133OSM   H13F14446   3.857   5.505   7.806 -0.4961 -0.1794  1.5871
  133OSM   H13G14447   4.019   5.470   7.850  0.7872  0.7128 -1.4158
  133OSM   C14F14448   3.878   5.317   7.913  0.0853 -0.1512  0.2698
  133OSM   H14F14449   3.965   5.263   7.956  0.5834  0.2840 -0.1729
  133OSM   H14G14450   3.817   5.240   7.862 -2.3039  2.5681 -1.2567
  133OSM   C15F14451   3.804   5.373   8.034  0.2873 -0.4652 -0.2943
  133OSM   H15F14452   3.757   5.471   8.009 -0.5242 -0.5556  0.7794
  133OSM   H15G14453   3.879   5.412   8.107  1.4392 -2.4116 -0.3741
  133OSM   C16F14454   3.712   5.280   8.103  0.4214 -0.3423  0.1823
  133OSM   H16F14455   3.630   5.250   8.034 -1.0259  0.4310  1.5055
  133OSM   H16G14456   3.667   5.339   8.185  0.0775  0.8200 -0.8001
  133OSM   C17F14457   3.782   5.158   8.150  0.4915 -0.1540 -0.6641
  133OSM   H17F14458   3.833   5.099   8.071 -0.8949 -3.7586  0.9208
  133OSM   H17G14459   3.697   5.098   8.189  0.3939 -0.0195 -0.6704
  133OSM   C18F14460   3.888   5.176   8.262 -0.0437  0.4436  0.1325
  133OSM   H18F14461   3.832   5.212   8.351 -0.2500  2.5153 -0.7785
  133OSM   H18G14462   3.972   5.245   8.238  1.6563 -0.5028  2.9663
  133OSM   H18H14463   3.937   5.084   8.299 -1.4201  0.1248  1.2252
  134OSM      N14464   1.058   2.569   6.143 -0.7257 -0.2664  0.7504
  134OSM    C1514465   0.942   2.506   6.070 -0.0462 -0.1850  0.0971
  134OSM   H15A14466   0.984   2.457   5.984 -1.1906 -2.9641  1.0030
  134OSM   H15B14467   0.874   2.587   6.049 -1.3009 -0.3499  2.9499
  134OSM   H15C14468   0.876   2.438   6.123 -1.7960  0.1563 -1.5421
  134OSM    C1414469   1.146   2.448   6.156  0.3442  0.0349  0.3667
  134OSM   H14A14470   1.233   2.459   6.220  0.6728 -0.2888 -0.0141
  134OSM   H14B14471   1.180   2.412   6.060  0.8711  1.0689  0.1377
  134OSM   H14C14472   1.086   2.371   6.201  1.3184 -0.3754  0.9951
  134OSM    C1314473   1.128   2.676   6.059 -0.1996  0.9126  0.4803
  134OSM   H13A14474   1.231   2.675   6.090 -0.1079  0.2073  0.1610
  134OSM   H13B14475   1.095   2.779   6.056 -0.2308  0.8772 -0.9305
  134OSM   H13C14476   1.142   2.643   5.958 -1.0593 -0.3918  0.7634
  134OSM    C1214477   1.017   2.625   6.281 -0.6058 -0.3901 -0.0642
  134OSM   H12A14478   0.953   2.707   6.251 -0.3271  0.3812  1.3491
  134OSM   H12B14479   1.109   2.663   6.323  0.5768 -1.4861 -1.5851
  134OSM    C1114480   0.939   2.537   6.384 -1.0981  0.9662  0.0065
  134OSM   H11A14481   0.939   2.574   6.489 -1.8348 -0.4228  0.5286
  134OSM   H11B14482   0.995   2.442   6.397 -1.5614  0.7914  0.7612
  134OSM      P14483   0.705   2.629   6.317  0.1300 -0.3513 -0.1094
  134OSM    O1314484   0.769   2.743   6.248 -0.2806  1.1041  0.1598
  134OSM    O1414485   0.594   2.567   6.243 -0.4185  0.4580 -0.0939
  134OSM    O1114486   0.652   2.661   6.469  0.2278 -0.5046 -0.0071
  134OSM    O1214487   0.810   2.510   6.341 -0.2487 -0.6045 -0.0620
  134OSM    C1S14488   0.661   2.572   6.580 -0.2056  0.0388  0.2788
  134OSM    H1S14489   0.764   2.532   6.578 -0.0867  0.3711 -0.5788
  134OSM    H1T14490   0.584   2.492   6.582  0.3550 -0.5252 -0.2298
  134OSM     NF14491   0.676   2.584   6.830 -0.2139 -0.1205 -0.4558
  134OSM    HNF14492   0.607   2.571   6.900  1.3410  0.5709  1.3006
  134OSM    C2S14493   0.658   2.669   6.712 -0.0559 -0.1324 -0.2121
  134OSM    H2S14494   0.741   2.742   6.709 -0.2996  0.2623  1.4711
  134OSM    C3S14495   0.526   2.746   6.717  0.0811  0.3936  0.2706
  134OSM    H3S14496   0.439   2.676   6.717  0.2185  0.1444 -1.7156
  134OSM     O314497   0.500   2.816   6.598  0.0675 -0.0598 -0.1908
  134OSM    HO314498   0.538   2.756   6.534  0.7376 -0.1175  0.2565
  134OSM    C4S14499   0.526   2.843   6.839 -0.1066 -0.2214  0.7185
  134OSM    H4S14500   0.464   2.804   6.922 -3.1741  1.5682 -0.5442
  134OSM    C5S14501   0.582   2.962   6.858  0.2599  0.6897  0.5244
  134OSM    H5S14502   0.639   3.007   6.775  2.2875 -1.2931  0.7692
  134OSM    C6S14503   0.551   3.031   6.992 -0.3862  0.0901  0.1535
  134OSM    H6S14504   0.460   2.998   7.045  0.6654 -0.8225  1.4662
  134OSM    H6T14505   0.524   3.135   6.965 -1.4504  0.0736  1.0778
  134OSM    C7S14506   0.654   3.045   7.108 -0.0152  0.2780  0.5696
  134OSM    H7S14507   0.706   3.142   7.095 -0.3481  0.3740 -0.0659
  134OSM    H7T14508   0.722   2.958   7.095 -0.4501 -0.1507  1.1207
  134OSM    C8S14509   0.587   3.059   7.242  0.0475 -0.0016  0.4169
  134OSM    H8S14510   0.502   2.988   7.254  0.5818 -0.6456  0.4599
  134OSM    H8T14511   0.554   3.165   7.251 -0.2661  0.0208 -0.8167
  134OSM    C9S14512   0.679   3.037   7.358  0.1220  0.2289  0.1020
  134OSM    H9S14513   0.775   3.094   7.349  1.7678 -1.7095  3.3935
  134OSM    H9T14514   0.703   2.929   7.357 -2.9528 -0.5918 -2.6281
  134OSM   C10S14515   0.610   3.060   7.493  0.2713  0.0283  0.1251
  134OSM   H10S14516   0.533   2.981   7.484  2.4498 -2.2423  0.3909
  134OSM   H10T14517   0.562   3.160   7.501 -1.9714 -1.0695  1.2042
  134OSM   C11S14518   0.697   3.019   7.605 -0.4105  0.2008  0.3273
  134OSM   H11S14519   0.788   3.083   7.606  0.2701 -0.7119  2.2057
  134OSM   H11T14520   0.734   2.916   7.587  0.4888  0.8022 -1.5243
  134OSM   C12S14521   0.633   3.024   7.745 -0.2460  0.1375 -0.3243
  134OSM   H12S14522   0.704   2.978   7.817  0.9214  1.6282 -0.4655
  134OSM   H12T14523   0.538   2.967   7.742 -0.0299 -0.4343  2.0056
  134OSM   C13S14524   0.605   3.166   7.795  0.4893 -0.2311  0.5660
  134OSM   H13S14525   0.534   3.224   7.732  0.0503 -0.0279  1.2278
  134OSM   H13T14526   0.696   3.230   7.793  0.1444  0.2594 -1.5256
  134OSM   C14S14527   0.521   3.172   7.929  0.2731 -0.0257 -0.0901
  134OSM   H14S14528   0.429   3.111   7.920  0.9595 -1.0584 -0.2015
  134OSM   H14T14529   0.487   3.277   7.946 -4.4799 -1.1955 -0.9699
  134OSM   C15S14530   0.607   3.114   8.040  0.0129  0.5039 -0.5219
  134OSM   H15S14531   0.715   3.122   8.015  0.2675  1.7653  0.8585
  134OSM   H15T14532   0.568   3.011   8.054 -1.7374  0.8782 -2.1929
  134OSM   C16S14533   0.586   3.188   8.168  0.0711 -0.7082 -0.8334
  134OSM   H16S14534   0.614   3.125   8.255 -2.0621 -0.5635  0.0256
  134OSM   H16T14535   0.487   3.232   8.193  0.9259  0.4542  0.7470
  134OSM   C17S14536   0.681   3.313   8.181 -0.1127  0.0069 -0.3291
  134OSM   H17S14537   0.637   3.378   8.261  1.4077 -1.1213  1.5194
  134OSM   H17T14538   0.678   3.371   8.086  0.5687  0.1731 -0.2544
  134OSM   C18S14539   0.822   3.295   8.239 -0.3165 -0.3840 -0.3807
  134OSM   H18S14540   0.869   3.227   8.164  3.8607  1.3190  0.3620
  134OSM   H18T14541   0.816   3.254   8.341  1.7429  1.3470  0.5345
  134OSM   H18U14542   0.879   3.391   8.238 -1.6138  0.4121 -0.6384
  134OSM    C1F14543   0.787   2.511   6.867 -1.0431 -0.2195  0.5227
  134OSM     OF14544   0.890   2.516   6.797 -0.1648 -0.5819 -0.1500
  134OSM    C2F14545   0.774   2.427   6.986 -0.2212  0.0048  0.6554
  134OSM    H2F14546   0.687   2.466   7.044 -0.5583  0.4839 -0.1586
  134OSM    H2G14547   0.872   2.434   7.038  0.4495  0.7666 -0.6616
  134OSM    C3F14548   0.754   2.272   6.946  0.7787 -0.1853 -0.5878
  134OSM    H3F14549   0.846   2.225   6.906  0.1208 -1.2092 -0.9328
  134OSM    H3G14550   0.673   2.262   6.870  1.8957 -1.6120 -1.6450
  134OSM    C4F14551   0.704   2.195   7.063 -0.0693 -0.1752 -0.7618
  134OSM    H4F14552   0.696   2.085   7.048  0.2164 -0.3671  0.3568
  134OSM    H4G14553   0.603   2.226   7.100 -1.6400 -1.2944 -3.7514
  134OSM    C5F14554   0.822   2.207   7.174 -0.5344 -0.2132 -0.2070
  134OSM    H5F14555   0.815   2.313   7.208  2.4348  0.7802 -2.3269
  134OSM    H5G14556   0.920   2.202   7.123 -0.6901  0.1940 -0.5549
  134OSM    C6F14557   0.807   2.121   7.295  0.9340 -0.3144 -0.1564
  134OSM    H6F14558   0.814   2.013   7.270 -1.7793 -0.6951  0.4283
  134OSM    H6G14559   0.702   2.143   7.324  0.7850 -0.3863 -0.6185
  134OSM    C7F14560   0.879   2.165   7.427  0.2010 -0.4165 -0.0845
  134OSM    H7F14561   0.827   2.256   7.466 -0.6961 -0.2101 -1.6966
  134OSM    H7G14562   0.987   2.177   7.403  0.2638 -0.0320  0.3590
  134OSM    C8F14563   0.860   2.054   7.529 -0.3344 -1.0956 -0.0656
  134OSM    H8F14564   0.909   1.970   7.476  4.0224  1.0506  0.1601
  134OSM    H8G14565   0.751   2.030   7.533 -0.1828 -1.8441 -0.2593
  134OSM    C9F14566   0.919   2.076   7.665  0.0044 -0.1866  0.3673
  134OSM    H9F14567   1.028   2.058   7.660 -0.0861 -0.6799  0.0636
  134OSM   C10F14568   0.842   2.097   7.775  0.9186  0.5838  0.3023
  134OSM   H10F14569   0.893   2.085   7.872 -0.9400 -2.0466  1.0600
  134OSM   C11F14570   0.693   2.128   7.789 -0.2701 -0.2654 -0.0873
  134OSM   H11F14571   0.631   2.123   7.697 -0.4440 -0.4156  0.0354
  134OSM   H11G14572   0.676   2.228   7.834  1.9493  0.5614 -0.9706
  134OSM   C12F14573   0.638   2.028   7.887  0.6053  0.9161  0.1189
  134OSM   H12F14574   0.666   2.044   7.993  0.7314  0.3044  0.1841
  134OSM   H12G14575   0.679   1.928   7.858 -0.0166  0.4639  0.7627
  134OSM   C13F14576   0.484   2.023   7.885  0.3471 -0.1838 -0.0865
  134OSM   H13F14577   0.449   2.009   7.781  1.6548  1.3843 -0.7839
  134OSM   H13G14578   0.427   2.113   7.917 -1.8851 -1.0872 -1.3270
  134OSM   C14F14579   0.416   1.905   7.965 -0.4172 -0.5443 -0.1850
  134OSM   H14F14580   0.401   1.813   7.905 -1.0536 -0.7540  0.2841
  134OSM   H14G14581   0.312   1.939   7.983  0.5830  2.1416  1.2013
  134OSM   C15F14582   0.471   1.871   8.099 -0.0141  0.2223 -0.0995
  134OSM   H15F14583   0.582   1.866   8.109  0.0651  1.9589  0.0915
  134OSM   H15G14584   0.432   1.772   8.131  0.9745 -0.2346 -0.2537
  134OSM   C16F14585   0.417   1.960   8.208  0.7357 -0.8554 -0.0108
  134OSM   H16F14586   0.307   1.974   8.199  0.5363  0.8959  3.2159
  134OSM   H16G14587   0.465   2.060   8.216 -1.5835  0.2119  2.3603
  134OSM   C17F14588   0.437   1.892   8.345  0.4249 -1.0637 -0.3443
  134OSM   H17F14589   0.546   1.880   8.363  0.4525  0.1464  0.4974
  134OSM   H17G14590   0.394   1.790   8.341 -0.3309 -0.7261 -1.2379
  134OSM   C18F14591   0.380   1.968   8.469 -0.0780  0.6926  0.8405
  134OSM   H18F14592   0.435   2.061   8.495  0.6337  0.4964  0.0647
  134OSM   H18G14593   0.380   1.895   8.553  0.1184 -2.0768 -1.4546
  134OSM   H18H14594   0.275   1.987   8.440 -0.3495 -3.3081 -1.4740
  135OSM      N14595   5.580   3.797   5.892 -0.0671 -0.1393  0.7563
  135OSM    C1514596   5.543   3.653   5.896  0.2985 -0.4908 -0.2360
  135OSM   H15A14597   5.449   3.632   5.944  1.6553 -0.4485  2.6382
  135OSM   H15B14598   5.601   3.598   5.969 -0.3170 -0.9873 -0.1100
  135OSM   H15C14599   5.536   3.601   5.801 -1.2272 -0.1316 -0.3522
  135OSM    C1414600   5.731   3.808   5.861 -0.4111 -0.2029  0.3255
  135OSM   H14A14601   5.747   3.911   5.834 -0.9266 -0.8057 -2.5579
  135OSM   H14B14602   5.756   3.742   5.779 -0.3534 -0.4808  0.5629
  135OSM   H14C14603   5.783   3.787   5.953  2.0167  2.4043 -0.3248
  135OSM    C1314604   5.507   3.852   5.775  0.0680  1.2662  0.6298
  135OSM   H13A14605   5.405   3.818   5.769  0.1883  1.1744 -1.5575
  135OSM   H13B14606   5.556   3.815   5.686  0.3383 -0.0093  1.2895
  135OSM   H13C14607   5.504   3.960   5.782  0.8856  1.2104  2.4766
  135OSM    C1214608   5.551   3.879   6.015 -0.3360  0.1487  0.1564
  135OSM   H12A14609   5.444   3.896   6.023 -0.9279 -1.9804 -1.9855
  135OSM   H12B14610   5.597   3.976   6.008  1.0258 -0.4047  1.0882
  135OSM    C1114611   5.599   3.826   6.155 -0.1913 -0.1284 -0.7353
  135OSM   H11A14612   5.565   3.721   6.169 -0.4362  0.3044  2.5899
  135OSM   H11B14613   5.542   3.879   6.234  1.3433  0.4441  0.0106
  135OSM      P14614   5.803   3.967   6.205  0.1326  0.1287  0.1418
  135OSM    O1314615   5.951   3.970   6.190 -0.3725 -0.0036  0.2291
  135OSM    O1414616   5.726   4.071   6.134  0.0364  0.4490 -0.1219
  135OSM    O1114617   5.766   3.960   6.364  0.1316 -0.4616  0.6061
  135OSM    O1214618   5.744   3.825   6.159 -0.2573 -1.0877 -0.9110
  135OSM    C1S14619   5.809   3.837   6.432 -0.4174 -0.1158  0.1822
  135OSM    H1S14620   5.892   3.788   6.376 -0.3260  0.0189  0.1974
  135OSM    H1T14621   5.732   3.757   6.426  1.0849 -1.6379  0.5255
  135OSM     NF14622   5.902   3.739   6.635 -0.2381 -0.5022 -0.9154
  135OSM    HNF14623   5.832   3.674   6.664 -1.1664  0.8176 -0.0752
  135OSM    C2S14624   5.852   3.863   6.577  0.0043  0.6557  0.5898
  135OSM    H2S14625   5.935   3.936   6.578  3.2812 -2.6809 -1.4389
  135OSM    C3S14626   5.728   3.931   6.649 -0.9300 -0.5746  0.0748
  135OSM    H3S14627   5.650   3.854   6.630 -0.7017 -0.8123  0.0812
  135OSM     O314628   5.688   4.064   6.610  0.4913  0.4782  0.1161
  135OSM    HO314629   5.721   4.079   6.521  0.4956 -0.3911 -0.0368
  135OSM    C4S14630   5.743   3.933   6.798  0.0976 -0.6280  0.2749
  135OSM    H4S14631   5.685   3.863   6.861 -0.5588 -0.2960  0.0544
  135OSM    C5S14632   5.813   4.033   6.862 -0.6033  0.5252 -0.0100
  135OSM    H5S14633   5.864   4.113   6.805 -1.4204  1.6768  0.8160
  135OSM    C6S14634   5.821   4.046   7.010 -0.6969 -0.3894 -0.9341
  135OSM    H6S14635   5.778   4.145   7.038 -3.5604 -1.2630 -1.8264
  135OSM    H6T14636   5.928   4.051   7.038 -0.8124  2.6604 -0.6194
  135OSM    C7S14637   5.755   3.937   7.109 -0.7785  0.2015  0.3556
  135OSM    H7S14638   5.811   3.849   7.071 -0.8665  0.4730 -0.4412
  135OSM    H7T14639   5.650   3.910   7.085 -0.7498  0.5513 -0.1830
  135OSM    C8S14640   5.786   3.956   7.260 -0.2963  0.8339 -0.0927
  135OSM    H8S14641   5.891   3.984   7.284 -1.2775  2.1682  3.2540
  135OSM    H8T14642   5.778   3.857   7.309  0.3547  0.2293 -1.1592
  135OSM    C9S14643   5.677   4.041   7.321 -0.0071 -0.2064  0.1391
  135OSM    H9S14644   5.577   4.029   7.274  0.6058 -1.8887 -0.8223
  135OSM    H9T14645   5.695   4.146   7.290 -1.5805  0.1238  0.2713
  135OSM   C10S14646   5.652   4.030   7.476 -0.0782  0.1690  0.1457
  135OSM   H10S14647   5.625   3.926   7.504 -0.8395  0.5087  0.7168
  135OSM   H10T14648   5.577   4.101   7.517  1.1244  0.2112  2.4316
  135OSM   C11S14649   5.790   4.068   7.561  1.2941  0.0405 -0.2017
  135OSM   H11S14650   5.810   4.177   7.555  3.5292 -0.3117  0.1903
  135OSM   H11T14651   5.880   4.010   7.532  0.0180 -2.5440  0.7557
  135OSM   C12S14652   5.761   4.035   7.707 -0.0581  0.4522  0.4170
  135OSM   H12S14653   5.756   3.926   7.729 -0.9750  0.4744  0.3948
  135OSM   H12T14654   5.659   4.077   7.722 -0.8258 -1.3992  0.7526
  135OSM   C13S14655   5.864   4.089   7.808  0.6352  0.3245 -0.2244
  135OSM   H13S14656   5.882   4.197   7.787 -1.8428  0.6939 -0.8860
  135OSM   H13T14657   5.956   4.030   7.791  1.1052  0.7905  0.6741
  135OSM   C14S14658   5.835   4.083   7.957  0.1318 -0.3070 -0.5480
  135OSM   H14S14659   5.837   3.977   7.993  1.1304 -0.1501 -0.0998
  135OSM   H14T14660   5.739   4.133   7.980  0.1288 -1.4531  2.3804
  135OSM   C15S14661   5.941   4.167   8.041  0.1728 -0.1185  0.2061
  135OSM   H15S14662   5.944   4.266   7.991  1.5740 -0.5591 -0.6165
  135OSM   H15T14663   6.035   4.109   8.041 -1.3338 -2.7422  0.1935
  135OSM   C16S14664   5.894   4.193   8.184 -0.0521  0.0265  0.2814
  135OSM   H16S14665   5.916   4.091   8.224  1.9621  0.5261  0.5507
  135OSM   H16T14666   5.788   4.223   8.195 -0.1502 -0.7564  1.8002
  135OSM   C17S14667   5.984   4.284   8.269  0.1938  0.4170  0.8069
  135OSM   H17S14668   5.977   4.388   8.231  0.9779 -0.2235 -1.2169
  135OSM   H17T14669   6.093   4.263   8.260  0.4888  0.9114  2.7791
  135OSM   C18S14670   5.943   4.288   8.416 -0.4184  0.2898  0.6649
  135OSM   H18S14671   6.008   4.349   8.483 -0.6464 -1.9146  3.0741
  135OSM   H18T14672   5.959   4.181   8.441  0.0030  0.0363 -0.6520
  135OSM   H18U14673   5.835   4.302   8.438 -0.3616 -0.5021  1.5297
  135OSM    C1F14674   6.025   3.695   6.613  0.4943 -0.2687  0.9482
  135OSM     OF14675   6.104   3.763   6.548 -0.5807  0.6805 -0.0604
  135OSM    C2F14676   6.066   3.557   6.652  0.0653  1.2271  0.3401
  135OSM    H2F14677   6.097   3.509   6.557  1.6828 -1.7287  2.2015
  135OSM    H2G14678   5.971   3.505   6.677  1.5342 -0.7902  2.0271
  135OSM    C3F14679   6.172   3.558   6.765  0.1921  0.8656  0.0164
  135OSM    H3F14680   6.262   3.616   6.735  0.3702  1.7224  2.0172
  135OSM    H3G14681   6.210   3.456   6.789 -0.3243  0.7605  0.4045
  135OSM    C4F14682   6.128   3.617   6.894  0.2946  0.6127  0.1017
  135OSM    H4F14683   6.026   3.583   6.920  0.8767 -2.1155 -0.8458
  135OSM    H4G14684   6.120   3.728   6.896 -1.1133  0.5187  0.8473
  135OSM    C5F14685   6.229   3.574   7.005  0.5610  0.0653 -0.3269
  135OSM    H5F14686   6.322   3.635   7.002  1.1184 -0.7566 -0.2826
  135OSM    H5G14687   6.269   3.477   6.970 -1.1355 -0.8507  0.1527
  135OSM    C6F14688   6.167   3.547   7.147 -0.5567  0.1834  0.1273
  135OSM    H6F14689   6.230   3.476   7.205 -1.0942 -1.9055 -1.6827
  135OSM    H6G14690   6.068   3.496   7.141 -1.1802  1.1827  1.4538
  135OSM    C7F14691   6.147   3.677   7.223  0.6115 -0.3062  0.1812
  135OSM    H7F14692   6.095   3.759   7.169  2.1347  1.1359  0.8088
  135OSM    H7G14693   6.250   3.710   7.247 -0.3040  1.1828  2.3481
  135OSM    C8F14694   6.083   3.646   7.359 -0.0654  0.4329  0.7499
  135OSM    H8F14695   6.143   3.562   7.400 -0.9412  0.1862  1.5422
  135OSM    H8G14696   5.979   3.610   7.341 -0.6940  2.6440 -0.3764
  135OSM    C9F14697   6.078   3.763   7.453 -0.2665  0.2202 -0.0895
  135OSM    H9F14698   6.051   3.851   7.394  1.1744 -1.1473 -2.9944
  135OSM   C10F14699   6.134   3.775   7.575  0.1432 -0.0598 -0.1349
  135OSM   H10F14700   6.114   3.868   7.631  2.5839 -0.4111  1.4593
  135OSM   C11F14701   6.205   3.667   7.663 -0.0866 -0.1458  0.2746
  135OSM   H11F14702   6.302   3.701   7.707  0.2409 -0.4471 -0.2056
  135OSM   H11G14703   6.216   3.576   7.600 -0.3821  0.4477 -0.6519
  135OSM   C12F14704   6.119   3.636   7.789  0.4175 -0.7103  1.0131
  135OSM   H12F14705   6.023   3.599   7.747 -0.4298  1.7596  0.6104
  135OSM   H12G14706   6.096   3.733   7.839  0.1911  0.7348 -1.7012
  135OSM   C13F14707   6.169   3.534   7.887 -0.2067  0.0484 -0.1134
  135OSM   H13F14708   6.275   3.557   7.914  0.3073  0.1218 -2.0347
  135OSM   H13G14709   6.163   3.437   7.833 -1.1975 -0.6439  1.2004
  135OSM   C14F14710   6.100   3.536   8.023  0.3186 -0.0382 -0.2322
  135OSM   H14F14711   6.137   3.452   8.085 -1.6296 -0.1466  0.8634
  135OSM   H14G14712   5.998   3.504   7.993 -0.6511  1.3844  1.3526
  135OSM   C15F14713   6.103   3.668   8.102  0.3355  0.1962  0.9644
  135OSM   H15F14714   6.079   3.744   8.025  0.1127 -1.4559 -0.6896
  135OSM   H15G14715   6.202   3.686   8.150  0.8069  0.2294  0.0249
  135OSM   C16F14716   6.015   3.676   8.224  0.0441  1.5339 -0.0849
  135OSM   H16F14717   6.058   3.606   8.299 -0.4869  0.5213 -0.7100
  135OSM   H16G14718   5.915   3.629   8.211  1.0237 -1.1609  1.4650
  135OSM   C17F14719   5.992   3.811   8.286 -0.8484  0.0398  0.0415
  135OSM   H17F14720   5.944   3.870   8.205 -0.3201  1.5011  0.7576
  135OSM   H17G14721   6.097   3.843   8.303 -0.0007 -2.0625 -0.9866
  135OSM   C18F14722   5.924   3.799   8.420 -0.3928  0.2840  0.4376
  135OSM   H18F14723   5.895   3.905   8.434  1.5033  0.9178 -0.2310
  135OSM   H18G14724   5.977   3.758   8.509  0.8201 -1.5909 -1.0694
  135OSM   H18H14725   5.830   3.739   8.418 -1.0586  1.3106  0.6092
  136OSM      N14726   5.932   2.956   6.176 -0.4964  0.2016 -0.6526
  136OSM    C1514727   5.924   3.102   6.204 -0.6765  0.6277 -0.1053
  136OSM   H15A14728   5.822   3.122   6.231 -0.9044 -2.0238  1.3293
  136OSM   H15B14729   5.935   3.166   6.118 -1.0734 -0.2015 -0.7874
  136OSM   H15C14730   6.003   3.135   6.270 -1.0239 -0.3745  0.8416
  136OSM    C1414731   5.833   2.913   6.080 -0.3062 -0.0339  0.0503
  136OSM   H14A14732   5.838   2.975   5.992  0.6307  2.5296  1.7714
  136OSM   H14B14733   5.736   2.909   6.126  0.3984 -1.4907  1.5022
  136OSM   H14C14734   5.836   2.812   6.042  1.0383 -0.0881  0.2575
  136OSM    C1314735   6.064   2.927   6.113  0.2326 -0.3156  0.3917
  136OSM   H13A14736   6.061   2.961   6.011  3.1298 -1.6927 -0.2415
  136OSM   H13B14737   6.076   2.821   6.092  1.1401 -0.4868  1.6437
  136OSM   H13C14738   6.152   2.957   6.166 -0.6558  2.9013  0.2279
  136OSM    C1214739   5.921   2.887   6.303 -0.2354  0.1820  0.3276
  136OSM   H12A14740   5.983   2.921   6.384 -2.5234  0.3110  2.1421
  136OSM   H12B14741   5.960   2.788   6.286  2.5847  1.1856  0.4983
  136OSM    C1114742   5.778   2.864   6.365  0.0289  0.1966 -0.0404
  136OSM   H11A14743   5.746   2.968   6.386  0.0747  0.1743  0.1368
  136OSM   H11B14744   5.785   2.811   6.462  1.5168  0.6006  0.0808
  136OSM      P14745   5.668   2.643   6.252  0.2895  0.1741  0.0072
  136OSM    O1314746   5.525   2.612   6.212 -0.6350  0.1921  0.3737
  136OSM    O1414747   5.773   2.594   6.157 -0.4883  0.3453  0.1341
  136OSM    O1114748   5.687   2.588   6.398 -0.6238  0.1058 -0.4428
  136OSM    O1214749   5.682   2.802   6.273 -0.1858  0.2779 -0.0639
  136OSM    C1S14750   5.825   2.553   6.431 -0.1092  0.3480 -0.1054
  136OSM    H1S14751   5.900   2.633   6.416 -0.7230  0.7925 -0.8838
  136OSM    H1T14752   5.856   2.457   6.384  0.7168  0.6269 -0.1432
  136OSM     NF14753   5.974   2.492   6.625  0.2712  0.6010 -0.3837
  136OSM    HNF14754   6.013   2.401   6.626 -1.6191 -0.3025 -2.0069
  136OSM    C2S14755   5.835   2.500   6.578  0.4810  0.0306 -0.5866
  136OSM    H2S14756   5.783   2.578   6.638 -0.4539 -0.8675 -0.2096
  136OSM    C3S14757   5.760   2.375   6.604  0.4987  0.2261  0.0376
  136OSM    H3S14758   5.823   2.289   6.573  1.0156  1.1098 -1.4968
  136OSM     O314759   5.632   2.359   6.545 -0.1593 -0.1545  0.7273
  136OSM    HO314760   5.631   2.438   6.490 -1.2263  1.3727  2.8142
  136OSM    C4S14761   5.764   2.343   6.754  0.5649  0.5099 -0.3528
  136OSM    H4S14762   5.858   2.304   6.796 -0.7503 -1.8226  0.6321
  136OSM    C5S14763   5.658   2.350   6.838  0.2121  0.3456 -0.1343
  136OSM    H5S14764   5.557   2.384   6.812 -0.9852 -1.0264  2.3591
  136OSM    C6S14765   5.682   2.310   6.988  0.0175  0.1957 -0.1357
  136OSM    H6S14766   5.786   2.277   7.003 -0.8107 -2.4178  0.3181
  136OSM    H6T14767   5.619   2.221   7.010 -0.6690  0.3523 -1.3586
  136OSM    C7S14768   5.666   2.427   7.093  0.2421 -0.9123  0.4833
  136OSM    H7S14769   5.557   2.450   7.092  0.3821 -0.1537 -0.9705
  136OSM    H7T14770   5.716   2.522   7.065 -1.1043  0.0966  1.3646
  136OSM    C8S14771   5.711   2.393   7.230 -0.5536  0.4553 -0.2269
  136OSM    H8S14772   5.819   2.418   7.236 -0.5734  0.2415  2.9970
  136OSM    H8T14773   5.700   2.286   7.259  1.1556  0.4627  0.5845
  136OSM    C9S14774   5.642   2.478   7.336  0.0805 -0.5235 -0.0782
  136OSM    H9S14775   5.531   2.472   7.327 -0.0019 -1.2466  1.1430
  136OSM    H9T14776   5.664   2.586   7.325 -0.2952 -0.2603  1.4856
  136OSM   C10S14777   5.674   2.430   7.473 -0.6085 -0.1229 -0.2690
  136OSM   H10S14778   5.782   2.401   7.479  0.1936  1.8647 -3.0929
  136OSM   H10T14779   5.614   2.338   7.492 -0.3638  0.0210  1.3203
  136OSM   C11S14780   5.645   2.541   7.575  0.8091  0.6707 -0.1949
  136OSM   H11S14781   5.565   2.605   7.532  1.2809  0.8870 -0.7604
  136OSM   H11T14782   5.736   2.604   7.576  0.7251  1.0499 -3.6060
  136OSM   C12S14783   5.609   2.491   7.713  0.6513 -0.3783 -0.6104
  136OSM   H12S14784   5.703   2.450   7.755  1.7928  1.3788 -1.3151
  136OSM   H12T14785   5.541   2.403   7.711  1.1989 -0.8217 -0.1940
  136OSM   C13S14786   5.571   2.607   7.799 -0.3262  0.9179  0.7873
  136OSM   H13S14787   5.485   2.662   7.755 -2.1281 -3.3506 -1.7679
  136OSM   H13T14788   5.666   2.660   7.820 -0.3886  1.3281  0.0531
  136OSM   C14S14789   5.525   2.565   7.939 -0.5548  0.9487  0.9254
  136OSM   H14S14790   5.607   2.508   7.987 -1.1468  0.3377  1.2420
  136OSM   H14T14791   5.436   2.500   7.924  0.9350 -0.8566 -0.5904
  136OSM   C15S14792   5.490   2.685   8.028  0.2132 -0.0389  0.1032
  136OSM   H15S14793   5.397   2.735   7.994  0.2293  0.5441  0.8820
  136OSM   H15T14794   5.578   2.753   8.021  1.0202 -1.0397  0.2248
  136OSM   C16S14795   5.472   2.659   8.180 -0.1793  0.0375 -0.1374
  136OSM   H16S14796   5.534   2.569   8.202  2.6116  2.2320  1.8203
  136OSM   H16T14797   5.367   2.630   8.200  0.0871 -0.4528  0.5643
  136OSM   C17S14798   5.519   2.774   8.275 -0.3277  0.5503  0.6802
  136OSM   H17S14799   5.471   2.754   8.373 -1.8298 -0.3821 -0.2041
  136OSM   H17T14800   5.486   2.874   8.239 -1.1648 -0.0146 -0.1834
  136OSM   C18S14801   5.668   2.775   8.294  0.6091  0.2703  0.1328
  136OSM   H18S14802   5.698   2.855   8.365  0.7566  1.3498 -1.1103
  136OSM   H18T14803   5.710   2.779   8.191 -0.0471  2.5097 -0.1050
  136OSM   H18U14804   5.701   2.685   8.351  0.0111 -2.0158 -2.8971
  136OSM    C1F14805   6.053   2.591   6.661 -0.6741 -0.1402 -0.4182
  136OSM     OF14806   6.024   2.707   6.664  0.3266 -0.6065 -0.0108
  136OSM    C2F14807   6.199   2.555   6.690 -0.1647  0.5607 -0.6231
  136OSM    H2F14808   6.255   2.581   6.598 -0.1337  0.0991 -0.7385
  136OSM    H2G14809   6.208   2.445   6.703 -0.8744  0.3650 -1.6727
  136OSM    C3F14810   6.253   2.621   6.821  0.6280 -0.4065  0.8036
  136OSM    H3F14811   6.268   2.729   6.800 -2.5507 -0.2287 -1.3322
  136OSM    H3G14812   6.346   2.563   6.838  1.1898 -0.0518 -0.8619
  136OSM    C4F14813   6.168   2.605   6.945  0.7187 -0.6848 -0.2964
  136OSM    H4F14814   6.060   2.630   6.936  0.6585 -0.0273  1.8415
  136OSM    H4G14815   6.220   2.668   7.020 -1.1771  1.4157 -0.6313
  136OSM    C5F14816   6.169   2.460   6.995 -0.1604 -0.2906 -0.7199
  136OSM    H5F14817   6.277   2.436   6.994 -0.1037 -0.0321 -0.9517
  136OSM    H5G14818   6.115   2.389   6.928 -1.5109  1.0612 -1.1222
  136OSM    C6F14819   6.112   2.451   7.137  0.0014 -0.1518 -0.3853
  136OSM    H6F14820   6.124   2.348   7.178  0.9501  0.0919 -0.0448
  136OSM    H6G14821   6.005   2.481   7.139 -0.0194 -0.2546  0.1728
  136OSM    C7F14822   6.199   2.543   7.233  0.2515 -0.4598  0.2790
  136OSM    H7F14823   6.158   2.646   7.233  4.4063  1.4397 -0.6742
  136OSM    H7G14824   6.303   2.546   7.194  0.1953 -0.4194  0.1344
  136OSM    C8F14825   6.198   2.482   7.377  0.0008 -0.0163  0.2691
  136OSM    H8F14826   6.278   2.537   7.432 -1.7620  1.2681  1.7000
  136OSM    H8G14827   6.227   2.375   7.373 -1.5920 -0.4605 -2.4754
  136OSM    C9F14828   6.068   2.514   7.446 -0.0457 -0.3000 -0.5777
  136OSM    H9F14829   5.984   2.526   7.377 -1.3675  2.4312  1.3176
  136OSM   C10F14830   6.055   2.509   7.584 -0.3825  0.0258 -0.2915
  136OSM   H10F14831   5.960   2.540   7.629  0.1965  1.8773 -0.2491
  136OSM   C11F14832   6.171   2.474   7.668  0.4611  0.3689 -0.5474
  136OSM   H11F14833   6.268   2.454   7.618  0.0957  0.6082 -1.3693
  136OSM   H11G14834   6.145   2.389   7.734 -2.8804  1.3699 -0.4227
  136OSM   C12F14835   6.211   2.587   7.762 -0.1041 -0.1886 -0.0302
  136OSM   H12F14836   6.243   2.682   7.715  0.1065  0.9876  2.3361
  136OSM   H12G14837   6.292   2.552   7.830  0.1398  0.5040  0.0340
  136OSM   C13F14838   6.104   2.618   7.867 -0.3124  0.4091 -0.1784
  136OSM   H13F14839   6.080   2.521   7.916 -0.1490  0.9737  1.0393
  136OSM   H13G14840   6.014   2.661   7.818 -0.3291  2.2736  1.3759
  136OSM   C14F14841   6.159   2.706   7.986 -0.4135 -0.1022  0.6364
  136OSM   H14F14842   6.187   2.803   7.940 -0.4419  0.4571  1.7781
  136OSM   H14G14843   6.243   2.648   8.029 -1.8096  0.1461  3.9618
  136OSM   C15F14844   6.068   2.747   8.098 -0.5883 -0.0834 -0.1248
  136OSM   H15F14845   5.981   2.805   8.061  0.5955  0.4420 -2.3201
  136OSM   H15G14846   6.125   2.821   8.157  0.7552  0.5456 -2.0900
  136OSM   C16F14847   6.041   2.630   8.188 -0.3284  0.0153 -0.1348
  136OSM   H16F14848   6.123   2.555   8.190  0.3024  0.6992 -0.0783
  136OSM   H16G14849   5.952   2.576   8.150  0.4566 -0.8384 -0.8271
  136OSM   C17F14850   6.019   2.661   8.341  0.0233 -0.1227 -0.8085
  136OSM   H17F14851   5.983   2.564   8.382 -0.7642  0.0653 -1.0455
  136OSM   H17G14852   5.933   2.730   8.356 -1.7467 -1.8044 -2.5631
  136OSM   C18F14853   6.145   2.706   8.420 -0.1463 -0.4056  0.5106
  136OSM   H18F14854   6.178   2.809   8.390  1.8305 -0.8510  0.9940
  136OSM   H18G14855   6.231   2.648   8.379  0.7738  1.4227 -0.3171
  136OSM   H18H14856   6.133   2.709   8.530  0.6391  0.3623  0.5902
  137OSM      N14857   1.650   1.354   6.140 -0.1625 -0.1340 -0.3851
  137OSM    C1514858   1.625   1.209   6.100 -0.3813 -0.5965 -0.3906
  137OSM   H15A14859   1.635   1.203   5.993 -0.2336  3.1361 -0.7197
  137OSM   H15B14860   1.536   1.177   6.151  0.3628 -2.9265 -0.4493
  137OSM   H15C14861   1.699   1.153   6.156 -1.2534  0.6082  2.1198
  137OSM    C1414862   1.775   1.405   6.078  0.3368 -0.1860  0.1003
  137OSM   H14A14863   1.799   1.505   6.110 -0.1306 -0.1419  0.3231
  137OSM   H14B14864   1.774   1.412   5.971 -1.9591  0.0005  0.0748
  137OSM   H14C14865   1.861   1.346   6.106  0.7180 -0.4383 -1.4922
  137OSM    C1314866   1.540   1.425   6.069  0.7468 -0.5076 -0.4150
  137OSM   H13A14867   1.538   1.409   5.962  0.2740  2.1173 -0.8731
  137OSM   H13B14868   1.533   1.528   6.101  0.0646 -0.2633 -1.2872
  137OSM   H13C14869   1.445   1.375   6.085  0.0124  1.1584  0.7070
  137OSM    C1214870   1.649   1.379   6.284 -0.2230  0.6657 -0.5915
  137OSM   H12A14871   1.547   1.391   6.315 -0.2180  0.8391 -0.6438
  137OSM   H12B14872   1.687   1.478   6.302  0.3063  0.2001  1.0067
  137OSM    C1114873   1.723   1.280   6.386  0.5329  0.2575  0.4688
  137OSM   H11A14874   1.675   1.180   6.380  2.3374 -0.6647  0.8364
  137OSM   H11B14875   1.709   1.321   6.489  3.1646 -0.1854  1.0775
  137OSM      P14876   1.949   1.154   6.413 -0.4653 -0.1291  0.1363
  137OSM    O1314877   1.892   1.037   6.353  0.3926  0.3773  0.3399
  137OSM    O1414878   2.091   1.173   6.401 -0.4387  0.0610  0.2150
  137OSM    O1114879   1.926   1.157   6.568  0.3165 -0.1938 -0.3049
  137OSM    O1214880   1.864   1.276   6.362  0.2388 -0.1883  0.0546
  137OSM    C1S14881   1.989   1.255   6.649 -0.6069  0.2999  0.1034
  137OSM    H1S14882   1.979   1.360   6.614 -0.4753  0.4364  0.4670
  137OSM    H1T14883   2.097   1.236   6.638 -1.1372 -1.6903 -2.7587
  137OSM     NF14884   1.981   1.367   6.861  0.2834  0.5031  0.7666
  137OSM    HNF14885   2.072   1.367   6.901  1.1365 -0.3622 -1.0513
  137OSM    C2S14886   1.939   1.247   6.793  0.4000  0.9068 -0.0210
  137OSM    H2S14887   1.828   1.243   6.792  0.4300 -1.0000 -0.9958
  137OSM    C3S14888   1.987   1.116   6.857 -0.0162 -0.2887 -0.0410
  137OSM    H3S14889   2.098   1.114   6.851 -0.0273 -2.0678 -0.2568
  137OSM     O314890   1.951   0.999   6.786  0.2812 -0.9197  0.4514
  137OSM    HO314891   1.946   1.032   6.697 -1.8847  0.8422  1.1287
  137OSM    C4S14892   1.951   1.094   7.013 -0.1705 -0.2550  0.1240
  137OSM    H4S14893   2.020   1.139   7.086 -0.0263 -2.9411  1.7952
  137OSM    C5S14894   1.844   1.026   7.055 -0.5294 -0.3908 -0.4945
  137OSM    H5S14895   1.763   0.995   6.987 -2.8450 -0.8728  2.2598
  137OSM    C6S14896   1.807   1.018   7.200  0.1680  0.1994 -0.7341
  137OSM    H6S14897   1.819   0.913   7.234 -1.3133  0.4880  0.8125
  137OSM    H6T14898   1.699   1.028   7.225  0.8097 -1.4551  3.4575
  137OSM    C7S14899   1.887   1.102   7.313  0.6776  0.0099 -0.2801
  137OSM    H7S14900   1.879   1.211   7.297  1.2254  0.2140  0.7467
  137OSM    H7T14901   1.996   1.085   7.318  0.9093  1.6388  2.8322
  137OSM    C8S14902   1.826   1.078   7.453 -0.3850  0.2489 -0.0256
  137OSM    H8S14903   1.716   1.096   7.445 -0.6425 -1.2980 -0.2382
  137OSM    H8T14904   1.862   1.151   7.529 -2.7578  0.8361  0.6381
  137OSM    C9S14905   1.843   0.939   7.505 -0.3295 -0.0605 -0.2165
  137OSM    H9S14906   1.945   0.896   7.497  0.3357  1.3402  0.2135
  137OSM    H9T14907   1.769   0.889   7.439 -0.6978 -0.6907  0.6542
  137OSM   C10S14908   1.794   0.914   7.651  0.2657 -0.2908  0.3339
  137OSM   H10S14909   1.871   0.950   7.724 -0.2816  1.9918 -0.1153
  137OSM   H10T14910   1.785   0.806   7.672 -1.4732 -0.1197  0.6035
  137OSM   C11S14911   1.653   0.965   7.686  0.2542  0.4835  0.1867
  137OSM   H11S14912   1.588   0.912   7.614  0.3070  0.2984  0.2735
  137OSM   H11T14913   1.629   1.072   7.669 -0.9987 -0.0028 -1.2832
  137OSM   C12S14914   1.613   0.928   7.826  0.8238 -0.1474 -0.3713
  137OSM   H12S14915   1.684   0.968   7.902  1.0928  1.4318 -1.3965
  137OSM   H12T14916   1.624   0.819   7.844 -0.7007 -0.5203 -1.5354
  137OSM   C13S14917   1.466   0.966   7.850 -0.0383  0.4314 -0.4487
  137OSM   H13S14918   1.405   0.944   7.760 -1.4581 -0.9568  0.8041
  137OSM   H13T14919   1.457   1.072   7.881 -1.3813 -0.0370  0.8617
  137OSM   C14S14920   1.412   0.884   7.965 -0.1121  0.3175 -0.0964
  137OSM   H14S14921   1.489   0.886   8.045  2.0448  1.4570 -2.0622
  137OSM   H14T14922   1.415   0.774   7.947 -1.1067  0.1777  0.5361
  137OSM   C15S14923   1.281   0.933   8.022  1.0118 -0.6809  0.4086
  137OSM   H15S14924   1.199   0.921   7.948 -0.5141 -3.1299  2.2997
  137OSM   H15T14925   1.292   1.042   8.042  0.5711 -0.9110  2.0489
  137OSM   C16S14926   1.246   0.867   8.161  0.3990 -0.5163  0.4513
  137OSM   H16S14927   1.235   0.757   8.145 -1.2664 -0.3866  0.5677
  137OSM   H16T14928   1.142   0.894   8.187  1.2851  3.0309  0.7837
  137OSM   C17S14929   1.337   0.913   8.266 -0.2677  0.0068 -0.1854
  137OSM   H17S14930   1.364   1.021   8.268  1.5344 -0.4033 -0.2143
  137OSM   H17T14931   1.429   0.850   8.259 -1.7833 -2.2458 -0.7240
  137OSM   C18S14932   1.292   0.883   8.414 -0.2821  0.1794  0.2298
  137OSM   H18S14933   1.194   0.935   8.423  0.1260  0.7508  1.5466
  137OSM   H18T14934   1.364   0.925   8.488 -0.0102 -0.8126  0.5443
  137OSM   H18U14935   1.273   0.777   8.438 -2.9069  0.9554  2.0913
  137OSM    C1F14936   1.921   1.481   6.858  0.1286 -0.0382 -0.7344
  137OSM     OF14937   1.807   1.495   6.814  0.0860  0.1981  0.3787
  137OSM    C2F14938   1.991   1.596   6.920  0.1589 -0.3341  0.2476
  137OSM    H2F14939   1.962   1.692   6.872 -4.2537 -0.6464  1.8237
  137OSM    H2G14940   2.100   1.574   6.925  0.1915 -0.2867 -0.2485
  137OSM    C3F14941   1.918   1.625   7.059  0.0683 -0.0289 -0.4238
  137OSM    H3F14942   1.809   1.634   7.042 -0.2295 -0.7459  0.9275
  137OSM    H3G14943   1.954   1.723   7.097  0.8852 -0.2999 -0.4822
  137OSM    C4F14944   1.944   1.514   7.161  0.0379  0.5994  0.5222
  137OSM    H4F14945   2.052   1.489   7.168  0.4521  2.0682 -0.2151
  137OSM    H4G14946   1.884   1.434   7.113  0.2753  2.0925 -2.5224
  137OSM    C5F14947   1.891   1.541   7.301  0.1681  0.0739 -0.2176
  137OSM    H5F14948   1.888   1.441   7.351 -2.1039  0.8407  1.3694
  137OSM    H5G14949   1.786   1.577   7.289  0.8002  2.4681  0.9456
  137OSM    C6F14950   1.967   1.649   7.382 -0.2285 -0.0049  0.2931
  137OSM    H6F14951   1.990   1.732   7.311 -1.0813 -1.7733 -2.1948
  137OSM    H6G14952   2.065   1.603   7.407 -0.9957 -1.3197  0.9808
  137OSM    C7F14953   1.884   1.712   7.496 -0.3380  0.0442 -0.4049
  137OSM    H7F14954   1.794   1.739   7.437 -0.7340  0.4103  0.3494
  137OSM    H7G14955   1.929   1.802   7.542 -2.6917  0.6096  0.9946
  137OSM    C8F14956   1.853   1.616   7.617 -0.2690 -0.4582  0.6637
  137OSM    H8F14957   1.819   1.523   7.566 -0.1856  0.1657 -0.5784
  137OSM    H8G14958   1.770   1.660   7.676 -0.8178 -2.6795  1.6878
  137OSM    C9F14959   1.973   1.574   7.695 -0.1507 -0.1578 -0.7896
  137OSM    H9F14960   2.016   1.476   7.667  0.6887  0.0450 -0.2343
  137OSM   C10F14961   2.021   1.638   7.804  0.1416  0.4810  0.1464
  137OSM   H10F14962   2.114   1.596   7.843 -1.0321 -1.0256  1.4715
  137OSM   C11F14963   1.958   1.763   7.867  0.5173 -0.0912  0.2994
  137OSM   H11F14964   1.876   1.803   7.804  0.5576 -0.0460  0.2764
  137OSM   H11G14965   2.044   1.833   7.864  0.2887  0.1762 -0.0697
  137OSM   C12F14966   1.924   1.757   8.020 -0.3749  0.2124  0.1390
  137OSM   H12F14967   2.012   1.719   8.076 -0.4969  0.8920  0.8092
  137OSM   H12G14968   1.842   1.686   8.042  1.5538 -1.9657  0.6202
  137OSM   C13F14969   1.908   1.901   8.061 -0.2859  0.2389 -0.1962
  137OSM   H13F14970   1.827   1.953   8.005 -0.9705  0.5639  1.0628
  137OSM   H13G14971   2.001   1.960   8.050 -0.5410  0.7847  0.5142
  137OSM   C14F14972   1.867   1.903   8.206  0.2460 -0.0768 -0.1367
  137OSM   H14F14973   1.965   1.874   8.251 -0.6315 -1.6173  0.8331
  137OSM   H14G14974   1.787   1.835   8.240  0.3432  0.1566  0.5796
  137OSM   C15F14975   1.838   2.047   8.263  0.2828 -0.0939  0.0511
  137OSM   H15F14976   1.754   2.085   8.200 -0.0050 -1.5714 -0.5106
  137OSM   H15G14977   1.920   2.116   8.236 -1.1343  1.0437 -1.6195
  137OSM   C16F14978   1.804   2.060   8.416  0.5998  0.1294  0.6000
  137OSM   H16F14979   1.721   1.989   8.438  0.4761  0.4580  1.2296
  137OSM   H16G14980   1.761   2.161   8.430  0.5681 -0.1215  2.8189
  137OSM   C17F14981   1.922   2.044   8.512 -0.9671 -0.0574  0.1684
  137OSM   H17F14982   1.934   1.936   8.534 -1.0704 -0.1300 -0.1323
  137OSM   H17G14983   1.892   2.089   8.609 -1.6441  0.1481 -0.1309
  137OSM   C18F14984   2.055   2.111   8.468 -0.7246 -0.1998  0.3181
  137OSM   H18F14985   2.052   2.221   8.452 -0.0952 -0.3466 -0.8994
  137OSM   H18G14986   2.082   2.069   8.369  0.8535 -0.6860  0.9312
  137OSM   H18H14987   2.145   2.099   8.532  0.6060 -1.7297 -1.7285
  138OSM      N14988   2.426   4.006   6.189 -0.6209 -0.4969 -0.0390
  138OSM    C1514989   2.312   4.029   6.099  0.3885 -0.0667  0.1954
  138OSM   H15A14990   2.312   4.136   6.084  2.7885  0.0428  0.4417
  138OSM   H15B14991   2.214   4.006   6.136  1.0256  0.8288  2.6487
  138OSM   H15C14992   2.337   3.978   6.007 -0.1834 -0.5920  0.3272
  138OSM    C1414993   2.550   4.062   6.127 -0.2378  0.3829 -0.3413
  138OSM   H14A14994   2.633   4.033   6.190 -0.7391  2.3265  1.2929
  138OSM   H14B14995   2.553   4.170   6.123  0.5624  0.4187  0.7855
  138OSM   H14C14996   2.570   4.023   6.028 -1.1906  2.3865 -1.3851
  138OSM    C1314997   2.388   4.100   6.306 -0.5764 -0.7942 -0.2084
  138OSM   H13A14998   2.467   4.090   6.379 -0.6894 -4.2449 -0.4130
  138OSM   H13B14999   2.299   4.075   6.362  0.5401  1.8326  3.0866
  138OSM   H13C15000   2.385   4.204   6.275 -2.4974 -0.5856  0.5148
  138OSM    C1215001   2.439   3.865   6.246 -0.5940  0.5069  0.3305
  138OSM   H12A15002   2.446   3.796   6.163 -1.4646  1.6939 -0.7758
  138OSM   H12B15003   2.343   3.838   6.288 -0.1762 -1.2799  0.2484
  138OSM    C1115004   2.551   3.830   6.348 -0.3090 -0.1269 -0.1516
  138OSM   H11A15005   2.528   3.731   6.394  1.9798  0.1424  1.7698
  138OSM   H11B15006   2.539   3.912   6.422 -0.8194  0.4493 -0.8601
  138OSM      P15007   2.819   3.883   6.372  0.0924 -0.5916 -0.0149
  138OSM    O1315008   2.911   3.768   6.381  0.3630 -0.0531  0.0626
  138OSM    O1415009   2.862   4.011   6.305  0.3145  0.7237  0.2453
  138OSM    O1115010   2.762   3.917   6.517 -0.5907 -0.0216  0.0717
  138OSM    O1215011   2.689   3.825   6.296  0.4620 -0.4267  0.4390
  138OSM    C1S15012   2.843   3.953   6.628  0.0474 -0.0982  0.2234
  138OSM    H1S15013   2.892   4.051   6.609 -1.2196  0.7263  1.0540
  138OSM    H1T15014   2.918   3.878   6.659 -0.5846 -0.6966  0.3444
  138OSM     NF15015   2.848   3.988   6.879 -0.3479  0.4924  0.0398
  138OSM    HNF15016   2.873   3.914   6.941  1.9254  1.6639  0.6456
  138OSM    C2S15017   2.763   3.956   6.764  0.3939  0.0019 -0.3883
  138OSM    H2S15018   2.691   4.041   6.755 -1.2169 -1.3003 -0.3101
  138OSM    C3S15019   2.680   3.818   6.787  0.4683 -0.3774  0.0300
  138OSM    H3S15020   2.753   3.735   6.777  0.7871 -0.1015  0.0389
  138OSM     O315021   2.586   3.795   6.679  0.3690  0.3604 -0.3706
  138OSM    HO315022   2.624   3.856   6.616 -1.1884  2.3375  0.4886
  138OSM    C4S15023   2.601   3.803   6.912 -0.8905 -0.0235 -0.0307
  138OSM    H4S15024   2.513   3.866   6.893 -0.2367  0.0106 -3.5803
  138OSM    C5S15025   2.621   3.712   7.008 -0.3374 -0.5783 -0.4137
  138OSM    H5S15026   2.693   3.630   6.994 -1.4622 -1.5630 -0.5058
  138OSM    C6S15027   2.529   3.689   7.124 -0.3658 -0.7748 -0.3535
  138OSM    H6S15028   2.428   3.736   7.118  0.5256  1.5147  1.3235
  138OSM    H6T15029   2.574   3.746   7.208 -2.0453 -0.9686  0.7246
  138OSM    C7S15030   2.525   3.549   7.180 -0.4499  0.2883 -0.6911
  138OSM    H7S15031   2.617   3.490   7.162  0.4194  1.4147 -0.0351
  138OSM    H7T15032   2.441   3.496   7.129 -0.2305 -2.7784  1.7892
  138OSM    C8S15033   2.491   3.544   7.333  0.1760  0.3165  0.5779
  138OSM    H8S15034   2.422   3.629   7.352  0.2549  0.3724  0.6143
  138OSM    H8T15035   2.585   3.570   7.386 -0.5642  0.8789  1.6727
  138OSM    C9S15036   2.441   3.407   7.373  0.9490  0.1069  0.8659
  138OSM    H9S15037   2.504   3.320   7.345 -0.5463  0.0687 -2.9227
  138OSM    H9T15038   2.343   3.391   7.324  1.7362 -1.1427 -0.3585
  138OSM   C10S15039   2.413   3.403   7.522  0.5487  0.6567  0.5881
  138OSM   H10S15040   2.375   3.302   7.548  0.6910  0.2641 -0.6676
  138OSM   H10T15041   2.331   3.474   7.546  0.2257  0.0251  1.4139
  138OSM   C11S15042   2.537   3.429   7.607 -0.3824  0.8793  0.1493
  138OSM   H11S15043   2.570   3.531   7.579  1.9762 -0.1820 -1.2815
  138OSM   H11T15044   2.614   3.350   7.592 -1.3806 -0.4873  1.8255
  138OSM   C12S15045   2.511   3.424   7.764 -0.1286 -0.2203 -0.0937
  138OSM   H12S15046   2.598   3.447   7.829 -1.1663  0.5245  1.0681
  138OSM   H12T15047   2.477   3.321   7.791  1.5860 -1.0338 -0.8257
  138OSM   C13S15048   2.417   3.527   7.814  0.4349 -1.5672 -0.2401
  138OSM   H13S15049   2.325   3.482   7.770  0.5468 -0.3791 -1.7770
  138OSM   H13T15050   2.441   3.624   7.767 -1.7818 -0.5232  0.6488
  138OSM   C14S15051   2.409   3.540   7.971  0.0959  0.1125 -0.1770
  138OSM   H14S15052   2.500   3.593   8.006  0.0550  0.7835 -1.0611
  138OSM   H14T15053   2.405   3.442   8.024  2.4878  0.2818  0.4230
  138OSM   C15S15054   2.281   3.622   8.012  0.1332 -0.6712  0.3607
  138OSM   H15S15055   2.193   3.554   8.007 -0.3996  0.0225  0.1364
  138OSM   H15T15056   2.267   3.698   7.932  1.4541 -0.8414 -0.0660
  138OSM   C16S15057   2.281   3.689   8.147  0.0743  0.4102  0.3152
  138OSM   H16S15058   2.355   3.772   8.157 -0.5281  1.3594 -2.2140
  138OSM   H16T15059   2.318   3.609   8.214  0.7508 -0.6058 -1.1887
  138OSM   C17S15060   2.143   3.747   8.195  0.1508  0.3323 -0.2816
  138OSM   H17S15061   2.154   3.803   8.290  0.7890  2.0307 -1.3252
  138OSM   H17T15062   2.071   3.662   8.198  0.3023  0.1925 -0.5531
  138OSM   C18S15063   2.078   3.856   8.100  0.4495  0.0760 -0.6828
  138OSM   H18S15064   2.055   3.815   7.999 -0.3725  1.2642 -0.9959
  138OSM   H18T15065   2.158   3.928   8.072  1.1888 -0.3330  0.3125
  138OSM   H18U15066   1.982   3.896   8.139  0.2454  0.7178 -1.7948
  138OSM    C1F15067   2.897   4.111   6.901 -0.2484 -0.2582 -0.2656
  138OSM     OF15068   2.855   4.206   6.832  0.1143  0.2052 -0.0673
  138OSM    C2F15069   3.007   4.126   7.008  0.8088  0.0265 -1.2845
  138OSM    H2F15070   3.108   4.110   6.965  1.7850  0.4889  0.7347
  138OSM    H2G15071   2.990   4.066   7.100  3.3957  0.2001 -0.6190
  138OSM    C3F15072   3.010   4.275   7.059  0.2276  0.4518  0.8226
  138OSM    H3F15073   2.907   4.296   7.095  0.6013  0.7757  1.7390
  138OSM    H3G15074   3.023   4.338   6.968 -1.3671 -0.5580 -0.1430
  138OSM    C4F15075   3.112   4.293   7.173 -0.0168 -0.1219  0.4053
  138OSM    H4F15076   3.155   4.395   7.178 -1.3142  0.4590  0.1817
  138OSM    H4G15077   3.194   4.219   7.164  0.7194  0.9826 -3.3982
  138OSM    C5F15078   3.053   4.269   7.313 -0.1841 -0.1406 -0.2288
  138OSM    H5F15079   3.143   4.252   7.375  0.9741 -0.8232 -2.0227
  138OSM    H5G15080   2.985   4.181   7.305  0.9278 -0.8397 -4.0828
  138OSM    C6F15081   2.970   4.383   7.378 -1.0015  0.1162 -0.0864
  138OSM    H6F15082   2.896   4.401   7.297 -0.8693  1.1561  0.0176
  138OSM    H6G15083   3.029   4.477   7.379  1.0918 -1.1200 -0.3053
  138OSM    C7F15084   2.911   4.348   7.517  0.4240 -0.0917  0.2574
  138OSM    H7F15085   2.996   4.368   7.586 -1.3223  2.7680  1.8044
  138OSM    H7G15086   2.885   4.240   7.525 -0.1775  0.1408  1.9080
  138OSM    C8F15087   2.796   4.426   7.567 -0.1292 -0.6450 -0.6273
  138OSM    H8F15088   2.726   4.366   7.629  0.1420  0.3023  0.6351
  138OSM    H8G15089   2.735   4.448   7.477  0.4036 -2.0111 -1.3661
  138OSM    C9F15090   2.833   4.551   7.635  0.1145  0.4199 -0.4117
  138OSM    H9F15091   2.916   4.602   7.583  0.8508 -0.5726 -0.2359
  138OSM   C10F15092   2.788   4.596   7.751  0.2704  0.1136 -0.4568
  138OSM   H10F15093   2.826   4.695   7.781  2.5164 -0.8538  0.0372
  138OSM   C11F15094   2.689   4.535   7.846 -0.0977 -0.5601  0.2683
  138OSM   H11F15095   2.658   4.435   7.809  1.0926 -0.1866 -1.9549
  138OSM   H11G15096   2.607   4.609   7.864  0.7029  0.2926  0.4864
  138OSM   C12F15097   2.761   4.508   7.980 -0.4734  0.8664  0.1859
  138OSM   H12F15098   2.813   4.599   8.018 -1.6409  2.7508 -2.4158
  138OSM   H12G15099   2.843   4.435   7.962 -0.3545  1.1208 -0.3281
  138OSM   C13F15100   2.674   4.453   8.091 -0.2615  0.3376 -0.1608
  138OSM   H13F15101   2.718   4.382   8.164 -0.2518 -1.3504 -1.7375
  138OSM   H13G15102   2.588   4.407   8.037  1.9297 -2.0583 -1.8889
  138OSM   C14F15103   2.624   4.571   8.180  0.0814 -0.0168  0.8494
  138OSM   H14F15104   2.582   4.641   8.105 -1.3451 -1.8626 -0.1556
  138OSM   H14G15105   2.711   4.620   8.228  2.0467 -2.1232 -0.3560
  138OSM   C15F15106   2.516   4.533   8.287  0.1638  0.2154 -0.3468
  138OSM   H15F15107   2.433   4.482   8.233  0.1119 -0.0031 -0.0640
  138OSM   H15G15108   2.465   4.627   8.315  1.4799  0.6675  0.6159
  138OSM   C16F15109   2.562   4.456   8.412  0.0508  0.0901  0.0879
  138OSM   H16F15110   2.597   4.356   8.378 -2.6827 -1.1601  0.6260
  138OSM   H16G15111   2.474   4.442   8.478 -0.3218  2.5586  0.1898
  138OSM   C17F15112   2.660   4.528   8.507  0.2108  0.3475 -0.7985
  138OSM   H17F15113   2.738   4.580   8.447 -0.5296  0.2214 -1.8991
  138OSM   H17G15114   2.718   4.452   8.564  0.3962  1.2064  0.1991
  138OSM   C18F15115   2.590   4.626   8.605 -0.0394  0.3473  0.3269
  138OSM   H18F15116   2.498   4.581   8.648 -0.6869  1.2445 -0.0953
  138OSM   H18G15117   2.541   4.717   8.566 -1.0615  0.3936  1.6268
  138OSM   H18H15118   2.662   4.662   8.682 -0.5639  1.5232  0.2792
  139OSM      N15119   0.376   6.064   6.398  0.0338  0.1515  0.2771
  139OSM    C1515120   0.491   6.107   6.309  0.4038  0.3554 -0.2328
  139OSM   H15A15121   0.464   6.172   6.227 -2.1672  0.9929  1.0069
  139OSM   H15B15122   0.546   6.019   6.279 -0.2327  0.1246 -0.7295
  139OSM   H15C15123   0.553   6.170   6.372  0.8282 -0.0497 -0.2463
  139OSM    C1415124   0.306   6.182   6.462  0.6092 -0.5346 -0.0607
  139OSM   H14A15125   0.225   6.152   6.527  0.9744  0.3836  0.8420
  139OSM   H14B15126   0.261   6.239   6.382 -1.7102  0.3989  1.7908
  139OSM   H14C15127   0.370   6.249   6.518  1.9020  2.2248 -4.3614
  139OSM    C1315128   0.275   6.013   6.295  0.2686  0.2126 -0.8296
  139OSM   H13A15129   0.174   6.004   6.334 -0.1412 -2.9944 -2.2856
  139OSM   H13B15130   0.309   5.919   6.254 -1.0695  0.2767 -2.1538
  139OSM   H13C15131   0.274   6.079   6.210  3.1616  0.6153 -0.6585
  139OSM    C1215132   0.422   5.967   6.499  0.5642  0.4720 -0.9833
  139OSM   H12A15133   0.344   5.929   6.563 -0.1896 -0.1005 -2.2052
  139OSM   H12B15134   0.498   6.016   6.558 -0.6920  1.0999  0.2006
  139OSM    C1115135   0.485   5.837   6.457  0.5326 -0.0135 -0.1681
  139OSM   H11A15136   0.406   5.780   6.402 -0.6663  0.8710  0.5792
  139OSM   H11B15137   0.515   5.774   6.544  0.2416 -1.3757 -1.0116
  139OSM      P15138   0.720   5.773   6.354 -0.3800  0.1336  0.2003
  139OSM    O1315139   0.693   5.651   6.271  0.2849  0.4894 -0.4231
  139OSM    O1415140   0.822   5.863   6.293 -0.0196  0.3989 -1.0910
  139OSM    O1115141   0.741   5.734   6.503 -0.0238  0.2613 -0.4554
  139OSM    O1215142   0.591   5.861   6.366 -0.2384 -0.2368 -0.3177
  139OSM    C1S15143   0.873   5.695   6.548 -0.5284 -0.0539 -0.1094
  139OSM    H1S15144   0.947   5.763   6.502  0.4243 -1.8702 -1.4267
  139OSM    H1T15145   0.908   5.597   6.508 -0.2341  0.6117 -1.5570
  139OSM     NF15146   1.014   5.662   6.747  0.0918  0.1011 -0.2188
  139OSM    HNF15147   1.031   5.584   6.808 -0.9927 -1.7033 -2.0918
  139OSM    C2S15148   0.880   5.697   6.711  0.0650  0.7543 -0.4496
  139OSM    H2S15149   0.861   5.804   6.734 -0.8118  0.6146 -0.4987
  139OSM    C3S15150   0.767   5.609   6.781 -0.0564 -0.6116 -0.1560
  139OSM    H3S15151   0.789   5.502   6.762 -0.0154 -0.2886 -2.1791
  139OSM     O315152   0.639   5.625   6.725 -0.1697 -0.2177 -0.6221
  139OSM    HO315153   0.659   5.669   6.642  1.5828  2.4786  1.0655
  139OSM    C4S15154   0.755   5.643   6.928 -0.1602  0.6353 -0.3449
  139OSM    H4S15155   0.712   5.739   6.962 -0.4302  0.1669  0.6740
  139OSM    C5S15156   0.786   5.556   7.025 -0.0595  0.4193 -0.8268
  139OSM    H5S15157   0.832   5.460   6.997  0.4308  0.2577  0.4615
  139OSM    C6S15158   0.785   5.597   7.169  0.0350 -0.2741  0.0900
  139OSM    H6S15159   0.885   5.571   7.210 -0.1719  0.2483  0.9601
  139OSM    H6T15160   0.722   5.536   7.236  1.3752  0.2811  1.9517
  139OSM    C7S15161   0.769   5.743   7.218 -0.0269  0.0964  0.2911
  139OSM    H7S15162   0.664   5.779   7.230  0.1155  1.4484 -2.0495
  139OSM    H7T15163   0.812   5.806   7.137 -2.3210  0.2054 -0.9423
  139OSM    C8S15164   0.823   5.768   7.357  0.0447  0.1685 -0.0232
  139OSM    H8S15165   0.823   5.876   7.384  2.4218  0.6966 -1.8108
  139OSM    H8T15166   0.932   5.749   7.366  0.0495  0.3085  0.2190
  139OSM    C9S15167   0.761   5.688   7.467  0.0222  0.2999  0.2167
  139OSM    H9S15168   0.766   5.577   7.471 -0.0405  0.2919  0.0794
  139OSM    H9T15169   0.653   5.716   7.464 -0.6919 -2.1616  0.7116
  139OSM   C10S15170   0.807   5.733   7.606  0.5476 -0.6064  0.7682
  139OSM   H10S15171   0.762   5.831   7.632  1.7032  0.0996  0.2005
  139OSM   H10T15172   0.917   5.748   7.613  0.6100 -0.3984 -0.4311
  139OSM   C11S15173   0.767   5.640   7.722  0.8609  0.1456  0.6911
  139OSM   H11S15174   0.804   5.535   7.720 -0.2044 -0.2438 -1.2417
  139OSM   H11T15175   0.656   5.636   7.718  0.6918  3.1673 -2.4535
  139OSM   C12S15176   0.814   5.708   7.850  0.4901  0.1820  0.2895
  139OSM   H12S15177   0.757   5.802   7.863 -0.6850  0.1218 -3.3909
  139OSM   H12T15178   0.922   5.731   7.838  0.5176 -0.7165 -1.5907
  139OSM   C13S15179   0.804   5.620   7.976 -0.1674  0.9792 -0.1277
  139OSM   H13S15180   0.884   5.544   7.976 -1.0861 -0.0226 -0.9788
  139OSM   H13T15181   0.702   5.579   7.994  0.4650  0.4472  2.6340
  139OSM   C14S15182   0.830   5.698   8.107  0.1874  0.3066 -0.6906
  139OSM   H14S15183   0.753   5.778   8.106 -2.7942 -2.4020 -0.9137
  139OSM   H14T15184   0.940   5.717   8.098  0.5685 -2.3129 -2.5981
  139OSM   C15S15185   0.800   5.602   8.224 -0.3323 -0.2933  0.4366
  139OSM   H15S15186   0.705   5.551   8.199  0.2505 -0.0966 -2.5139
  139OSM   H15T15187   0.792   5.672   8.310  0.8407  0.6392 -0.1841
  139OSM   C16S15188   0.916   5.514   8.251 -0.1653  0.9213 -0.2555
  139OSM   H16S15189   1.010   5.572   8.265 -0.4312  1.6603 -1.4455
  139OSM   H16T15190   0.935   5.449   8.163 -0.1628  1.6413 -0.7972
  139OSM   C17S15191   0.898   5.412   8.366  0.0412 -0.3318 -0.3974
  139OSM   H17S15192   0.808   5.346   8.370 -0.1289 -0.0647  0.4160
  139OSM   H17T15193   0.887   5.475   8.457  0.1629 -2.0126  0.8506
  139OSM   C18S15194   1.022   5.321   8.389  0.0462 -0.0330 -0.1197
  139OSM   H18S15195   1.113   5.378   8.359  0.1120 -0.4909 -0.7989
  139OSM   H18T15196   1.026   5.234   8.320  1.3243  0.2228 -0.3905
  139OSM   H18U15197   1.040   5.283   8.491 -2.5482 -0.0830  0.3946
  139OSM    C1F15198   1.116   5.741   6.721  0.1151 -0.4802 -0.0086
  139OSM     OF15199   1.102   5.856   6.682 -0.0738 -0.4433  0.5718
  139OSM    C2F15200   1.260   5.702   6.757  0.3700  0.2206  0.3165
  139OSM    H2F15201   1.299   5.667   6.659 -1.0902 -0.8711  0.0860
  139OSM    H2G15202   1.262   5.604   6.810  0.1920  0.8608  1.5285
  139OSM    C3F15203   1.345   5.810   6.827 -0.3392 -0.3339 -0.1327
  139OSM    H3F15204   1.331   5.908   6.776 -2.0407 -0.1325  0.6513
  139OSM    H3G15205   1.451   5.776   6.822  0.0699  0.3054  2.3615
  139OSM    C4F15206   1.311   5.816   6.980  1.1308  0.0295 -0.0342
  139OSM    H4F15207   1.201   5.827   6.994  1.4252  1.7331  1.4363
  139OSM    H4G15208   1.348   5.908   7.032  0.3373  1.5768 -2.0602
  139OSM    C5F15209   1.351   5.694   7.070 -0.5611  0.5705  0.2952
  139OSM    H5F15210   1.459   5.669   7.065 -0.9372 -1.4067  1.0509
  139OSM    H5G15211   1.291   5.604   7.044 -0.3034  0.2318  0.8505
  139OSM    C6F15212   1.310   5.728   7.217  0.4227 -0.4567 -0.3295
  139OSM    H6F15213   1.200   5.734   7.212  0.5134  1.9702 -0.4200
  139OSM    H6G15214   1.358   5.821   7.255 -2.0004  1.2951 -1.3408
  139OSM    C7F15215   1.356   5.612   7.311 -0.3379  0.1382 -0.3662
  139OSM    H7F15216   1.461   5.585   7.290 -0.6743 -0.2359 -1.6699
  139OSM    H7G15217   1.293   5.521   7.306 -0.0328 -0.5618  4.1624
  139OSM    C8F15218   1.345   5.660   7.463  0.4424  0.4823  0.3643
  139OSM    H8F15219   1.366   5.768   7.472 -0.5021  0.5629  1.9335
  139OSM    H8G15220   1.421   5.602   7.519  0.8067  3.1222  2.8353
  139OSM    C9F15221   1.208   5.640   7.513  0.1912 -0.2178 -0.0713
  139OSM    H9F15222   1.132   5.653   7.434  0.2909 -1.0429 -0.3066
  139OSM   C10F15223   1.180   5.606   7.636 -0.1270  0.2271  0.5654
  139OSM   H10F15224   1.075   5.592   7.664  0.8835 -0.8481  4.4944
  139OSM   C11F15225   1.287   5.590   7.745  0.2158 -0.4121  0.1537
  139OSM   H11F15226   1.359   5.675   7.745  0.2003 -0.3945  0.6336
  139OSM   H11G15227   1.357   5.504   7.739 -0.1042 -0.7175  0.6760
  139OSM   C12F15228   1.230   5.590   7.891 -0.5735 -0.2262  0.5891
  139OSM   H12F15229   1.135   5.534   7.899 -1.9694  1.7331 -1.2580
  139OSM   H12G15230   1.216   5.697   7.917 -2.4368 -0.6146  1.2812
  139OSM   C13F15231   1.339   5.534   7.991  0.2667  0.8367  0.0135
  139OSM   H13F15232   1.437   5.577   7.959  0.5607  1.0871  1.2108
  139OSM   H13G15233   1.341   5.423   7.987 -2.7789  0.7299 -2.1456
  139OSM   C14F15234   1.301   5.583   8.134 -0.0078 -0.0554 -0.0041
  139OSM   H14F15235   1.218   5.518   8.167 -0.0784  0.4157  0.7556
  139OSM   H14G15236   1.264   5.687   8.146 -0.3424 -0.2376  0.5674
  139OSM   C15F15237   1.418   5.564   8.240 -0.5670 -0.1573  0.9374
  139OSM   H15F15238   1.441   5.455   8.233  0.3950  0.1369 -1.6305
  139OSM   H15G15239   1.372   5.585   8.339 -1.7206 -1.1000  0.6189
  139OSM   C16F15240   1.543   5.643   8.231  0.7960 -0.1994  0.7125
  139OSM   H16F15241   1.586   5.635   8.129 -0.8486  1.8230 -0.2250
  139OSM   H16G15242   1.614   5.605   8.307  0.6263 -1.7278  0.1314
  139OSM   C17F15243   1.518   5.796   8.247 -0.2787  0.3928  0.5024
  139OSM   H17F15244   1.463   5.837   8.159 -0.0723  2.0470  1.1063
  139OSM   H17G15245   1.621   5.838   8.243 -0.4096  0.6626 -0.2156
  139OSM   C18F15246   1.440   5.845   8.362  0.2529 -0.0020 -0.2642
  139OSM   H18F15247   1.334   5.817   8.346  0.9154 -2.6151 -0.4636
  139OSM   H18G15248   1.462   5.952   8.382 -1.2220  0.1828  0.5272
  139OSM   H18H15249   1.473   5.800   8.458 -2.4035 -2.6108 -0.4267
  140OSM      N15250   1.507   0.690   6.002  0.5792  0.0728  0.4241
  140OSM    C1515251   1.392   0.697   5.904  0.3122 -0.1600  0.1478
  140OSM   H15A15252   1.305   0.738   5.952 -0.6044  2.3342 -3.2439
  140OSM   H15B15253   1.370   0.603   5.856  1.5952 -0.2783 -0.2524
  140OSM   H15C15254   1.409   0.774   5.829  0.3600  0.0557  0.3774
  140OSM    C1415255   1.639   0.648   5.927 -0.3443 -0.2255 -0.1487
  140OSM   H14A15256   1.615   0.549   5.893 -0.7092 -0.5069  0.8823
  140OSM   H14B15257   1.726   0.652   5.990  1.7101  0.4065 -2.8634
  140OSM   H14C15258   1.662   0.718   5.848 -0.9253  2.0008  1.5358
  140OSM    C1315259   1.532   0.825   6.055  0.2718  0.0402  0.3913
  140OSM   H13A15260   1.457   0.850   6.128 -0.4235 -0.4976 -0.1273
  140OSM   H13B15261   1.526   0.900   5.977 -1.6272 -1.2944 -0.8330
  140OSM   H13C15262   1.630   0.836   6.097  1.4087  0.7722 -2.2186
  140OSM    C1215263   1.468   0.600   6.119  0.2981 -0.3258 -0.3834
  140OSM   H12A15264   1.437   0.504   6.081 -0.7274 -0.7344  1.3580
  140OSM   H12B15265   1.377   0.632   6.167  1.1087 -0.2030  1.1516
  140OSM    C1115266   1.569   0.578   6.239 -0.0592 -0.1497  0.2744
  140OSM   H11A15267   1.524   0.513   6.317  0.9151 -1.3001 -0.0697
  140OSM   H11B15268   1.591   0.681   6.273 -0.4425  0.0237  0.0010
  140OSM      P15269   1.832   0.549   6.230  0.2876 -0.0349 -0.0786
  140OSM    O1315270   1.906   0.423   6.218 -0.3201 -0.0408  0.0843
  140OSM    O1415271   1.876   0.671   6.152  0.0612  0.0227 -0.2637
  140OSM    O1115272   1.815   0.584   6.381  0.3382  0.5851 -0.1062
  140OSM    O1215273   1.685   0.511   6.191  0.9018  0.6589 -0.3786
  140OSM    C1S15274   1.824   0.714   6.428  0.4003 -0.2784 -0.2508
  140OSM    H1S15275   1.744   0.778   6.385 -0.3899 -1.0985 -0.0478
  140OSM    H1T15276   1.927   0.751   6.413 -0.2881  0.9356 -2.2620
  140OSM     NF15277   1.755   0.834   6.634  0.2651 -0.2453 -0.6150
  140OSM    HNF15278   1.835   0.876   6.678 -1.4136  1.0532  1.3873
  140OSM    C2S15279   1.789   0.704   6.581 -0.5985 -0.2340  0.4539
  140OSM    H2S15280   1.703   0.633   6.582 -0.5495 -0.3070 -0.1122
  140OSM    C3S15281   1.916   0.641   6.647 -0.3101  0.0604 -0.4894
  140OSM    H3S15282   2.000   0.714   6.652  2.3175 -2.7989  0.4988
  140OSM     O315283   1.978   0.533   6.576  0.5686 -0.0286 -0.3843
  140OSM    HO315284   1.929   0.541   6.493 -1.5570  0.1685  0.8195
  140OSM    C4S15285   1.884   0.592   6.785 -0.4571 -0.1814 -0.3411
  140OSM    H4S15286   1.845   0.489   6.784 -2.3362  0.4782  0.6620
  140OSM    C5S15287   1.894   0.655   6.904  0.7264  0.1481  1.2423
  140OSM    H5S15288   1.953   0.748   6.901  1.4676 -0.3154 -0.8290
  140OSM    C6S15289   1.853   0.613   7.041 -0.1855  0.0747  0.6937
  140OSM    H6S15290   1.870   0.691   7.118 -1.6929  0.1803  0.9438
  140OSM    H6T15291   1.906   0.516   7.060 -0.3427 -0.4813 -1.4438
  140OSM    C7S15292   1.705   0.601   7.058  0.0532 -0.1291  0.2365
  140OSM    H7S15293   1.676   0.512   6.998  1.2486  1.1644 -2.4290
  140OSM    H7T15294   1.662   0.694   7.014  1.6501  0.1252 -0.8924
  140OSM    C8S15295   1.660   0.600   7.204 -0.2055  0.3552 -0.2179
  140OSM    H8S15296   1.549   0.603   7.190 -0.2523  0.3112  0.1429
  140OSM    H8T15297   1.691   0.695   7.252 -1.1111  1.0589 -0.9853
  140OSM    C9S15298   1.683   0.481   7.293  0.3357 -0.2783  0.2327
  140OSM    H9S15299   1.794   0.475   7.304  0.5448 -0.2434 -1.6090
  140OSM    H9T15300   1.633   0.389   7.257 -0.3920  0.5434 -0.9132
  140OSM   C10S15301   1.621   0.510   7.435 -1.0154 -0.2054  0.4395
  140OSM   H10S15302   1.513   0.536   7.439 -0.5208  1.8925  2.5142
  140OSM   H10T15303   1.684   0.592   7.475  0.5052 -1.7996  1.4527
  140OSM   C11S15304   1.638   0.398   7.536 -0.4836  0.5719  0.1077
  140OSM   H11S15305   1.744   0.364   7.539 -0.5056  0.2507 -1.7211
  140OSM   H11T15306   1.590   0.310   7.490 -1.5090  0.8948  0.5216
  140OSM   C12S15307   1.576   0.449   7.666 -0.3498  0.0138  0.3422
  140OSM   H12S15308   1.466   0.458   7.653 -0.6078 -2.0004  0.7103
  140OSM   H12T15309   1.629   0.541   7.698  0.4667 -0.4132  0.2356
  140OSM   C13S15310   1.605   0.339   7.778  0.1276  0.4960 -0.5378
  140OSM   H13S15311   1.704   0.293   7.757  0.6836  2.0467 -1.4447
  140OSM   H13T15312   1.524   0.263   7.766  0.4050 -0.1703  1.3867
  140OSM   C14S15313   1.585   0.381   7.927  0.1721  0.7123  0.1524
  140OSM   H14S15314   1.596   0.287   7.985 -1.0208 -0.3564 -1.2755
  140OSM   H14T15315   1.480   0.407   7.953 -0.5855 -1.6405 -0.2889
  140OSM   C15S15316   1.696   0.474   7.975  0.5055 -0.5370 -0.5389
  140OSM   H15S15317   1.699   0.564   7.911 -2.0024  1.0603  1.3654
  140OSM   H15T15318   1.791   0.429   7.941 -0.0798 -0.6559 -2.0772
  140OSM   C16S15319   1.715   0.493   8.124  0.3857  0.3186  0.3794
  140OSM   H16S15320   1.811   0.544   8.150  1.6295 -0.2759 -2.5911
  140OSM   H16T15321   1.715   0.393   8.171 -1.9731 -0.1548 -0.4963
  140OSM   C17S15322   1.600   0.590   8.186  0.7933 -0.0990  0.2393
  140OSM   H17S15323   1.507   0.562   8.132  0.5906  1.0227 -0.0303
  140OSM   H17T15324   1.618   0.692   8.144  2.3140 -0.9410 -1.2363
  140OSM   C18S15325   1.576   0.590   8.336 -0.5591 -0.2728  0.4167
  140OSM   H18S15326   1.667   0.619   8.393 -0.5295 -2.0564  1.3538
  140OSM   H18T15327   1.550   0.490   8.376  1.2463 -0.7900  0.3948
  140OSM   H18U15328   1.499   0.668   8.354  1.6578  2.5805 -1.4474
  140OSM    C1F15329   1.642   0.902   6.628  0.0270 -0.4949  0.1341
  140OSM     OF15330   1.542   0.857   6.576  1.2452 -0.0485 -0.3861
  140OSM    C2F15331   1.633   1.039   6.682  0.3053 -0.7444  0.0340
  140OSM    H2F15332   1.652   1.111   6.600  1.4564  1.0012  1.7397
  140OSM    H2G15333   1.713   1.067   6.754  0.5746  0.7581 -0.8307
  140OSM    C3F15334   1.486   1.066   6.734 -1.2860 -0.0553  0.5910
  140OSM    H3F15335   1.414   1.035   6.655 -0.7315 -2.3906  0.9551
  140OSM    H3G15336   1.476   1.175   6.756 -0.0403  0.0435  0.7636
  140OSM    C4F15337   1.456   0.995   6.869  0.2715 -0.5340 -1.2797
  140OSM    H4F15338   1.515   1.045   6.949 -2.5497 -0.4888  0.9323
  140OSM    H4G15339   1.501   0.893   6.873  0.7646 -0.3043  2.2627
  140OSM    C5F15340   1.307   0.979   6.889 -0.2216 -0.2280 -0.0884
  140OSM    H5F15341   1.262   0.946   6.794 -1.6376  1.6394 -0.1338
  140OSM    H5G15342   1.265   1.078   6.918  3.2521  1.1011  1.0286
  140OSM    C6F15343   1.266   0.892   7.015  0.1595 -0.5138  0.4431
  140OSM    H6F15344   1.309   0.941   7.105  0.5058 -1.1278  0.6180
  140OSM    H6G15345   1.316   0.792   7.013  0.4399 -0.4385 -3.4400
  140OSM    C7F15346   1.112   0.884   7.038  0.8234 -0.5428  0.2175
  140OSM    H7F15347   1.068   0.813   6.965  2.5304 -1.8174  0.3527
  140OSM    H7G15348   1.067   0.983   7.013 -1.6874 -2.2097 -2.3487
  140OSM    C8F15349   1.075   0.857   7.187 -1.0493  0.0127  0.0221
  140OSM    H8F15350   0.964   0.859   7.195 -0.9840 -0.5731  1.2992
  140OSM    H8G15351   1.108   0.931   7.263  1.7256 -0.2982 -0.7741
  140OSM    C9F15352   1.110   0.715   7.210 -0.6668 -0.6271  0.5336
  140OSM    H9F15353   1.078   0.653   7.125 -0.2823  0.1057 -0.1590
  140OSM   C10F15354   1.173   0.650   7.303 -0.9425 -0.5282 -0.4802
  140OSM   H10F15355   1.178   0.541   7.293  0.1896 -0.4119 -1.3974
  140OSM   C11F15356   1.227   0.716   7.436 -0.2234  0.7258  0.5710
  140OSM   H11F15357   1.178   0.814   7.454 -0.5086  0.4075  1.5716
  140OSM   H11G15358   1.338   0.720   7.445 -0.2652  3.8946  0.5824
  140OSM   C12F15359   1.167   0.626   7.542 -0.3086 -0.1905 -0.1088
  140OSM   H12F15360   1.183   0.518   7.523 -0.4157  0.1563 -2.3808
  140OSM   H12G15361   1.059   0.649   7.557 -0.0100  0.0110  2.0488
  140OSM   C13F15362   1.230   0.658   7.682  0.0460  0.3371  0.0287
  140OSM   H13F15363   1.210   0.767   7.686 -1.5134  0.1389 -1.4380
  140OSM   H13G15364   1.339   0.639   7.691  0.1156  1.0627  0.8453
  140OSM   C14F15365   1.165   0.598   7.805 -0.6936  1.1998  0.0423
  140OSM   H14F15366   1.055   0.605   7.813 -0.6526  1.6660  0.2384
  140OSM   H14G15367   1.208   0.657   7.889 -2.9485  4.6861 -1.0167
  140OSM   C15F15368   1.204   0.451   7.816 -0.2818 -0.1852  0.8948
  140OSM   H15F15369   1.314   0.449   7.801 -0.4215 -0.5592 -0.2114
  140OSM   H15G15370   1.154   0.388   7.739 -0.8057  1.9293 -0.5822
  140OSM   C16F15371   1.173   0.388   7.949 -0.0656  0.2383  0.1010
  140OSM   H16F15372   1.066   0.384   7.980  0.4222 -1.0628  1.8055
  140OSM   H16G15373   1.230   0.441   8.029 -1.6664 -1.0856  2.2569
  140OSM   C17F15374   1.214   0.238   7.958  0.1797 -0.2655 -0.7400
  140OSM   H17F15375   1.301   0.218   7.892  0.5047 -1.9151  0.1416
  140OSM   H17G15376   1.133   0.170   7.925 -0.8026 -0.3103  1.5822
  140OSM   C18F15377   1.248   0.206   8.099  0.9886  0.4540  1.1427
  140OSM   H18F15378   1.186   0.255   8.177  1.3405 -0.1624  1.8287
  140OSM   H18G15379   1.354   0.231   8.121  0.8077  0.6613  1.7941
  140OSM   H18H15380   1.252   0.095   8.105 -0.4896  0.4072  1.5477
  141OSM      N15381   2.721   0.976   6.137  0.1681  1.0915  0.1241
  141OSM    C1515382   2.636   1.020   6.257  0.5369 -0.2023  0.5972
  141OSM   H15A15383   2.581   1.109   6.233 -4.7072 -3.5126 -1.4444
  141OSM   H15B15384   2.695   1.029   6.348  0.2209  0.1423  0.7693
  141OSM   H15C15385   2.557   0.949   6.277 -1.4520  1.1913 -1.7313
  141OSM    C1415386   2.812   1.082   6.090 -0.0878 -0.2337  0.2966
  141OSM   H14A15387   2.753   1.166   6.055  1.6540  0.4212 -1.1972
  141OSM   H14B15388   2.862   1.043   6.003 -2.3829 -0.6172 -0.9363
  141OSM   H14C15389   2.885   1.105   6.166 -0.5245  0.3783  0.5385
  141OSM    C1315390   2.801   0.859   6.168  0.7046 -0.3498 -0.4689
  141OSM   H13A15391   2.867   0.896   6.245  0.5941 -0.6169 -0.2439
  141OSM   H13B15392   2.872   0.829   6.092  0.0772 -3.2241 -0.0296
  141OSM   H13C15393   2.744   0.769   6.181  1.7606 -0.8471  1.1094
  141OSM    C1215394   2.631   0.925   6.029 -0.0456  0.2169  0.4238
  141OSM   H12A15395   2.685   0.890   5.942 -3.8871 -1.2447 -1.5959
  141OSM   H12B15396   2.584   1.009   5.982 -2.1379 -1.0117  0.2071
  141OSM    C1115397   2.526   0.823   6.053  1.1890  0.3446 -1.3789
  141OSM   H11A15398   2.459   0.814   5.965 -0.8790 -4.6593  0.3264
  141OSM   H11B15399   2.464   0.869   6.133  0.2957 -2.0461 -0.6126
  141OSM      P15400   2.526   0.616   6.219  0.0838 -0.3658 -0.3986
  141OSM    O1315401   2.514   0.476   6.183 -0.1604  0.2263  0.2939
  141OSM    O1415402   2.622   0.651   6.324  0.8415 -0.1990  0.0170
  141OSM    O1115403   2.383   0.667   6.250 -0.0118 -0.2550  0.0309
  141OSM    O1215404   2.568   0.687   6.088  0.3853  0.2005  0.5084
  141OSM    C1S15405   2.302   0.598   6.351  0.1423  0.1352  0.3318
  141OSM    H1S15406   2.306   0.488   6.344  1.2806  0.1244  0.8300
  141OSM    H1T15407   2.197   0.622   6.325 -1.1361 -2.3411  2.7771
  141OSM     NF15408   2.273   0.547   6.593 -0.1694 -0.1593  0.0073
  141OSM    HNF15409   2.175   0.548   6.607 -0.0547  2.8962  1.3666
  141OSM    C2S15410   2.330   0.644   6.500  0.4320 -0.6069  0.9301
  141OSM    H2S15411   2.440   0.646   6.511  0.3505  0.1289  1.6445
  141OSM    C3S15412   2.272   0.790   6.508  0.3994 -0.0609 -0.2399
  141OSM    H3S15413   2.166   0.792   6.474  0.0315  2.2215  0.8441
  141OSM     O315414   2.338   0.892   6.431 -0.6134 -0.2643 -0.0269
  141OSM    HO315415   2.429   0.862   6.439 -0.5708 -0.6050 -1.6036
  141OSM    C4S15416   2.276   0.825   6.655  0.4698  0.2933 -0.4488
  141OSM    H4S15417   2.184   0.798   6.708  0.9013 -0.4354 -0.0618
  141OSM    C5S15418   2.365   0.891   6.725 -0.3482  0.0883  0.2255
  141OSM    H5S15419   2.453   0.926   6.669  1.1731 -1.7978  1.3221
  141OSM    C6S15420   2.374   0.923   6.872 -0.8144  0.4970  0.0405
  141OSM    H6S15421   2.330   1.024   6.890  0.6841  1.3851 -1.1666
  141OSM    H6T15422   2.479   0.926   6.907 -0.2380 -0.4359 -1.5286
  141OSM    C7S15423   2.302   0.819   6.954  0.1699  0.5149  0.3178
  141OSM    H7S15424   2.324   0.716   6.916 -0.6648  0.6097 -0.4554
  141OSM    H7T15425   2.192   0.830   6.960  0.1814  0.9496 -0.1547
  141OSM    C8S15426   2.349   0.817   7.096 -0.3702 -0.2481 -0.5290
  141OSM    H8S15427   2.350   0.918   7.143  1.4046 -0.9052  0.9632
  141OSM    H8T15428   2.454   0.782   7.089 -0.5544 -0.7749 -0.7106
  141OSM    C9S15429   2.277   0.712   7.188  0.7852 -0.7386 -0.1563
  141OSM    H9S15430   2.346   0.692   7.273 -0.2370 -0.2206  0.8120
  141OSM    H9T15431   2.255   0.611   7.147 -3.5887 -0.9418  2.1090
  141OSM   C10S15432   2.139   0.768   7.231  0.1136  0.4962  0.0859
  141OSM   H10S15433   2.079   0.800   7.143 -0.8187 -1.2248  0.0608
  141OSM   H10T15434   2.154   0.862   7.289 -3.7406  0.0480  2.0948
  141OSM   C11S15435   2.060   0.669   7.311 -0.3803 -0.3521  0.2359
  141OSM   H11S15436   2.038   0.581   7.247 -1.2433  0.8038 -1.1143
  141OSM   H11T15437   1.958   0.712   7.318 -0.6530 -1.2152  2.0486
  141OSM   C12S15438   2.129   0.626   7.446  0.5147 -0.8834  0.3588
  141OSM   H12S15439   2.173   0.720   7.485 -1.3621 -0.3677  1.3662
  141OSM   H12T15440   2.212   0.558   7.418  1.1219  0.2910 -0.7589
  141OSM   C13S15441   2.022   0.567   7.532  0.0158 -0.4767 -1.0303
  141OSM   H13S15442   1.979   0.486   7.470 -0.5261 -0.7468 -0.3157
  141OSM   H13T15443   1.941   0.642   7.546  0.3128 -0.4217  0.7022
  141OSM   C14S15444   2.078   0.526   7.669  0.6577  0.6254  0.2970
  141OSM   H14S15445   2.169   0.464   7.654  0.2228 -0.8919  3.1590
  141OSM   H14T15446   1.998   0.463   7.715  0.1360  1.7215  0.9222
  141OSM   C15S15447   2.124   0.640   7.760 -0.5532  0.1527 -0.3143
  141OSM   H15S15448   2.159   0.728   7.703 -1.4139 -0.6059 -2.0757
  141OSM   H15T15449   2.208   0.605   7.824 -0.5715 -0.2192 -0.4853
  141OSM   C16S15450   2.012   0.690   7.851  0.2100  0.3226  0.9830
  141OSM   H16S15451   1.995   0.606   7.921  2.0467 -1.3463 -0.4380
  141OSM   H16T15452   1.924   0.703   7.784  1.7749 -0.3064 -1.3314
  141OSM   C17S15453   2.049   0.818   7.925  0.5085 -0.5829  0.3888
  141OSM   H17S15454   1.968   0.893   7.915 -0.1376 -1.4878 -1.6111
  141OSM   H17T15455   2.139   0.851   7.869 -0.4759  3.4847  0.8344
  141OSM   C18S15456   2.094   0.789   8.069 -0.0295 -0.0551  0.0239
  141OSM   H18S15457   2.192   0.737   8.068  1.4730  2.5311 -2.3099
  141OSM   H18T15458   2.022   0.724   8.122 -2.9100  2.3113 -0.6994
  141OSM   H18U15459   2.107   0.878   8.136  0.6266 -1.5453  1.9866
  141OSM    C1F15460   2.351   0.444   6.628 -0.2691  0.2606 -0.2671
  141OSM     OF15461   2.463   0.415   6.584 -0.1228 -0.9897  0.1351
  141OSM    C2F15462   2.292   0.350   6.729 -0.4370 -0.1221 -0.1387
  141OSM    H2F15463   2.327   0.249   6.697 -2.4074 -1.7480  2.3614
  141OSM    H2G15464   2.184   0.351   6.701 -0.1570  0.7516 -1.2545
  141OSM    C3F15465   2.326   0.390   6.866 -0.1092 -0.1036 -0.2819
  141OSM    H3F15466   2.299   0.497   6.883 -0.1601 -0.4504  2.2274
  141OSM    H3G15467   2.435   0.385   6.886 -0.1320  1.3954  0.3536
  141OSM    C4F15468   2.247   0.314   6.968 -0.8324 -0.1285 -0.0630
  141OSM    H4F15469   2.158   0.265   6.924  0.8047 -0.9191 -2.7364
  141OSM    H4G15470   2.206   0.381   7.046 -1.4723  0.3456 -0.8017
  141OSM    C5F15471   2.336   0.205   7.035  0.0749 -0.9066 -0.2309
  141OSM    H5F15472   2.428   0.248   7.079  0.5843  0.1629 -2.1969
  141OSM    H5G15473   2.372   0.133   6.958 -1.2675  0.4430 -2.2296
  141OSM    C6F15474   2.259   0.120   7.136  0.2199 -0.0271 -0.1942
  141OSM    H6F15475   2.316   0.038   7.186 -0.8734 -0.7516 -0.0854
  141OSM    H6G15476   2.181   0.074   7.072  0.5317 -0.5463 -0.2060
  141OSM    C7F15477   2.187   0.208   7.240  0.1229  0.2437 -0.0132
  141OSM    H7F15478   2.114   0.151   7.301 -0.9790  0.0405 -1.4442
  141OSM    H7G15479   2.123   0.284   7.190 -3.6430 -1.4312  1.7992
  141OSM    C8F15480   2.284   0.287   7.331  0.6506 -0.1920 -0.1230
  141OSM    H8F15481   2.216   0.347   7.395 -1.2428 -0.1254 -2.0789
  141OSM    H8G15482   2.333   0.348   7.253  3.0172 -2.3094 -0.4139
  141OSM    C9F15483   2.385   0.197   7.402 -0.0579  0.2929  0.0964
  141OSM    H9F15484   2.476   0.186   7.342 -1.0825  0.4152 -1.5504
  141OSM   C10F15485   2.372   0.130   7.518  0.4230 -0.6194 -0.3217
  141OSM   H10F15486   2.450   0.057   7.543 -1.1128 -2.9543 -1.9580
  141OSM   C11F15487   2.250   0.133   7.604  0.4114 -0.4649 -0.4410
  141OSM   H11F15488   2.221   0.027   7.617  1.2627 -0.7999 -1.0976
  141OSM   H11G15489   2.168   0.190   7.554  1.6180  2.6764  0.8667
  141OSM   C12F15490   2.274   0.195   7.747  0.7136  0.7341 -0.0774
  141OSM   H12F15491   2.176   0.211   7.797  1.1172  0.5782  0.7813
  141OSM   H12G15492   2.327   0.289   7.719  0.1663  1.3636  0.9258
  141OSM   C13F15493   2.385   0.127   7.834  0.6220 -0.7387  0.5307
  141OSM   H13F15494   2.479   0.114   7.777  0.1911  1.7610 -0.9300
  141OSM   H13G15495   2.343   0.026   7.853 -3.2613 -0.1494 -3.3585
  141OSM   C14F15496   2.401   0.193   7.974  0.0098 -0.0638  0.3621
  141OSM   H14F15497   2.471   0.141   8.042 -1.8384 -1.8198  1.0289
  141OSM   H14G15498   2.307   0.176   8.031  0.3026 -1.6143  0.4097
  141OSM   C15F15499   2.431   0.343   7.965 -0.5693 -0.3957  0.2615
  141OSM   H15F15500   2.345   0.395   7.917 -0.0902  1.3812  1.2304
  141OSM   H15G15501   2.519   0.359   7.899  0.5397  3.8509  2.3804
  141OSM   C16F15502   2.458   0.394   8.110  0.0610 -0.1162  0.1257
  141OSM   H16F15503   2.566   0.381   8.134  0.5223  1.6560 -0.8345
  141OSM   H16G15504   2.407   0.329   8.185  3.0384 -2.4594  0.3500
  141OSM   C17F15505   2.430   0.543   8.125 -0.2412  0.5180  0.8109
  141OSM   H17F15506   2.321   0.563   8.137 -0.7052 -0.8358 -0.8032
  141OSM   H17G15507   2.469   0.599   8.038  2.0844 -2.3776 -0.1940
  141OSM   C18F15508   2.491   0.597   8.253  0.4846 -0.0488  0.0120
  141OSM   H18F15509   2.514   0.705   8.256  3.7983 -0.5654 -1.8524
  141OSM   H18G15510   2.593   0.555   8.266  0.9981  1.3123  0.5099
  141OSM   H18H15511   2.441   0.574   8.349 -0.9014  0.3116 -0.6004
  142OSM      N15512   0.120   4.000   6.013 -0.5371 -0.6856 -0.2147
  142OSM    C1515513   0.109   3.914   6.138 -0.2493 -0.8751  0.4109
  142OSM   H15A15514   0.208   3.884   6.170  0.0513  0.1693  0.4700
  142OSM   H15B15515   0.053   3.825   6.112  0.7647 -0.5451 -3.6364
  142OSM   H15C15516   0.058   3.964   6.218 -0.4862 -0.2034 -0.1458
  142OSM    C1415517  -0.017   4.010   5.949 -0.8488 -0.1938  0.0684
  142OSM   H14A15518  -0.054   3.916   5.910  1.7017 -0.5589 -1.6966
  142OSM   H14B15519  -0.015   4.072   5.861 -0.8533 -0.8222 -0.3856
  142OSM   H14C15520  -0.083   4.050   6.025 -0.5682  1.0419 -0.3179
  142OSM    C1315521   0.160   4.149   6.055 -0.2186 -0.5020 -0.4255
  142OSM   H13A15522   0.201   4.209   5.975 -0.7306 -0.5785 -0.7555
  142OSM   H13B15523   0.223   4.146   6.142  0.9255 -3.1833 -1.2222
  142OSM   H13C15524   0.066   4.198   6.073  0.2523 -0.0170  0.7754
  142OSM    C1215525   0.225   3.951   5.918 -0.2608  0.4919 -0.2628
  142OSM   H12A15526   0.220   4.011   5.828  1.7621  1.0053 -0.0868
  142OSM   H12B15527   0.204   3.847   5.898  2.2506 -0.7365  2.6386
  142OSM    C1115528   0.372   3.955   5.967 -0.1035  0.2127  0.2758
  142OSM   H11A15529   0.396   4.055   6.010 -0.5724  0.5450 -0.2168
  142OSM   H11B15530   0.443   3.941   5.882 -1.5424  1.3925 -1.1858
  142OSM      P15531   0.542   3.872   6.140 -0.1536  0.2050  0.0726
  142OSM    O1315532   0.561   3.761   6.237  0.6212  0.7251 -0.3618
  142OSM    O1415533   0.650   3.873   6.041 -0.3831 -0.6961  0.1916
  142OSM    O1115534   0.553   4.002   6.222 -0.2271 -0.2947  0.0928
  142OSM    O1215535   0.402   3.858   6.065 -0.3497  0.2527  0.0624
  142OSM    C1S15536   0.470   4.061   6.323 -0.0219 -0.3969  0.4286
  142OSM    H1S15537   0.365   4.025   6.315  0.2714 -0.9308 -1.6136
  142OSM    H1T15538   0.466   4.171   6.307  1.5310 -0.3763  0.0023
  142OSM     NF15539   0.411   4.084   6.555  0.5091  0.5327  0.1197
  142OSM    HNF15540   0.436   4.170   6.599  1.2240  0.0774  0.6153
  142OSM    C2S15541   0.519   4.042   6.471  0.7311  0.1667  0.6478
  142OSM    H2S15542   0.541   3.933   6.483  0.3448 -0.4756 -3.3920
  142OSM    C3S15543   0.655   4.110   6.497 -0.2956 -0.0600  0.1614
  142OSM    H3S15544   0.640   4.220   6.483  0.6106 -0.0421 -0.8432
  142OSM     O315545   0.760   4.073   6.406  0.5007  0.0653  0.3281
  142OSM    HO315546   0.712   4.036   6.331 -1.5234  2.5577  0.2227
  142OSM    C4S15547   0.700   4.080   6.639  0.9299  0.1059 -0.4818
  142OSM    H4S15548   0.690   3.975   6.669  2.2763 -0.7240 -2.7000
  142OSM    C5S15549   0.755   4.166   6.723 -0.8034  0.8465  0.0821
  142OSM    H5S15550   0.787   4.261   6.677  0.9357  1.2638  1.9742
  142OSM    C6S15551   0.805   4.147   6.864 -0.6593 -0.0716 -0.4227
  142OSM    H6S15552   0.752   4.206   6.942  1.3930 -0.5446  1.4362
  142OSM    H6T15553   0.910   4.180   6.880 -1.3687  1.7079  0.8859
  142OSM    C7S15554   0.793   3.997   6.907 -0.1031 -0.7732  0.2681
  142OSM    H7S15555   0.863   3.945   6.838  0.1036  0.4535 -0.4704
  142OSM    H7T15556   0.687   3.966   6.892 -0.9342  1.4282  1.1744
  142OSM    C8S15557   0.835   3.964   7.045 -0.6644 -0.3567 -0.1336
  142OSM    H8S15558   0.762   4.011   7.114 -0.1831 -1.7743  1.3963
  142OSM    H8T15559   0.932   4.010   7.072 -0.7126 -0.2223 -0.1871
  142OSM    C9S15560   0.837   3.815   7.074 -0.0455  0.5527 -0.6271
  142OSM    H9S15561   0.905   3.761   7.005  1.2593  0.9138  0.3224
  142OSM    H9T15562   0.732   3.788   7.054 -0.6751  1.8975  0.6727
  142OSM   C10S15563   0.851   3.784   7.226 -0.5234 -0.8739  0.0558
  142OSM   H10S15564   0.777   3.842   7.286 -0.5975 -0.5363 -0.3567
  142OSM   H10T15565   0.947   3.813   7.273 -1.9358  1.6127  1.6369
  142OSM   C11S15566   0.836   3.633   7.250 -0.2838 -0.2357 -0.6155
  142OSM   H11S15567   0.918   3.590   7.188 -1.2084  1.4069 -3.1488
  142OSM   H11T15568   0.735   3.589   7.234 -1.5173  0.4675  3.8302
  142OSM   C12S15569   0.844   3.605   7.400 -0.1589 -0.2675 -0.2860
  142OSM   H12S15570   0.796   3.687   7.457 -1.1329 -1.7125  1.0461
  142OSM   H12T15571   0.952   3.616   7.425 -0.6981 -0.4503  2.3461
  142OSM   C13S15572   0.794   3.467   7.445  0.2261 -0.0400  0.0942
  142OSM   H13S15573   0.872   3.398   7.405  2.9653  1.1856  2.9328
  142OSM   H13T15574   0.692   3.448   7.404 -0.0408 -0.7750  1.0654
  142OSM   C14S15575   0.788   3.441   7.592 -0.1560  0.2707 -0.0697
  142OSM   H14S15576   0.763   3.336   7.618  1.2953  0.2265  1.3026
  142OSM   H14T15577   0.693   3.487   7.626 -1.1079 -2.7488  1.8017
  142OSM   C15S15578   0.915   3.492   7.676 -0.5872  0.6466  0.1200
  142OSM   H15S15579   0.910   3.600   7.701  1.1950  1.2620 -1.8987
  142OSM   H15T15580   1.014   3.483   7.628 -0.1655  1.4000  0.8229
  142OSM   C16S15581   0.931   3.409   7.809  0.2550 -0.1682 -0.0371
  142OSM   H16S15582   0.943   3.299   7.794 -1.3885 -0.4547  0.5335
  142OSM   H16T15583   0.847   3.444   7.872  2.7590  3.0651  1.8556
  142OSM   C17S15584   1.056   3.443   7.900 -0.3212 -0.6338  0.0328
  142OSM   H17S15585   1.150   3.407   7.854  1.1025  1.6219  0.9839
  142OSM   H17T15586   1.057   3.382   7.993 -0.8296 -0.9416 -0.1631
  142OSM   C18S15587   1.075   3.591   7.920  0.6869 -0.7070  0.0737
  142OSM   H18S15588   1.100   3.637   7.822  1.2037  1.2746  1.0899
  142OSM   H18T15589   1.153   3.617   7.995 -1.2111 -1.3523  2.4058
  142OSM   H18U15590   0.985   3.638   7.965  0.4676 -2.6171  1.7896
  142OSM    C1F15591   0.293   4.023   6.564  0.1143  0.7357 -0.6464
  142OSM     OF15592   0.268   3.913   6.517 -0.5661  0.6945  0.0603
  142OSM    C2F15593   0.188   4.101   6.637  0.4174  0.5948  0.7540
  142OSM    H2F15594   0.095   4.105   6.576 -0.6831  1.4323  2.3796
  142OSM    H2G15595   0.220   4.208   6.646  0.7246  0.4841  1.0002
  142OSM    C3F15596   0.132   4.041   6.768 -0.4360 -0.4715 -0.0253
  142OSM    H3F15597   0.221   4.040   6.834 -0.2187  1.0821 -0.2626
  142OSM    H3G15598   0.082   3.943   6.754 -0.3860 -1.3490  4.3629
  142OSM    C4F15599   0.032   4.137   6.840  1.0954 -0.1590  0.7286
  142OSM    H4F15600  -0.061   4.115   6.783  2.3774 -1.0326 -1.1118
  142OSM    H4G15601   0.071   4.239   6.816  1.3954 -0.7838 -1.6090
  142OSM    C5F15602   0.029   4.101   6.988  0.4493 -0.1697 -0.1999
  142OSM    H5F15603   0.125   4.139   7.029  0.0507  1.3524 -0.6149
  142OSM    H5G15604   0.020   3.991   6.996 -3.6723 -0.0603 -1.1299
  142OSM    C6F15605  -0.084   4.171   7.058  1.1608  0.9391 -0.3899
  142OSM    H6F15606  -0.187   4.153   7.019  0.1270  1.0343  2.0768
  142OSM    H6G15607  -0.057   4.278   7.070  3.2989  0.5154 -1.1229
  142OSM    C7F15608  -0.097   4.121   7.210  0.1622 -0.0290 -0.1797
  142OSM    H7F15609  -0.130   4.016   7.195  1.1180 -0.2437 -0.8746
  142OSM    H7G15610  -0.167   4.171   7.280  1.3005  0.2210  0.8235
  142OSM    C8F15611   0.039   4.101   7.282  0.1879 -0.1808 -0.5567
  142OSM    H8F15612   0.116   4.060   7.214  0.5341  3.2456 -2.4192
  142OSM    H8G15613   0.015   4.031   7.366 -0.0908 -0.7965 -1.1422
  142OSM    C9F15614   0.093   4.234   7.322  0.2090 -0.0987  0.3081
  142OSM    H9F15615   0.070   4.310   7.246  0.4131  1.5362  1.8355
  142OSM   C10F15616   0.155   4.271   7.431  0.0422 -0.0444 -0.9687
  142OSM   H10F15617   0.174   4.378   7.446 -1.1818 -0.0905  1.4942
  142OSM   C11F15618   0.183   4.186   7.551  0.1370 -0.4577  0.1460
  142OSM   H11F15619   0.291   4.166   7.562  0.5947 -1.2820 -4.1139
  142OSM   H11G15620   0.135   4.087   7.536  0.1965 -0.2935 -1.2141
  142OSM   C12F15621   0.132   4.247   7.679 -0.0434  0.1390 -0.2570
  142OSM   H12F15622   0.021   4.254   7.674 -0.1777 -0.1377  1.4871
  142OSM   H12G15623   0.167   4.349   7.705 -0.7437  0.3182  0.0230
  142OSM   C13F15624   0.157   4.154   7.802 -0.4579  0.8106  0.9995
  142OSM   H13F15625   0.264   4.127   7.813 -0.9247 -0.5793  2.4793
  142OSM   H13G15626   0.099   4.064   7.773 -0.0611  0.8157  0.1740
  142OSM   C14F15627   0.109   4.213   7.928  0.3355 -0.7729  0.0935
  142OSM   H14F15628   0.016   4.272   7.914  2.3082  2.7401  0.6958
  142OSM   H14G15629   0.180   4.289   7.968 -1.5456  0.6103  0.9841
  142OSM   C15F15630   0.065   4.129   8.047 -0.2251  0.2418  0.3367
  142OSM   H15F15631   0.145   4.055   8.068  0.0995  0.5458  0.1815
  142OSM   H15G15632  -0.024   4.069   8.016 -1.1436  2.6911 -2.2936
  142OSM   C16F15633   0.046   4.211   8.180 -0.8252  1.1464  0.2417
  142OSM   H16F15634  -0.033   4.281   8.146  0.0688  2.7025  1.1888
  142OSM   H16G15635   0.140   4.265   8.206  0.2946 -0.4819 -0.2830
  142OSM   C17F15636  -0.019   4.119   8.289  0.0445  0.2977 -0.5952
  142OSM   H17F15637  -0.114   4.072   8.259  0.2085 -0.8692  0.6279
  142OSM   H17G15638  -0.041   4.184   8.376 -4.2262  0.6373 -1.7026
  142OSM   C18F15639   0.082   4.008   8.338  0.0852 -0.3732  0.5049
  142OSM   H18F15640   0.185   4.042   8.360  0.3848 -0.8909 -0.0445
  142OSM   H18G15641   0.086   3.925   8.263 -1.2178  0.4166 -0.4699
  142OSM   H18H15642   0.041   3.970   8.434  3.0483  1.2106  2.5635
  143OSM      N15643   2.368   6.671   6.102 -0.6662  0.6323 -0.1805
  143OSM    C1515644   2.256   6.761   6.056 -0.4846 -0.0164 -0.6652
  143OSM   H15A15645   2.212   6.799   6.147  1.0082 -0.6039  0.3651
  143OSM   H15B15646   2.188   6.701   5.997  0.5686 -0.0070 -1.9244
  143OSM   H15C15647   2.284   6.841   5.990 -1.5384  1.6837  0.8410
  143OSM    C1415648   2.436   6.623   5.980  0.2470  0.1617  0.5389
  143OSM   H14A15649   2.450   6.712   5.920 -1.7859 -0.2885 -0.7111
  143OSM   H14B15650   2.374   6.545   5.938 -0.1926  1.3751 -1.1478
  143OSM   H14C15651   2.527   6.574   6.012  0.3685 -0.0780 -0.1617
  143OSM    C1315652   2.470   6.756   6.173  0.3905 -0.5283 -0.3143
  143OSM   H13A15653   2.419   6.774   6.267 -0.5800  0.9876 -1.0899
  143OSM   H13B15654   2.479   6.846   6.113  2.6959 -0.2936  0.2839
  143OSM   H13C15655   2.564   6.705   6.178 -0.9476 -3.2143 -0.8691
  143OSM    C1215656   2.318   6.560   6.190  0.3691 -0.1788 -0.1850
  143OSM   H12A15657   2.248   6.502   6.132 -1.7294  1.6131  0.4315
  143OSM   H12B15658   2.251   6.588   6.270 -0.2996 -1.5967 -0.2138
  143OSM    C1115659   2.427   6.466   6.253  0.4298 -0.0097 -0.0143
  143OSM   H11A15660   2.389   6.399   6.333 -1.0658  1.5995  0.7100
  143OSM   H11B15661   2.491   6.534   6.312  0.8770 -0.4758  0.0391
  143OSM      P15662   2.437   6.257   6.086  0.1439  0.3699  0.1147
  143OSM    O1315663   2.338   6.292   5.987  0.1396  0.3308  0.0163
  143OSM    O1415664   2.549   6.183   6.027 -0.2858 -0.2371 -0.3673
  143OSM    O1115665   2.366   6.163   6.201 -0.3279 -0.1956  0.5081
  143OSM    O1215666   2.495   6.387   6.159 -0.3433  0.3521  0.2870
  143OSM    C1S15667   2.422   6.136   6.326 -0.3348 -0.3072  0.4357
  143OSM    H1S15668   2.493   6.215   6.355 -0.4183  0.7608 -2.0051
  143OSM    H1T15669   2.472   6.038   6.308  0.7911  0.6116 -1.8210
  143OSM     NF15670   2.361   6.119   6.565 -0.4299  0.5038 -0.4092
  143OSM    HNF15671   2.351   6.029   6.605  0.1312  0.7166  0.2282
  143OSM    C2S15672   2.309   6.133   6.432  0.1119 -0.4522  0.1840
  143OSM    H2S15673   2.273   6.237   6.442  1.0891 -0.3143  4.4824
  143OSM    C3S15674   2.192   6.037   6.401 -0.4173 -0.6521 -0.4253
  143OSM    H3S15675   2.210   5.929   6.417 -2.0274 -0.8962 -0.0819
  143OSM     O315676   2.137   6.051   6.276 -0.7513  0.1876  0.0791
  143OSM    HO315677   2.209   6.108   6.248 -0.5164 -0.2234 -0.1632
  143OSM    C4S15678   2.084   6.057   6.505 -0.4688  0.0121  0.8055
  143OSM    H4S15679   2.062   6.162   6.525  1.1744 -0.0050  3.1601
  143OSM    C5S15680   2.033   5.953   6.575 -0.9398  0.4806 -0.2702
  143OSM    H5S15681   2.072   5.851   6.563  1.1729  1.2292 -0.2136
  143OSM    C6S15682   1.934   5.966   6.685  0.4472 -0.1398  0.0820
  143OSM    H6S15683   1.877   5.871   6.686 -0.3998  0.2126 -3.1192
  143OSM    H6T15684   1.860   6.048   6.681 -0.7752 -1.1605  0.8016
  143OSM    C7S15685   2.006   5.987   6.818 -0.3765 -0.1785 -0.3412
  143OSM    H7S15686   1.926   6.010   6.892  1.1980  1.6273  0.9235
  143OSM    H7T15687   2.077   6.073   6.823  0.1705 -0.6793  3.1265
  143OSM    C8S15688   2.079   5.859   6.863 -0.5415 -0.7194 -0.3388
  143OSM    H8S15689   2.158   5.836   6.789  0.0180  1.7638 -0.6013
  143OSM    H8T15690   2.016   5.768   6.865 -2.3292  0.4189 -2.1405
  143OSM    C9S15691   2.146   5.873   6.998  0.7566 -0.8180  0.7123
  143OSM    H9S15692   2.227   5.948   6.986  0.6332 -0.4820  1.8795
  143OSM    H9T15693   2.204   5.780   7.015  2.8100  0.5344  1.6111
  143OSM   C10S15694   2.050   5.923   7.106  0.0317 -0.8983 -0.0988
  143OSM   H10S15695   1.961   5.857   7.106  0.0799 -0.9659  0.4272
  143OSM   H10T15696   2.016   6.027   7.090 -0.1586 -0.9228  0.1523
  143OSM   C11S15697   2.128   5.920   7.238 -0.4901 -0.7105 -0.4417
  143OSM   H11S15698   2.214   5.990   7.229  0.2391 -1.4990  0.0762
  143OSM   H11T15699   2.174   5.820   7.255 -3.0398 -1.5841  2.1118
  143OSM   C12S15700   2.059   5.953   7.370  0.2430  0.6948 -0.3329
  143OSM   H12S15701   1.961   5.900   7.363  0.3236  0.6744 -1.4782
  143OSM   H12T15702   2.024   6.058   7.376  0.6377  0.7451  1.6825
  143OSM   C13S15703   2.145   5.906   7.488  0.4882 -0.0177  0.5187
  143OSM   H13S15704   2.247   5.943   7.463  0.0405  1.7704  1.1359
  143OSM   H13T15705   2.156   5.796   7.486  1.1243  0.0051  1.8007
  143OSM   C14S15706   2.098   5.961   7.620 -0.1955 -0.8315  0.4524
  143OSM   H14S15707   1.994   5.926   7.641 -1.1078  0.3062 -1.7710
  143OSM   H14T15708   2.082   6.070   7.605 -0.6905 -1.1213 -1.3180
  143OSM   C15S15709   2.193   5.939   7.736 -0.2245  0.0675  0.1409
  143OSM   H15S15710   2.296   5.963   7.701 -0.8829  2.7333 -0.1862
  143OSM   H15T15711   2.196   5.829   7.753 -2.4368 -0.2618 -1.2215
  143OSM   C16S15712   2.152   6.008   7.864 -0.5028 -0.3285 -0.4388
  143OSM   H16S15713   2.049   5.976   7.888  0.0320 -1.3176  0.6636
  143OSM   H16T15714   2.146   6.117   7.844 -0.0901 -0.2345 -0.0686
  143OSM   C17S15715   2.233   5.983   7.988 -0.5391  0.7383  0.1524
  143OSM   H17S15716   2.339   6.011   7.971 -0.6756  2.2607  1.4830
  143OSM   H17T15717   2.226   5.875   8.012 -1.0126  1.0029  1.3172
  143OSM   C18S15718   2.183   6.068   8.103  0.4415  0.4069  0.3094
  143OSM   H18S15719   2.126   6.158   8.069  0.2800  0.6038  1.0965
  143OSM   H18T15720   2.264   6.093   8.175  1.3271 -0.8449 -0.2139
  143OSM   H18U15721   2.107   6.008   8.157 -1.0688 -0.0536 -2.1344
  143OSM    C1F15722   2.444   6.201   6.633 -0.1275 -0.4201  0.9294
  143OSM     OF15723   2.468   6.314   6.585 -0.0007 -0.4147 -0.2818
  143OSM    C2F15724   2.498   6.160   6.761  0.0466  1.3096 -0.6147
  143OSM    H2F15725   2.601   6.122   6.749 -0.6358 -0.2871 -1.9485
  143OSM    H2G15726   2.440   6.075   6.803  0.0186  1.9385  0.6518
  143OSM    C3F15727   2.484   6.281   6.862  0.5861  0.0411  0.5298
  143OSM    H3F15728   2.377   6.304   6.878  0.9186 -0.1800  3.5479
  143OSM    H3G15729   2.529   6.371   6.814 -1.8226  0.6909 -0.6617
  143OSM    C4F15730   2.554   6.247   6.997  0.1711  0.4264  0.4746
  143OSM    H4F15731   2.527   6.339   7.053  1.3575  1.5056 -0.6681
  143OSM    H4G15732   2.663   6.232   6.983 -0.1529  0.7245 -3.4417
  143OSM    C5F15733   2.501   6.127   7.068 -0.1310 -0.4550  0.2759
  143OSM    H5F15734   2.533   6.034   7.017 -0.4171 -1.2728  1.5356
  143OSM    H5G15735   2.390   6.127   7.063 -0.1097  0.4762 -0.4402
  143OSM    C6F15736   2.566   6.114   7.208 -0.1576  0.5879 -0.0636
  143OSM    H6F15737   2.673   6.142   7.200  0.8895 -2.6133  1.1138
  143OSM    H6G15738   2.558   6.005   7.229 -0.2444  0.7772  0.9233
  143OSM    C7F15739   2.488   6.184   7.316 -0.2227  0.7506  0.1134
  143OSM    H7F15740   2.382   6.148   7.310  0.0160  0.1397 -0.6273
  143OSM    H7G15741   2.485   6.291   7.287 -3.3991  0.9137  0.5987
  143OSM    C8F15742   2.557   6.165   7.452  0.1573 -0.3992  0.2541
  143OSM    H8F15743   2.498   6.232   7.517 -0.1007 -1.2607  0.9243
  143OSM    H8G15744   2.657   6.214   7.445  0.0864  0.2778  3.0150
  143OSM    C9F15745   2.555   6.023   7.501 -0.2196 -0.3535 -0.2706
  143OSM    H9F15746   2.485   5.957   7.448 -0.1393 -0.5685 -0.1092
  143OSM   C10F15747   2.613   5.981   7.615 -0.2046 -0.2139  0.2153
  143OSM   H10F15748   2.610   5.872   7.631 -0.3710 -0.1307  0.7582
  143OSM   C11F15749   2.696   6.064   7.711 -0.4253 -0.9411 -0.6827
  143OSM   H11F15750   2.751   6.147   7.662 -0.0614 -0.6157  0.2678
  143OSM   H11G15751   2.773   6.007   7.766  0.2771  1.0729  0.5181
  143OSM   C12F15752   2.605   6.118   7.821  0.3375  0.6065  0.5560
  143OSM   H12F15753   2.529   6.047   7.860  0.0532  0.5488 -0.1063
  143OSM   H12G15754   2.537   6.191   7.771  0.0141  1.3285  1.9880
  143OSM   C13F15755   2.674   6.181   7.942  0.0345  0.3048 -0.9891
  143OSM   H13F15756   2.750   6.257   7.914  1.6266 -0.1889  1.6632
  143OSM   H13G15757   2.731   6.104   7.998 -1.7033 -0.7880 -0.6162
  143OSM   C14F15758   2.577   6.242   8.037  0.2517 -0.4502 -0.6224
  143OSM   H14F15759   2.496   6.169   8.058  0.1706 -1.0707 -2.8237
  143OSM   H14G15760   2.529   6.332   7.992 -0.3362 -0.6076 -0.3253
  143OSM   C15F15761   2.637   6.287   8.174  0.3858  0.0489 -0.4672
  143OSM   H15F15762   2.695   6.380   8.157  1.0933 -0.4932 -1.0763
  143OSM   H15G15763   2.705   6.205   8.204 -0.4632 -0.8650 -0.9635
  143OSM   C16F15764   2.536   6.304   8.289  0.7342  0.0329  0.3714
  143OSM   H16F15765   2.453   6.230   8.288 -0.5397  1.3621 -2.3381
  143OSM   H16G15766   2.494   6.407   8.281 -0.3720 -0.5454 -2.4290
  143OSM   C17F15767   2.609   6.313   8.424 -0.2076 -0.0058 -0.1180
  143OSM   H17F15768   2.677   6.401   8.417 -0.0650 -0.1064 -0.0156
  143OSM   H17G15769   2.677   6.226   8.431 -0.2976  0.0132  1.6456
  143OSM   C18F15770   2.520   6.306   8.545  0.6380 -0.1358  0.4257
  143OSM   H18F15771   2.445   6.388   8.547 -0.8371 -1.4356  0.0319
  143OSM   H18G15772   2.585   6.296   8.635  1.6592 -2.8986 -0.5326
  143OSM   H18H15773   2.462   6.212   8.533  0.6450 -0.1976  0.8599
  144OSM      N15774   1.182   5.850   6.189  0.3916 -0.0637 -1.2614
  144OSM    C1515775   1.113   5.948   6.281 -0.1053 -0.2876 -0.8725
  144OSM   H15A15776   1.114   5.919   6.385 -2.6103  2.7002  0.1464
  144OSM   H15B15777   1.013   5.977   6.250  0.7710  1.6286 -2.0997
  144OSM   H15C15778   1.173   6.037   6.273  2.1645 -1.8658 -2.7644
  144OSM    C1415779   1.216   5.922   6.062  0.0385  0.0785 -0.8430
  144OSM   H14A15780   1.296   5.992   6.081 -0.5422  0.3754  0.6669
  144OSM   H14B15781   1.130   5.977   6.024 -1.0671  0.6620  2.2289
  144OSM   H14C15782   1.250   5.858   5.983  0.4055  1.5261 -1.9026
  144OSM    C1315783   1.310   5.817   6.253  0.4006 -0.4894 -0.0031
  144OSM   H13A15784   1.362   5.735   6.206 -0.3103 -0.5354 -0.7407
  144OSM   H13B15785   1.300   5.788   6.356 -1.0246  1.5655  0.5105
  144OSM   H13C15786   1.380   5.898   6.241  0.6796 -0.7701 -0.2918
  144OSM    C1215787   1.093   5.724   6.165  0.1489 -0.0430 -0.2742
  144OSM   H12A15788   1.128   5.670   6.078 -0.9470  0.3747 -0.9969
  144OSM   H12B15789   0.996   5.766   6.145  1.2277  2.3760 -0.7328
  144OSM    C1115790   1.102   5.622   6.278 -0.1704 -0.3959  0.6097
  144OSM   H11A15791   1.006   5.566   6.285  0.1064 -0.8389  0.8873
  144OSM   H11B15792   1.126   5.654   6.382 -1.7951 -0.5177  1.0442
  144OSM      P15793   1.254   5.422   6.348  0.3487  0.0590  0.2514
  144OSM    O1315794   1.306   5.301   6.279  0.7371 -0.4563 -0.1098
  144OSM    O1415795   1.354   5.499   6.420 -0.1972 -0.3236 -0.1395
  144OSM    O1115796   1.131   5.395   6.438 -0.3262 -0.3444 -0.0757
  144OSM    O1215797   1.200   5.527   6.240 -0.3060 -0.5193  0.8133
  144OSM    C1S15798   1.141   5.336   6.566 -0.1026  0.4139  0.6287
  144OSM    H1S15799   1.177   5.414   6.637  0.8619  1.2431 -0.7044
  144OSM    H1T15800   1.200   5.242   6.569 -0.3198  0.2437 -0.1376
  144OSM     NF15801   1.015   5.238   6.750  0.8922  0.3614  0.0091
  144OSM    HNF15802   1.025   5.140   6.763  0.9649  0.4054  0.2988
  144OSM    C2S15803   1.001   5.300   6.619  0.3961 -0.1222 -0.2090
  144OSM    H2S15804   0.934   5.388   6.619  1.1263  0.4796  1.9186
  144OSM    C3S15805   0.926   5.204   6.517 -0.5416 -0.5392 -0.0496
  144OSM    H3S15806   0.990   5.116   6.498  0.3991 -0.5731  2.7796
  144OSM     O315807   0.901   5.270   6.388 -0.4261  0.3423 -0.2512
  144OSM    HO315808   0.958   5.347   6.400 -0.3624  0.1361  0.8633
  144OSM    C4S15809   0.800   5.150   6.578 -0.2976  0.1075  0.5882
  144OSM    H4S15810   0.796   5.040   6.586  0.2193  0.0692  0.3305
  144OSM    C5S15811   0.695   5.225   6.608  0.4739  0.1143  0.1632
  144OSM    H5S15812   0.707   5.332   6.586 -0.5713  0.3683  0.7416
  144OSM    C6S15813   0.559   5.175   6.670 -0.3455  0.3501  0.0620
  144OSM    H6S15814   0.571   5.066   6.688  1.6233  0.3343 -1.0352
  144OSM    H6T15815   0.479   5.178   6.593  1.4886 -0.5461 -2.0091
  144OSM    C7S15816   0.534   5.246   6.803  0.1584  0.4344 -0.6541
  144OSM    H7S15817   0.436   5.214   6.846  0.7880 -1.6070 -0.6405
  144OSM    H7T15818   0.536   5.355   6.781 -0.7969  0.7290  0.5962
  144OSM    C8S15819   0.631   5.216   6.922 -0.0852 -0.6328 -0.2444
  144OSM    H8S15820   0.715   5.288   6.917 -0.2211 -0.5578 -1.6478
  144OSM    H8T15821   0.675   5.114   6.927 -0.4396 -0.8308 -1.0939
  144OSM    C9S15822   0.576   5.242   7.059  0.7154  0.4957 -0.5586
  144OSM    H9S15823   0.504   5.159   7.081  1.4758 -0.6218 -2.0786
  144OSM    H9T15824   0.512   5.333   7.066  0.1787  0.0359  1.1245
  144OSM   C10S15825   0.676   5.233   7.178  0.1648  0.7595 -0.1754
  144OSM   H10S15826   0.754   5.312   7.165 -0.0544  0.8071 -1.3407
  144OSM   H10T15827   0.713   5.128   7.174 -3.9338 -0.8719 -0.1381
  144OSM   C11S15828   0.603   5.223   7.309 -0.2677 -0.4380  0.0004
  144OSM   H11S15829   0.537   5.135   7.294 -2.5938  1.0530  0.9223
  144OSM   H11T15830   0.547   5.319   7.316 -0.7752 -0.6346 -1.0682
  144OSM   C12S15831   0.698   5.212   7.425  0.4158 -0.4580  0.0726
  144OSM   H12S15832   0.774   5.290   7.404 -0.6892  0.6757  0.1471
  144OSM   H12T15833   0.750   5.114   7.429  3.5295  1.1216  2.6680
  144OSM   C13S15834   0.614   5.217   7.552  0.1505 -0.4866 -0.1414
  144OSM   H13S15835   0.543   5.132   7.545  0.3833 -0.6399 -0.7109
  144OSM   H13T15836   0.557   5.312   7.547 -0.8032 -0.9495  1.4770
  144OSM   C14S15837   0.710   5.203   7.670  0.2154  0.3256  0.4474
  144OSM   H14S15838   0.721   5.298   7.726 -0.3779  2.7500 -3.1867
  144OSM   H14T15839   0.815   5.187   7.637  0.5036  1.5925  0.7202
  144OSM   C15S15840   0.680   5.077   7.753  1.0745  0.7123  0.1614
  144OSM   H15S15841   0.725   4.984   7.711 -0.1989  0.6169 -1.0571
  144OSM   H15T15842   0.570   5.066   7.759  1.1661 -0.1778  0.4584
  144OSM   C16S15843   0.712   5.105   7.897  0.3246  0.1031 -0.0970
  144OSM   H16S15844   0.804   5.168   7.902  0.6770 -0.1785 -2.2732
  144OSM   H16T15845   0.730   5.009   7.952 -1.8672  0.1627  0.8072
  144OSM   C17S15846   0.606   5.191   7.970  0.1107 -0.2022 -0.4451
  144OSM   H17S15847   0.514   5.133   7.993 -1.0176  1.5307 -0.3522
  144OSM   H17T15848   0.568   5.277   7.910 -4.3801 -0.7375  1.2177
  144OSM   C18S15849   0.664   5.247   8.109 -0.1997 -0.5619  0.4239
  144OSM   H18S15850   0.752   5.311   8.086 -1.1179 -0.3793 -3.1084
  144OSM   H18T15851   0.699   5.166   8.176 -0.5832 -0.3440  0.8968
  144OSM   H18U15852   0.590   5.302   8.172  1.4671 -2.4372  4.4267
  144OSM    C1F15853   1.032   5.299   6.861  0.6018 -0.0176 -0.3801
  144OSM     OF15854   1.045   5.424   6.874 -0.1284  0.5840 -0.1592
  144OSM    C2F15855   1.021   5.212   6.978 -0.2835  0.1016 -0.2208
  144OSM    H2F15856   1.093   5.131   6.956 -0.3331  0.1914 -0.7252
  144OSM    H2G15857   0.918   5.171   6.990 -0.0969 -0.2762  0.1291
  144OSM    C3F15858   1.055   5.290   7.110  0.0318 -0.2921  0.0355
  144OSM    H3F15859   0.983   5.373   7.128 -0.4130 -0.4644 -0.8732
  144OSM    H3G15860   1.156   5.337   7.105 -1.1052  2.5959  2.0306
  144OSM    C4F15861   1.058   5.190   7.226  0.9309 -0.7185 -0.4663
  144OSM    H4F15862   1.139   5.117   7.207  3.4569  1.9230 -0.5630
  144OSM    H4G15863   0.968   5.125   7.232 -0.2211  0.9049  0.8694
  144OSM    C5F15864   1.086   5.259   7.356 -0.5696  0.1627 -0.2650
  144OSM    H5F15865   1.016   5.344   7.368  1.7728  2.1025  0.3210
  144OSM    H5G15866   1.186   5.307   7.357 -1.3174  1.8332  1.6637
  144OSM    C6F15867   1.094   5.165   7.475 -0.0174 -0.5127  0.1075
  144OSM    H6F15868   1.175   5.090   7.463 -1.8191 -2.7952  1.3925
  144OSM    H6G15869   1.000   5.106   7.476 -0.1326 -0.3986 -1.7637
  144OSM    C7F15870   1.118   5.240   7.606  0.1026 -0.3982  0.7334
  144OSM    H7F15871   1.033   5.312   7.607 -0.1923 -0.7350  0.0429
  144OSM    H7G15872   1.214   5.295   7.615 -0.8278  1.0827  2.2162
  144OSM    C8F15873   1.101   5.157   7.737  0.2836  0.0097  0.2583
  144OSM    H8F15874   1.182   5.081   7.752 -0.7902 -0.6317  3.5402
  144OSM    H8G15875   1.008   5.097   7.747  0.6070 -0.6437 -0.5638
  144OSM    C9F15876   1.119   5.243   7.857 -0.3190  0.6871 -0.4637
  144OSM    H9F15877   1.144   5.349   7.838  0.5358  0.8465  1.3599
  144OSM   C10F15878   1.112   5.205   7.986  0.4804 -0.3677 -0.1116
  144OSM   H10F15879   1.124   5.272   8.072 -0.3466 -0.3732  0.0094
  144OSM   C11F15880   1.070   5.072   8.034  0.7376  0.2557 -0.0716
  144OSM   H11F15881   1.006   5.026   7.955 -1.9037  1.6538  1.1363
  144OSM   H11G15882   0.995   5.071   8.115 -0.4380 -2.3445 -1.0718
  144OSM   C12F15883   1.180   4.969   8.067 -0.0272 -0.3363  0.3558
  144OSM   H12F15884   1.253   4.966   7.983 -1.8600  2.0475 -1.4750
  144OSM   H12G15885   1.139   4.867   8.051 -3.1367  0.4488  2.4687
  144OSM   C13F15886   1.250   4.982   8.203  1.0388 -0.0074 -0.0859
  144OSM   H13F15887   1.169   4.974   8.279  1.8330 -2.4557  0.6129
  144OSM   H13G15888   1.296   5.083   8.202 -0.6041  0.8004 -2.4267
  144OSM   C14F15889   1.356   4.875   8.220 -0.0367  0.0315  0.2420
  144OSM   H14F15890   1.435   4.923   8.282 -2.8205  0.4261  3.8660
  144OSM   H14G15891   1.396   4.833   8.125 -3.4552 -1.0898 -0.8344
  144OSM   C15F15892   1.306   4.756   8.310  0.5947  0.3039  0.1879
  144OSM   H15F15893   1.223   4.708   8.254  1.2048 -0.0095 -0.4634
  144OSM   H15G15894   1.263   4.804   8.400 -0.9749  0.4042 -0.5848
  144OSM   C16F15895   1.408   4.651   8.336 -0.4437  0.2775 -0.5386
  144OSM   H16F15896   1.507   4.696   8.360 -0.6966  0.4325  0.2374
  144OSM   H16G15897   1.419   4.573   8.258  1.0510 -0.6750  0.5609
  144OSM   C17F15898   1.354   4.589   8.468  0.0272  0.7026 -0.3309
  144OSM   H17F15899   1.254   4.542   8.460 -0.6725  1.8702  1.1732
  144OSM   H17G15900   1.339   4.674   8.538 -2.0636 -0.4222  0.6808
  144OSM   C18F15901   1.439   4.485   8.532  0.4343  1.7514 -0.2612
  144OSM   H18F15902   1.440   4.395   8.467  0.9500  1.1697  0.5225
  144OSM   H18G15903   1.406   4.459   8.635  0.9651  0.1689 -0.4586
  144OSM   H18H15904   1.548   4.509   8.538  1.1571 -1.1868  0.5206
  145SAPE     N15905   5.636   4.715  10.947 -0.9852  0.5237  0.1406
  145SAPE   HN115906   5.731   4.708  10.987 -0.5521 -3.9325 -1.1472
  145SAPE   HN215907   5.654   4.689  10.848  3.1299 -2.2873  1.3824
  145SAPE   HN315908   5.598   4.812  10.961  1.3632  1.7053 -1.1147
  145SAPE   C1215909   5.528   4.625  11.008 -0.4000 -0.4616  0.3793
  145SAPE  H12A15910   5.429   4.657  10.971 -0.1782  0.6116  0.6721
  145SAPE  H12B15911   5.534   4.633  11.119 -1.7056  0.1528  0.4241
  145SAPE   C1115912   5.573   4.482  10.973 -0.5564  0.3641 -1.0384
  145SAPE  H11A15913   5.514   4.403  11.026  0.4035  1.0942  1.2553
  145SAPE  H11B15914   5.677   4.482  11.010 -0.8466  0.7863 -0.2008
  145SAPE     P15915   5.545   4.343  10.752  0.1006 -0.0113  0.2152
  145SAPE   O1315916   5.643   4.252  10.811 -0.7047  0.0267 -0.7247
  145SAPE   O1415917   5.407   4.305  10.749  0.1628 -0.4748 -0.0197
  145SAPE   O1215918   5.559   4.472  10.832  0.2908 -0.0551 -0.4334
  145SAPE   O1115919   5.588   4.389  10.605 -0.5005  0.4188  0.0946
  145SAPE    C115920   5.544   4.510  10.547 -0.3025  0.4003 -0.4156
  145SAPE    HA15921   5.522   4.585  10.626  1.9094  0.0741  0.5799
  145SAPE    HB15922   5.630   4.550  10.489 -0.4885  0.3589 -0.7196
  145SAPE    C215923   5.410   4.504  10.466 -0.2969 -0.6738 -0.1911
  145SAPE    HS15924   5.334   4.481  10.543 -1.1744  1.6754 -0.2772
  145SAPE   O2115925   5.431   4.414  10.352 -0.5371 -0.0659 -0.2588
  145SAPE   C2115926   5.353   4.312  10.351 -0.6239  0.1706  0.4596
  145SAPE   O2215927   5.265   4.294  10.432 -0.2663  0.2860 -0.2904
  145SAPE   C2215928   5.358   4.225  10.221 -0.0348 -0.1902  0.2625
  145SAPE   H2R15929   5.414   4.273  10.138  0.8930 -1.7656 -0.0603
  145SAPE   H2S15930   5.418   4.134  10.242  0.0374 -0.6056 -1.5770
  145SAPE    C315931   5.378   4.642  10.412 -0.3686 -0.1805 -0.4171
  145SAPE    HX15932   5.460   4.655  10.339 -1.0261  2.3292 -0.7713
  145SAPE    HY15933   5.390   4.729  10.480 -2.3153  0.3943 -0.7637
  145SAPE   O3115934   5.255   4.645  10.346  0.2840 -0.6327  0.1224
  145SAPE   C3115935   5.156   4.696  10.420 -0.1575  1.0090 -0.6961
  145SAPE   O3215936   5.163   4.733  10.536  0.0714  0.1057  0.4960
  145SAPE   C3215937   5.030   4.683  10.337  0.0661  0.0410  0.5108
  145SAPE   H2X15938   4.943   4.708  10.401 -0.9729  0.0618 -0.8483
  145SAPE   H2Y15939   5.019   4.578  10.305 -0.8279 -0.1012  1.2593
  145SAPE   C2315940   5.224   4.189  10.157  0.3977  0.5972 -0.4693
  145SAPE   H3R15941   5.161   4.122  10.219 -0.6866  1.7245 -0.3008
  145SAPE   H3S15942   5.243   4.134  10.062 -2.0037 -1.7768  0.3195
  145SAPE   C2415943   5.138   4.310  10.119 -0.6297  0.7628 -0.3157
  145SAPE   H4R15944   5.114   4.363  10.214 -1.4903 -1.3594  0.7195
  145SAPE   H4S15945   5.039   4.282  10.078 -1.5325  3.7273 -0.4282
  145SAPE   C2515946   5.200   4.409  10.024  0.4898  0.0805  0.0626
  145SAPE   H5R15947   5.274   4.476  10.068  0.5444 -0.0043  0.0993
  145SAPE   C2615948   5.178   4.414   9.894  0.0066  0.2304  0.7746
  145SAPE   H6R15949   5.228   4.489   9.832 -0.2829 -1.3012 -1.4320
  145SAPE   C2715950   5.080   4.314   9.819 -0.3011 -0.0554  0.5234
  145SAPE   H7R15951   4.977   4.353   9.818 -0.3391 -0.1176  1.3097
  145SAPE   H7S15952   5.085   4.218   9.875 -0.8853 -0.3183  0.1317
  145SAPE   C2815953   5.134   4.276   9.686  0.9051 -0.7518  0.3821
  145SAPE   H8R15954   5.208   4.195   9.697  0.3591 -1.2224  0.6269
  145SAPE   C2915955   5.096   4.328   9.564 -0.1908 -0.4993 -0.0459
  145SAPE   H9R15956   5.142   4.285   9.474  1.2762 -0.8820  0.8428
  145SAPE  C21015957   4.984   4.428   9.530  0.0451  0.4160 -0.4312
  145SAPE  H10R15958   5.018   4.508   9.460 -1.5454  2.7869  1.3340
  145SAPE  H10S15959   4.945   4.489   9.614  4.0640  3.5767 -0.5328
  145SAPE  C21115960   4.881   4.341   9.462  0.2673 -0.4435 -0.0327
  145SAPE  H11R15961   4.849   4.255   9.523 -0.9087 -0.6457 -0.8954
  145SAPE  C21215962   4.833   4.338   9.334 -0.2699  0.5590 -0.7475
  145SAPE  H12R15963   4.765   4.256   9.309  0.2257  0.5360 -2.1135
  145SAPE  C21315964   4.868   4.440   9.229 -0.2025 -0.0824  0.5558
  145SAPE  H13R15965   4.925   4.528   9.266 -0.6489 -0.5116  2.3724
  145SAPE  H13S15966   4.774   4.481   9.187  1.1609  0.4298 -2.2373
  145SAPE  C21415967   4.937   4.373   9.115 -0.5129  0.2139  0.4200
  145SAPE  H14R15968   5.014   4.303   9.154  0.2476  1.2710  0.8751
  145SAPE  C21515969   4.928   4.384   8.984  0.1188  1.2200  0.0322
  145SAPE  H15R15970   4.999   4.323   8.925  0.1230  0.0132  1.2505
  145SAPE  C21615971   4.840   4.470   8.899  0.0482 -0.3094 -0.1030
  145SAPE  H16R15972   4.877   4.574   8.894 -1.7184  0.2899 -1.6639
  145SAPE  H16S15973   4.742   4.487   8.949 -0.6540 -0.6319 -1.3180
  145SAPE  C21715974   4.810   4.423   8.760 -0.4267  0.5891  0.2651
  145SAPE  H17R15975   4.731   4.479   8.704  0.3507  1.2086 -0.2253
  145SAPE  H17S15976   4.780   4.317   8.770  0.4909  0.3959  1.1021
  145SAPE  C21815977   4.931   4.415   8.665 -0.0832 -0.3246  0.7737
  145SAPE  H18R15978   5.014   4.361   8.716 -0.9719 -1.6955  0.8267
  145SAPE  H18S15979   4.960   4.520   8.645  0.6808 -0.7991 -0.7290
  145SAPE  C21915980   4.905   4.356   8.522  0.5780 -0.0421  0.1807
  145SAPE  H19R15981   4.809   4.394   8.480  0.6756  0.4900  0.4265
  145SAPE  H19S15982   4.894   4.246   8.530 -2.1042 -0.0651 -2.2299
  145SAPE  C22015983   5.017   4.375   8.423  0.1634 -0.4537  0.3562
  145SAPE  H20R15984   5.117   4.362   8.469 -0.3371 -0.1792  1.5646
  145SAPE  H20S15985   5.008   4.479   8.385 -0.7181 -0.2424  1.0959
  145SAPE  H20T15986   5.009   4.314   8.330  2.5209  2.1573 -1.7194
  145SAPE   C3315987   5.013   4.783  10.214 -0.4604 -0.3390 -0.3796
  145SAPE   H3X15988   5.113   4.814  10.178 -1.1192  1.7291 -0.5816
  145SAPE   H3Y15989   4.975   4.877  10.259  0.9568  0.2133 -0.2838
  145SAPE   C3415990   4.919   4.731  10.110 -0.4729  1.4127 -0.4203
  145SAPE   H4X15991   4.817   4.729  10.154  0.2033 -1.9977  1.3471
  145SAPE   H4Y15992   4.946   4.623  10.102 -0.6407  1.2445  1.0081
  145SAPE   C3515993   4.894   4.795   9.971  0.1347  0.7801  0.6071
  145SAPE   H5X15994   4.902   4.905   9.980  0.6795  0.8404 -0.4729
  145SAPE   H5Y15995   4.795   4.763   9.933  1.3299 -1.2600 -1.0379
  145SAPE   C3615996   4.991   4.750   9.870 -0.2853 -0.1545 -0.0167
  145SAPE   H6X15997   4.969   4.643   9.853  0.5330 -0.0474 -2.0772
  145SAPE   H6Y15998   5.090   4.770   9.917  0.0467  0.4430 -0.9416
  145SAPE   C3715999   4.966   4.827   9.740 -0.1533 -0.3204 -0.1313
  145SAPE   H7X16000   4.972   4.938   9.747 -1.2208 -0.2350 -0.3749
  145SAPE   H7Y16001   4.857   4.815   9.722 -0.3533  1.1197 -0.0141
  145SAPE   C3816002   5.059   4.784   9.626  0.0353 -0.2704 -0.0669
  145SAPE   H8X16003   5.052   4.673   9.628 -0.2608 -0.2559  1.6210
  145SAPE   H8Y16004   5.162   4.812   9.658 -0.8542  2.3280  0.7924
  145SAPE   C3916005   5.009   4.850   9.497 -0.0656 -0.7060  0.1143
  145SAPE   H9X16006   5.024   4.960   9.496  5.3907 -1.1316  1.4163
  145SAPE   H9Y16007   4.900   4.832   9.499 -0.1970 -0.0858 -0.9753
  145SAPE  C31016008   5.084   4.791   9.373  0.5551  0.1251  0.4845
  145SAPE  H10X16009   5.076   4.680   9.378  2.2845 -0.0563 -0.2596
  145SAPE  H10Y16010   5.189   4.825   9.381  0.3555  0.7275  0.6081
  145SAPE  C31116011   5.031   4.853   9.245  0.2051 -0.9597  0.1643
  145SAPE  H11X16012   5.052   4.962   9.246  2.2735 -1.3056  1.7801
  145SAPE  H11Y16013   4.921   4.845   9.231  0.0761  1.7478 -0.8919
  145SAPE  C31216014   5.096   4.801   9.115 -0.1884 -0.2765 -0.0033
  145SAPE  H12X16015   5.058   4.698   9.104  0.8413 -0.9231  1.9033
  145SAPE  H12Y16016   5.205   4.804   9.138 -0.4029  0.7383  0.9764
  145SAPE  C31316017   5.062   4.886   8.990 -0.4099  0.0426  0.7918
  145SAPE  H13X16018   5.101   4.989   9.007  2.9757 -0.9977 -0.0251
  145SAPE  H13Y16019   4.953   4.891   8.969 -0.4564  0.8486  1.1889
  145SAPE  C31416020   5.139   4.833   8.863 -0.2380  0.2460 -0.5249
  145SAPE  H14X16021   5.106   4.728   8.850 -1.4212  0.8221 -2.6582
  145SAPE  H14Y16022   5.249   4.845   8.873 -0.4018 -0.0189  2.5210
  145SAPE  C31516023   5.088   4.900   8.732 -0.4829 -0.2016  0.7029
  145SAPE  H15X16024   4.977   4.891   8.733 -0.9875  3.7445  3.5443
  145SAPE  H15Y16025   5.120   4.833   8.649 -2.8432 -0.2087 -0.2780
  145SAPE  C31616026   5.131   5.049   8.721 -0.6041 -0.3710  0.1166
  145SAPE  H16X16027   5.240   5.038   8.737 -0.1682  4.5131  2.0849
  145SAPE  H16Y16028   5.092   5.110   8.805  1.8121 -0.8255  1.6561
  145SAPE  C31716029   5.087   5.114   8.581 -0.3374 -0.7060 -0.2234
  145SAPE  H17X16030   4.981   5.094   8.554 -0.9567  0.0575  1.4397
  145SAPE  H17Y16031   5.147   5.069   8.500  2.0629  1.3017  0.2939
  145SAPE  C31816032   5.118   5.269   8.575  0.3719  0.4526 -0.1010
  145SAPE  H18X16033   5.047   5.330   8.634 -0.2875  1.4398 -1.8199
  145SAPE  H18Y16034   5.096   5.308   8.473 -3.8976  0.1040  0.4880
  145SAPE  H18Z16035   5.221   5.304   8.594  0.6903 -0.2667 -0.4551
  146SAPE     N16036   5.933   3.684  10.989  0.5679 -0.4232  0.3934
  146SAPE   HN116037   5.953   3.764  11.052  2.0746 -0.2153 -0.2919
  146SAPE   HN216038   5.837   3.652  11.014  0.7174 -1.8500 -0.7243
  146SAPE   HN316039   5.996   3.604  11.015  0.3055 -0.9180 -0.4753
  146SAPE   C1216040   5.948   3.710  10.844  0.2447 -0.7482  0.6851
  146SAPE  H12A16041   6.048   3.757  10.826 -0.3759  0.3147 -0.0783
  146SAPE  H12B16042   5.865   3.779  10.818  1.0412  0.0995  0.3368
  146SAPE   C1116043   5.943   3.573  10.774  0.6881 -0.3461  0.3590
  146SAPE  H11A16044   5.951   3.599  10.666 -1.9260 -0.5431  0.0412
  146SAPE  H11B16045   5.842   3.528  10.789  1.2170 -0.9767  2.3208
  146SAPE     P16046   6.170   3.458  10.754 -0.4217 -0.4253 -0.0544
  146SAPE   O1316047   6.254   3.585  10.749 -0.0066  0.2461 -0.6109
  146SAPE   O1416048   6.238   3.343  10.823  0.0247 -0.2700  0.2439
  146SAPE   O1216049   6.039   3.476  10.827  0.9774 -0.7810 -0.0287
  146SAPE   O1116050   6.131   3.425  10.606  0.3629 -0.5092 -1.0667
  146SAPE    C116051   6.032   3.326  10.571  0.0273  0.3290 -0.1828
  146SAPE    HA16052   6.036   3.237  10.638 -4.3504 -0.5514 -0.7605
  146SAPE    HB16053   5.928   3.363  10.586 -0.4080 -1.2914  1.1267
  146SAPE    C216054   6.063   3.266  10.429 -0.1170 -0.7698  0.0178
  146SAPE    HS16055   6.161   3.213  10.428  0.8328  0.9055  0.1345
  146SAPE   O2116056   6.067   3.371  10.330 -0.3280 -0.1223 -0.7495
  146SAPE   C2116057   6.154   3.353  10.229  0.4253 -0.0483  0.6122
  146SAPE   O2216058   6.227   3.257  10.213 -0.0785  0.4037  0.1616
  146SAPE   C2216059   6.113   3.469  10.116 -0.5038 -0.0522 -0.3872
  146SAPE   H2R16060   6.023   3.425  10.068  0.2184  0.3455 -2.1774
  146SAPE   H2S16061   6.070   3.556  10.170 -3.9831 -1.1321 -1.1862
  146SAPE    C316062   5.961   3.158  10.387  0.3791  0.0075 -0.0254
  146SAPE    HX16063   5.860   3.204  10.394  0.2681  0.0262 -1.4592
  146SAPE    HY16064   5.964   3.085  10.470 -0.4592  0.8710  0.7886
  146SAPE   O3116065   5.984   3.098  10.260  0.2111 -0.4245  0.3911
  146SAPE   C3116066   5.898   3.122  10.163  0.0823  0.2745 -0.2725
  146SAPE   O3216067   5.787   3.171  10.173  0.1663  0.4248  0.0695
  146SAPE   C3216068   5.974   3.085  10.024  0.3005  0.9584 -0.3687
  146SAPE   H2X16069   5.976   2.974  10.025  0.5532  0.9587  1.1778
  146SAPE   H2Y16070   6.075   3.130  10.035  0.6856 -0.3169  1.7425
  146SAPE   C2316071   6.230   3.494  10.024 -0.0168  0.1728  0.1275
  146SAPE   H3R16072   6.270   3.392  10.005 -0.9117 -0.1704  0.0371
  146SAPE   H3S16073   6.305   3.563  10.070  0.3009  0.1043 -0.2849
  146SAPE   C2416074   6.183   3.563   9.891  0.1159  0.3305 -0.4400
  146SAPE   H4R16075   6.120   3.652   9.913  0.8385  0.5732  0.8022
  146SAPE   H4S16076   6.114   3.491   9.843  0.0562 -1.1645  1.7613
  146SAPE   C2516077   6.292   3.599   9.801 -0.1458  0.0646  0.1276
  146SAPE   H5R16078   6.393   3.615   9.841  1.1077 -1.1869 -2.3264
  146SAPE   C2616079   6.277   3.611   9.661  0.1246 -0.3041 -1.1074
  146SAPE   H6R16080   6.371   3.651   9.618  1.5625 -1.4083  0.8388
  146SAPE   C2716081   6.160   3.598   9.568 -0.2802 -1.1677  0.7963
  146SAPE   H7R16082   6.187   3.664   9.482 -0.9004 -0.2423  1.2926
  146SAPE   H7S16083   6.064   3.639   9.605 -0.9095  0.1817 -2.0237
  146SAPE   C2816084   6.136   3.459   9.512 -0.4025  0.3381  0.4375
  146SAPE   H8R16085   6.182   3.377   9.570 -2.2384  0.1579  1.7525
  146SAPE   C2916086   6.077   3.415   9.398 -0.3835 -0.5193  0.0730
  146SAPE   H9R16087   6.071   3.308   9.376 -1.7493  0.3464 -5.1982
  146SAPE  C21016088   6.029   3.502   9.283  0.0289  0.1619  0.3279
  146SAPE  H10R16089   6.061   3.608   9.287  2.3860 -0.5277  1.4102
  146SAPE  H10S16090   5.919   3.504   9.295 -0.0332  0.0394 -0.2033
  146SAPE  C21116091   6.074   3.441   9.152 -0.0617  0.4821 -0.7420
  146SAPE  H11R16092   6.160   3.372   9.156  0.3360  0.8407 -2.4150
  146SAPE  C21216093   6.014   3.457   9.037  0.6162  0.2619  0.2930
  146SAPE  H12R16094   6.049   3.409   8.945  1.1452  0.2112  0.5150
  146SAPE  C21316095   5.893   3.541   9.003  0.2194 -0.1127  0.3758
  146SAPE  H13R16096   5.839   3.594   9.084 -0.1246  0.6090 -0.3085
  146SAPE  H13S16097   5.820   3.474   8.952  0.1957 -0.4471  0.8430
  146SAPE  C21416098   5.941   3.646   8.906 -0.4444 -0.2460 -0.2120
  146SAPE  H14R16099   6.009   3.716   8.956 -0.6665  0.2749 -0.6303
  146SAPE  C21516100   5.919   3.663   8.778  0.4910 -0.0377  0.0339
  146SAPE  H15R16101   5.978   3.745   8.733  1.0485  0.3484  1.4321
  146SAPE  C21616102   5.828   3.586   8.677  0.0369 -0.5970  0.4484
  146SAPE  H16R16103   5.816   3.484   8.721  1.2771 -0.2533  1.6301
  146SAPE  H16S16104   5.878   3.580   8.578 -0.5716 -0.6892  0.1455
  146SAPE  C21716105   5.687   3.644   8.652  0.0296 -0.1658 -0.3137
  146SAPE  H17R16106   5.690   3.719   8.569 -2.9422 -0.1852 -0.5248
  146SAPE  H17S16107   5.670   3.703   8.744  2.0891 -0.6261  0.4226
  146SAPE  C21816108   5.584   3.532   8.629  0.3673  0.1736 -0.4001
  146SAPE  H18R16109   5.585   3.478   8.727 -1.5443  2.0406  0.7245
  146SAPE  H18S16110   5.614   3.468   8.543  1.0839  0.6793 -0.5363
  146SAPE  C21916111   5.435   3.578   8.618 -0.2746  0.1805 -0.1526
  146SAPE  H19R16112   5.428   3.622   8.516 -2.7574  0.2917  0.0070
  146SAPE  H19S16113   5.408   3.655   8.693 -0.9179  1.4103 -1.5765
  146SAPE  C22016114   5.337   3.463   8.607  0.0502  0.3194 -0.7939
  146SAPE  H20R16115   5.243   3.482   8.552  0.4699 -1.3860 -2.1896
  146SAPE  H20S16116   5.313   3.431   8.711  0.7587  2.4659  0.0856
  146SAPE  H20T16117   5.378   3.373   8.557 -0.2623 -0.4871  0.3457
  146SAPE   C3316118   5.899   3.141   9.900 -0.4129 -1.3387  0.3860
  146SAPE   H3X16119   5.865   3.246   9.914  1.1201 -0.6920 -0.4517
  146SAPE   H3Y16120   5.799   3.091   9.897 -2.1993  1.9845 -0.8501
  146SAPE   C3416121   5.985   3.134   9.765  0.1600 -0.0070  0.0347
  146SAPE   H4X16122   6.083   3.182   9.787 -0.2460  0.2998  1.2273
  146SAPE   H4Y16123   5.926   3.183   9.685 -1.2670 -0.6280  0.6766
  146SAPE   C3516124   6.020   2.993   9.726 -0.2737  0.4427 -0.0478
  146SAPE   H5X16125   5.937   2.923   9.751  2.1105 -2.3902  0.5076
  146SAPE   H5Y16126   6.106   2.950   9.781 -0.4717 -1.0593 -0.8554
  146SAPE   C3616127   6.061   2.978   9.575 -0.5329  0.2808 -0.2254
  146SAPE   H6X16128   6.158   3.030   9.558 -0.4954  0.6764  1.0972
  146SAPE   H6Y16129   5.988   3.025   9.505 -0.6612 -0.0486 -0.3145
  146SAPE   C3716130   6.074   2.830   9.537  1.6632 -0.3844  0.6805
  146SAPE   H7X16131   5.974   2.784   9.546  0.5948  1.9177  1.4114
  146SAPE   H7Y16132   6.137   2.778   9.612  2.5207  0.0416  0.2663
  146SAPE   C3816133   6.130   2.797   9.396  0.6765  0.2068 -0.0847
  146SAPE   H8X16134   6.123   2.688   9.377 -2.3628  0.6131 -1.9657
  146SAPE   H8Y16135   6.238   2.817   9.407  0.5517  0.2123  1.3272
  146SAPE   C3916136   6.055   2.865   9.284 -0.3437  0.8688 -0.1860
  146SAPE   H9X16137   6.084   2.971   9.301 -0.9686  0.6495  2.9979
  146SAPE   H9Y16138   5.945   2.847   9.290 -0.0229 -1.5145 -0.4735
  146SAPE  C31016139   6.097   2.817   9.141  0.2355  0.0905 -0.0258
  146SAPE  H10X16140   6.018   2.742   9.116 -1.9590  1.7066  1.6035
  146SAPE  H10Y16141   6.204   2.791   9.134  0.7436  1.4714  2.0064
  146SAPE  C31116142   6.077   2.934   9.042  0.9572 -0.3337 -0.2662
  146SAPE  H11X16143   6.150   3.011   9.075 -0.6159  0.0821  2.6091
  146SAPE  H11Y16144   5.973   2.971   9.054  0.3638 -1.7988 -0.5978
  146SAPE  C31216145   6.087   2.892   8.900  0.2060 -0.5519  0.4566
  146SAPE  H12X16146   6.001   2.835   8.859  0.1732 -0.9790  1.1102
  146SAPE  H12Y16147   6.169   2.821   8.877  0.1167 -0.3378 -0.5630
  146SAPE  C31316148   6.118   3.007   8.798 -0.4572  0.7480 -0.0884
  146SAPE  H13X16149   6.113   2.953   8.700  0.8089 -1.7871  1.1487
  146SAPE  H13Y16150   6.214   3.056   8.824 -1.4443  0.8391  3.9367
  146SAPE  C31416151   6.013   3.117   8.789 -0.2353 -0.4270  0.7098
  146SAPE  H14X16152   6.011   3.174   8.884  0.4044 -2.0463  1.7219
  146SAPE  H14Y16153   5.914   3.070   8.768 -0.3879 -0.2826  1.0997
  146SAPE  C31516154   6.031   3.209   8.670  0.1151 -0.4007  0.1040
  146SAPE  H15X16155   6.133   3.252   8.681  1.9197 -3.9206 -1.2392
  146SAPE  H15Y16156   5.957   3.290   8.688 -0.3497 -0.4630 -1.3500
  146SAPE  C31616157   6.019   3.140   8.534  0.5188 -0.7258  0.2191
  146SAPE  H16X16158   5.929   3.076   8.549 -0.9822  1.3160  0.3326
  146SAPE  H16Y16159   6.118   3.098   8.507  0.4564 -0.4746 -0.4287
  146SAPE  C31716160   5.982   3.234   8.419 -0.3924  0.3899 -0.7304
  146SAPE  H17X16161   5.984   3.161   8.335  1.7751  0.8963 -1.1749
  146SAPE  H17Y16162   6.060   3.312   8.403 -0.1268 -0.1337 -2.1834
  146SAPE  C31816163   5.841   3.297   8.426  0.0390 -0.0784  0.1232
  146SAPE  H18X16164   5.755   3.227   8.423 -0.4782  0.5630 -0.4177
  146SAPE  H18Y16165   5.828   3.373   8.346  0.9939  0.6549  0.6403
  146SAPE  H18Z16166   5.838   3.356   8.520 -1.3953 -3.3305  2.2818
  147SAPE     N16167   0.028   1.199  10.780 -0.1390 -0.1564 -0.0973
  147SAPE   HN116168  -0.069   1.174  10.807 -0.0678 -0.9310 -0.5175
  147SAPE   HN216169   0.038   1.299  10.804 -2.5268  0.0215  0.3883
  147SAPE   HN316170   0.024   1.187  10.676 -3.7894 -1.0700  0.0159
  147SAPE   C1216171   0.129   1.109  10.842  0.0954 -0.2017 -0.3605
  147SAPE  H12A16172   0.136   1.132  10.950 -0.0950 -0.6972 -0.2391
  147SAPE  H12B16173   0.228   1.139  10.801  2.0001 -2.4836  2.2571
  147SAPE   C1116174   0.112   0.960  10.814 -0.4757 -0.4436 -0.2094
  147SAPE  H11A16175   0.202   0.920  10.865 -0.6627 -0.2837  0.2541
  147SAPE  H11B16176   0.118   0.947  10.704  0.3076 -0.7608 -0.1322
  147SAPE     P16177  -0.026   0.758  10.873 -0.1691 -0.1344 -0.0071
  147SAPE   O1316178   0.081   0.721  10.973 -0.4504 -0.4769 -0.1907
  147SAPE   O1416179  -0.168   0.737  10.906 -0.5551  0.4601 -0.0693
  147SAPE   O1216180  -0.013   0.914  10.858  0.1330 -0.4575  0.2896
  147SAPE   O1116181   0.015   0.699  10.733 -0.0684 -0.1016  0.0970
  147SAPE    C116182  -0.050   0.749  10.613  0.4812  0.8564  0.0817
  147SAPE    HA16183  -0.069   0.859  10.613  2.9124  1.3244  0.1916
  147SAPE    HB16184   0.022   0.733  10.531 -1.2829 -3.8675 -0.8651
  147SAPE    C216185  -0.174   0.668  10.565 -0.3455 -0.5811 -1.4055
  147SAPE    HS16186  -0.236   0.644  10.654  0.0986  0.3521 -0.8264
  147SAPE   O2116187  -0.130   0.544  10.498 -0.3508 -0.7172 -0.0145
  147SAPE   C2116188  -0.234   0.469  10.469 -0.1026 -0.0616 -0.2897
  147SAPE   O2216189  -0.349   0.491  10.487  0.1849  0.0725  0.2785
  147SAPE   C2216190  -0.186   0.340  10.410 -0.5624  0.1145  0.0362
  147SAPE   H2R16191  -0.102   0.295  10.468 -1.2123 -1.5375 -0.2290
  147SAPE   H2S16192  -0.266   0.263  10.422  0.1965 -0.3605  2.6322
  147SAPE    C316193  -0.259   0.762  10.474  0.5568  0.0127  0.3363
  147SAPE    HX16194  -0.278   0.864  10.513  0.7591  1.3588 -2.7711
  147SAPE    HY16195  -0.363   0.724  10.476  0.1617  1.1148  2.0634
  147SAPE   O3116196  -0.204   0.761  10.338  0.1698  0.2617 -0.3468
  147SAPE   C3116197  -0.126   0.873  10.321 -0.7801 -0.1344  1.3845
  147SAPE   O3216198  -0.128   0.977  10.381 -0.6612 -0.1232 -0.1717
  147SAPE   C3216199  -0.034   0.857  10.192 -0.4287 -0.4720 -0.0130
  147SAPE   H2X16200  -0.045   0.754  10.153  0.8190 -0.6246  0.0058
  147SAPE   H2Y16201   0.065   0.876  10.238 -1.0783 -1.0813  1.7051
  147SAPE   C2316202  -0.169   0.355  10.257 -0.1830  0.6920  0.1059
  147SAPE   H3R16203  -0.266   0.403  10.232 -1.8996 -1.3399  2.3728
  147SAPE   H3S16204  -0.177   0.254  10.212 -2.4585  0.4422  0.9257
  147SAPE   C2416205  -0.040   0.431  10.214  0.1260  0.2808 -0.9487
  147SAPE   H4R16206  -0.034   0.536  10.251  1.0674 -1.0998  3.4053
  147SAPE   H4S16207  -0.030   0.427  10.103  0.8510 -1.3759 -0.8622
  147SAPE   C2516208   0.083   0.361  10.270 -0.4663  0.4638 -0.2993
  147SAPE   H5R16209   0.089   0.364  10.380  0.1421  2.7576 -0.3516
  147SAPE   C2616210   0.172   0.282  10.210  0.2942  0.0066  0.4490
  147SAPE   H6R16211   0.254   0.237  10.267  0.3968 -0.4224 -0.0293
  147SAPE   C2716212   0.166   0.261  10.064  0.0755  0.0457  0.0462
  147SAPE   H7R16213   0.209   0.349  10.012  1.3742  0.2446  1.4162
  147SAPE   H7S16214   0.064   0.252  10.020  0.5569  0.3247 -1.1671
  147SAPE   C2816215   0.242   0.143  10.001 -0.2807 -0.4627  0.1696
  147SAPE   H8R16216   0.295   0.081  10.075  2.1363  1.9562  0.6506
  147SAPE   C2916217   0.258   0.118   9.869 -0.0751  0.9092 -0.4389
  147SAPE   H9R16218   0.316   0.028   9.847 -3.3444 -1.9411  1.5493
  147SAPE  C21016219   0.200   0.196   9.754 -0.0412  0.6033 -0.0540
  147SAPE  H10R16220   0.113   0.261   9.775 -0.4103 -0.0254  0.3873
  147SAPE  H10S16221   0.158   0.125   9.680 -0.0308  1.2240 -0.6608
  147SAPE  C21116222   0.300   0.286   9.689  0.4857 -1.0689  0.4450
  147SAPE  H11R16223   0.388   0.318   9.747  0.9600  0.3120 -0.9728
  147SAPE  C21216224   0.285   0.321   9.555 -0.0460 -0.3794 -0.1414
  147SAPE  H12R16225   0.346   0.403   9.515 -1.5504  0.7095 -0.2844
  147SAPE  C21316226   0.179   0.276   9.456  0.0451 -0.4414 -0.0570
  147SAPE  H13R16227   0.169   0.351   9.375  0.3327  0.6586  0.8905
  147SAPE  H13S16228   0.084   0.259   9.511  0.5741 -0.6521  0.8231
  147SAPE  C21416229   0.211   0.138   9.409 -0.3969 -0.8281 -0.3129
  147SAPE  H14R16230   0.167   0.062   9.476  0.9892 -2.2281 -0.9416
  147SAPE  C21516231   0.287   0.103   9.302  1.4790 -0.2071 -0.0051
  147SAPE  H15R16232   0.275  -0.003   9.276 -2.2544 -0.5530  2.3697
  147SAPE  C21616233   0.353   0.190   9.204 -0.3872 -0.0631 -0.2759
  147SAPE  H16R16234   0.461   0.165   9.205 -0.4880 -0.5961 -1.6442
  147SAPE  H16S16235   0.343   0.297   9.231  1.7465  0.2053 -0.3927
  147SAPE  C21716236   0.296   0.170   9.058  0.4443 -0.7891  0.3455
  147SAPE  H17R16237   0.345   0.250   8.998 -1.5125 -0.6970 -1.2310
  147SAPE  H17S16238   0.190   0.199   9.044  1.2927  1.3772 -2.5545
  147SAPE  C21816239   0.302   0.029   9.004 -0.7240 -0.1456 -0.6176
  147SAPE  H18R16240   0.225  -0.035   9.052 -1.5683 -0.7468 -2.6414
  147SAPE  H18S16241   0.398  -0.019   9.034  0.1679  0.4631 -2.3147
  147SAPE  C21916242   0.298   0.022   8.850  0.2399 -1.3080 -0.0722
  147SAPE  H19R16243   0.368  -0.057   8.816  1.0542 -1.3472  1.5875
  147SAPE  H19S16244   0.317   0.122   8.806 -4.5571  0.0601  0.3501
  147SAPE  C22016245   0.169  -0.033   8.806 -0.5152  0.6349  0.2248
  147SAPE  H20R16246   0.084   0.013   8.862 -0.1930  1.1074  0.3336
  147SAPE  H20S16247   0.170  -0.141   8.832 -2.3541  0.4545 -0.2919
  147SAPE  H20T16248   0.143  -0.024   8.699 -2.5088 -1.2005  0.4920
  147SAPE   C3316249  -0.072   0.962  10.082  0.0568 -0.6688  1.0408
  147SAPE   H3X16250   0.015   0.972  10.013  1.3831  1.4616  2.8684
  147SAPE   H3Y16251  -0.098   1.063  10.121 -1.0975 -0.1111 -0.9811
  147SAPE   C3416252  -0.182   0.902   9.997  0.5006 -0.1868 -0.1687
  147SAPE   H4X16253  -0.233   0.986   9.945 -0.7819  0.4361  1.9382
  147SAPE   H4Y16254  -0.254   0.852  10.065  0.6140 -0.0812  0.0303
  147SAPE   C3516255  -0.134   0.806   9.886  0.6824 -0.2506 -0.5631
  147SAPE   H5X16256  -0.081   0.718   9.930  0.8647  0.4573  0.6704
  147SAPE   H5Y16257  -0.074   0.863   9.812 -1.0867  0.7775 -1.2497
  147SAPE   C3616258  -0.249   0.752   9.800  0.4544  0.2247 -0.0060
  147SAPE   H6X16259  -0.314   0.834   9.763  0.2526  0.1038  0.0745
  147SAPE   H6Y16260  -0.309   0.678   9.858  1.9038 -0.5153  0.5947
  147SAPE   C3716261  -0.205   0.678   9.675  0.0187 -0.2003  0.0476
  147SAPE   H7X16262  -0.144   0.590   9.705 -0.4529 -0.2495  0.8865
  147SAPE   H7Y16263  -0.137   0.746   9.619  0.5338  0.2319  1.1616
  147SAPE   C3816264  -0.330   0.626   9.596 -0.8392 -0.0256 -0.3107
  147SAPE   H8X16265  -0.351   0.690   9.508  0.0228  1.1614  0.3204
  147SAPE   H8Y16266  -0.418   0.644   9.662  0.9560  0.6040  2.0172
  147SAPE   C3916267  -0.310   0.477   9.574 -0.4839 -0.2049 -0.2265
  147SAPE   H9X16268  -0.409   0.436   9.545 -0.5772  0.2749 -0.5911
  147SAPE   H9Y16269  -0.299   0.438   9.678 -0.2151 -1.5540 -0.7411
  147SAPE  C31016270  -0.193   0.438   9.479 -0.2787 -0.1963 -0.5258
  147SAPE  H10X16271  -0.196   0.327   9.486 -0.7849 -0.0862  3.3216
  147SAPE  H10Y16272  -0.098   0.471   9.528 -1.2390 -0.6784  1.8201
  147SAPE  C31116273  -0.205   0.498   9.337  0.2523  0.2584 -0.3459
  147SAPE  H11X16274  -0.191   0.608   9.333  0.5599  0.2796  0.9359
  147SAPE  H11Y16275  -0.308   0.485   9.296  0.5272  0.5954 -1.1730
  147SAPE  C31216276  -0.107   0.436   9.240  0.4177  0.0408 -0.0793
  147SAPE  H12X16277  -0.123   0.326   9.248 -0.1932  0.1153 -0.2684
  147SAPE  H12Y16278  -0.006   0.456   9.281 -0.1065 -0.1001  1.3315
  147SAPE  C31316279  -0.104   0.481   9.093  0.2456 -0.2584  0.3899
  147SAPE  H13X16280  -0.042   0.574   9.097  0.9638 -0.7585  1.2684
  147SAPE  H13Y16281  -0.205   0.505   9.054  0.2785 -0.0439  0.4350
  147SAPE  C31416282  -0.023   0.380   9.003  0.7963 -0.1795 -0.0225
  147SAPE  H14X16283  -0.055   0.275   8.992 -0.3786  0.2763 -1.2215
  147SAPE  H14Y16284   0.069   0.368   9.064 -0.9586  0.5965  3.0051
  147SAPE  C31516285   0.024   0.430   8.869 -0.1704  0.4040 -0.8414
  147SAPE  H15X16286   0.101   0.510   8.882  1.4103 -1.2866  0.8734
  147SAPE  H15Y16287  -0.055   0.489   8.819  0.8835  1.6976 -1.0410
  147SAPE  C31616288   0.071   0.319   8.784  0.0352 -0.6405 -0.5477
  147SAPE  H16X16289   0.014   0.225   8.802  0.6086 -0.9783 -0.4521
  147SAPE  H16Y16290   0.174   0.290   8.816  1.1640  1.6479 -1.8958
  147SAPE  C31716291   0.064   0.352   8.635  0.4117  0.0309 -0.0331
  147SAPE  H17X16292   0.118   0.448   8.626  0.2057 -0.0486 -2.7368
  147SAPE  H17Y16293  -0.041   0.375   8.606  0.9364  2.1254 -0.4049
  147SAPE  C31816294   0.130   0.241   8.551 -0.1384  0.1437 -0.5120
  147SAPE  H18X16295   0.066   0.151   8.536  0.7340 -0.2180 -2.3670
  147SAPE  H18Y16296   0.223   0.204   8.599  0.0191  0.3684 -0.6475
  147SAPE  H18Z16297   0.164   0.289   8.457  0.3421 -1.2633 -1.0809
  148SAPE     N16298   1.640   2.558  10.713  0.7607  0.5054  0.6998
  148SAPE   HN116299   1.667   2.536  10.811 -0.6571 -1.7105  0.6717
  148SAPE   HN216300   1.585   2.645  10.724  0.7962  0.4957  0.9632
  148SAPE   HN316301   1.576   2.479  10.687 -1.2901  2.2262  0.2393
  148SAPE   C1216302   1.756   2.575  10.622  0.3940  0.0858 -0.6986
  148SAPE  H12A16303   1.723   2.571  10.516 -0.8419 -0.3534 -0.3062
  148SAPE  H12B16304   1.829   2.501  10.661 -1.2834 -0.2569  2.0863
  148SAPE   C1116305   1.825   2.708  10.640  0.5242 -0.8054  0.3172
  148SAPE  H11A16306   1.907   2.710  10.566 -0.2352  0.2815 -0.5504
  148SAPE  H11B16307   1.862   2.732  10.742 -1.0048  3.3315  0.0980
  148SAPE     P16308   1.752   2.951  10.581  0.6259  0.0885  0.0378
  148SAPE   O1316309   1.629   3.018  10.548  0.3722 -0.6221 -0.1967
  148SAPE   O1416310   1.820   3.005  10.702  0.4034 -0.3429 -0.2848
  148SAPE   O1216311   1.720   2.803  10.602  0.5712 -0.3572  0.2228
  148SAPE   O1116312   1.847   2.966  10.457  0.3452 -0.8639  0.0379
  148SAPE    C116313   1.809   2.885  10.348  0.1354  0.0671  0.0137
  148SAPE    HA16314   1.899   2.883  10.284  0.5683 -0.7636  0.6337
  148SAPE    HB16315   1.789   2.777  10.369 -1.4796 -0.3142 -2.8518
  148SAPE    C216316   1.705   2.948  10.244  0.3181  0.6329 -0.0268
  148SAPE    HS16317   1.602   2.954  10.286  0.5133 -0.1950  0.6036
  148SAPE   O2116318   1.701   2.858  10.133  0.1100 -0.4886  0.3714
  148SAPE   C2116319   1.646   2.741  10.154  0.0916  0.5909  0.2115
  148SAPE   O2216320   1.598   2.696  10.254 -0.1797 -0.0616 -0.3011
  148SAPE   C2216321   1.667   2.670  10.028 -0.0705 -0.0303  0.5741
  148SAPE   H2R16322   1.753   2.708   9.967 -2.0304  1.6938 -1.2790
  148SAPE   H2S16323   1.662   2.561  10.045 -0.3577 -0.5328 -2.2218
  148SAPE    C316324   1.745   3.090  10.200 -0.0306 -0.2572 -0.0212
  148SAPE    HX16325   1.849   3.082  10.160 -0.1172  0.7879 -0.4999
  148SAPE    HY16326   1.744   3.151  10.293 -0.7512  0.2738 -0.3632
  148SAPE   O3116327   1.658   3.143  10.095 -0.8543 -0.5799  0.1482
  148SAPE   C3116328   1.537   3.199  10.133  0.7785  0.9183  1.2789
  148SAPE   O3216329   1.500   3.205  10.247 -0.2412 -0.4055  0.1278
  148SAPE   C3216330   1.466   3.266  10.018  0.3763 -0.4609  0.1845
  148SAPE   H2X16331   1.474   3.376  10.035  2.2971 -0.8546  2.2134
  148SAPE   H2Y16332   1.357   3.245  10.012 -0.6587  4.0370 -0.9117
  148SAPE   C2316333   1.556   2.711   9.926  0.5071  0.5461 -0.1923
  148SAPE   H3R16334   1.528   2.818   9.927 -1.4384  0.0796 -0.4661
  148SAPE   H3S16335   1.466   2.658   9.965  1.1497 -1.3192 -1.0787
  148SAPE   C2416336   1.579   2.662   9.781 -0.5524 -0.6479 -0.9522
  148SAPE   H4R16337   1.479   2.684   9.736 -1.1394 -0.3819  0.4331
  148SAPE   H4S16338   1.594   2.553   9.795  1.4819 -0.0386  2.5897
  148SAPE   C2516339   1.706   2.720   9.719  0.0236 -0.2154 -0.4477
  148SAPE   H5R16340   1.792   2.678   9.774 -1.0749 -0.6201  1.0391
  148SAPE   C2616341   1.719   2.808   9.618 -0.2328 -0.3931 -0.5773
  148SAPE   H6R16342   1.816   2.844   9.581  0.2447 -0.8205  0.2444
  148SAPE   C2716343   1.599   2.862   9.539  0.2508 -0.1784  0.2160
  148SAPE   H7R16344   1.620   2.969   9.518 -3.3140  0.6665  0.3931
  148SAPE   H7S16345   1.520   2.871   9.616  0.9140 -1.6113  1.1139
  148SAPE   C2816346   1.552   2.784   9.418 -0.1194  0.0794 -0.3574
  148SAPE   H8R16347   1.486   2.701   9.447  1.8550 -0.8289  1.8329
  148SAPE   C2916348   1.558   2.825   9.288 -0.0059 -0.1736 -0.0207
  148SAPE   H9R16349   1.529   2.757   9.207  1.0222 -0.6127 -0.0362
  148SAPE  C21016350   1.617   2.945   9.219  0.2237 -0.3490 -0.1996
  148SAPE  H10R16351   1.672   3.006   9.293 -0.7591  0.1229  0.1586
  148SAPE  H10S16352   1.537   3.018   9.196  0.0952 -0.6604 -0.7755
  148SAPE  C21116353   1.705   2.933   9.090  0.2970  0.0340  0.0606
  148SAPE  H11R16354   1.814   2.923   9.101  0.1102 -0.4940  1.8906
  148SAPE  C21216355   1.651   2.911   8.969 -0.0593  0.1641  0.2683
  148SAPE  H12R16356   1.712   2.915   8.877 -1.9443  0.8431 -1.0228
  148SAPE  C21316357   1.504   2.906   8.939 -0.1007  0.4473 -0.7107
  148SAPE  H13R16358   1.483   3.012   8.912  0.0161  0.5729 -0.3157
  148SAPE  H13S16359   1.439   2.883   9.026 -0.8144  1.5389 -0.9320
  148SAPE  C21416360   1.483   2.801   8.827  0.2061  0.1429  0.1212
  148SAPE  H14R16361   1.500   2.698   8.862  2.0000  0.5056  0.4320
  148SAPE  C21516362   1.453   2.832   8.699 -0.5910  0.3691 -0.0679
  148SAPE  H15R16363   1.433   2.755   8.623 -1.9231  1.4933 -0.9042
  148SAPE  C21616364   1.439   2.969   8.650 -0.5819  0.0602  0.4325
  148SAPE  H16R16365   1.467   2.978   8.542  1.5055  1.6339  1.0333
  148SAPE  H16S16366   1.498   3.051   8.697 -2.8264  2.2910 -0.4280
  148SAPE  C21716367   1.294   3.020   8.649  0.2984  0.4090 -0.1883
  148SAPE  H17R16368   1.271   3.009   8.757 -1.3083  0.4860 -0.4906
  148SAPE  H17S16369   1.222   2.956   8.593  0.7201  0.2176 -0.5157
  148SAPE  C21816370   1.285   3.163   8.585 -0.1172  0.5078  0.2213
  148SAPE  H18R16371   1.285   3.133   8.478  1.4999  0.7831  0.1214
  148SAPE  H18S16372   1.373   3.229   8.596 -0.7670  1.6412 -1.0467
  148SAPE  C21916373   1.161   3.234   8.622 -0.1349  0.0117 -0.2051
  148SAPE  H19R16374   1.169   3.344   8.612 -2.4471  0.4844  2.0531
  148SAPE  H19S16375   1.146   3.218   8.731 -0.5275  6.2653  1.0335
  148SAPE  C22016376   1.031   3.189   8.557 -1.0058  0.3471  0.4043
  148SAPE  H20R16377   1.025   3.220   8.451  0.1905  1.1260  0.5351
  148SAPE  H20S16378   0.946   3.247   8.600 -0.1298  1.3787  0.8135
  148SAPE  H20T16379   1.025   3.079   8.570 -0.2271 -0.1524 -2.7793
  148SAPE   C3316380   1.537   3.229   9.882 -0.3009  0.4130 -0.4264
  148SAPE   H3X16381   1.519   3.119   9.879  0.2666  0.3249 -2.0491
  148SAPE   H3Y16382   1.647   3.241   9.874 -0.0965  1.3690  2.7161
  148SAPE   C3416383   1.456   3.281   9.766 -0.4810 -0.1540 -0.0033
  148SAPE   H4X16384   1.450   3.391   9.777  4.4982  0.1481  2.3415
  148SAPE   H4Y16385   1.357   3.232   9.779 -1.6011  2.1146  0.5033
  148SAPE   C3516386   1.517   3.247   9.626  0.1884  0.1248  0.5453
  148SAPE   H5X16387   1.540   3.139   9.627  0.1447 -0.0419  4.9663
  148SAPE   H5Y16388   1.613   3.303   9.619  1.3042 -1.8352 -0.6511
  148SAPE   C3616389   1.416   3.292   9.521 -0.2994 -1.0798  0.0409
  148SAPE   H6X16390   1.392   3.399   9.541  0.4814 -0.1548 -3.2580
  148SAPE   H6Y16391   1.321   3.238   9.540 -1.6165  1.9692  3.3285
  148SAPE   C3716392   1.473   3.282   9.377  0.9367  0.2325 -0.2071
  148SAPE   H7X16393   1.463   3.181   9.332  1.1183  1.8832 -4.4347
  148SAPE   H7Y16394   1.582   3.300   9.384  0.9822 -0.6692  2.8230
  148SAPE   C3816395   1.401   3.386   9.284  0.4704 -0.1887 -0.8248
  148SAPE   H8X16396   1.418   3.492   9.311  0.5048 -0.0407 -1.4243
  148SAPE   H8Y16397   1.291   3.378   9.287  0.3580 -0.9724 -4.0532
  148SAPE   C3916398   1.453   3.369   9.141  0.5945  0.0521 -0.2790
  148SAPE   H9X16399   1.438   3.267   9.101  3.3778 -0.2762 -0.6893
  148SAPE   H9Y16400   1.564   3.373   9.151  0.6919 -1.6703 -0.3617
  148SAPE  C31016401   1.403   3.479   9.039  0.6778  0.6425 -0.1007
  148SAPE  H10X16402   1.417   3.581   9.080  0.3769  0.8139 -0.4325
  148SAPE  H10Y16403   1.296   3.466   9.012  1.1456  1.1436 -2.3867
  148SAPE  C31116404   1.490   3.467   8.915 -0.1785 -0.5692 -0.0946
  148SAPE  H11X16405   1.483   3.364   8.875  1.6484 -0.4922 -0.7433
  148SAPE  H11Y16406   1.596   3.492   8.936  0.5386  0.2061 -3.8885
  148SAPE  C31216407   1.452   3.555   8.796  0.4231 -0.1344 -0.1881
  148SAPE  H12X16408   1.346   3.541   8.766 -0.1145  1.6158  0.7272
  148SAPE  H12Y16409   1.497   3.531   8.698 -2.1281 -0.6894 -1.2970
  148SAPE  C31316410   1.490   3.708   8.813 -0.0075  0.1458 -0.0193
  148SAPE  H13X16411   1.594   3.721   8.853 -0.2627  0.5479  0.5377
  148SAPE  H13Y16412   1.428   3.747   8.897 -0.9341 -2.5595  0.6685
  148SAPE  C31416413   1.479   3.790   8.688  0.7206 -0.5537  0.5132
  148SAPE  H14X16414   1.388   3.787   8.624  0.3915  1.1111  0.8747
  148SAPE  H14Y16415   1.555   3.746   8.619  2.2590  0.5493  1.4450
  148SAPE  C31516416   1.515   3.930   8.727  0.4330 -0.1484 -0.7948
  148SAPE  H15X16417   1.612   3.910   8.776  0.3312 -0.2747 -0.6433
  148SAPE  H15Y16418   1.435   3.976   8.789 -1.0363 -0.2280 -2.5375
  148SAPE  C31616419   1.559   4.016   8.607 -1.0200 -0.0986 -0.5465
  148SAPE  H16X16420   1.480   4.051   8.537 -0.4732  1.0311 -0.6307
  148SAPE  H16Y16421   1.637   3.955   8.557  1.4248 -0.5300  3.3446
  148SAPE  C31716422   1.617   4.157   8.659  0.6711  1.1030  0.1348
  148SAPE  H17X16423   1.699   4.138   8.732 -0.9698 -1.6942  1.4418
  148SAPE  H17Y16424   1.542   4.209   8.723 -2.9251 -0.8234 -2.1657
  148SAPE  C31816425   1.666   4.261   8.552  0.0166  0.7083  0.1781
  148SAPE  H18X16426   1.764   4.227   8.512 -1.2320 -1.1488 -1.5512
  148SAPE  H18Y16427   1.684   4.360   8.598  1.1535  1.3804 -1.6147
  148SAPE  H18Z16428   1.596   4.262   8.465  0.5674  0.3643 -0.2742
  149SAPE     N16429   1.988   4.953  10.920  0.6262 -0.1025 -0.2679
  149SAPE   HN116430   1.983   4.995  11.015  0.5315  0.0579 -0.3428
  149SAPE   HN216431   2.088   4.964  10.893  0.7552  2.6768  0.9666
  149SAPE   HN316432   1.923   5.009  10.860  0.8087  2.0921  1.4634
  149SAPE   C1216433   1.950   4.811  10.918 -0.8177  0.3602 -0.2243
  149SAPE  H12A16434   1.959   4.781  10.811  1.1158 -0.0207  0.0173
  149SAPE  H12B16435   1.846   4.806  10.956 -1.1011 -0.8698 -1.0896
  149SAPE   C1116436   2.051   4.741  11.011 -0.3614  0.2388  0.1943
  149SAPE  H11A16437   2.041   4.631  11.002  0.1688  0.3098 -1.6189
  149SAPE  H11B16438   2.027   4.759  11.118 -1.2641  1.1531 -0.1379
  149SAPE     P16439   2.301   4.686  10.970 -0.2686 -0.4381 -0.1900
  149SAPE   O1316440   2.433   4.759  10.952  0.0554 -0.5292  0.0290
  149SAPE   O1416441   2.288   4.601  11.087 -0.1861  0.2174  0.7806
  149SAPE   O1216442   2.183   4.790  10.980  0.5527 -0.1215  0.6939
  149SAPE   O1116443   2.263   4.602  10.843 -0.1862  0.0600  0.7269
  149SAPE    C116444   2.307   4.622  10.709 -0.8589  0.2670 -0.1197
  149SAPE    HA16445   2.391   4.694  10.709 -0.5583  0.0426 -3.1034
  149SAPE    HB16446   2.347   4.527  10.667  0.3288  0.8186 -0.2724
  149SAPE    C216447   2.203   4.677  10.615 -0.1952  0.3488  0.0700
  149SAPE    HS16448   2.147   4.764  10.657 -0.6494  0.4972 -0.8243
  149SAPE   O2116449   2.113   4.569  10.593 -0.2604  0.1818 -0.3680
  149SAPE   C2116450   1.999   4.597  10.548 -0.1261 -0.0260  1.0052
  149SAPE   O2216451   1.950   4.710  10.537  0.8273 -0.2996 -0.2773
  149SAPE   C2216452   1.922   4.473  10.503  0.7615  0.3643 -0.1546
  149SAPE   H2R16453   1.975   4.406  10.432 -3.8711 -1.7747 -2.0172
  149SAPE   H2S16454   1.912   4.412  10.595 -0.5188  0.7159 -0.0370
  149SAPE    C316455   2.275   4.735  10.487 -0.4025  0.4555  0.6667
  149SAPE    HX16456   2.337   4.655  10.440  0.5153  1.5076  0.0559
  149SAPE    HY16457   2.345   4.810  10.527 -1.6554  1.1833  1.5810
  149SAPE   O3116458   2.192   4.789  10.384  0.0481  0.3440 -0.5061
  149SAPE   C3116459   2.149   4.909  10.406  0.8691 -0.3576  0.3513
  149SAPE   O3216460   2.181   4.985  10.495  0.0632 -0.4192  0.2471
  149SAPE   C3216461   2.052   4.954  10.299 -0.4322 -0.0049 -0.5324
  149SAPE   H2X16462   1.955   4.958  10.353  0.1778 -1.1008  0.6924
  149SAPE   H2Y16463   2.043   4.871  10.227  1.3316 -0.5395 -0.1887
  149SAPE   C2316464   1.788   4.498  10.439  0.8043  0.3779 -0.6259
  149SAPE   H3R16465   1.727   4.561  10.508  0.7511  0.8062 -1.0564
  149SAPE   H3S16466   1.731   4.403  10.444  1.7215 -0.1206  1.0319
  149SAPE   C2416467   1.782   4.559  10.301 -0.5835 -0.4302 -0.0129
  149SAPE   H4R16468   1.838   4.655  10.298  0.7172 -1.1223  1.2907
  149SAPE   H4S16469   1.676   4.588  10.282 -0.1419  0.3952 -1.3588
  149SAPE   C2516470   1.833   4.457  10.208  0.2341 -0.4859  0.4001
  149SAPE   H5R16471   1.800   4.353  10.226  1.8632 -1.8401 -3.4466
  149SAPE   C2616472   1.907   4.484  10.100  0.5583 -0.3211 -0.1152
  149SAPE   H6R16473   1.940   4.406  10.030  0.2955  0.9797 -1.7571
  149SAPE   C2716474   1.954   4.620  10.055 -0.4313  0.6257  0.0602
  149SAPE   H7R16475   2.015   4.675  10.129 -0.5102  0.3268  0.3490
  149SAPE   H7S16476   1.862   4.680  10.034 -1.0018 -0.2642 -0.0032
  149SAPE   C2816477   2.038   4.626   9.924 -0.1887  0.5312 -0.8259
  149SAPE   H8R16478   2.003   4.683   9.837 -0.3027  0.9606 -0.5028
  149SAPE   C2916479   2.175   4.599   9.913 -0.7267 -1.0325 -0.9386
  149SAPE   H9R16480   2.222   4.606   9.814 -1.8016  1.4977 -1.3460
  149SAPE  C21016481   2.272   4.548  10.023 -1.2870 -0.0431  0.3167
  149SAPE  H10R16482   2.252   4.596  10.121  0.1782  0.9836  0.1553
  149SAPE  H10S16483   2.373   4.584   9.993 -1.0742  0.1371  1.2139
  149SAPE  C21116484   2.269   4.401  10.038  0.7466 -0.7995  0.0073
  149SAPE  H11R16485   2.184   4.363  10.097 -1.6960  1.2769 -1.9409
  149SAPE  C21216486   2.353   4.316   9.981 -0.6197  0.1420 -0.6036
  149SAPE  H12R16487   2.327   4.211   9.998 -0.5461 -0.1421 -2.1149
  149SAPE  C21316488   2.472   4.349   9.895  0.0210  0.1601  0.3351
  149SAPE  H13R16489   2.551   4.274   9.918 -1.7038 -2.2766 -1.2245
  149SAPE  H13S16490   2.517   4.449   9.912 -0.2210  0.5976 -1.4020
  149SAPE  C21416491   2.433   4.356   9.750 -0.2037  0.8829 -0.1616
  149SAPE  H14R16492   2.365   4.439   9.728 -1.2072  0.7495  2.1301
  149SAPE  C21516493   2.464   4.262   9.660 -0.4903  0.4068 -0.1559
  149SAPE  H15R16494   2.421   4.264   9.559  1.4596  0.8842 -1.0135
  149SAPE  C21616495   2.545   4.136   9.678 -0.2443 -0.2325 -0.7406
  149SAPE  H16R16496   2.554   4.117   9.787  0.6900 -1.9390 -1.0824
  149SAPE  H16S16497   2.651   4.144   9.648  0.6230 -2.6981  1.2634
  149SAPE  C21716498   2.494   3.999   9.622 -0.5936 -0.2555 -0.2260
  149SAPE  H17R16499   2.383   4.002   9.611 -0.6297  2.3135  0.1145
  149SAPE  H17S16500   2.528   3.914   9.684 -0.7853  0.5437  1.0202
  149SAPE  C21816501   2.550   3.983   9.476  1.2010  0.8260 -0.0338
  149SAPE  H18R16502   2.657   3.957   9.492  1.0554 -1.7059 -2.4791
  149SAPE  H18S16503   2.553   4.077   9.417 -0.4671  0.8133 -0.1933
  149SAPE  C21916504   2.485   3.864   9.399  0.4648 -0.2887 -0.2598
  149SAPE  H19R16505   2.461   3.785   9.474  0.0532  1.7876  1.9420
  149SAPE  H19S16506   2.557   3.826   9.324  1.0853 -1.2148  0.7799
  149SAPE  C22016507   2.348   3.889   9.330  0.2749 -0.6019 -0.0681
  149SAPE  H20R16508   2.273   3.911   9.409 -0.5473  0.5189 -1.1280
  149SAPE  H20S16509   2.302   3.803   9.277  0.3086 -1.1776  0.8140
  149SAPE  H20T16510   2.355   3.967   9.252  2.8045  0.2239  0.8866
  149SAPE   C3316511   2.078   5.094  10.240 -0.6097  0.5219 -0.0295
  149SAPE   H3X16512   2.018   5.096  10.147 -1.9122  1.4498  0.7971
  149SAPE   H3Y16513   2.185   5.117  10.222 -0.4813 -0.7421 -1.0225
  149SAPE   C3416514   2.023   5.205  10.327 -0.4496 -0.2632  0.3313
  149SAPE   H4X16515   2.079   5.220  10.421 -1.2784  1.4361  0.6021
  149SAPE   H4Y16516   1.919   5.171  10.348  0.0040 -1.6006  0.5248
  149SAPE   C3516517   2.037   5.345  10.260 -0.5623  0.9149 -0.2700
  149SAPE   H5X16518   2.140   5.378  10.233  0.6610 -1.2721  1.4496
  149SAPE   H5Y16519   2.001   5.420  10.333 -2.8460  0.2655 -0.6642
  149SAPE   C3616520   1.944   5.358  10.137  0.6911  0.6568  0.0107
  149SAPE   H6X16521   1.892   5.456  10.143 -1.2506 -0.4308  3.1651
  149SAPE   H6Y16522   1.860   5.285  10.144 -0.0049  1.3614 -0.7436
  149SAPE   C3716523   2.016   5.340  10.003  0.6753  0.1313  0.2028
  149SAPE   H7X16524   2.046   5.237   9.976 -1.9299 -0.4170 -0.9114
  149SAPE   H7Y16525   2.101   5.411   9.999 -0.9424  2.1875 -0.0264
  149SAPE   C3816526   1.908   5.367   9.887 -0.3359  0.2073 -0.0696
  149SAPE   H8X16527   1.853   5.460   9.912  1.5188  1.8583 -1.8069
  149SAPE   H8Y16528   1.825   5.292   9.887 -2.1786  2.0814  2.1431
  149SAPE   C3916529   1.964   5.399   9.748  0.3281  0.0509  0.0275
  149SAPE   H9X16530   2.034   5.485   9.749 -0.6791  1.0036 -2.4198
  149SAPE   H9Y16531   1.883   5.442   9.685  0.8344  0.8069 -0.1155
  149SAPE  C31016532   2.011   5.273   9.679 -0.6513 -0.5902 -0.3773
  149SAPE  H10X16533   1.943   5.186   9.686 -0.4439 -0.6783  0.6616
  149SAPE  H10Y16534   2.108   5.247   9.726 -0.4368  0.6430 -0.1046
  149SAPE  C31116535   2.038   5.281   9.526  0.1263  0.5397 -0.6111
  149SAPE  H11X16536   1.937   5.288   9.478  0.4872 -0.5961 -1.5832
  149SAPE  H11Y16537   2.083   5.188   9.486  3.2251  1.4716  0.4293
  149SAPE  C31216538   2.140   5.401   9.494  1.2557 -0.0065  0.5916
  149SAPE  H12X16539   2.228   5.384   9.559  1.2851  0.4571  0.6722
  149SAPE  H12Y16540   2.090   5.494   9.528  0.8784 -0.0388  0.1428
  149SAPE  C31316541   2.188   5.417   9.346 -0.0137 -0.7736 -0.5758
  149SAPE  H13X16542   2.223   5.324   9.297 -0.2581 -0.8120 -0.6799
  149SAPE  H13Y16543   2.279   5.481   9.345 -0.2731 -0.3970 -0.5359
  149SAPE  C31416544   2.092   5.483   9.242 -0.2395  0.2173  0.8851
  149SAPE  H14X16545   2.053   5.576   9.287  0.7579  1.4862 -0.7795
  149SAPE  H14Y16546   2.003   5.417   9.227 -1.4335  1.5062  1.9710
  149SAPE  C31516547   2.169   5.510   9.109 -0.0712  1.0534  0.1715
  149SAPE  H15X16548   2.263   5.562   9.136  0.0454 -0.5330  3.2894
  149SAPE  H15Y16549   2.115   5.582   9.045  1.5804  0.3844 -2.1006
  149SAPE  C31616550   2.219   5.385   9.037  0.1581 -0.0681 -0.5874
  149SAPE  H16X16551   2.140   5.309   9.053  0.1804 -0.3140 -1.5949
  149SAPE  H16Y16552   2.305   5.342   9.092  0.8946  0.4526 -1.3083
  149SAPE  C31716553   2.258   5.387   8.892  0.3833 -1.0795 -0.2065
  149SAPE  H17X16554   2.298   5.291   8.852  1.1783 -0.5570 -0.7139
  149SAPE  H17Y16555   2.342   5.459   8.878 -1.1215  0.6717 -0.5874
  149SAPE  C31816556   2.140   5.432   8.803 -0.1966  0.5292  0.3305
  149SAPE  H18X16557   2.077   5.510   8.851 -2.7219  0.5471 -2.6941
  149SAPE  H18Y16558   2.069   5.346   8.808  0.0800  0.1509 -1.7208
  149SAPE  H18Z16559   2.163   5.464   8.700 -0.4924  1.0223  0.4133
  150SAPE     N16560   5.177   1.768  10.588 -0.1896 -0.6005 -0.1901
  150SAPE   HN116561   5.255   1.807  10.531 -0.8678  0.4080 -0.4592
  150SAPE   HN216562   5.141   1.683  10.541  1.6842 -1.4880 -0.1309
  150SAPE   HN316563   5.106   1.844  10.587 -0.5398 -0.9178  0.1728
  150SAPE   C1216564   5.195   1.754  10.736  0.6717  0.4700  0.2682
  150SAPE  H12A16565   5.102   1.716  10.784 -1.7420  2.4651 -2.4712
  150SAPE  H12B16566   5.209   1.861  10.761 -1.0960  0.6340  0.7234
  150SAPE   C1116567   5.334   1.701  10.766 -0.0346 -0.1202  0.1544
  150SAPE  H11A16568   5.337   1.603  10.713 -1.4474  0.9488 -2.0730
  150SAPE  H11B16569   5.338   1.677  10.874  2.2267 -0.8580 -0.0227
  150SAPE     P16570   5.516   1.883  10.828 -0.5158 -0.0604  0.0506
  150SAPE   O1316571   5.413   1.923  10.923  0.2011 -0.2660 -0.3865
  150SAPE   O1416572   5.638   1.821  10.883  0.6367 -0.1695 -1.0607
  150SAPE   O1216573   5.444   1.783  10.727  0.3487  0.1354 -0.2139
  150SAPE   O1116574   5.556   2.003  10.734  0.0271  0.5266  0.7466
  150SAPE    C116575   5.463   2.051  10.631  0.0463 -0.0915 -0.7348
  150SAPE    HA16576   5.366   1.998  10.623 -1.4274  2.4715 -1.0146
  150SAPE    HB16577   5.430   2.153  10.659 -1.3518  0.1594 -3.0589
  150SAPE    C216578   5.527   2.047  10.490  0.8653 -0.3824  1.0950
  150SAPE    HS16579   5.457   2.085  10.412  1.1165  0.3914  1.2323
  150SAPE   O2116580   5.574   1.914  10.458 -0.0432 -0.1268 -0.0266
  150SAPE   C2116581   5.478   1.833  10.423 -0.3701 -0.5378 -0.6127
  150SAPE   O2216582   5.361   1.859  10.409  0.4231  0.0077 -0.5427
  150SAPE   C2216583   5.528   1.686  10.379  0.2602  0.1944 -0.2715
  150SAPE   H2R16584   5.637   1.674  10.362  0.6359 -1.3285  2.6445
  150SAPE   H2S16585   5.497   1.616  10.459 -1.2268  1.6636  0.5126
  150SAPE    C316586   5.640   2.149  10.490 -0.5440 -0.1341 -0.1764
  150SAPE    HX16587   5.686   2.138  10.590  0.0855 -0.5548 -0.5031
  150SAPE    HY16588   5.583   2.244  10.489 -1.6605 -0.7794 -1.2313
  150SAPE   O3116589   5.725   2.149  10.376 -0.0423 -0.5092  0.2424
  150SAPE   C3116590   5.846   2.089  10.396  0.5151 -0.4066  0.1813
  150SAPE   O3216591   5.900   2.063  10.498  0.0319  0.1852 -0.4768
  150SAPE   C3216592   5.917   2.071  10.255 -0.3632 -0.3817  0.4530
  150SAPE   H2X16593   6.022   2.098  10.277 -0.5260  0.5764  0.0942
  150SAPE   H2Y16594   5.870   2.142  10.183 -0.9381 -1.6862 -0.5115
  150SAPE   C2316595   5.462   1.639  10.249 -0.3287 -0.3523 -0.1482
  150SAPE   H3R16596   5.352   1.632  10.266 -0.3350 -0.7718 -0.3571
  150SAPE   H3S16597   5.493   1.535  10.224 -0.3804 -1.0747  2.5010
  150SAPE   C2416598   5.484   1.735  10.125  0.6108  0.4766 -0.3494
  150SAPE   H4R16599   5.591   1.756  10.102  1.2513 -3.7810 -2.3676
  150SAPE   H4S16600   5.437   1.829  10.161 -0.0756 -1.1743  3.5876
  150SAPE   C2516601   5.427   1.679   9.999  0.0606  0.1670  0.8207
  150SAPE   H5R16602   5.317   1.686   9.992  0.2055  2.7573  0.4001
  150SAPE   C2616603   5.491   1.640   9.890  0.4854  0.5844 -0.4897
  150SAPE   H6R16604   5.435   1.613   9.799  0.5064  2.1277 -0.9834
  150SAPE   C2716605   5.641   1.633   9.881  0.0241  0.5085  0.1056
  150SAPE   H7R16606   5.697   1.716   9.929  0.9832 -0.7472  1.2231
  150SAPE   H7S16607   5.648   1.648   9.771 -3.2647  1.1684 -0.1235
  150SAPE   C2816608   5.694   1.510   9.937  0.1404 -0.1423 -0.0062
  150SAPE   H8R16609   5.643   1.481  10.031 -1.9273  2.2024 -0.3064
  150SAPE   C2916610   5.777   1.416   9.887 -0.7707 -0.1838 -0.2329
  150SAPE   H9R16611   5.810   1.339   9.958  1.6646  0.2350 -0.8285
  150SAPE  C21016612   5.849   1.432   9.758  0.1327  0.1183  0.0461
  150SAPE  H10R16613   5.944   1.486   9.779  0.5697 -0.3749 -0.6119
  150SAPE  H10S16614   5.797   1.484   9.675 -0.4632 -0.3203  0.1442
  150SAPE  C21116615   5.895   1.297   9.701 -0.4651 -0.4458 -0.3329
  150SAPE  H11R16616   5.877   1.203   9.756  0.4552 -1.2897 -1.4199
  150SAPE  C21216617   5.948   1.284   9.577 -0.7848 -0.5430 -0.3114
  150SAPE  H12R16618   5.987   1.186   9.544 -0.1496 -0.0533 -1.0485
  150SAPE  C21316619   5.978   1.391   9.479  0.1815 -0.0491  0.1059
  150SAPE  H13R16620   6.067   1.365   9.418  0.0060  0.4552 -0.3690
  150SAPE  H13S16621   6.000   1.490   9.526  1.7387 -1.0524  1.6251
  150SAPE  C21416622   5.859   1.401   9.389  0.4293 -0.5827 -0.1315
  150SAPE  H14R16623   5.771   1.460   9.418 -0.8406 -1.9982 -0.9318
  150SAPE  C21516624   5.848   1.355   9.265  0.1074 -0.1646 -0.1120
  150SAPE  H15R16625   5.757   1.370   9.205  0.2022  0.0126 -0.2108
  150SAPE  C21616626   5.950   1.274   9.196 -0.3381  0.1218 -0.6390
  150SAPE  H16R16627   5.909   1.177   9.162 -0.8860  0.4694 -0.9863
  150SAPE  H16S16628   6.048   1.251   9.245  0.3934  1.0591 -1.6289
  150SAPE  C21716629   5.990   1.345   9.063 -0.8018  0.3979  0.6642
  150SAPE  H17R16630   5.907   1.370   8.993 -0.6119 -1.4352 -0.2652
  150SAPE  H17S16631   6.046   1.265   9.012 -2.9836 -0.4485 -0.5440
  150SAPE  C21816632   6.093   1.466   9.073  0.6507  0.0582  0.0932
  150SAPE  H18R16633   6.182   1.439   9.134  0.4186 -0.0532  0.3847
  150SAPE  H18S16634   6.037   1.541   9.133  0.4356  1.2827 -1.5665
  150SAPE  C21916635   6.124   1.513   8.933  0.4349  0.1530 -0.0738
  150SAPE  H19R16636   6.175   1.434   8.875  0.8977  0.3261  0.0898
  150SAPE  H19S16637   6.195   1.598   8.947 -1.1572  1.5645 -0.2432
  150SAPE  C22016638   6.018   1.579   8.842 -0.0711 -0.5309  0.5299
  150SAPE  H20R16639   5.956   1.657   8.891 -0.5216 -0.0175 -0.8404
  150SAPE  H20S16640   5.934   1.515   8.808  0.4759 -0.0771 -1.8264
  150SAPE  H20T16641   6.067   1.629   8.756  1.3190  0.0827  1.6380
  150SAPE   C3316642   5.920   1.920  10.214 -1.0772  1.4978  0.3491
  150SAPE   H3X16643   5.819   1.879  10.191 -0.4904 -2.6888  3.8794
  150SAPE   H3Y16644   5.970   1.863  10.296 -1.8555  2.3500  1.4447
  150SAPE   C3416645   5.993   1.885  10.084 -0.2061  1.1017  0.1462
  150SAPE   H4X16646   6.097   1.924  10.089  0.6913 -1.0596 -0.3840
  150SAPE   H4Y16647   5.945   1.928   9.993 -0.5510  1.1689  0.3595
  150SAPE   C3516648   6.007   1.733  10.066 -0.3808 -0.1409  0.3605
  150SAPE   H5X16649   5.907   1.686  10.071 -0.3880 -0.1847 -0.1291
  150SAPE   H5Y16650   6.051   1.688  10.158  0.3666  0.2992  0.2242
  150SAPE   C3616651   6.089   1.702   9.938  0.2183  0.0238 -0.1887
  150SAPE   H6X16652   6.060   1.786   9.871 -0.1244  1.5852  1.8012
  150SAPE   H6Y16653   6.049   1.605   9.904 -1.1071  0.1135  1.0289
  150SAPE   C3716654   6.239   1.675   9.950 -0.1749  0.1874 -0.1581
  150SAPE   H7X16655   6.258   1.577   9.999 -1.1953 -1.2250 -2.4267
  150SAPE   H7Y16656   6.285   1.755  10.012 -0.8161  0.0633  0.4913
  150SAPE   C3816657   6.318   1.692   9.819  0.5401  1.3265 -0.0517
  150SAPE   H8X16658   6.421   1.655   9.837 -0.6890 -2.4771 -0.0512
  150SAPE   H8Y16659   6.324   1.798   9.785  0.5028  0.6705 -2.2305
  150SAPE   C3916660   6.245   1.609   9.712 -0.2417  0.3451 -0.8312
  150SAPE   H9X16661   6.148   1.661   9.695 -1.0053 -1.1216 -1.0949
  150SAPE   H9Y16662   6.228   1.504   9.744 -0.3346  0.9697  1.2780
  150SAPE  C31016663   6.313   1.578   9.582  0.6885  0.0557 -0.0965
  150SAPE  H10X16664   6.246   1.510   9.526  0.5793 -1.5460  1.8809
  150SAPE  H10Y16665   6.413   1.533   9.600  0.1736 -0.6096  1.1787
  150SAPE  C31116666   6.331   1.705   9.498  0.2189  0.1247  0.5631
  150SAPE  H11X16667   6.384   1.775   9.566  1.1257  1.1615 -1.1682
  150SAPE  H11Y16668   6.231   1.746   9.473  1.5547  2.0048 -2.1613
  150SAPE  C31216669   6.400   1.671   9.364  0.0223 -0.1441 -0.5848
  150SAPE  H12X16670   6.357   1.573   9.334  3.2111 -2.1526  0.9161
  150SAPE  H12Y16671   6.505   1.640   9.382 -0.2737 -2.6733 -2.5709
  150SAPE  C31316672   6.384   1.784   9.258  0.2085 -0.2375 -0.2797
  150SAPE  H13X16673   6.440   1.868   9.304  2.0297 -0.5786 -1.7891
  150SAPE  H13Y16674   6.277   1.814   9.250 -0.5591 -2.6217  0.0855
  150SAPE  C31416675   6.433   1.736   9.124 -0.0493 -0.0722  0.4760
  150SAPE  H14X16676   6.349   1.685   9.072  0.2209 -0.9337  0.8493
  150SAPE  H14Y16677   6.522   1.671   9.134 -1.4657 -2.2685 -0.2623
  150SAPE  C31516678   6.480   1.852   9.027  0.3180  0.4052 -0.7575
  150SAPE  H15X16679   6.539   1.925   9.086 -1.3228 -0.4508  2.1178
  150SAPE  H15Y16680   6.385   1.896   8.988 -0.6749 -2.8444 -2.2917
  150SAPE  C31616681   6.566   1.802   8.907 -0.5260  0.2478  0.8204
  150SAPE  H16X16682   6.654   1.751   8.951 -1.6279  0.1388  3.0651
  150SAPE  H16Y16683   6.608   1.888   8.850 -0.2573 -0.6497 -0.3647
  150SAPE  C31716684   6.507   1.696   8.811  0.3883  0.2381  0.0068
  150SAPE  H17X16685   6.454   1.624   8.877 -1.0617  0.7915 -0.5009
  150SAPE  H17Y16686   6.591   1.639   8.765  1.3138 -0.9929  3.0091
  150SAPE  C31816687   6.398   1.744   8.711  0.5937 -0.5025 -0.7345
  150SAPE  H18X16688   6.418   1.837   8.653 -1.9504  1.9633  1.9844
  150SAPE  H18Y16689   6.308   1.774   8.769  2.3296 -0.1276  1.9100
  150SAPE  H18Z16690   6.359   1.664   8.644  0.5615 -1.9470  0.9507
  151SAPE     N16691   3.550   3.024  11.052  1.1053 -0.4989  0.2520
  151SAPE   HN116692   3.517   2.982  10.963  0.5867  3.2160 -1.4802
  151SAPE   HN216693   3.523   2.955  11.125 -0.5384 -0.2916 -0.1282
  151SAPE   HN316694   3.497   3.113  11.060 -0.2439 -1.2367 -0.1576
  151SAPE   C1216695   3.703   3.037  11.047  0.3578 -0.2736  0.3352
  151SAPE  H12A16696   3.742   2.934  11.035  1.7940  0.3696 -0.8309
  151SAPE  H12B16697   3.728   3.085  11.144 -1.3986  0.0158  0.6868
  151SAPE   C1116698   3.744   3.122  10.920 -0.2164 -0.0868 -0.0026
  151SAPE  H11A16699   3.853   3.127  10.901 -0.3357  0.0835 -0.6480
  151SAPE  H11B16700   3.702   3.222  10.942 -1.2082 -0.0016 -2.0341
  151SAPE     P16701   3.678   3.158  10.676  0.1885  0.1152  0.3405
  151SAPE   O1316702   3.619   3.291  10.702 -0.0816  0.5060  0.0734
  151SAPE   O1416703   3.807   3.150  10.602 -0.5799 -0.1407 -1.3953
  151SAPE   O1216704   3.689   3.068  10.805 -0.1739 -0.4942 -0.5677
  151SAPE   O1116705   3.563   3.081  10.595  0.5393  0.5466  0.7247
  151SAPE    C116706   3.572   2.938  10.563  0.7020  0.0401 -0.0502
  151SAPE    HA16707   3.657   2.888  10.615  0.0958  0.4878  1.4415
  151SAPE    HB16708   3.485   2.887  10.610 -0.6771  0.6463 -1.8162
  151SAPE    C216709   3.571   2.908  10.413 -0.4728 -0.0349 -0.8364
  151SAPE    HS16710   3.598   2.803  10.387  2.8009  0.4006  0.3439
  151SAPE   O2116711   3.661   2.993  10.342 -0.0923 -0.2924  0.0177
  151SAPE   C2116712   3.787   2.961  10.325 -0.4324 -0.3363  0.4583
  151SAPE   O2216713   3.840   2.863  10.379  0.2494 -0.0718  0.7491
  151SAPE   C2216714   3.859   3.064  10.237  0.3742 -0.2979  0.3041
  151SAPE   H2R16715   3.778   3.116  10.181  0.3537 -0.5791  0.0772
  151SAPE   H2S16716   3.905   3.130  10.314 -0.0430 -0.2894  0.5513
  151SAPE    C316717   3.435   2.945  10.364 -0.6238 -0.0463  0.0168
  151SAPE    HX16718   3.408   3.042  10.412  1.6085 -0.1711  1.6769
  151SAPE    HY16719   3.365   2.868  10.404  1.2564 -0.7648  2.0953
  151SAPE   O3116720   3.425   2.937  10.215  0.5529 -0.0548  0.1219
  151SAPE   C3116721   3.309   3.002  10.175 -0.4500 -0.8601 -0.2806
  151SAPE   O3216722   3.225   3.060  10.244  0.3047  0.4208 -0.5591
  151SAPE   C3216723   3.292   2.989  10.026 -0.3976 -0.2847 -0.6349
  151SAPE   H2X16724   3.200   3.050  10.015 -0.1113  0.6173  1.4044
  151SAPE   H2Y16725   3.270   2.885   9.995  0.5467 -0.9469  0.8005
  151SAPE   C2316726   3.961   2.995  10.145  0.3811  0.1293 -0.1266
  151SAPE   H3R16727   4.029   2.937  10.211  1.1102  1.1872  0.0935
  151SAPE   H3S16728   4.029   3.069  10.096 -0.0440  0.0833 -0.8055
  151SAPE   C2416729   3.893   2.901  10.050  0.2455  0.4630 -0.1348
  151SAPE   H4R16730   3.839   2.821  10.105 -1.5401  0.1080 -2.2853
  151SAPE   H4S16731   3.968   2.842   9.992  1.1640 -0.2106  1.6576
  151SAPE   C2516732   3.795   2.966   9.956 -0.5145  0.1061  0.1439
  151SAPE   H5R16733   3.713   3.007  10.017 -1.5091 -0.5271 -0.7337
  151SAPE   C2616734   3.807   2.995   9.828 -0.8402  0.4685  0.5537
  151SAPE   H6R16735   3.717   3.026   9.775 -0.0953 -0.2940 -1.2345
  151SAPE   C2716736   3.935   2.972   9.742 -0.3479  0.0445 -0.7808
  151SAPE   H7R16737   3.904   2.895   9.667 -0.7710  0.0044 -0.5650
  151SAPE   H7S16738   4.014   2.930   9.807 -0.0223  0.8253 -0.6543
  151SAPE   C2816739   3.975   3.092   9.668  0.0789  0.2785  0.7933
  151SAPE   H8R16740   4.066   3.142   9.702  0.0973  1.1793 -0.5002
  151SAPE   C2916741   3.919   3.144   9.562 -0.3260  0.2630  0.4595
  151SAPE   H9R16742   3.965   3.229   9.511  0.8411 -0.7823 -0.2765
  151SAPE  C21016743   3.799   3.082   9.494  0.8399  0.1667 -0.1415
  151SAPE  H10R16744   3.743   3.162   9.440 -0.7717  0.4134  1.7592
  151SAPE  H10S16745   3.713   3.063   9.562 -0.4911  1.3389 -1.4322
  151SAPE  C21116746   3.836   2.969   9.403 -0.1887 -0.4134 -0.5307
  151SAPE  H11R16747   3.858   2.875   9.457 -0.0497  0.1161  0.3531
  151SAPE  C21216748   3.849   2.978   9.274 -0.2320 -0.2945  0.7079
  151SAPE  H12R16749   3.877   2.888   9.217  0.1467  0.9653 -1.1947
  151SAPE  C21316750   3.825   3.112   9.194  0.1666  0.3602 -0.5763
  151SAPE  H13R16751   3.917   3.170   9.215  0.5402 -1.5806  4.5704
  151SAPE  H13S16752   3.741   3.177   9.227 -0.7872 -1.0975  0.0125
  151SAPE  C21416753   3.816   3.090   9.045 -0.3371  0.1517 -0.4411
  151SAPE  H14R16754   3.908   3.054   8.997 -0.9670 -0.6830 -1.0539
  151SAPE  C21516755   3.710   3.120   8.975 -0.3901  0.4361 -0.3549
  151SAPE  H15R16756   3.709   3.114   8.865  0.7576 -0.1899 -0.3482
  151SAPE  C21616757   3.572   3.148   9.018  0.2307  0.4301 -0.7297
  151SAPE  H16R16758   3.559   3.257   9.002 -0.2554  0.2404 -1.6974
  151SAPE  H16S16759   3.559   3.138   9.128  0.6946 -0.5226 -0.7568
  151SAPE  C21716760   3.475   3.051   8.954  0.0901 -0.4088  0.2625
  151SAPE  H17R16761   3.522   2.950   8.967  1.5040  0.3370  1.2578
  151SAPE  H17S16762   3.461   3.065   8.845  1.7547  0.0148  0.0752
  151SAPE  C21816763   3.331   3.049   9.011  0.7215  0.2950 -0.1224
  151SAPE  H18R16764   3.346   3.057   9.121  1.5385  0.1725 -0.2197
  151SAPE  H18S16765   3.285   2.949   8.994  0.9226 -0.0911  1.4540
  151SAPE  C21916766   3.241   3.158   8.959  0.4646 -0.7292 -0.2772
  151SAPE  H19R16767   3.284   3.251   8.918 -1.5809  0.1308 -0.5868
  151SAPE  H19S16768   3.177   3.205   9.036 -0.8294 -0.5091 -1.4431
  151SAPE  C22016769   3.133   3.107   8.863  0.5287 -0.4075  0.5323
  151SAPE  H20R16770   3.190   3.039   8.796 -0.5082 -1.4275  0.6433
  151SAPE  H20S16771   3.079   3.189   8.812  1.7753  0.4474  0.5352
  151SAPE  H20T16772   3.055   3.045   8.913  0.0780  0.5610  1.0536
  151SAPE   C3316773   3.406   3.044   9.937  0.3190  0.7123 -0.7832
  151SAPE   H3X16774   3.400   2.990   9.840 -0.1949  0.2751 -0.5095
  151SAPE   H3Y16775   3.502   3.007   9.979 -0.3091  1.4910  1.5181
  151SAPE   C3416776   3.405   3.196   9.923  0.5242 -0.3535 -0.3851
  151SAPE   H4X16777   3.414   3.245  10.022  0.7028 -1.8517  0.3547
  151SAPE   H4Y16778   3.318   3.238   9.868 -0.6170 -1.6297  0.3887
  151SAPE   C3516779   3.529   3.236   9.843 -0.2661 -0.4731  0.1745
  151SAPE   H5X16780   3.546   3.175   9.752 -0.1940  0.1776 -0.2536
  151SAPE   H5Y16781   3.620   3.215   9.902  0.6152  2.1275 -0.1504
  151SAPE   C3616782   3.533   3.383   9.810 -0.2154 -0.3611 -0.2509
  151SAPE   H6X16783   3.552   3.438   9.905 -0.1909 -1.3248  0.3107
  151SAPE   H6Y16784   3.429   3.403   9.777 -1.0681  0.0691  2.4673
  151SAPE   C3716785   3.631   3.425   9.705  0.0466  1.1077  0.0366
  151SAPE   H7X16786   3.633   3.365   9.612  2.4616  2.1623 -0.6776
  151SAPE   H7Y16787   3.729   3.396   9.749 -1.0979 -1.3897  1.1178
  151SAPE   C3816788   3.633   3.568   9.669 -0.1252  0.0208  0.6325
  151SAPE   H8X16789   3.660   3.627   9.760 -1.2018  1.1458  0.2474
  151SAPE   H8Y16790   3.535   3.616   9.649  0.4734  0.7147 -0.7907
  151SAPE   C3916791   3.741   3.608   9.567  0.1575 -0.0420 -0.5491
  151SAPE   H9X16792   3.835   3.561   9.604 -0.5670 -0.2007  1.2227
  151SAPE   H9Y16793   3.756   3.718   9.561 -0.0246  0.0724  0.6773
  151SAPE  C31016794   3.707   3.557   9.425 -0.9805  0.7377  0.0385
  151SAPE  H10X16795   3.604   3.592   9.405 -0.3809  2.3705 -0.4236
  151SAPE  H10Y16796   3.696   3.447   9.428 -1.1517  0.7717  0.7370
  151SAPE  C31116797   3.800   3.600   9.306  0.1391  0.1183 -0.8842
  151SAPE  H11X16798   3.894   3.544   9.326  0.5389  1.0087 -0.1814
  151SAPE  H11Y16799   3.820   3.709   9.299  2.3365 -0.0807  1.0754
  151SAPE  C31216800   3.750   3.543   9.173  0.0219 -0.1150 -0.2001
  151SAPE  H12X16801   3.667   3.604   9.131  0.7954  3.3196  2.7549
  151SAPE  H12Y16802   3.718   3.441   9.202  1.4169 -0.0709  1.7043
  151SAPE  C31316803   3.869   3.527   9.073 -0.1043 -0.2546 -0.0851
  151SAPE  H13X16804   3.816   3.471   8.993 -0.6272  2.1144 -1.4903
  151SAPE  H13Y16805   3.943   3.453   9.112  0.2505  0.3094  0.3294
  151SAPE  C31416806   3.949   3.645   9.023 -0.9626  0.7056  0.1528
  151SAPE  H14X16807   4.028   3.669   9.097  0.2246 -1.1674 -0.4369
  151SAPE  H14Y16808   3.885   3.736   9.016 -0.1031  1.5229  2.2543
  151SAPE  C31516809   3.998   3.623   8.879 -0.1174 -0.8970 -0.5893
  151SAPE  H15X16810   3.915   3.598   8.809  0.6959 -0.5833 -1.6970
  151SAPE  H15Y16811   4.074   3.542   8.870 -0.0669 -1.5487  3.6804
  151SAPE  C31616812   4.076   3.742   8.826  0.4931 -0.6496 -0.0246
  151SAPE  H16X16813   4.138   3.704   8.742  0.9997  1.0008 -0.4404
  151SAPE  H16Y16814   4.154   3.776   8.897  1.2544  1.0125 -1.5646
  151SAPE  C31716815   3.989   3.862   8.785  0.0997 -0.2795 -0.0213
  151SAPE  H17X16816   3.934   3.907   8.870  2.1258  0.5274  0.9474
  151SAPE  H17Y16817   3.905   3.836   8.718  0.1481 -1.7747  0.4659
  151SAPE  C31816818   4.069   3.979   8.713  0.3255  0.0722  0.6640
  151SAPE  H18X16819   4.172   3.991   8.754  1.0461  0.7605 -1.2562
  151SAPE  H18Y16820   4.015   4.076   8.716  1.0277  0.5924 -1.6002
  151SAPE  H18Z16821   4.075   3.964   8.603 -2.0041  0.9820  0.3725
  152SAPE     N16822   3.037   6.679  10.621  0.3301  0.4466  0.6425
  152SAPE   HN116823   3.033   6.617  10.538  1.0551 -0.2390  1.1005
  152SAPE   HN216824   3.125   6.650  10.670  1.5172  4.0914  0.9631
  152SAPE   HN316825   2.954   6.673  10.683 -0.7199 -1.5389 -0.8618
  152SAPE   C1216826   3.069   6.812  10.564  0.2824  0.5191 -0.3153
  152SAPE  H12A16827   3.062   6.888  10.644  0.8368 -0.4519  0.6771
  152SAPE  H12B16828   2.991   6.824  10.486 -1.5431 -0.4095  1.2977
  152SAPE   C1116829   3.213   6.815  10.497  0.6463 -0.3004  0.3680
  152SAPE  H11A16830   3.227   6.915  10.451  1.3772  1.4399  4.0161
  152SAPE  H11B16831   3.217   6.747  10.410  0.3845  2.7174 -2.1660
  152SAPE     P16832   3.377   6.886  10.681 -0.3097 -0.0390  0.4266
  152SAPE   O1316833   3.277   6.972  10.750 -1.1352 -0.2654  0.4653
  152SAPE   O1416834   3.483   6.819  10.764 -0.1864 -0.0448  0.6148
  152SAPE   O1216835   3.312   6.770  10.593 -0.1154  0.1260 -0.3911
  152SAPE   O1116836   3.446   6.974  10.571  0.4227 -0.2773 -0.3320
  152SAPE    C116837   3.405   7.107  10.538 -0.8452 -0.1410  0.5923
  152SAPE    HA16838   3.297   7.114  10.513 -0.5871  2.0636 -0.1656
  152SAPE    HB16839   3.418   7.176  10.624 -1.1192 -0.1016  0.6027
  152SAPE    C216840   3.495   7.171  10.426  0.2561 -0.3584  0.2729
  152SAPE    HS16841   3.451   7.273  10.421 -1.1664 -0.9593 -0.1697
  152SAPE   O2116842   3.490   7.108  10.298  0.1716 -0.1131  0.1145
  152SAPE   C2116843   3.369   7.121  10.241 -0.5383  0.1683 -0.4012
  152SAPE   O2216844   3.273   7.171  10.291 -0.4619 -0.2593  0.4181
  152SAPE   C2216845   3.376   7.076  10.095 -0.6995 -0.8450 -0.3260
  152SAPE   H2R16846   3.273   7.053  10.061 -1.0652 -0.2051  0.3397
  152SAPE   H2S16847   3.416   7.166  10.042  1.5220 -0.8958  1.1300
  152SAPE    C316848   3.638   7.185  10.477  0.7056  0.0183 -0.3401
  152SAPE    HX16849   3.687   7.086  10.492 -0.8448 -0.7101  0.1567
  152SAPE    HY16850   3.632   7.224  10.581 -3.0806  2.5906 -1.3367
  152SAPE   O3116851   3.712   7.276  10.391 -0.1877 -0.0049  0.7449
  152SAPE   C3116852   3.802   7.220  10.304  0.2667  0.5061 -0.3712
  152SAPE   O3216853   3.820   7.102  10.286 -0.4640 -0.1335 -0.1073
  152SAPE   C3216854   3.870   7.333  10.223  0.1779 -0.3328 -0.2906
  152SAPE   H2X16855   3.976   7.329  10.256  0.5207 -0.4936 -1.3675
  152SAPE   H2Y16856   3.828   7.431  10.252 -0.2388  0.6267 -3.7050
  152SAPE   C2316857   3.460   6.952  10.064 -0.3501  0.1278 -0.0030
  152SAPE   H3R16858   3.403   6.874  10.119  1.0388  0.3335  1.8305
  152SAPE   H3S16859   3.561   6.956  10.111 -0.4481 -1.6275  0.3919
  152SAPE   C2416860   3.461   6.917   9.921 -0.2052 -0.7029 -0.4665
  152SAPE   H4R16861   3.354   6.900   9.893 -0.4241  0.9844 -0.7531
  152SAPE   H4S16862   3.527   6.828   9.915  1.4242  0.4324  0.0730
  152SAPE   C2516863   3.528   7.022   9.840  0.3258  0.6284  0.5832
  152SAPE   H5R16864   3.575   7.105   9.896 -0.0006  0.4087  1.1830
  152SAPE   C2616865   3.543   7.010   9.707 -0.1238 -0.0582 -0.1708
  152SAPE   H6R16866   3.583   7.101   9.662 -1.9362  1.3824  0.9860
  152SAPE   C2716867   3.494   6.898   9.617  0.8731  0.5507  0.9572
  152SAPE   H7R16868   3.383   6.896   9.619  0.7883  1.2811 -0.9797
  152SAPE   H7S16869   3.527   6.804   9.665 -0.9790 -1.5932 -1.6569
  152SAPE   C2816870   3.556   6.907   9.480 -0.0247  0.3156  1.1702
  152SAPE   H8R16871   3.614   6.816   9.458 -1.2187 -0.2743  0.4148
  152SAPE   C2916872   3.546   6.995   9.381 -0.2329 -0.2691  0.2436
  152SAPE   H9R16873   3.597   6.971   9.287  1.2083 -0.9496  1.1564
  152SAPE  C21016874   3.479   7.128   9.385  0.8919 -0.1116  0.3605
  152SAPE  H10R16875   3.556   7.209   9.394 -2.7827  4.0334 -1.5398
  152SAPE  H10S16876   3.413   7.132   9.473 -0.6385  0.3166 -0.7700
  152SAPE  C21116877   3.401   7.164   9.261 -0.5705 -0.1342 -0.7668
  152SAPE  H11R16878   3.459   7.222   9.188 -1.9878  1.2679 -0.8169
  152SAPE  C21216879   3.274   7.119   9.236  0.0835  0.1532 -0.1488
  152SAPE  H12R16880   3.231   7.148   9.139  0.7628  3.5474  0.4161
  152SAPE  C21316881   3.187   7.037   9.322  0.3247 -0.3016  0.2571
  152SAPE  H13R16882   3.242   6.981   9.401 -0.0595  1.3906  1.8025
  152SAPE  H13S16883   3.144   6.968   9.247  1.5447 -0.6067 -0.1817
  152SAPE  C21416884   3.077   7.135   9.376  0.5744  0.0212 -0.4873
  152SAPE  H14R16885   3.038   7.203   9.299 -0.9108 -0.4992 -0.2319
  152SAPE  C21516886   3.029   7.135   9.503 -0.9085  0.2888 -0.0125
  152SAPE  H15R16887   2.949   7.207   9.526  2.2276  3.5311  1.6621
  152SAPE  C21616888   3.060   7.035   9.613 -0.0916 -0.1494 -0.2731
  152SAPE  H16R16889   3.105   6.940   9.579 -1.8169 -0.6454 -1.2746
  152SAPE  H16S16890   2.966   6.999   9.661 -0.8278  1.9245 -0.0419
  152SAPE  C21716891   3.161   7.081   9.718 -0.1750 -0.3372 -0.6178
  152SAPE  H17R16892   3.252   7.113   9.663 -0.5502  1.1074 -0.4451
  152SAPE  H17S16893   3.186   6.989   9.775  0.8453 -1.7848 -3.2419
  152SAPE  C21816894   3.115   7.197   9.804  0.4244 -0.2962 -0.6044
  152SAPE  H18R16895   3.095   7.283   9.737  0.8267 -0.6443 -1.1730
  152SAPE  H18S16896   3.196   7.233   9.871 -0.9482  1.0077  0.4507
  152SAPE  C21916897   2.994   7.168   9.903 -0.8669  0.2402  0.4628
  152SAPE  H19R16898   3.000   7.069   9.954  1.1831  0.7311  1.3069
  152SAPE  H19S16899   2.910   7.162   9.831 -0.4225  0.0211 -0.0535
  152SAPE  C22016900   2.970   7.273  10.014  0.0714 -0.3829  0.4197
  152SAPE  H20R16901   3.050   7.279  10.090  0.6003  0.2915 -0.1666
  152SAPE  H20S16902   2.883   7.237  10.072 -0.5410  0.0866 -0.1872
  152SAPE  H20T16903   2.958   7.375   9.970  0.5473 -0.2771  0.5289
  152SAPE   C3316904   3.863   7.313  10.071  0.1745  0.0840 -0.1351
  152SAPE   H3X16905   3.901   7.210  10.050 -1.2397 -0.0803 -2.2596
  152SAPE   H3Y16906   3.930   7.388  10.024  0.7079  0.4964  1.2466
  152SAPE   C3416907   3.718   7.320  10.024  0.1392  0.1782  0.5210
  152SAPE   H4X16908   3.664   7.401  10.077  0.2026 -0.0229  0.8961
  152SAPE   H4Y16909   3.663   7.226  10.041  1.9644 -0.6955  1.9210
  152SAPE   C3516910   3.715   7.361   9.875  0.7435  0.4771 -0.7368
  152SAPE   H5X16911   3.770   7.290   9.810  1.8828  0.3230  0.3608
  152SAPE   H5Y16912   3.772   7.456   9.881  1.6836 -0.0973 -0.3412
  152SAPE   C3616913   3.575   7.389   9.819 -0.1023 -1.0065 -0.0715
  152SAPE   H6X16914   3.533   7.463   9.890 -2.1718 -2.0573 -0.1332
  152SAPE   H6Y16915   3.510   7.303   9.844  2.3533 -2.7694  0.5683
  152SAPE   C3716916   3.568   7.434   9.673 -0.2232  0.4072 -0.4785
  152SAPE   H7X16917   3.596   7.347   9.610  0.2463  1.2504 -1.4665
  152SAPE   H7Y16918   3.639   7.517   9.655 -0.8227  0.5008 -2.7448
  152SAPE   C3816919   3.429   7.491   9.657  0.3309  0.2488 -0.7983
  152SAPE   H8X16920   3.433   7.589   9.709  0.2671  0.2143 -0.7296
  152SAPE   H8Y16921   3.355   7.427   9.709 -0.7417  1.8897 -0.2374
  152SAPE   C3916922   3.374   7.500   9.512 -0.2796  0.1333  0.7099
  152SAPE   H9X16923   3.402   7.408   9.457 -1.9117  1.3214 -2.3752
  152SAPE   H9Y16924   3.437   7.578   9.465  1.5213 -1.4452  0.3857
  152SAPE  C31016925   3.226   7.531   9.493  0.6258  0.3331  0.2895
  152SAPE  H10X16926   3.181   7.605   9.562 -1.1903  0.4869 -0.9949
  152SAPE  H10Y16927   3.160   7.443   9.511 -1.9633  2.0070 -0.3714
  152SAPE  C31116928   3.182   7.591   9.360  0.4850  0.3157  0.1330
  152SAPE  H11X16929   3.205   7.699   9.355  1.9489  0.0378  0.4656
  152SAPE  H11Y16930   3.074   7.566   9.350  1.0804 -2.4062 -0.5340
  152SAPE  C31216931   3.249   7.521   9.248 -0.4180  0.4140  0.1034
  152SAPE  H12X16932   3.241   7.411   9.259 -1.1470  0.5421  0.9186
  152SAPE  H12Y16933   3.357   7.547   9.249  0.1709 -1.8281 -0.3786
  152SAPE  C31316934   3.191   7.565   9.114 -0.6024  0.2220 -0.1978
  152SAPE  H13X16935   3.179   7.674   9.130 -2.1671  0.2976 -1.6071
  152SAPE  H13Y16936   3.094   7.515   9.098 -2.4678  3.3434  0.5892
  152SAPE  C31416937   3.273   7.541   8.985 -0.3917  0.0991 -0.1431
  152SAPE  H14X16938   3.305   7.435   8.972  2.2838  0.8153 -0.1294
  152SAPE  H14Y16939   3.373   7.584   9.010 -0.6008  0.2982  0.3552
  152SAPE  C31516940   3.204   7.603   8.857  0.3853  0.9927 -0.4222
  152SAPE  H15X16941   3.172   7.706   8.880  0.5452  0.7318  1.0635
  152SAPE  H15Y16942   3.116   7.540   8.831 -0.1916  0.5118  2.3609
  152SAPE  C31616943   3.313   7.609   8.751 -0.8347 -0.3066  0.7350
  152SAPE  H16X16944   3.351   7.506   8.731  0.1898  0.0804  0.6340
  152SAPE  H16Y16945   3.397   7.673   8.784 -1.3190  1.7719 -1.7335
  152SAPE  C31716946   3.263   7.669   8.620 -0.3721  0.3045 -0.7824
  152SAPE  H17X16947   3.353   7.664   8.555  1.3357  1.2111  1.3717
  152SAPE  H17Y16948   3.242   7.778   8.628 -1.2814  0.2065 -1.7151
  152SAPE  C31816949   3.149   7.598   8.560 -0.0253 -0.0837  0.1059
  152SAPE  H18X16950   3.163   7.488   8.553 -1.7700 -0.4775  1.9333
  152SAPE  H18Y16951   3.120   7.645   8.464  2.0996  2.3835  0.5469
  152SAPE  H18Z16952   3.060   7.611   8.624  0.3131  0.5642  0.4510
  153SAPE     N16953   3.281   3.813  10.533 -0.1152 -1.2338  0.1709
  153SAPE   HN116954   3.299   3.747  10.611 -0.4856  0.3073  1.6089
  153SAPE   HN216955   3.312   3.766  10.445  2.1344  2.4903 -1.2555
  153SAPE   HN316956   3.347   3.892  10.544 -0.0153 -1.2048 -0.5884
  153SAPE   C1216957   3.129   3.834  10.565  0.3856 -0.0822 -0.0482
  153SAPE  H12A16958   3.091   3.915  10.499  2.5278  1.3173  0.3332
  153SAPE  H12B16959   3.127   3.871  10.670  0.8853  2.1108 -0.7563
  153SAPE   C1116960   3.069   3.696  10.531 -0.9690 -0.1088  0.0558
  153SAPE  H11A16961   3.078   3.669  10.423  0.8348  3.1000 -0.7183
  153SAPE  H11B16962   2.962   3.696  10.561 -0.6010 -1.1243  1.4432
  153SAPE     P16963   3.172   3.454  10.583  0.6235 -0.2314 -0.0062
  153SAPE   O1316964   3.239   3.383  10.690 -0.1658 -0.0512 -0.0159
  153SAPE   O1416965   3.051   3.385  10.522 -0.3896  0.3254  0.1859
  153SAPE   O1216966   3.139   3.604  10.621  0.4653 -0.3290  0.0312
  153SAPE   O1116967   3.267   3.492  10.473  0.2057  0.2943  0.5457
  153SAPE    C116968   3.378   3.408  10.443  0.4733 -0.3493  0.6138
  153SAPE    HA16969   3.437   3.392  10.536  0.1194  2.5692  1.4618
  153SAPE    HB16970   3.342   3.311  10.403 -2.1577  1.3790 -1.5439
  153SAPE    C216971   3.470   3.464  10.335  0.0495  0.2241 -0.8399
  153SAPE    HS16972   3.524   3.553  10.372  0.0590 -0.8272  1.8767
  153SAPE   O2116973   3.393   3.487  10.215  0.0690  0.2022 -0.2210
  153SAPE   C2116974   3.321   3.598  10.211  0.1616  0.1020  0.0610
  153SAPE   O2216975   3.318   3.687  10.288 -0.1848  0.0884 -0.2608
  153SAPE   C2216976   3.237   3.588  10.093 -0.1895  0.3720  0.2914
  153SAPE   H2R16977   3.269   3.680  10.040  1.4538  0.2231  0.9793
  153SAPE   H2S16978   3.268   3.506  10.026  0.4786  0.7328  0.1551
  153SAPE    C316979   3.571   3.359  10.294  0.3278  0.1915 -0.1353
  153SAPE    HX16980   3.503   3.276  10.266 -0.6200  0.8202  0.2575
  153SAPE    HY16981   3.635   3.327  10.379 -0.0111  0.0897  0.0839
  153SAPE   O3116982   3.654   3.398  10.185 -0.0231 -0.6343  0.1215
  153SAPE   C3116983   3.731   3.500  10.195  0.3155  0.3408  0.0959
  153SAPE   O3216984   3.740   3.585  10.280 -0.9310  0.4866 -0.6491
  153SAPE   C3216985   3.826   3.495  10.078 -0.4326  0.6344 -0.2319
  153SAPE   H2X16986   3.776   3.457   9.986 -0.8654 -0.4081  0.4171
  153SAPE   H2Y16987   3.896   3.411  10.093  0.5827  1.5128  0.1017
  153SAPE   C2316988   3.088   3.590  10.115  0.2491  0.4404 -0.6252
  153SAPE   H3R16989   3.033   3.605  10.020  1.7574  0.7318 -1.4631
  153SAPE   H3S16990   3.062   3.681  10.174  1.8141  0.8985 -0.6121
  153SAPE   C2416991   3.036   3.454  10.182  0.4076 -0.6002  0.0766
  153SAPE   H4R16992   2.927   3.470  10.192  0.1799 -1.0618 -1.4111
  153SAPE   H4S16993   3.073   3.439  10.286 -3.6782  1.6155  2.0652
  153SAPE   C2516994   3.055   3.334  10.092 -0.6526  0.2205 -0.7821
  153SAPE   H5R16995   3.109   3.252  10.142 -1.1841  0.4509  0.2154
  153SAPE   C2616996   2.998   3.316   9.972 -0.9028  0.8617 -0.5536
  153SAPE   H6R16997   3.016   3.219   9.923 -0.6922 -1.3138  3.3692
  153SAPE   C2716998   2.906   3.406   9.899 -0.0700  0.0915  0.5663
  153SAPE   H7R16999   2.965   3.463   9.824  1.4104 -0.2249  1.4667
  153SAPE   H7S17000   2.855   3.473   9.972 -1.0667  0.8498 -0.7670
  153SAPE   C2817001   2.805   3.322   9.834  0.3701 -0.0076  0.2510
  153SAPE   H8R17002   2.736   3.261   9.896 -1.7248  0.0270 -1.8878
  153SAPE   C2917003   2.772   3.328   9.705  0.3760 -0.1489  0.3670
  153SAPE   H9R17004   2.696   3.262   9.662  2.5733 -0.7488 -2.9946
  153SAPE  C21017005   2.826   3.419   9.595 -0.1214  0.1008 -0.5540
  153SAPE  H10R17006   2.901   3.497   9.621  0.2116 -0.6690  0.9587
  153SAPE  H10S17007   2.738   3.482   9.573 -1.4745 -0.8800  1.6617
  153SAPE  C21117008   2.883   3.344   9.475  0.0150  0.1687  0.1437
  153SAPE  H11R17009   2.929   3.247   9.494 -2.4803 -0.9194  1.1515
  153SAPE  C21217010   2.863   3.386   9.346  0.1598 -0.5092 -0.4465
  153SAPE  H12R17011   2.912   3.337   9.260  1.9509 -0.5871  0.5530
  153SAPE  C21317012   2.801   3.514   9.300  0.3411 -0.0744 -0.2469
  153SAPE  H13R17013   2.799   3.583   9.387  0.3566 -0.4606  0.0637
  153SAPE  H13S17014   2.692   3.501   9.282  0.3432  0.4527 -0.6820
  153SAPE  C21417015   2.866   3.584   9.187  0.2086  0.0189 -0.6274
  153SAPE  H14R17016   2.976   3.584   9.195  0.1566 -2.3236  1.4476
  153SAPE  C21517017   2.808   3.632   9.079 -0.6100 -0.5199 -0.3097
  153SAPE  H15R17018   2.873   3.677   9.002 -1.2831 -0.5851 -0.9316
  153SAPE  C21617019   2.663   3.626   9.037  0.3780 -0.7407 -0.8952
  153SAPE  H16R17020   2.603   3.580   9.119 -0.8790  0.3169 -1.1902
  153SAPE  H16S17021   2.653   3.566   8.944 -1.8422  0.6228 -1.6140
  153SAPE  C21717022   2.608   3.767   9.026  0.5959  0.1012  0.3003
  153SAPE  H17R17023   2.669   3.828   8.956  0.1458 -0.4139 -0.5497
  153SAPE  H17S17024   2.622   3.813   9.126  1.9911  0.1224  0.1203
  153SAPE  C21817025   2.453   3.777   8.997 -0.2237 -0.0915  0.2346
  153SAPE  H18R17026   2.417   3.882   8.988 -1.4185 -0.5256 -0.2867
  153SAPE  H18S17027   2.399   3.726   9.079 -0.4281  0.4245  0.4267
  153SAPE  C21917028   2.415   3.725   8.858 -0.5087 -0.0618 -0.4728
  153SAPE  H19R17029   2.461   3.625   8.841  1.9424  0.6318  1.5519
  153SAPE  H19S17030   2.460   3.790   8.780 -0.3544  0.4411  0.0291
  153SAPE  C22017031   2.267   3.732   8.833  0.1974 -0.4118 -0.7526
  153SAPE  H20R17032   2.238   3.678   8.740 -3.2631  1.1527 -0.7696
  153SAPE  H20S17033   2.232   3.838   8.825  2.6882  0.4145 -1.7170
  153SAPE  H20T17034   2.213   3.689   8.919  1.3399  0.5096  0.4693
  153SAPE   C3317035   3.896   3.637  10.055  0.1457  0.3819 -0.1024
  153SAPE   H3X17036   3.925   3.687  10.149  0.9423 -1.9515  0.9774
  153SAPE   H3Y17037   3.819   3.698  10.002  0.9654  1.7973  0.2997
  153SAPE   C3417038   4.026   3.635   9.979  0.5014 -0.1309 -0.2631
  153SAPE   H4X17039   4.100   3.568  10.029  1.4376 -0.1564 -1.6498
  153SAPE   H4Y17040   4.064   3.739   9.978  0.8466 -0.0634  3.6084
  153SAPE   C3517041   4.010   3.583   9.836  0.0432 -0.1779 -0.4190
  153SAPE   H5X17042   3.916   3.628   9.796 -0.1222  0.6165  0.8093
  153SAPE   H5Y17043   4.001   3.472   9.834 -1.0432 -0.1101 -0.0100
  153SAPE   C3617044   4.135   3.632   9.760  0.6613 -0.0775 -0.1119
  153SAPE   H6X17045   4.223   3.592   9.816  1.1913 -0.8348 -1.4379
  153SAPE   H6Y17046   4.145   3.742   9.770  0.1608  0.0136 -0.5848
  153SAPE   C3717047   4.133   3.587   9.615  0.1465 -0.6413 -0.1942
  153SAPE   H7X17048   4.051   3.644   9.565  0.8877  1.1730  0.5700
  153SAPE   H7Y17049   4.129   3.476   9.613 -0.2322 -0.7181  2.3966
  153SAPE   C3817050   4.264   3.628   9.547 -0.2461  0.1495 -0.0689
  153SAPE   H8X17051   4.343   3.555   9.573 -1.1705 -0.6424  0.5750
  153SAPE   H8Y17052   4.288   3.731   9.581  0.6806 -0.5703  1.5766
  153SAPE   C3917053   4.243   3.621   9.401 -0.4348 -0.3329  0.7678
  153SAPE   H9X17054   4.185   3.709   9.366  0.0299 -0.6152 -0.7995
  153SAPE   H9Y17055   4.190   3.530   9.366 -0.9915  0.9934 -2.2003
  153SAPE  C31017056   4.371   3.615   9.318  0.4240  0.0613  0.1848
  153SAPE  H10X17057   4.432   3.526   9.344  2.4999  0.2570 -3.4003
  153SAPE  H10Y17058   4.439   3.702   9.327  0.4948 -0.1138  1.6327
  153SAPE  C31117059   4.344   3.607   9.167 -0.7030  0.2662  0.6377
  153SAPE  H11X17060   4.277   3.689   9.134  0.8337  1.4710  0.4311
  153SAPE  H11Y17061   4.292   3.512   9.141  1.0733 -0.3553 -0.8243
  153SAPE  C31217062   4.476   3.582   9.088  0.4129 -0.2754  0.0536
  153SAPE  H12X17063   4.522   3.489   9.128  0.6828  0.0041  0.4047
  153SAPE  H12Y17064   4.549   3.660   9.121  0.9661 -0.5657 -0.4554
  153SAPE  C31317065   4.464   3.573   8.934  0.9423 -0.2384  0.5393
  153SAPE  H13X17066   4.409   3.666   8.910 -0.8137 -0.6865  2.4489
  153SAPE  H13Y17067   4.394   3.494   8.899 -1.9839  1.5256  2.0178
  153SAPE  C31417068   4.606   3.555   8.873  0.2697  0.2924  0.2365
  153SAPE  H14X17069   4.678   3.558   8.958 -0.1748 -1.6409  0.7388
  153SAPE  H14Y17070   4.621   3.629   8.792 -2.0184  0.9296  0.3252
  153SAPE  C31517071   4.640   3.415   8.812 -0.5813 -0.4722  0.2464
  153SAPE  H15X17072   4.598   3.334   8.876 -0.8941 -0.9862 -0.5898
  153SAPE  H15Y17073   4.751   3.410   8.816 -0.4733  0.2314 -1.0583
  153SAPE  C31617074   4.592   3.388   8.666 -0.5053 -0.1084  0.3945
  153SAPE  H16X17075   4.482   3.395   8.662 -1.1017 -5.5611  0.2250
  153SAPE  H16Y17076   4.611   3.283   8.637 -0.9485 -0.8110  2.4799
  153SAPE  C31717077   4.663   3.471   8.562 -0.0672 -0.0601 -0.0042
  153SAPE  H17X17078   4.773   3.474   8.574  0.1700  0.8774 -1.9827
  153SAPE  H17Y17079   4.631   3.577   8.569  0.8355  0.1099  2.9302
  153SAPE  C31817080   4.642   3.416   8.415 -0.2320 -0.4978 -0.2803
  153SAPE  H18X17081   4.533   3.417   8.394 -0.2408  0.4641 -0.2107
  153SAPE  H18Y17082   4.683   3.313   8.409 -0.1094 -0.5004  0.4353
  153SAPE  H18Z17083   4.691   3.479   8.338 -0.6072  0.4437  0.2377
  154SAPE     N17084   4.731   1.389  11.120  0.1551 -0.5731  0.0285
  154SAPE   HN117085   4.670   1.462  11.161 -0.7016 -1.3463  0.1646
  154SAPE   HN217086   4.692   1.378  11.024 -1.9374  2.6020  0.3694
  154SAPE   HN317087   4.716   1.298  11.168 -1.2777 -0.7344 -0.6685
  154SAPE   C1217088   4.879   1.429  11.123  0.3508 -0.0813  0.6667
  154SAPE  H12A17089   4.918   1.426  11.226  1.3977  3.4307  0.4768
  154SAPE  H12B17090   4.888   1.530  11.079  0.6051 -0.0189  0.8645
  154SAPE   C1117091   4.961   1.336  11.038 -0.0444  0.3524 -0.3341
  154SAPE  H11A17092   4.977   1.238  11.089  1.3676  1.5748  1.7187
  154SAPE  H11B17093   5.063   1.380  11.030 -0.1688  1.6145  3.2030
  154SAPE     P17094   4.974   1.384  10.776 -0.1453 -0.2259 -0.3870
  154SAPE   O1317095   4.888   1.492  10.732  0.5603 -0.4764 -0.1723
  154SAPE   O1417096   5.120   1.413  10.791 -0.0320 -0.5501  0.2697
  154SAPE   O1217097   4.904   1.314  10.905  0.0553  0.3599  0.2563
  154SAPE   O1117098   4.947   1.271  10.663  0.0211  0.4364  0.3574
  154SAPE    C117099   4.988   1.134  10.684  0.1390  0.1341  0.0124
  154SAPE    HA17100   5.099   1.128  10.691  0.0567 -2.9980 -0.0272
  154SAPE    HB17101   4.948   1.092  10.779 -0.8578 -3.6900 -1.9079
  154SAPE    C217102   4.950   1.035  10.569  0.0848 -0.4184 -0.7340
  154SAPE    HS17103   4.998   0.936  10.583 -0.2041 -0.2826  1.7042
  154SAPE   O2117104   4.980   1.102  10.445 -0.0569 -0.1401  0.4830
  154SAPE   C2117105   5.107   1.097  10.408  0.1486 -0.0696 -0.1661
  154SAPE   O2217106   5.200   1.031  10.451  0.7983  0.0144  0.0773
  154SAPE   C2217107   5.129   1.198  10.290  0.1350 -0.4107  0.0459
  154SAPE   H2R17108   5.040   1.182  10.226  0.2004 -0.8718  0.0670
  154SAPE   H2S17109   5.145   1.303  10.321  0.0198 -0.5321  0.5154
  154SAPE    C317110   4.788   1.017  10.583 -0.4228 -0.6347 -0.4137
  154SAPE    HX17111   4.755   1.123  10.577 -0.2087 -0.5575 -0.2328
  154SAPE    HY17112   4.757   0.976  10.682  2.9254 -0.8814  0.6431
  154SAPE   O3117113   4.731   0.940  10.475 -0.1312  0.2705 -0.5575
  154SAPE   C3117114   4.685   1.012  10.370 -0.0175 -0.4381  0.4427
  154SAPE   O3217115   4.695   1.131  10.362 -0.0090 -0.6326 -0.0572
  154SAPE   C3217116   4.610   0.918  10.270  0.1988 -0.4575 -0.6834
  154SAPE   H2X17117   4.514   0.902  10.323  1.7671 -0.1072  2.5392
  154SAPE   H2Y17118   4.664   0.821  10.272  0.9837 -0.2971  5.1003
  154SAPE   C2317119   5.259   1.171  10.206  0.5564 -0.0064  0.4147
  154SAPE   H3R17120   5.261   1.067  10.167  4.4033 -0.2179  0.7499
  154SAPE   H3S17121   5.348   1.176  10.272  1.0659 -1.2967 -0.1395
  154SAPE   C2417122   5.272   1.273  10.087 -0.1267  0.6704  0.0241
  154SAPE   H4R17123   5.378   1.270  10.053  0.1074  1.7257  0.6130
  154SAPE   H4S17124   5.252   1.377  10.121  2.9805  0.8910  1.5282
  154SAPE   C2517125   5.165   1.256   9.981  0.5618 -0.4231 -0.0323
  154SAPE   H5R17126   5.065   1.234  10.022  0.9318  1.5398  2.1499
  154SAPE   C2617127   5.187   1.275   9.850 -0.2122  0.5057  0.0724
  154SAPE   H6R17128   5.103   1.238   9.790  1.3116 -2.5714 -0.4053
  154SAPE   C2717129   5.320   1.302   9.780 -0.2217  0.6341  0.6511
  154SAPE   H7R17130   5.405   1.326   9.848  1.2717 -0.0910 -0.8724
  154SAPE   H7S17131   5.323   1.395   9.720  1.9060 -0.2520 -0.7244
  154SAPE   C2817132   5.384   1.190   9.699  0.6671 -0.8215 -0.1721
  154SAPE   H8R17133   5.399   1.097   9.757 -1.4369  0.7405  3.2102
  154SAPE   C2917134   5.432   1.205   9.574 -0.0160 -0.1281  0.3980
  154SAPE   H9R17135   5.475   1.125   9.513  1.1382  0.6715  0.1302
  154SAPE  C21017136   5.416   1.327   9.488  0.3028  0.0429 -0.2525
  154SAPE  H10R17137   5.308   1.348   9.497  0.4553  1.2634 -1.0975
  154SAPE  H10S17138   5.449   1.289   9.389  2.1591 -2.1389  1.1085
  154SAPE  C21117139   5.494   1.452   9.526 -0.2068  0.0187  0.1493
  154SAPE  H11R17140   5.554   1.443   9.618  1.1863  0.6679 -0.6763
  154SAPE  C21217141   5.492   1.569   9.462  0.3322  0.4250  0.2810
  154SAPE  H12R17142   5.554   1.656   9.487 -0.2073  1.5795 -2.0356
  154SAPE  C21317143   5.404   1.595   9.338 -0.2962  0.1795  0.2641
  154SAPE  H13R17144   5.344   1.687   9.356 -1.1824 -0.1747 -0.7463
  154SAPE  H13S17145   5.340   1.505   9.322  0.3906 -0.2102 -0.3782
  154SAPE  C21417146   5.488   1.621   9.212 -0.3748 -0.1069 -0.3678
  154SAPE  H14R17147   5.583   1.570   9.190 -1.0092 -0.5098 -2.3753
  154SAPE  C21517148   5.440   1.694   9.106  0.1966  0.5189 -0.0454
  154SAPE  H15R17149   5.515   1.711   9.028  0.6162 -2.4600 -0.3980
  154SAPE  C21617150   5.304   1.760   9.088  0.7811  0.2387 -1.0428
  154SAPE  H16R17151   5.316   1.866   9.055 -0.6596  2.1630  3.7310
  154SAPE  H16S17152   5.250   1.769   9.184  1.4649  2.1185 -0.7786
  154SAPE  C21717153   5.217   1.685   8.994  0.3817 -0.1106 -1.1506
  154SAPE  H17R17154   5.203   1.582   9.034  3.5969 -0.0972  0.3501
  154SAPE  H17S17155   5.266   1.695   8.895 -0.2403  1.1192 -1.3564
  154SAPE  C21817156   5.080   1.756   8.965 -0.1160  0.0262 -0.1567
  154SAPE  H18R17157   5.037   1.715   8.871 -1.1623 -2.1985  1.2247
  154SAPE  H18S17158   5.096   1.866   8.954  2.8406 -0.3784 -0.6462
  154SAPE  C21917159   4.970   1.735   9.078 -0.1431 -0.1495  0.1167
  154SAPE  H19R17160   5.009   1.791   9.165  0.1788  2.2884 -1.4692
  154SAPE  H19S17161   4.948   1.631   9.109 -4.3143  0.0821 -1.3844
  154SAPE  C22017162   4.843   1.806   9.042  0.0516  0.6776 -0.1678
  154SAPE  H20R17163   4.863   1.914   9.028 -2.0135  1.0080 -0.9185
  154SAPE  H20S17164   4.766   1.801   9.122 -0.0716 -1.8876 -0.3600
  154SAPE  H20T17165   4.798   1.762   8.951  1.7140 -4.2849  1.0616
  154SAPE   C3317166   4.567   0.965  10.120 -0.1239  0.4587  0.6449
  154SAPE   H3X17167   4.663   0.950  10.065 -1.6704  1.7686 -2.7453
  154SAPE   H3Y17168   4.543   1.073  10.133  1.9224  0.8691  1.4132
  154SAPE   C3417169   4.451   0.878  10.069  0.3193 -0.4922  0.7534
  154SAPE   H4X17170   4.356   0.924  10.104  0.6430  0.5052  0.3602
  154SAPE   H4Y17171   4.464   0.769  10.088 -0.9118 -0.7255  0.3425
  154SAPE   C3517172   4.448   0.890   9.917 -0.6165 -0.5715 -0.3808
  154SAPE   H5X17173   4.464   0.998   9.893 -2.1656  0.2194  1.7828
  154SAPE   H5Y17174   4.355   0.848   9.873  0.3972 -2.9227 -0.3851
  154SAPE   C3617175   4.561   0.811   9.841 -0.2733 -0.3110  0.4180
  154SAPE   H6X17176   4.555   0.703   9.865  1.8300 -0.8319 -1.1537
  154SAPE   H6Y17177   4.659   0.856   9.869 -1.2461  2.4005 -0.1839
  154SAPE   C3717178   4.552   0.837   9.686  0.1804  0.1049  0.2899
  154SAPE   H7X17179   4.556   0.944   9.656 -0.1993  0.2038  0.5942
  154SAPE   H7Y17180   4.451   0.803   9.655  0.1365  0.1685  0.3651
  154SAPE   C3817181   4.678   0.765   9.617  0.8426  0.7545 -0.1897
  154SAPE   H8X17182   4.720   0.692   9.690 -0.1559  0.2195 -0.1368
  154SAPE   H8Y17183   4.765   0.832   9.598  0.1571  1.5740 -0.5074
  154SAPE   C3917184   4.638   0.680   9.495 -1.0399  0.3051 -0.3958
  154SAPE   H9X17185   4.537   0.637   9.510 -1.7924  2.0536 -0.1070
  154SAPE   H9Y17186   4.717   0.602   9.488 -0.6075  0.5963  0.8695
  154SAPE  C31017187   4.640   0.753   9.357 -0.1192 -0.0103 -0.2609
  154SAPE  H10X17188   4.727   0.822   9.348 -0.5182  0.4621 -0.5420
  154SAPE  H10Y17189   4.546   0.811   9.346 -1.1041 -1.7013 -1.1009
  154SAPE  C31117190   4.657   0.648   9.245 -0.4611  0.5069 -0.8472
  154SAPE  H11X17191   4.563   0.591   9.227 -0.2455  0.8327 -3.3979
  154SAPE  H11Y17192   4.740   0.578   9.267 -0.6196 -0.6444 -3.4710
  154SAPE  C31217193   4.702   0.708   9.111  0.5982  0.1944  0.3506
  154SAPE  H12X17194   4.796   0.765   9.126  0.6964  0.3114 -0.6417
  154SAPE  H12Y17195   4.642   0.797   9.083 -0.7366 -0.9481 -0.5948
  154SAPE  C31317196   4.702   0.608   8.986  0.3890 -0.1598  0.4190
  154SAPE  H13X17197   4.696   0.662   8.889  1.7636 -2.2517 -0.9004
  154SAPE  H13Y17198   4.608   0.549   8.990  0.8811 -1.0230 -0.3944
  154SAPE  C31417199   4.819   0.512   8.974  0.1288  0.1779  0.1082
  154SAPE  H14X17200   4.817   0.441   9.059 -0.8178 -0.8131 -0.7105
  154SAPE  H14Y17201   4.912   0.572   8.975  0.0851  0.4307 -2.6082
  154SAPE  C31517202   4.813   0.431   8.842  1.0450 -0.6452 -0.6797
  154SAPE  H15X17203   4.776   0.485   8.753  0.3450 -2.0316 -1.2711
  154SAPE  H15Y17204   4.736   0.356   8.872  0.7921  0.4558  1.6829
  154SAPE  C31617205   4.942   0.355   8.806  0.0765 -0.3159  0.1134
  154SAPE  H16X17206   5.019   0.426   8.842 -0.1550  1.3888 -2.4852
  154SAPE  H16Y17207   4.948   0.365   8.695 -0.0825  0.8921  0.1988
  154SAPE  C31717208   4.960   0.207   8.858  0.3326 -0.2652  0.6385
  154SAPE  H17X17209   4.866   0.159   8.822  0.6765  0.7185 -1.7909
  154SAPE  H17Y17210   4.969   0.207   8.968  1.2457 -1.3288  0.5735
  154SAPE  C31817211   5.075   0.134   8.795  0.0481  0.2737 -0.2556
  154SAPE  H18X17212   5.159   0.206   8.804 -0.4427  0.7526  0.6790
  154SAPE  H18Y17213   5.051   0.098   8.693 -0.6748  1.7262 -0.6174
  154SAPE  H18Z17214   5.087   0.037   8.849 -3.6134 -0.8943 -1.2967
  155SAPE     N17215   6.457   3.701  10.592  0.1000 -0.7691  0.1895
  155SAPE   HN117216   6.385   3.657  10.654  1.5113  0.2976  2.7611
  155SAPE   HN217217   6.416   3.757  10.514  0.5406  0.1998  0.6267
  155SAPE   HN317218   6.521   3.635  10.545 -0.3958  0.5228 -2.4783
  155SAPE   C1217219   6.544   3.803  10.664 -0.3589  0.9596  0.4394
  155SAPE  H12A17220   6.492   3.897  10.693 -0.0368  1.4789 -0.6040
  155SAPE  H12B17221   6.632   3.826  10.600 -0.5743  1.4211  0.3069
  155SAPE   C1117222   6.617   3.742  10.792 -0.0417 -0.0288  0.5563
  155SAPE  H11A17223   6.537   3.739  10.869 -0.3158  0.4939  0.2951
  155SAPE  H11B17224   6.704   3.804  10.821  2.2214 -2.5389 -0.3914
  155SAPE     P17225   6.729   3.518  10.875  0.2101 -0.7855 -0.0403
  155SAPE   O1317226   6.868   3.547  10.912  0.3279 -0.1674 -0.9270
  155SAPE   O1417227   6.623   3.520  10.974 -0.6768  0.3319 -0.6104
  155SAPE   O1217228   6.675   3.621  10.764 -0.1017  0.0156  0.9639
  155SAPE   O1117229   6.722   3.385  10.793  0.1751  0.5061  0.1802
  155SAPE    C117230   6.683   3.353  10.660 -0.2543  0.0299  0.4187
  155SAPE    HA17231   6.665   3.244  10.649 -0.2744 -0.0906  1.5359
  155SAPE    HB17232   6.584   3.395  10.633  0.1932 -0.0777 -1.5257
  155SAPE    C217233   6.791   3.395  10.555  0.6518 -0.1053 -0.8372
  155SAPE    HS17234   6.815   3.502  10.576 -1.0885  0.2792 -0.6414
  155SAPE   O2117235   6.741   3.377  10.423  0.0065  0.3515  0.3812
  155SAPE   C2117236   6.660   3.466  10.381 -0.4259 -0.1862 -0.1352
  155SAPE   O2217237   6.629   3.571  10.442 -0.0737  0.5662 -0.1252
  155SAPE   C2217238   6.604   3.428  10.249 -1.1042  0.3627  0.5211
  155SAPE   H2R17239   6.548   3.337  10.280  2.4061 -2.2843 -0.1882
  155SAPE   H2S17240   6.532   3.504  10.212 -0.4165  2.0099  2.3989
  155SAPE    C317241   6.919   3.304  10.579 -0.8595  0.4696  0.1303
  155SAPE    HX17242   6.898   3.199  10.610 -1.2352  0.6030  0.3343
  155SAPE    HY17243   6.965   3.347  10.671 -1.4474  0.8634  0.2502
  155SAPE   O3117244   7.010   3.308  10.472 -0.4959  0.2130 -1.0661
  155SAPE   C3117245   7.029   3.202  10.399  0.3196  0.0049  0.7178
  155SAPE   O3217246   6.968   3.096  10.399  0.3749 -0.0188 -0.3316
  155SAPE   C3217247   7.134   3.238  10.296  0.3925  0.2857  0.7777
  155SAPE   H2X17248   7.194   3.145  10.285 -0.7317 -0.4076  0.3972
  155SAPE   H2Y17249   7.199   3.319  10.336  1.4061 -0.7588  1.3484
  155SAPE   C2317250   6.709   3.399  10.141 -0.0463  0.2998  0.5433
  155SAPE   H3R17251   6.810   3.385  10.185 -0.2350  0.0741  0.9081
  155SAPE   H3S17252   6.715   3.478  10.063 -0.3211  0.2642  0.4861
  155SAPE   C2417253   6.690   3.270  10.057  0.5653 -0.3988  0.0019
  155SAPE   H4R17254   6.725   3.178  10.110 -1.8992 -1.3614  0.0949
  155SAPE   H4S17255   6.763   3.273   9.973 -0.4238  1.3999 -0.8426
  155SAPE   C2517256   6.544   3.244  10.016 -0.8042  0.2800  0.9551
  155SAPE   H5R17257   6.474   3.223  10.098  0.3550 -1.3940  1.5616
  155SAPE   C2617258   6.495   3.246   9.891  0.7362 -0.4204 -0.0599
  155SAPE   H6R17259   6.393   3.210   9.871 -0.4427  0.4888  3.5331
  155SAPE   C2717260   6.574   3.290   9.774  0.6072 -0.0466 -0.3872
  155SAPE   H7R17261   6.642   3.373   9.802 -0.9154  0.8745  0.7070
  155SAPE   H7S17262   6.495   3.340   9.713 -0.6236  1.0141  1.9183
  155SAPE   C2817263   6.645   3.179   9.702  0.1689  0.4090  0.8200
  155SAPE   H8R17264   6.689   3.097   9.761 -1.8868 -0.4352  1.2778
  155SAPE   C2917265   6.655   3.160   9.566 -0.2253 -0.8742 -0.4838
  155SAPE   H9R17266   6.697   3.062   9.540  0.9678 -0.5718  0.1861
  155SAPE  C21017267   6.596   3.253   9.462  0.1830 -0.1246 -0.4680
  155SAPE  H10R17268   6.658   3.251   9.370 -2.0196  1.0692 -2.0731
  155SAPE  H10S17269   6.598   3.357   9.499  1.4013 -0.0647 -0.6709
  155SAPE  C21117270   6.456   3.207   9.430  0.2118 -0.0807 -0.6666
  155SAPE  H11R17271   6.400   3.150   9.505 -0.0337 -1.8931 -2.1632
  155SAPE  C21217272   6.396   3.222   9.310 -0.8859  0.0505 -0.3499
  155SAPE  H12R17273   6.296   3.180   9.291  0.0449 -2.7230  0.4155
  155SAPE  C21317274   6.465   3.280   9.192 -0.1974  0.5110  0.2475
  155SAPE  H13R17275   6.568   3.238   9.184 -1.5390 -2.9864 -0.6751
  155SAPE  H13S17276   6.484   3.388   9.207 -0.0144  0.3783  0.9994
  155SAPE  C21417277   6.393   3.242   9.061 -0.3762 -0.1147 -0.1595
  155SAPE  H14R17278   6.376   3.133   9.054 -0.8257 -0.3179  2.8295
  155SAPE  C21517279   6.360   3.330   8.961  0.3759 -0.4034 -0.6797
  155SAPE  H15R17280   6.294   3.298   8.879 -0.6760  1.6031 -0.6770
  155SAPE  C21617281   6.375   3.480   8.975  0.0232 -0.2843 -0.1436
  155SAPE  H16R17282   6.419   3.500   9.075  1.5251 -0.7158 -0.6880
  155SAPE  H16S17283   6.278   3.533   8.968 -1.2568 -2.6020 -0.8798
  155SAPE  C21717284   6.473   3.535   8.863  0.9468 -0.3919 -0.3654
  155SAPE  H17R17285   6.574   3.489   8.862  1.5128  0.7513  0.9740
  155SAPE  H17S17286   6.496   3.643   8.875  0.5689 -0.4135  0.6642
  155SAPE  C21817287   6.417   3.513   8.724 -0.3171  0.2252  0.7685
  155SAPE  H18R17288   6.402   3.403   8.723  0.9352  0.0378  0.9468
  155SAPE  H18S17289   6.494   3.542   8.649 -1.1190  0.9755  0.2159
  155SAPE  C21917290   6.287   3.589   8.707 -0.9732  0.8191  1.2330
  155SAPE  H19R17291   6.309   3.690   8.747 -0.0049  0.2904  2.0866
  155SAPE  H19S17292   6.213   3.536   8.771 -1.1045 -0.2726  0.2215
  155SAPE  C22017293   6.243   3.595   8.556  0.7512 -0.2858 -0.2650
  155SAPE  H20R17294   6.142   3.641   8.562  1.6482  1.6666  0.7796
  155SAPE  H20S17295   6.243   3.492   8.514  0.9325 -0.6366  0.5800
  155SAPE  H20T17296   6.309   3.659   8.495 -0.7490  0.1484 -1.5138
  155SAPE   C3317297   7.070   3.257  10.161  0.2069  0.2557  0.5969
  155SAPE   H3X17298   7.038   3.363  10.152  1.4697  0.8019  2.0214
  155SAPE   H3Y17299   6.979   3.199  10.136 -0.0908  1.6605 -1.9958
  155SAPE   C3417300   7.165   3.235  10.042  0.1311  0.3134 -0.8834
  155SAPE   H4X17301   7.191   3.127  10.040  1.1981  0.5509 -0.3820
  155SAPE   H4Y17302   7.253   3.294  10.077  0.4447 -0.1554 -0.8731
  155SAPE   C3517303   7.113   3.267   9.906  0.3858 -0.1471  0.0613
  155SAPE   H5X17304   7.104   3.377   9.897 -1.5569 -0.4002 -1.9007
  155SAPE   H5Y17305   7.020   3.213   9.880 -0.0505 -0.5817  2.3393
  155SAPE   C3617306   7.224   3.229   9.800 -0.2637  0.2051  0.5972
  155SAPE   H6X17307   7.265   3.126   9.801  1.5511  0.8365  3.3293
  155SAPE   H6Y17308   7.305   3.297   9.836  1.4890 -1.6749  0.3849
  155SAPE   C3717309   7.177   3.264   9.657 -0.3342 -0.0744 -0.4157
  155SAPE   H7X17310   7.271   3.260   9.598  0.8270 -0.5554  1.3775
  155SAPE   H7Y17311   7.140   3.368   9.663  1.4099  0.5832 -0.4023
  155SAPE   C3817312   7.082   3.162   9.601 -0.1562  0.6605  0.4279
  155SAPE   H8X17313   6.988   3.150   9.659 -1.3018 -1.4051 -1.6708
  155SAPE   H8Y17314   7.136   3.064   9.598  1.7844  1.6971 -1.1635
  155SAPE   C3917315   7.046   3.191   9.455  0.4253  0.1294  0.1613
  155SAPE   H9X17316   7.012   3.295   9.434  0.9399  0.0003 -1.4054
  155SAPE   H9Y17317   6.964   3.118   9.439  0.3914  0.1584  0.2024
  155SAPE  C31017318   7.151   3.160   9.341 -0.5094 -0.1481 -0.0701
  155SAPE  H10X17319   7.238   3.219   9.379 -1.7309  0.9068  1.2295
  155SAPE  H10Y17320   7.109   3.191   9.243  0.1238 -2.0840 -0.9936
  155SAPE  C31117321   7.192   3.015   9.324  0.7469 -0.0501 -0.2527
  155SAPE  H11X17322   7.224   2.962   9.417 -1.7365 -1.8091 -0.3006
  155SAPE  H11Y17323   7.286   3.013   9.264  0.2992 -0.3599 -0.9530
  155SAPE  C31217324   7.071   2.936   9.262 -1.0423  0.2338  0.3109
  155SAPE  H12X17325   7.054   2.973   9.158 -1.4841  1.1888  0.7097
  155SAPE  H12Y17326   6.981   2.953   9.325 -2.2303 -0.4422 -1.1241
  155SAPE  C31317327   7.104   2.790   9.251  0.2031 -0.2817  0.7115
  155SAPE  H13X17328   7.130   2.746   9.350  0.8995  0.9503  1.1045
  155SAPE  H13Y17329   7.200   2.786   9.195  0.7475 -0.8310  1.6625
  155SAPE  C31417330   6.990   2.718   9.175  0.5168 -0.2600 -0.5912
  155SAPE  H14X17331   6.946   2.788   9.100 -1.2875  0.5327  1.1240
  155SAPE  H14Y17332   6.913   2.701   9.253  1.7868  2.8123  1.5259
  155SAPE  C31517333   7.047   2.595   9.110 -1.3320 -0.2085  0.1015
  155SAPE  H15X17334   7.102   2.535   9.186 -0.6525 -0.9054 -0.9203
  155SAPE  H15Y17335   7.126   2.629   9.040 -1.9562  4.8614  1.5116
  155SAPE  C31617336   6.948   2.504   9.036  1.2249 -0.0227  0.4316
  155SAPE  H16X17337   6.876   2.571   8.984 -0.6982 -0.3340  2.5068
  155SAPE  H16Y17338   6.881   2.450   9.107  1.0120 -0.9573 -0.4561
  155SAPE  C31717339   7.005   2.397   8.938 -0.4663  0.0704 -0.0249
  155SAPE  H17X17340   7.071   2.446   8.863  1.2840 -0.6657  0.9734
  155SAPE  H17Y17341   6.918   2.363   8.878 -2.1333  1.5014  1.4699
  155SAPE  C31817342   7.074   2.273   9.003 -0.0186 -0.3908  0.7425
  155SAPE  H18X17343   7.178   2.288   9.038  1.1741 -0.7468 -2.3231
  155SAPE  H18Y17344   7.083   2.201   8.919 -0.9593  0.9446 -0.5427
  155SAPE  H18Z17345   7.005   2.246   9.086  0.4386  0.6077  1.4759
  156SAPE     N17346   3.923   1.161  10.805  0.1720 -0.6380 -0.0730
  156SAPE   HN117347   3.925   1.070  10.856 -1.3826 -0.2127  0.8206
  156SAPE   HN217348   4.016   1.191  10.769 -1.1385  1.6812 -1.7348
  156SAPE   HN317349   3.890   1.240  10.865  0.7044  0.5467 -1.2809
  156SAPE   C1217350   3.829   1.158  10.690  0.3682 -0.4624  0.6605
  156SAPE  H12A17351   3.726   1.135  10.725 -0.4665  1.6692 -0.1967
  156SAPE  H12B17352   3.858   1.078  10.619  1.1263 -0.8710  1.4153
  156SAPE   C1117353   3.813   1.295  10.630  0.1098  0.4170  0.6342
  156SAPE  H11A17354   3.757   1.288  10.535 -1.9296  0.2699  1.7891
  156SAPE  H11B17355   3.915   1.337  10.613  1.0815 -0.3350  3.7916
  156SAPE     P17356   3.698   1.521  10.702 -0.2869  0.4330  0.3517
  156SAPE   O1317357   3.555   1.537  10.726 -0.2962  0.1561 -0.1528
  156SAPE   O1417358   3.792   1.614  10.765  0.1559 -0.7908 -0.7624
  156SAPE   O1217359   3.750   1.375  10.725  0.6538 -0.2165  0.7583
  156SAPE   O1117360   3.709   1.539  10.545  0.1307 -0.1577 -0.0841
  156SAPE    C117361   3.606   1.584  10.460  0.7201  0.4031  0.1682
  156SAPE    HA17362   3.573   1.684  10.495  1.6030  0.9120 -0.4392
  156SAPE    HB17363   3.642   1.595  10.356  0.9544 -0.5828  0.1358
  156SAPE    C217364   3.488   1.481  10.444 -1.3714  0.3950 -0.0008
  156SAPE    HS17365   3.446   1.458  10.544 -2.3069 -0.6615 -0.6225
  156SAPE   O2117366   3.536   1.368  10.367 -0.2349 -0.3247  0.4390
  156SAPE   C2117367   3.505   1.246  10.412 -0.1597 -0.3895  0.7656
  156SAPE   O2217368   3.419   1.225  10.496 -0.2340  0.1859  0.1954
  156SAPE   C2217369   3.599   1.146  10.347 -0.0098 -0.2453  1.1927
  156SAPE   H2R17370   3.557   1.124  10.246  1.8084 -2.1678  0.7919
  156SAPE   H2S17371   3.692   1.199  10.317  0.0513 -0.7198  0.5124
  156SAPE    C317372   3.379   1.548  10.370 -0.1954  0.2799  0.1166
  156SAPE    HX17373   3.420   1.589  10.275  0.9757  0.6381  0.7527
  156SAPE    HY17374   3.348   1.632  10.435  3.2009  0.7997  1.2775
  156SAPE   O3117375   3.270   1.459  10.328 -0.2456  0.4955 -0.5447
  156SAPE   C3117376   3.172   1.442  10.411  0.3260  1.0321  0.0889
  156SAPE   O3217377   3.153   1.502  10.517 -1.1334  0.0058 -0.2802
  156SAPE   C3217378   3.086   1.327  10.366  0.0213 -0.2272  0.6507
  156SAPE   H2X17379   3.085   1.245  10.441  0.5898 -2.6935 -1.8594
  156SAPE   H2Y17380   3.138   1.289  10.275 -0.9831  1.4269 -0.6813
  156SAPE   C2317381   3.629   1.018  10.428  0.2087  0.5035 -0.4175
  156SAPE   H3R17382   3.536   0.968  10.460 -0.8546  3.2435  1.0655
  156SAPE   H3S17383   3.676   1.062  10.519 -1.4871  1.3584  0.0839
  156SAPE   C2417384   3.725   0.917  10.363 -0.1574  0.3243 -0.3876
  156SAPE   H4R17385   3.753   0.830  10.426  0.1995  1.7152  1.4423
  156SAPE   H4S17386   3.828   0.960  10.356  0.8896 -1.5809  1.8915
  156SAPE   C2517387   3.663   0.865  10.235  0.1960  0.0890  0.5906
  156SAPE   H5R17388   3.585   0.791  10.260  0.1591 -0.2891 -0.5850
  156SAPE   C2617389   3.695   0.893  10.105 -0.3711 -0.6526 -0.4204
  156SAPE   H6R17390   3.642   0.839  10.026  1.1504 -1.6808 -0.7932
  156SAPE   C2717391   3.805   0.982  10.058 -0.1640 -0.2309  0.1551
  156SAPE   H7R17392   3.781   1.083  10.097  0.3107 -1.0439  2.7426
  156SAPE   H7S17393   3.783   1.012   9.953  0.9136  2.5200  0.6303
  156SAPE   C2817394   3.952   0.946  10.068 -0.5508  0.6412 -0.2276
  156SAPE   H8R17395   4.000   0.967  10.165  1.6456  0.9983 -1.3267
  156SAPE   C2917396   4.024   0.904   9.964  0.3152  0.8417  0.0134
  156SAPE   H9R17397   4.129   0.882   9.986 -0.4515 -0.0591  3.4228
  156SAPE  C21017398   3.981   0.872   9.829  0.9198 -0.2192  0.1712
  156SAPE  H10R17399   4.004   0.966   9.774 -2.0228 -0.9509 -2.5955
  156SAPE  H10S17400   3.870   0.871   9.825  0.8218  2.0046  0.8002
  156SAPE  C21117401   4.057   0.760   9.757  0.2873 -0.4237 -0.0880
  156SAPE  H11R17402   4.117   0.704   9.829 -2.6913 -2.4238  1.0276
  156SAPE  C21217403   4.042   0.728   9.629 -0.7672  0.9047 -0.0655
  156SAPE  H12R17404   4.104   0.648   9.586 -0.9159  0.6642  0.1657
  156SAPE  C21317405   3.944   0.779   9.529  0.1266  0.0874 -0.0631
  156SAPE  H13R17406   3.942   0.888   9.551  2.7029 -0.0862  1.4546
  156SAPE  H13S17407   3.843   0.738   9.544  0.3433 -1.5084 -2.4530
  156SAPE  C21417408   3.970   0.759   9.382 -0.5476  0.0585 -0.4708
  156SAPE  H14R17409   4.078   0.752   9.362 -0.2872 -1.1050  1.2009
  156SAPE  C21517410   3.878   0.762   9.284  0.3401 -0.4092  0.1363
  156SAPE  H15R17411   3.910   0.740   9.181 -0.0521 -1.0439  0.1451
  156SAPE  C21617412   3.722   0.781   9.285 -0.1458  0.3109 -0.7164
  156SAPE  H16R17413   3.679   0.777   9.387  1.7464 -0.0968  0.1141
  156SAPE  H16S17414   3.664   0.697   9.241 -2.5403  0.8103  1.2792
  156SAPE  C21717415   3.677   0.895   9.191  0.4649 -0.7677 -0.0618
  156SAPE  H17R17416   3.705   0.992   9.236 -1.6457 -1.1671  2.3831
  156SAPE  H17S17417   3.567   0.902   9.206  0.5688 -0.1491  0.4308
  156SAPE  C21817418   3.707   0.872   9.039  0.6309 -0.5455  0.5069
  156SAPE  H18R17419   3.661   0.775   9.012  0.5366 -0.6928  1.1914
  156SAPE  H18S17420   3.818   0.867   9.025  0.4833  1.6821 -2.5337
  156SAPE  C21917421   3.638   0.995   8.964 -0.3545  0.5307 -0.6297
  156SAPE  H19R17422   3.666   1.083   9.025 -0.6262 -1.2145  2.1625
  156SAPE  H19S17423   3.528   0.985   8.977 -0.1895 -1.4060 -0.3443
  156SAPE  C22017424   3.685   1.011   8.814 -0.0419  0.7091 -0.6751
  156SAPE  H20R17425   3.795   0.994   8.814 -0.0838  0.4312 -1.4466
  156SAPE  H20S17426   3.654   1.108   8.770 -2.2962  0.2273 -0.2674
  156SAPE  H20T17427   3.658   0.917   8.762  0.1982 -0.1887  0.7621
  156SAPE   C3317428   2.947   1.375  10.326 -0.3647  0.1131  0.3629
  156SAPE   H3X17429   2.895   1.413  10.417  0.7152 -0.3633  1.1964
  156SAPE   H3Y17430   2.898   1.278  10.302 -1.6582  0.2645  2.1587
  156SAPE   C3417431   2.945   1.473  10.208 -0.0347  0.6474  0.6316
  156SAPE   H4X17432   2.957   1.579  10.242 -1.3448  1.6731 -1.8422
  156SAPE   H4Y17433   2.845   1.458  10.162 -0.2252 -0.2725  1.3204
  156SAPE   C3517434   3.038   1.438  10.096 -0.5096 -0.0853  0.1458
  156SAPE   H5X17435   3.004   1.338  10.060 -0.5033  0.3796 -1.1745
  156SAPE   H5Y17436   3.145   1.423  10.123  0.6710  0.9731 -3.4698
  156SAPE   C3617437   3.045   1.548   9.986  0.1897 -0.1225  0.4437
  156SAPE   H6X17438   3.071   1.649  10.023 -0.0968  0.5475 -1.1087
  156SAPE   H6Y17439   2.948   1.558   9.933 -0.5096 -0.8328  1.5443
  156SAPE   C3717440   3.159   1.510   9.886 -0.4863 -0.0589  0.5785
  156SAPE   H7X17441   3.138   1.405   9.857 -0.3549  0.2002 -0.4906
  156SAPE   H7Y17442   3.261   1.516   9.930  0.1590  0.5466 -0.9302
  156SAPE   C3817443   3.159   1.600   9.764 -0.8202  0.1817  0.6094
  156SAPE   H8X17444   3.208   1.699   9.771  3.6733 -1.7449 -0.3579
  156SAPE   H8Y17445   3.054   1.612   9.729 -1.2542 -1.8641  1.0845
  156SAPE   C3917446   3.244   1.532   9.656  0.6293 -0.3132  0.0036
  156SAPE   H9X17447   3.178   1.447   9.629  0.1775 -0.5084  1.6113
  156SAPE   H9Y17448   3.337   1.500   9.707 -0.3398 -3.2896  0.0827
  156SAPE  C31017449   3.270   1.618   9.526 -0.1403 -0.8002  0.4496
  156SAPE  H10X17450   3.344   1.567   9.462 -0.2956  1.1383 -1.3769
  156SAPE  H10Y17451   3.315   1.715   9.556  0.4664 -0.2914 -1.9137
  156SAPE  C31117452   3.145   1.666   9.450  1.2220 -0.1330 -0.0393
  156SAPE  H11X17453   3.091   1.745   9.506 -1.6203 -2.3588  0.5897
  156SAPE  H11Y17454   3.081   1.576   9.436 -0.1144  0.3607  2.3941
  156SAPE  C31217455   3.173   1.713   9.305 -0.3340 -0.1850 -0.2271
  156SAPE  H12X17456   3.231   1.630   9.259 -0.8312  0.0831 -1.3806
  156SAPE  H12Y17457   3.231   1.807   9.304  0.4096 -0.5893 -2.7199
  156SAPE  C31317458   3.045   1.731   9.220  0.0142 -0.1984  0.0873
  156SAPE  H13X17459   2.977   1.797   9.279  0.3147  0.7992 -0.6358
  156SAPE  H13Y17460   2.996   1.635   9.195 -0.2140 -0.0549 -0.0207
  156SAPE  C31417461   3.080   1.807   9.088 -0.2080 -0.3638  0.1680
  156SAPE  H14X17462   3.122   1.907   9.110 -0.3373 -0.4929  1.0098
  156SAPE  H14Y17463   2.989   1.826   9.027 -0.4667  0.8178  0.8995
  156SAPE  C31517464   3.183   1.734   9.000  0.2549 -0.2274  0.1103
  156SAPE  H15X17465   3.277   1.732   9.059  0.2933 -3.4142  0.1181
  156SAPE  H15Y17466   3.210   1.801   8.916  1.1591 -0.3279  0.3149
  156SAPE  C31617467   3.147   1.597   8.954 -0.3228  0.5547  0.4359
  156SAPE  H16X17468   3.046   1.606   8.907 -1.5854 -0.7775  2.7386
  156SAPE  H16Y17469   3.138   1.527   9.040  0.8602  0.6735  0.6694
  156SAPE  C31717470   3.254   1.548   8.845 -0.4599 -0.5123  0.2746
  156SAPE  H17X17471   3.355   1.554   8.891 -0.2991 -0.5608 -0.0737
  156SAPE  H17Y17472   3.265   1.620   8.762 -0.7628  0.3547  0.9617
  156SAPE  C31817473   3.241   1.400   8.799  0.2703 -0.1487  0.1292
  156SAPE  H18X17474   3.320   1.370   8.727 -1.4360 -2.2570 -1.0038
  156SAPE  H18Y17475   3.155   1.378   8.732 -0.7933  0.2707  1.3235
  156SAPE  H18Z17476   3.245   1.321   8.878 -0.9321 -2.7725 -2.2507
  157SAPE     N17477   4.027   1.781  10.769 -0.4257  0.1115 -0.2098
  157SAPE   HN117478   4.023   1.824  10.863  0.4775  0.4381 -0.3080
  157SAPE   HN217479   3.939   1.734  10.740 -0.3958  1.0815 -2.0096
  157SAPE   HN317480   4.110   1.720  10.781 -1.3836 -1.0078  0.9978
  157SAPE   C1217481   4.058   1.894  10.671 -0.2808  0.1752  0.2935
  157SAPE  H12A17482   3.989   1.978  10.691  1.2098  0.8556  3.2175
  157SAPE  H12B17483   4.062   1.858  10.566 -0.4298  0.5634  0.1550
  157SAPE   C1117484   4.202   1.941  10.709  0.4742 -0.6102  0.3775
  157SAPE  H11A17485   4.207   1.987  10.810  1.0781 -0.3729  0.2382
  157SAPE  H11B17486   4.235   2.016  10.633  0.3837 -2.1933 -1.2984
  157SAPE     P17487   4.442   1.847  10.748 -0.4260 -0.2501  0.4515
  157SAPE   O1317488   4.460   1.950  10.856 -0.3244  0.6843  0.2472
  157SAPE   O1417489   4.497   1.715  10.765 -0.1448  0.4030  0.4580
  157SAPE   O1217490   4.291   1.831  10.719 -1.1109  0.2051  0.1557
  157SAPE   O1117491   4.493   1.921  10.618 -0.0761  0.3738 -0.0861
  157SAPE    C117492   4.495   1.858  10.495  0.0599 -0.0413  0.8354
  157SAPE    HA17493   4.582   1.788  10.497  0.5669  0.4621 -1.2602
  157SAPE    HB17494   4.400   1.806  10.470 -0.2233  1.0943 -0.5626
  157SAPE    C217495   4.510   1.969  10.388  0.9337  0.0908 -0.1416
  157SAPE    HS17496   4.414   2.024  10.378  1.6499  1.3436 -0.3175
  157SAPE   O2117497   4.559   1.918  10.262 -0.3773  0.4937 -0.4307
  157SAPE   C2117498   4.478   1.834  10.202 -0.4636  0.0153  0.0889
  157SAPE   O2217499   4.369   1.804  10.239 -0.0610 -0.2875  0.1847
  157SAPE   C2217500   4.541   1.785  10.077  0.4611  0.0557  0.2066
  157SAPE   H2R17501   4.642   1.743  10.093  0.1410 -1.0636 -0.6171
  157SAPE   H2S17502   4.483   1.700  10.034  1.9411 -1.4829  1.1433
  157SAPE    C317503   4.611   2.081  10.434 -0.2070  0.4760 -0.9554
  157SAPE    HX17504   4.711   2.039  10.457 -0.1747  0.4847 -1.0769
  157SAPE    HY17505   4.575   2.115  10.533  0.3575 -1.7971  0.0965
  157SAPE   O3117506   4.632   2.190  10.339  0.1602 -0.7577  0.0901
  157SAPE   C3117507   4.545   2.283  10.347  0.0463  0.3649 -0.1525
  157SAPE   O3217508   4.435   2.279  10.406 -1.1608  0.3791  0.7188
  157SAPE   C3217509   4.588   2.397  10.258  0.1347  0.3685  0.3923
  157SAPE   H2X17510   4.698   2.408  10.269  0.5514 -2.1786 -0.5361
  157SAPE   H2Y17511   4.548   2.498  10.280 -0.2086  0.9577 -2.6164
  157SAPE   C2317512   4.559   1.895   9.969  0.5592 -0.4521 -0.0265
  157SAPE   H3R17513   4.616   1.986   9.996 -1.2829  1.0509 -0.9894
  157SAPE   H3S17514   4.455   1.916   9.937  0.8754 -2.5291 -2.8114
  157SAPE   C2417515   4.630   1.836   9.849 -0.9966  0.6478  0.4684
  157SAPE   H4R17516   4.735   1.818   9.881 -1.6140 -1.7892  1.4146
  157SAPE   H4S17517   4.640   1.913   9.770 -1.5970  2.0930  1.7721
  157SAPE   C2517518   4.587   1.701   9.794 -0.3675  0.9405  0.4290
  157SAPE   H5R17519   4.628   1.607   9.835  0.1432 -1.0249 -3.9963
  157SAPE   C2617520   4.501   1.678   9.690  0.2096 -0.1561 -0.1825
  157SAPE   H6R17521   4.491   1.576   9.649 -0.6134 -0.4128  0.6173
  157SAPE   C2717522   4.424   1.786   9.614  0.9999 -0.0400  0.1695
  157SAPE   H7R17523   4.372   1.850   9.688  2.7375  0.3499  1.1080
  157SAPE   H7S17524   4.343   1.730   9.563  2.0640 -1.0076 -0.5167
  157SAPE   C2817525   4.495   1.879   9.518 -0.0201  0.5022 -0.0913
  157SAPE   H8R17526   4.515   1.980   9.555 -0.7944 -0.7178  4.2671
  157SAPE   C2917527   4.538   1.845   9.397  0.2425  0.3228  0.4508
  157SAPE   H9R17528   4.606   1.923   9.361 -0.1027  0.4703  0.1068
  157SAPE  C21017529   4.535   1.709   9.327  0.3641 -0.4527  0.0859
  157SAPE  H10R17530   4.494   1.626   9.389  0.6068  1.6088  3.2429
  157SAPE  H10S17531   4.637   1.668   9.314  0.0200 -0.9797 -1.0685
  157SAPE  C21117532   4.469   1.709   9.192 -0.5573 -0.1680 -0.1300
  157SAPE  H11R17533   4.415   1.800   9.161  0.8615  0.2305 -1.5807
  157SAPE  C21217534   4.467   1.600   9.107  0.3644 -0.2566  0.2909
  157SAPE  H12R17535   4.451   1.629   9.003 -2.5677 -0.9401  0.4580
  157SAPE  C21317536   4.520   1.462   9.121  1.2110 -0.3557  0.3993
  157SAPE  H13R17537   4.442   1.384   9.117  0.4479  0.4381 -0.7295
  157SAPE  H13S17538   4.557   1.458   9.226  0.4145  0.1844  0.7110
  157SAPE  C21417539   4.630   1.432   9.024  0.4379  0.1940 -0.8056
  157SAPE  H14R17540   4.709   1.508   9.027  0.7319 -0.0822  2.9315
  157SAPE  C21517541   4.650   1.324   8.954 -1.1865  0.8086  0.3779
  157SAPE  H15R17542   4.744   1.315   8.897 -0.2224 -0.0791  2.0233
  157SAPE  C21617543   4.582   1.192   8.949  0.4192  0.0920 -0.6012
  157SAPE  H16R17544   4.473   1.209   8.967  0.7001 -0.9957  2.7390
  157SAPE  H16S17545   4.619   1.130   9.033 -1.9332  1.3134  1.5100
  157SAPE  C21717546   4.620   1.121   8.815  0.7990 -0.6307  0.1813
  157SAPE  H17R17547   4.730   1.117   8.809  0.7357 -1.1397 -0.8806
  157SAPE  H17S17548   4.582   1.176   8.726  0.2946  0.4747  1.0435
  157SAPE  C21817549   4.550   0.982   8.806 -0.0796  0.2364 -0.1452
  157SAPE  H18R17550   4.448   1.001   8.847 -0.6808 -2.0985 -0.4524
  157SAPE  H18S17551   4.597   0.924   8.888  0.1616 -0.1814 -0.5755
  157SAPE  C21917552   4.547   0.907   8.672 -0.1049  0.1403 -0.1656
  157SAPE  H19R17553   4.509   0.807   8.704 -0.1363  0.6379  1.4653
  157SAPE  H19S17554   4.655   0.887   8.656 -0.3927 -1.4492 -0.2654
  157SAPE  C22017555   4.471   0.958   8.553 -0.3081 -0.4883 -0.7570
  157SAPE  H20R17556   4.367   0.922   8.568  0.1515 -1.8779 -0.8304
  157SAPE  H20S17557   4.517   0.920   8.459 -1.0197  0.2308 -1.4113
  157SAPE  H20T17558   4.465   1.069   8.545 -0.4075 -0.4863 -0.6459
  157SAPE   C3317559   4.569   2.382  10.100 -0.1064 -0.4414  0.5237
  157SAPE   H3X17560   4.554   2.487  10.067 -1.1585 -1.1448 -1.3788
  157SAPE   H3Y17561   4.474   2.329  10.077 -0.1105 -0.4633  0.5898
  157SAPE   C3417562   4.680   2.309  10.025 -0.1358 -0.5866  0.0850
  157SAPE   H4X17563   4.698   2.206  10.062  1.7974 -0.1740  0.4263
  157SAPE   H4Y17564   4.779   2.360  10.027  0.3076 -1.4014 -0.4021
  157SAPE   C3517565   4.648   2.291   9.878  0.1105  0.1946 -0.6399
  157SAPE   H5X17566   4.631   2.392   9.834 -0.5904 -0.2047 -1.3078
  157SAPE   H5Y17567   4.550   2.243   9.859  0.2323 -0.9335  1.3054
  157SAPE   C3617568   4.765   2.225   9.815 -0.3512  0.0731 -0.0390
  157SAPE   H6X17569   4.788   2.126   9.861 -1.2995  0.7052  1.9227
  157SAPE   H6Y17570   4.856   2.285   9.836 -0.3304  0.3751 -0.9605
  157SAPE   C3717571   4.754   2.200   9.664 -0.1507 -1.1784 -0.3904
  157SAPE   H7X17572   4.758   2.303   9.624 -1.5415 -1.3308 -0.9627
  157SAPE   H7Y17573   4.648   2.169   9.657 -0.4850 -0.6069  1.6002
  157SAPE   C3817574   4.863   2.097   9.620  0.1065  0.5147  0.4157
  157SAPE   H8X17575   4.834   1.997   9.661  1.6019 -0.8184 -1.5989
  157SAPE   H8Y17576   4.955   2.139   9.666 -1.2236  1.4170  2.3773
  157SAPE   C3917577   4.874   2.069   9.473  0.3218  0.0390 -0.1275
  157SAPE   H9X17578   4.769   2.053   9.440  0.5384  2.4256 -2.3190
  157SAPE   H9Y17579   4.943   1.984   9.462  0.3536 -0.6368  3.8123
  157SAPE  C31017580   4.924   2.181   9.390  0.5779 -0.0297  0.4965
  157SAPE  H10X17581   5.017   2.218   9.439  0.6831  1.9267 -1.0509
  157SAPE  H10Y17582   4.846   2.258   9.410 -0.3162 -1.0377  0.9817
  157SAPE  C31117583   4.963   2.159   9.249  0.4260  0.1197 -0.4764
  157SAPE  H11X17584   4.871   2.131   9.193 -1.3207  1.9639  1.2658
  157SAPE  H11Y17585   5.044   2.083   9.251  1.7602  1.5059 -0.2104
  157SAPE  C31217586   5.017   2.279   9.170  0.4850  1.1673 -0.4475
  157SAPE  H12X17587   5.121   2.298   9.205 -0.1508  1.6547  1.2608
  157SAPE  H12Y17588   4.957   2.372   9.173 -1.8878 -0.2368 -1.0089
  157SAPE  C31317589   5.021   2.240   9.028 -0.2430  0.2457  0.7817
  157SAPE  H13X17590   4.920   2.237   8.982 -0.2385 -1.9897  0.8062
  157SAPE  H13Y17591   5.066   2.139   9.020  2.0743  1.2253  0.6538
  157SAPE  C31417592   5.113   2.332   8.943  0.0905  0.0811 -0.0244
  157SAPE  H14X17593   5.210   2.354   8.993  0.1068 -0.8372  0.3665
  157SAPE  H14Y17594   5.056   2.428   8.941 -1.0357 -0.5776 -0.6548
  157SAPE  C31517595   5.156   2.296   8.798  0.0931 -0.6599 -0.1084
  157SAPE  H15X17596   5.068   2.279   8.733 -0.0422  1.6995 -0.6069
  157SAPE  H15Y17597   5.229   2.212   8.797  0.3211 -0.5450  1.8862
  157SAPE  C31617598   5.222   2.412   8.721  0.7814  0.4071 -0.0361
  157SAPE  H16X17599   5.288   2.469   8.790 -0.7887  2.3219 -0.0265
  157SAPE  H16Y17600   5.137   2.474   8.685 -0.2448 -1.9549 -1.9515
  157SAPE  C31717601   5.301   2.361   8.592  0.1611 -0.0759  0.0064
  157SAPE  H17X17602   5.241   2.289   8.531  0.5926 -1.0433  0.6894
  157SAPE  H17Y17603   5.384   2.293   8.623 -0.1650 -0.1690  0.6977
  157SAPE  C31817604   5.347   2.478   8.500 -0.6605  0.2198 -0.0417
  157SAPE  H18X17605   5.405   2.445   8.412 -0.1007 -0.9193  0.7303
  157SAPE  H18Y17606   5.409   2.552   8.554 -2.2721  1.5698  0.0539
  157SAPE  H18Z17607   5.256   2.523   8.454 -0.9849 -0.3392  0.0461
  158SAPE     N17608   6.526   2.894  10.753  0.8656  0.3303 -0.2202
  158SAPE   HN117609   6.510   2.992  10.785  1.1016 -0.0859  1.2584
  158SAPE   HN217610   6.565   2.886  10.657  1.5749 -1.2271  0.1685
  158SAPE   HN317611   6.430   2.858  10.734  0.2166  1.3997  0.8276
  158SAPE   C1217612   6.599   2.819  10.855  0.6623 -1.2417 -0.5432
  158SAPE  H12A17613   6.560   2.848  10.955 -0.8945  1.2233 -1.8003
  158SAPE  H12B17614   6.703   2.857  10.870  0.7749 -1.4634 -0.7432
  158SAPE   C1117615   6.584   2.667  10.839 -0.4712 -0.6957  0.0492
  158SAPE  H11A17616   6.662   2.621  10.904  0.1525 -1.9639 -1.5368
  158SAPE  H11B17617   6.605   2.634  10.735  0.4825 -0.2538  0.0888
  158SAPE     P17618   6.348   2.580  10.763 -0.3324  0.2646 -0.5755
  158SAPE   O1317619   6.235   2.506  10.820 -0.3030  0.1402 -0.6919
  158SAPE   O1417620   6.322   2.708  10.699  0.5610  0.0766 -0.7156
  158SAPE   O1217621   6.458   2.615  10.880 -0.7781  0.0314 -0.4095
  158SAPE   O1117622   6.420   2.474  10.663  0.1367 -0.3204 -0.3450
  158SAPE    C117623   6.480   2.352  10.709  0.4747  0.1793  0.6719
  158SAPE    HA17624   6.591   2.357  10.697  0.6354  0.3013  2.0392
  158SAPE    HB17625   6.461   2.327  10.816  2.7949 -2.1387  0.6397
  158SAPE    C217626   6.412   2.232  10.635  0.4139  0.7321 -1.3438
  158SAPE    HS17627   6.489   2.157  10.608 -1.5732 -1.4122 -1.3982
  158SAPE   O2117628   6.348   2.273  10.519  0.2658 -0.3894  0.2671
  158SAPE   C2117629   6.419   2.281  10.409 -0.0977  0.9434  0.3846
  158SAPE   O2217630   6.539   2.246  10.402 -0.3412  0.4274  0.5423
  158SAPE   C2217631   6.326   2.332  10.297 -0.5736 -0.9952  0.5311
  158SAPE   H2R17632   6.232   2.370  10.341 -0.0832  0.4702  0.3640
  158SAPE   H2S17633   6.367   2.428  10.258 -1.4662 -1.6042 -2.0388
  158SAPE    C317634   6.306   2.165  10.729 -0.6851 -0.1860 -0.1471
  158SAPE    HX17635   6.236   2.247  10.757 -0.0396  0.2144  0.3203
  158SAPE    HY17636   6.356   2.113  10.814  0.0388 -2.2279 -1.7224
  158SAPE   O3117637   6.224   2.069  10.662  0.4905  0.7085 -0.2457
  158SAPE   C3117638   6.261   1.940  10.642  0.7248 -0.4929 -0.4411
  158SAPE   O3217639   6.359   1.890  10.700  0.0827  0.0704  0.6496
  158SAPE   C3217640   6.156   1.881  10.542  0.4627  0.2798  0.2178
  158SAPE   H2X17641   6.132   1.947  10.456  0.1994  0.1286  0.1752
  158SAPE   H2Y17642   6.059   1.876  10.596 -1.5943 -0.2219 -3.2202
  158SAPE   C2317643   6.310   2.217  10.190  0.5371 -0.5955  0.1493
  158SAPE   H3R17644   6.248   2.138  10.238 -0.0997 -0.2054 -0.0150
  158SAPE   H3S17645   6.411   2.176  10.168  0.1506 -1.9616  0.7836
  158SAPE   C2417646   6.244   2.286  10.062  0.9747  0.0216  0.4806
  158SAPE   H4R17647   6.326   2.351  10.027  0.1737  0.8151  0.0197
  158SAPE   H4S17648   6.164   2.356  10.097  0.4737 -0.6091  0.6130
  158SAPE   C2517649   6.190   2.181   9.971  0.4574  0.4151 -0.3464
  158SAPE   H5R17650   6.101   2.124  10.001 -0.4600  0.8108 -2.1847
  158SAPE   C2617651   6.239   2.147   9.854  0.2571  1.2246 -0.4676
  158SAPE   H6R17652   6.194   2.064   9.798  0.5076 -0.4727  1.7341
  158SAPE   C2717653   6.357   2.196   9.774 -0.1089  0.2894 -0.4557
  158SAPE   H7R17654   6.415   2.265   9.839 -0.8122  0.1783  0.3029
  158SAPE   H7S17655   6.325   2.263   9.691 -2.8053  0.0443  0.2827
  158SAPE   C2817656   6.440   2.080   9.717  0.1095 -0.5071 -0.0029
  158SAPE   H8R17657   6.460   1.996   9.785  1.9299 -0.4190 -0.3681
  158SAPE   C2917658   6.496   2.085   9.595 -0.1637 -0.1329 -0.2458
  158SAPE   H9R17659   6.554   1.997   9.566  1.0616  0.8394 -0.8197
  158SAPE  C21017660   6.495   2.189   9.491  0.4705  0.2046 -0.1725
  158SAPE  H10R17661   6.605   2.206   9.478  0.5206  0.0279  0.0257
  158SAPE  H10S17662   6.456   2.287   9.527  1.0180  0.0813  0.7852
  158SAPE  C21117663   6.428   2.155   9.357  1.0296  0.7066 -0.3327
  158SAPE  H11R17664   6.326   2.116   9.361  1.2073 -0.1672 -2.7423
  158SAPE  C21217665   6.479   2.165   9.228 -0.6710 -0.6498 -0.3151
  158SAPE  H12R17666   6.411   2.167   9.141 -0.4658 -1.4849 -0.4963
  158SAPE  C21317667   6.621   2.218   9.189  0.6637  0.1205 -0.2826
  158SAPE  H13R17668   6.701   2.143   9.207 -0.6909 -0.9213  1.7850
  158SAPE  H13S17669   6.649   2.295   9.264 -0.7291 -0.1186  0.5112
  158SAPE  C21417670   6.632   2.259   9.046  0.4537 -0.3775  0.2147
  158SAPE  H14R17671   6.705   2.208   8.980  1.7877  1.2264  0.3715
  158SAPE  C21517672   6.579   2.378   9.001 -0.5745  0.4529  0.2208
  158SAPE  H15R17673   6.612   2.413   8.902 -0.7090 -0.5220 -0.1709
  158SAPE  C21617674   6.506   2.476   9.087  0.4103 -0.3506  0.8572
  158SAPE  H16R17675   6.565   2.567   9.111 -1.1662  1.0133 -0.1612
  158SAPE  H16S17676   6.491   2.437   9.190  1.5230 -0.7952  0.8682
  158SAPE  C21717677   6.368   2.504   9.031 -0.7280  0.6544 -0.4880
  158SAPE  H17R17678   6.375   2.545   8.928 -2.4782 -0.4799 -1.1148
  158SAPE  H17S17679   6.303   2.578   9.081 -0.4484  0.5582  0.0188
  158SAPE  C21817680   6.287   2.381   9.014 -0.2251 -0.0487 -0.6174
  158SAPE  H18R17681   6.260   2.349   9.117  2.1950 -1.6487 -0.3831
  158SAPE  H18S17682   6.349   2.304   8.962  1.2665 -0.2776  1.3563
  158SAPE  C21917683   6.160   2.407   8.929  0.8636 -0.3242 -0.5825
  158SAPE  H19R17684   6.104   2.489   8.979  2.1249 -0.3677  0.9881
  158SAPE  H19S17685   6.105   2.312   8.948  0.0746 -0.4053 -2.9206
  158SAPE  C22017686   6.178   2.425   8.779  0.0659  0.1006  0.8081
  158SAPE  H20R17687   6.076   2.432   8.736  1.1957  2.5168 -1.7816
  158SAPE  H20S17688   6.223   2.335   8.731  0.7533  0.8547  0.0078
  158SAPE  H20T17689   6.240   2.515   8.758  0.5797 -0.2685  0.7072
  158SAPE   C3317690   6.190   1.746  10.477  0.5842 -0.1448 -0.3049
  158SAPE   H3X17691   6.096   1.691  10.455 -0.8948  2.0459  0.2876
  158SAPE   H3Y17692   6.254   1.685  10.545  1.0085 -1.6002 -1.9356
  158SAPE   C3417693   6.269   1.764  10.344 -0.1277 -0.0947 -0.9714
  158SAPE   H4X17694   6.206   1.815  10.267 -2.6471 -0.4041  0.7649
  158SAPE   H4Y17695   6.287   1.664  10.300  1.1127 -0.5100  0.3871
  158SAPE   C3517696   6.403   1.837  10.360 -0.5860 -0.3018 -1.1978
  158SAPE   H5X17697   6.464   1.800  10.445  0.2674  0.8967 -1.2707
  158SAPE   H5Y17698   6.383   1.944  10.380 -0.4363  0.4111 -4.2982
  158SAPE   C3617699   6.486   1.827  10.239 -0.1308 -0.2694 -0.0231
  158SAPE   H6X17700   6.417   1.842  10.153  0.4616  0.3718 -0.3844
  158SAPE   H6Y17701   6.537   1.731  10.215  0.4765  0.8150 -3.6708
  158SAPE   C3717702   6.594   1.937  10.234  0.2082 -0.1589  0.7103
  158SAPE   H7X17703   6.683   1.908  10.294 -0.1817  0.0228  1.3852
  158SAPE   H7Y17704   6.555   2.026  10.288 -0.7190  0.9012 -1.5840
  158SAPE   C3817705   6.636   1.987  10.095 -0.8600  0.5382  0.4325
  158SAPE   H8X17706   6.709   2.070  10.094  2.4853 -2.1954 -1.0873
  158SAPE   H8Y17707   6.548   2.031  10.045 -0.4962  1.2408  0.4051
  158SAPE   C3917708   6.680   1.871  10.004 -0.0062  0.4865  0.8202
  158SAPE   H9X17709   6.585   1.821   9.975  0.7699 -0.8146  0.4548
  158SAPE   H9Y17710   6.741   1.792  10.052  2.3701 -0.4156 -3.2336
  158SAPE  C31017711   6.751   1.923   9.879 -0.2209  0.7702 -0.0614
  158SAPE  H10X17712   6.860   1.931   9.902 -0.4954 -0.1381  1.7350
  158SAPE  H10Y17713   6.715   2.022   9.843 -1.5475 -0.8041 -3.4976
  158SAPE  C31117714   6.748   1.823   9.765  0.5087  0.3894  0.3676
  158SAPE  H11X17715   6.647   1.797   9.729  0.4654  2.0648 -0.8383
  158SAPE  H11Y17716   6.814   1.738   9.793  0.7932  0.8300  1.0830
  158SAPE  C31217717   6.816   1.889   9.643 -0.0963  0.0531 -0.1592
  158SAPE  H12X17718   6.918   1.927   9.661  0.0874 -0.6641  0.3550
  158SAPE  H12Y17719   6.756   1.977   9.612  0.2473  0.0763 -0.7672
  158SAPE  C31317720   6.816   1.789   9.526 -0.0413  0.0341 -0.6183
  158SAPE  H13X17721   6.712   1.753   9.513 -0.2990  0.4634  0.1663
  158SAPE  H13Y17722   6.872   1.710   9.580 -2.2484 -0.5954  0.8815
  158SAPE  C31417723   6.875   1.839   9.399 -0.4845 -0.2760  0.7258
  158SAPE  H14X17724   6.975   1.889   9.404 -0.6379  0.8855 -3.6056
  158SAPE  H14Y17725   6.812   1.918   9.352  1.1784 -0.5098 -2.2006
  158SAPE  C31517726   6.892   1.717   9.303  0.2287 -0.0621 -0.0155
  158SAPE  H15X17727   6.802   1.652   9.308 -1.2470  1.9527  3.0659
  158SAPE  H15Y17728   6.978   1.656   9.339  0.7233  0.3530 -0.4801
  158SAPE  C31617729   6.899   1.757   9.152  0.4540  0.0110 -0.0493
  158SAPE  H16X17730   6.806   1.816   9.135  0.6474  1.1563  2.4322
  158SAPE  H16Y17731   6.879   1.672   9.084 -0.0897  0.3851 -0.3659
  158SAPE  C31717732   7.028   1.830   9.110  0.7929  0.7075 -0.2505
  158SAPE  H17X17733   7.116   1.774   9.148  0.2985 -1.0381 -1.5246
  158SAPE  H17Y17734   7.025   1.924   9.169 -0.1885  0.9359 -0.6414
  158SAPE  C31817735   7.046   1.864   8.961  0.8898 -0.2225  0.2221
  158SAPE  H18X17736   6.961   1.918   8.914  1.2017  1.2691  1.2955
  158SAPE  H18Y17737   7.067   1.778   8.894 -1.6771 -0.8501  0.1400
  158SAPE  H18Z17738   7.134   1.932   8.959  0.5106  0.3139  1.0338
  159SAPE     N17739   3.714   2.065   6.729 -0.8003  0.0641  0.2530
  159SAPE   HN117740   3.630   2.064   6.668 -0.5705 -2.3042 -0.1249
  159SAPE   HN217741   3.798   2.054   6.668  0.4540 -2.0663  2.2337
  159SAPE   HN317742   3.709   1.974   6.780 -2.0383 -1.2784 -2.0840
  159SAPE   C1217743   3.741   2.194   6.797  0.2597 -0.0486  0.1188
  159SAPE  H12A17744   3.757   2.182   6.906 -0.7180 -0.6798  0.2021
  159SAPE  H12B17745   3.647   2.254   6.793  2.0178  2.8527 -1.4624
  159SAPE   C1117746   3.862   2.262   6.733 -0.0645  0.3967 -0.2894
  159SAPE  H11A17747   3.946   2.190   6.734 -0.5911 -0.2243 -0.2471
  159SAPE  H11B17748   3.895   2.349   6.794 -0.9742  0.0932  0.6514
  159SAPE     P17749   3.871   2.434   6.525 -0.5691  0.0158 -0.1390
  159SAPE   O1317750   4.020   2.432   6.510  0.1728 -0.0120 -0.4016
  159SAPE   O1417751   3.784   2.450   6.405  0.4496 -0.2636 -0.4650
  159SAPE   O1217752   3.829   2.304   6.604 -0.9318 -0.2458 -0.1052
  159SAPE   O1117753   3.833   2.539   6.635 -0.2165 -0.0857  0.0835
  159SAPE    C117754   3.694   2.553   6.661  0.2443  0.1591  0.5978
  159SAPE    HA17755   3.634   2.468   6.624 -0.3761  0.4193  0.9915
  159SAPE    HB17756   3.680   2.563   6.771  0.6478  0.8277  0.5935
  159SAPE    C217757   3.650   2.685   6.597  0.1292  0.2628 -0.3868
  159SAPE    HS17758   3.686   2.670   6.493  3.9154  1.6124  0.5486
  159SAPE   O2117759   3.714   2.796   6.655  0.4702  0.1663 -0.5509
  159SAPE   C2117760   3.719   2.895   6.576  0.4646 -0.4053 -0.0199
  159SAPE   O2217761   3.694   2.894   6.453  0.2154  0.3512 -0.2197
  159SAPE   C2217762   3.783   3.008   6.654  0.6798 -0.1940 -0.5142
  159SAPE   H2R17763   3.767   2.999   6.764  0.5860 -1.3085 -0.6043
  159SAPE   H2S17764   3.892   2.998   6.636  0.3868 -1.7316 -1.6194
  159SAPE    C317765   3.496   2.704   6.599 -0.5028  0.4023 -0.1994
  159SAPE    HX17766   3.445   2.617   6.552 -3.0638  1.1257  1.0081
  159SAPE    HY17767   3.461   2.789   6.536 -0.2114  0.7023  0.0434
  159SAPE   O3117768   3.446   2.716   6.731  0.2944 -0.1183  0.2074
  159SAPE   C3117769   3.438   2.841   6.786  0.3934  0.4354 -0.1952
  159SAPE   O3217770   3.461   2.941   6.730  0.6553 -0.2465 -0.0601
  159SAPE   C3217771   3.393   2.823   6.931  0.9665 -0.2898 -0.2868
  159SAPE   H2X17772   3.325   2.735   6.935 -3.5185  2.8554  2.2541
  159SAPE   H2Y17773   3.348   2.916   6.970  1.9581  0.5671 -1.1290
  159SAPE   C2317774   3.740   3.149   6.602  0.0466  0.0639 -1.0225
  159SAPE   H3R17775   3.637   3.176   6.633  0.4672  2.4046 -1.4855
  159SAPE   H3S17776   3.729   3.145   6.492 -0.3576 -2.9753 -0.9527
  159SAPE   C2417777   3.836   3.263   6.646  0.4733  0.3183  0.5512
  159SAPE   H4R17778   3.917   3.256   6.571 -1.0501  1.8555 -1.3544
  159SAPE   H4S17779   3.882   3.244   6.745  0.0320 -0.7834  0.5621
  159SAPE   C2517780   3.777   3.399   6.630 -0.0736 -0.0623 -0.3806
  159SAPE   H5R17781   3.745   3.441   6.533  3.1383 -0.4574 -1.7590
  159SAPE   C2617782   3.763   3.500   6.725 -0.7282  0.3524  0.7513
  159SAPE   H6R17783   3.713   3.585   6.676 -1.9075 -0.2012  0.9852
  159SAPE   C2717784   3.808   3.501   6.869  0.5347 -0.5915 -0.1175
  159SAPE   H7R17785   3.873   3.591   6.877 -0.2330  0.1191 -1.4474
  159SAPE   H7S17786   3.868   3.410   6.892  0.5244 -0.1442  1.8265
  159SAPE   C2817787   3.694   3.526   6.962 -0.8647 -0.3008  0.0506
  159SAPE   H8R17788   3.610   3.580   6.915  0.5840  0.4804 -1.7595
  159SAPE   C2917789   3.671   3.462   7.076 -0.6071 -0.2804  0.0921
  159SAPE   H9R17790   3.594   3.505   7.142 -0.4152 -0.7070  0.6018
  159SAPE  C21017791   3.744   3.355   7.141 -0.6966  0.0927  0.7774
  159SAPE  H10R17792   3.784   3.407   7.231 -0.3330 -1.3997  1.5264
  159SAPE  H10S17793   3.829   3.323   7.077 -0.9896  0.9978 -0.0916
  159SAPE  C21117794   3.679   3.238   7.202 -0.4122 -0.4927  0.0920
  159SAPE  H11R17795   3.597   3.193   7.144 -0.2689  0.7013 -1.0890
  159SAPE  C21217796   3.707   3.182   7.319  1.1149 -0.0894  0.0338
  159SAPE  H12R17797   3.643   3.097   7.347 -0.7652  1.6471  1.2587
  159SAPE  C21317798   3.823   3.218   7.412 -0.1074 -0.0330 -0.1774
  159SAPE  H13R17799   3.916   3.241   7.355  0.1675  1.7265  0.9120
  159SAPE  H13S17800   3.845   3.126   7.469 -1.8817 -0.0852  0.4893
  159SAPE  C21417801   3.787   3.331   7.503  0.1686 -0.2496 -0.6126
  159SAPE  H14R17802   3.772   3.427   7.452  3.1656  1.8122  1.9451
  159SAPE  C21517803   3.763   3.325   7.638  0.0252 -0.1327  0.1136
  159SAPE  H15R17804   3.726   3.411   7.695  0.9681  0.3975 -0.0608
  159SAPE  C21617805   3.769   3.198   7.717  0.0658 -0.2825  0.3815
  159SAPE  H16R17806   3.850   3.209   7.792  2.1234 -0.5375 -1.6952
  159SAPE  H16S17807   3.801   3.109   7.659 -0.8158 -1.2213  1.2772
  159SAPE  C21717808   3.631   3.182   7.787 -1.0722  0.0951 -0.1781
  159SAPE  H17R17809   3.617   3.272   7.850 -1.9302  0.1596 -0.4493
  159SAPE  H17S17810   3.625   3.098   7.860 -2.2287 -0.8211 -1.2854
  159SAPE  C21817811   3.514   3.166   7.690 -0.6600 -0.1973 -0.7456
  159SAPE  H18R17812   3.555   3.086   7.624  2.1055  1.0440 -0.6629
  159SAPE  H18S17813   3.484   3.254   7.630 -1.2565  0.6968  0.7999
  159SAPE  C21917814   3.386   3.128   7.762  0.5304  0.0926  0.0247
  159SAPE  H19R17815   3.404   3.055   7.843 -0.3228  0.0857  0.2119
  159SAPE  H19S17816   3.321   3.083   7.684  0.3933  1.4895 -0.6882
  159SAPE  C22017817   3.309   3.248   7.815 -0.1813  0.0940 -0.0388
  159SAPE  H20R17818   3.355   3.296   7.903  0.1044 -1.7881  0.8838
  159SAPE  H20S17819   3.217   3.201   7.858 -0.3833 -0.7629 -1.3246
  159SAPE  H20T17820   3.294   3.316   7.728  1.9051  1.1896  0.4033
  159SAPE   C3317821   3.503   2.772   7.024 -0.7599 -1.1297  0.6392
  159SAPE   H3X17822   3.578   2.854   7.023  0.0984 -1.9040 -0.4035
  159SAPE   H3Y17823   3.559   2.684   6.986  0.4770  0.8292 -2.4251
  159SAPE   C3417824   3.458   2.745   7.170 -0.2362 -0.0433  0.4024
  159SAPE   H4X17825   3.504   2.647   7.197 -1.4040 -0.1974  1.9705
  159SAPE   H4Y17826   3.348   2.741   7.180 -0.6164 -0.2700 -2.9091
  159SAPE   C3517827   3.510   2.853   7.266  0.3832  0.3803 -0.0053
  159SAPE   H5X17828   3.447   2.944   7.257  1.2910  1.2724  1.9951
  159SAPE   H5Y17829   3.606   2.892   7.228  0.0618  0.6243 -0.5789
  159SAPE   C3617830   3.523   2.807   7.414  0.5254  0.3152 -0.1114
  159SAPE   H6X17831   3.561   2.898   7.465  1.6079  0.0259 -0.3787
  159SAPE   H6Y17832   3.615   2.744   7.413 -0.1186 -0.6731 -1.5699
  159SAPE   C3717833   3.398   2.755   7.483 -0.0705  0.0563 -0.1213
  159SAPE   H7X17834   3.368   2.663   7.428  0.1123  0.6565 -1.2596
  159SAPE   H7Y17835   3.318   2.830   7.462 -3.5790 -3.0481  1.0104
  159SAPE   C3817836   3.398   2.738   7.635  0.0260  0.2297 -0.3186
  159SAPE   H8X17837   3.297   2.694   7.651  0.3957 -0.2429  0.8805
  159SAPE   H8Y17838   3.406   2.833   7.691 -3.2075  0.1919  0.4141
  159SAPE   C3917839   3.503   2.650   7.699  0.6747  0.6135  0.2870
  159SAPE   H9X17840   3.607   2.688   7.683  1.0378 -0.2297  0.6400
  159SAPE   H9Y17841   3.503   2.550   7.650 -0.2211 -0.3233  2.1351
  159SAPE  C31017842   3.488   2.617   7.854 -0.2027  0.2235  0.4510
  159SAPE  H10X17843   3.581   2.564   7.880  0.9255  1.0114 -1.6694
  159SAPE  H10Y17844   3.411   2.538   7.860  1.5294 -1.6741 -1.0851
  159SAPE  C31117845   3.465   2.729   7.961  0.0074  0.1789  0.0638
  159SAPE  H11X17846   3.450   2.673   8.055 -0.1584  1.5143  0.8672
  159SAPE  H11Y17847   3.367   2.782   7.955 -0.6119 -0.9521 -0.1839
  159SAPE  C31217848   3.584   2.828   7.982  0.2249 -0.6174  0.5403
  159SAPE  H12X17849   3.561   2.915   7.917  0.6947 -0.9259 -0.0502
  159SAPE  H12Y17850   3.674   2.790   7.929  0.0724  0.3093 -0.4051
  159SAPE  C31317851   3.602   2.881   8.123  0.0342  0.6783 -0.3011
  159SAPE  H13X17852   3.696   2.939   8.118  1.0025 -0.8899 -1.1379
  159SAPE  H13Y17853   3.612   2.801   8.200 -1.6873  0.9488  0.2466
  159SAPE  C31417854   3.481   2.960   8.151  0.0487  0.0544 -0.3571
  159SAPE  H14X17855   3.390   2.900   8.169  0.2485  0.0445  0.7412
  159SAPE  H14Y17856   3.459   3.018   8.059  2.0796 -0.6808 -1.3628
  159SAPE  C31517857   3.496   3.053   8.268  0.0580 -0.2626 -0.1846
  159SAPE  H15X17858   3.407   3.116   8.288 -0.3749 -0.7710 -0.4797
  159SAPE  H15Y17859   3.585   3.120   8.262 -0.6850  0.8167  0.4541
  159SAPE  C31617860   3.503   2.955   8.390  0.0218 -0.9737 -0.2506
  159SAPE  H16X17861   3.598   2.898   8.399  1.4990  0.5825 -4.0100
  159SAPE  H16Y17862   3.427   2.874   8.386 -1.1390  0.1107 -1.1913
  159SAPE  C31717863   3.500   3.038   8.531 -0.0930 -0.9682 -0.0339
  159SAPE  H17X17864   3.529   2.962   8.606 -0.0803 -1.0124 -0.0837
  159SAPE  H17Y17865   3.394   3.068   8.545 -0.0652 -0.6786 -0.4325
  159SAPE  C31817866   3.603   3.161   8.535 -0.2974 -0.1542  0.5959
  159SAPE  H18X17867   3.570   3.228   8.617 -0.7113 -1.3220  1.4189
  159SAPE  H18Y17868   3.600   3.215   8.438 -0.1544  0.3866  0.8936
  159SAPE  H18Z17869   3.709   3.134   8.553 -0.3503  0.3952  1.7691
  160SAPE     N17870   2.882   3.516   6.312 -0.5877 -0.2132 -0.3250
  160SAPE   HN117871   2.885   3.614   6.347  0.0743 -0.0988 -0.6823
  160SAPE   HN217872   2.942   3.453   6.369 -1.2257 -0.2368  0.3306
  160SAPE   HN317873   2.936   3.519   6.223  2.1633  0.9296  1.2631
  160SAPE   C1217874   2.743   3.467   6.310 -0.2033  0.0462  1.0288
  160SAPE  H12A17875   2.736   3.398   6.223  1.2597  3.1533 -1.8442
  160SAPE  H12B17876   2.676   3.554   6.291  0.9517  1.2024  2.0540
  160SAPE   C1117877   2.700   3.417   6.444 -0.5720  0.3423 -0.1997
  160SAPE  H11A17878   2.600   3.372   6.423 -0.0416 -1.5846  1.1133
  160SAPE  H11B17879   2.686   3.504   6.512 -0.7691  1.5084 -1.6897
  160SAPE     P17880   2.797   3.169   6.473 -0.1140  0.3181  0.1902
  160SAPE   O1317881   2.736   3.152   6.341 -0.0388 -0.2679  0.3054
  160SAPE   O1417882   2.941   3.132   6.494  0.5219  0.6603  0.4742
  160SAPE   O1217883   2.787   3.319   6.505  0.0600 -0.9633 -0.2418
  160SAPE   O1117884   2.713   3.103   6.589  1.1117  0.1829  0.1458
  160SAPE    C117885   2.611   3.177   6.652 -0.2784  0.0616 -0.4055
  160SAPE    HA17886   2.550   3.241   6.584  0.0731 -0.0731 -0.8517
  160SAPE    HB17887   2.533   3.105   6.685  2.4954 -3.3085 -0.6476
  160SAPE    C217888   2.657   3.253   6.780 -0.6707  0.2043 -0.2250
  160SAPE    HS17889   2.748   3.313   6.758  0.3540 -0.1820  2.4749
  160SAPE   O2117890   2.685   3.154   6.878 -0.4839 -0.2722 -0.3291
  160SAPE   C2117891   2.770   3.185   6.974  0.6632  0.1293 -0.1332
  160SAPE   O2217892   2.809   3.298   7.002 -0.4824 -0.3128 -1.1655
  160SAPE   C2217893   2.810   3.064   7.058  0.5194 -1.1607 -0.1020
  160SAPE   H2R17894   2.829   3.098   7.162 -0.9654  2.4964 -0.9028
  160SAPE   H2S17895   2.731   2.987   7.046  0.2063 -0.5536 -2.2549
  160SAPE    C317896   2.550   3.362   6.828  0.3644  0.2429  0.1243
  160SAPE    HX17897   2.561   3.450   6.760  1.4476  0.7704  0.9614
  160SAPE    HY17898   2.576   3.402   6.928  0.6026 -0.0461  0.1788
  160SAPE   O3117899   2.414   3.310   6.817 -0.0342  0.1827  0.1719
  160SAPE   C3117900   2.367   3.254   6.930  0.3671 -0.7378 -0.2951
  160SAPE   O3217901   2.433   3.244   7.033  0.0278  0.1954  0.5817
  160SAPE   C3217902   2.214   3.230   6.929  0.6971 -0.8408 -0.9439
  160SAPE   H2X17903   2.194   3.127   6.892 -1.8926 -0.4392 -0.7885
  160SAPE   H2Y17904   2.167   3.304   6.861  0.9727 -0.3526 -0.6036
  160SAPE   C2317905   2.933   2.989   6.997 -0.1003 -0.0154  0.5356
  160SAPE   H3R17906   2.948   3.026   6.893  1.4003 -0.5040  0.5544
  160SAPE   H3S17907   2.923   2.880   6.978  0.1855  0.0704 -0.1398
  160SAPE   C2417908   3.064   3.012   7.075  0.4863 -0.3415 -0.1006
  160SAPE   H4R17909   3.065   3.121   7.098 -1.1856 -0.3721  0.2604
  160SAPE   H4S17910   3.144   2.996   7.000 -0.8538  0.4696 -1.7773
  160SAPE   C2517911   3.078   2.914   7.192  0.0219  0.3205  0.6001
  160SAPE   H5R17912   3.117   2.817   7.156 -0.3377  0.3855  0.0084
  160SAPE   C2617913   3.058   2.939   7.321  0.0959 -0.2073 -0.0120
  160SAPE   H6R17914   3.055   2.851   7.386 -2.2221 -0.7177 -0.7228
  160SAPE   C2717915   3.020   3.070   7.388  0.4259  0.4971  0.5201
  160SAPE   H7R17916   3.038   3.149   7.313  1.2570  0.6657  0.8850
  160SAPE   H7S17917   3.094   3.096   7.467 -1.8240  0.7219  2.6907
  160SAPE   C2817918   2.883   3.071   7.459  0.4293 -0.8046  0.2874
  160SAPE   H8R17919   2.817   3.151   7.420 -2.2967 -1.5819  2.9017
  160SAPE   C2917920   2.817   2.984   7.538 -0.1952  0.0685 -0.0253
  160SAPE   H9R17921   2.720   3.009   7.583 -0.5729 -1.2539 -0.0427
  160SAPE  C21017922   2.873   2.853   7.578 -0.1907 -0.0411  0.3371
  160SAPE  H10R17923   2.979   2.868   7.608 -0.6730 -1.7399  3.2405
  160SAPE  H10S17924   2.868   2.795   7.483 -1.0252  1.4449 -0.5660
  160SAPE  C21117925   2.797   2.777   7.687 -0.7117 -0.2991 -0.4837
  160SAPE  H11R17926   2.726   2.698   7.658 -1.2963 -0.8423  2.1109
  160SAPE  C21217927   2.816   2.806   7.823 -0.0934 -0.5313  0.7708
  160SAPE  H12R17928   2.770   2.733   7.891  1.1307 -0.4938  1.6621
  160SAPE  C21317929   2.902   2.915   7.877  0.2815 -0.4138  0.4068
  160SAPE  H13R17930   2.864   2.981   7.958 -1.4865 -0.3738 -0.4121
  160SAPE  H13S17931   2.911   2.992   7.797  0.3689 -1.5578 -0.7031
  160SAPE  C21417932   3.039   2.861   7.913  0.5241  0.5510  0.1793
  160SAPE  H14R17933   3.111   2.842   7.832 -0.3023 -1.3391 -0.1561
  160SAPE  C21517934   3.071   2.811   8.036  0.0267  1.0362  0.0883
  160SAPE  H15R17935   3.172   2.780   8.066 -0.0145 -0.0991 -0.8977
  160SAPE  C21617936   2.971   2.812   8.150  0.3914  0.2340  0.2686
  160SAPE  H16R17937   2.945   2.705   8.164  1.9340 -0.0428  1.2522
  160SAPE  H16S17938   2.879   2.871   8.129 -0.5122 -0.7564  1.2501
  160SAPE  C21717939   3.025   2.867   8.279  0.5144  0.2313 -0.1993
  160SAPE  H17R17940   3.121   2.811   8.288 -0.2737 -1.1571 -0.1939
  160SAPE  H17S17941   2.959   2.828   8.360  0.6533 -1.5124 -0.8729
  160SAPE  C21817942   3.043   3.014   8.293 -0.5095  0.2581 -0.0572
  160SAPE  H18R17943   2.955   3.082   8.282  0.5185  1.6624  0.0605
  160SAPE  H18S17944   3.096   3.045   8.201 -2.1232  0.1879 -1.0562
  160SAPE  C21917945   3.121   3.049   8.429 -0.1369  0.2855  0.4674
  160SAPE  H19R17946   3.223   3.005   8.423 -0.2877  0.0046 -0.1245
  160SAPE  H19S17947   3.066   2.997   8.510 -0.5021 -0.4908 -0.2635
  160SAPE  C22017948   3.125   3.198   8.463  0.2742  0.0514  0.1811
  160SAPE  H20R17949   3.188   3.209   8.554  1.0964 -1.5565 -0.1552
  160SAPE  H20S17950   3.022   3.233   8.484 -0.6128 -2.0589 -0.3100
  160SAPE  H20T17951   3.161   3.254   8.374 -1.9538 -0.9445 -1.4463
  160SAPE   C3317952   2.156   3.236   7.076  0.2026 -0.1587  0.5817
  160SAPE   H3X17953   2.047   3.256   7.076 -0.0281 -1.1833 -1.3710
  160SAPE   H3Y17954   2.203   3.305   7.150  0.9458 -2.2058  2.1258
  160SAPE   C3417955   2.175   3.101   7.146 -0.1331 -0.5552 -0.0662
  160SAPE   H4X17956   2.282   3.078   7.166  0.4284  2.8451  1.5003
  160SAPE   H4Y17957   2.143   3.019   7.078 -1.7873  1.2209 -1.5287
  160SAPE   C3517958   2.084   3.104   7.269 -0.9722 -0.0325  0.0694
  160SAPE   H5X17959   2.095   2.998   7.300  2.7536 -0.1003 -1.0486
  160SAPE   H5Y17960   1.975   3.112   7.250 -0.5695  2.2311 -1.6966
  160SAPE   C3617961   2.135   3.179   7.389  0.0997 -0.2065  0.0907
  160SAPE   H6X17962   2.133   3.288   7.366 -0.5563 -0.0855  0.6767
  160SAPE   H6Y17963   2.242   3.158   7.411  0.3671  0.0769 -0.9116
  160SAPE   C3717964   2.039   3.168   7.504  0.8154  1.3507  0.3260
  160SAPE   H7X17965   2.031   3.061   7.531 -0.5687  1.0878 -1.0204
  160SAPE   H7Y17966   1.935   3.201   7.482  0.2301 -0.3996  0.3442
  160SAPE   C3817967   2.091   3.254   7.620  0.1145  0.2209  0.4924
  160SAPE   H8X17968   2.127   3.354   7.585  1.4118 -0.5405 -0.4314
  160SAPE   H8Y17969   2.179   3.202   7.665  0.0877  0.8693  1.3191
  160SAPE   C3917970   1.991   3.259   7.736  0.4767 -0.6033 -0.2936
  160SAPE   H9X17971   1.963   3.155   7.765  1.6562 -1.1470 -1.0526
  160SAPE   H9Y17972   1.904   3.321   7.704  0.1839  0.4751  2.2656
  160SAPE  C31017973   2.042   3.322   7.864 -0.2311  0.0653  0.1503
  160SAPE  H10X17974   2.081   3.425   7.847  1.8987 -0.4939  1.3137
  160SAPE  H10Y17975   2.130   3.266   7.902 -0.6982 -0.8753 -0.1388
  160SAPE  C31117976   1.930   3.324   7.973 -0.7760 -0.0513 -0.4169
  160SAPE  H11X17977   1.910   3.226   8.021 -2.3670  0.4353 -0.0290
  160SAPE  H11Y17978   1.835   3.359   7.927 -0.5425  1.4955  0.2445
  160SAPE  C31217979   1.965   3.415   8.089  0.2572 -0.4089 -0.1576
  160SAPE  H12X17980   1.875   3.425   8.152  2.0269 -1.0618  2.6555
  160SAPE  H12Y17981   1.984   3.514   8.042 -2.9903  1.5021  2.1916
  160SAPE  C31317982   2.082   3.360   8.175  0.2608  0.0073  0.0778
  160SAPE  H13X17983   2.170   3.378   8.110  0.6115  0.2167  0.6080
  160SAPE  H13Y17984   2.068   3.250   8.168  2.4316 -0.2352 -1.6634
  160SAPE  C31417985   2.108   3.404   8.319  0.1029 -0.2175 -0.0266
  160SAPE  H14X17986   2.008   3.400   8.367 -0.5325  1.9114 -1.0210
  160SAPE  H14Y17987   2.146   3.509   8.317  0.7342 -0.4523 -0.3631
  160SAPE  C31517988   2.206   3.323   8.396  0.2742  0.2083 -0.3030
  160SAPE  H15X17989   2.280   3.282   8.324 -0.0385  0.0321 -0.5275
  160SAPE  H15Y17990   2.146   3.236   8.431 -2.4723  2.2722  0.5479
  160SAPE  C31617991   2.275   3.397   8.510  0.5947 -0.0300  0.2186
  160SAPE  H16X17992   2.213   3.432   8.595 -1.1766  0.3051 -1.1613
  160SAPE  H16Y17993   2.312   3.486   8.454 -0.7509  0.1995 -0.3475
  160SAPE  C31717994   2.399   3.311   8.559 -0.3239  0.5880 -0.3495
  160SAPE  H17X17995   2.458   3.279   8.470  0.4763 -2.5924  1.1673
  160SAPE  H17Y17996   2.370   3.221   8.617  0.7462  1.9342  2.4453
  160SAPE  C31817997   2.464   3.393   8.674  0.3060 -0.2119  0.4158
  160SAPE  H18X17998   2.383   3.456   8.716  0.1496  0.5051 -0.8858
  160SAPE  H18Y17999   2.534   3.454   8.611  1.6941 -2.6958 -0.5983
  160SAPE  H18Z18000   2.521   3.328   8.743  0.0712 -0.6558  0.1942
  161SAPE     N18001   5.417   1.317   6.468 -0.0067 -0.3857  0.1379
  161SAPE   HN118002   5.436   1.399   6.529  0.5970  0.1450 -0.7503
  161SAPE   HN218003   5.363   1.251   6.529  1.4454 -0.8914  0.9328
  161SAPE   HN318004   5.508   1.275   6.440 -0.5480 -1.1711 -0.5129
  161SAPE   C1218005   5.329   1.369   6.353  0.0420  0.0048  0.1003
  161SAPE  H12A18006   5.313   1.280   6.287  1.1668  0.3464 -0.6646
  161SAPE  H12B18007   5.396   1.443   6.304  0.7883  0.0796  1.1921
  161SAPE   C1118008   5.195   1.416   6.394  0.0048  0.2961 -0.6527
  161SAPE  H11A18009   5.122   1.430   6.311 -0.6178 -1.9317 -0.5463
  161SAPE  H11B18010   5.202   1.517   6.442  0.9423  0.7158 -1.6356
  161SAPE     P18011   5.028   1.227   6.487  0.1012  0.2858 -0.1908
  161SAPE   O1318012   4.903   1.307   6.476  0.0378  0.0803  0.1920
  161SAPE   O1418013   5.060   1.131   6.374 -0.8827  0.3997 -0.0924
  161SAPE   O1218014   5.145   1.332   6.499 -0.3235 -0.2116  0.3786
  161SAPE   O1118015   5.041   1.155   6.630 -0.5904 -0.1740  0.2390
  161SAPE    C118016   4.952   1.199   6.729 -0.3977  0.2114 -0.2734
  161SAPE    HA18017   4.849   1.219   6.694 -0.5326  4.6452  2.0243
  161SAPE    HB18018   4.923   1.115   6.796 -2.9481  0.6694 -0.6791
  161SAPE    C218019   4.990   1.327   6.803  0.0574  0.6399  0.4381
  161SAPE    HS18020   4.984   1.412   6.732 -2.1438  0.0410 -0.1578
  161SAPE   O2118021   5.134   1.319   6.837 -0.1075  0.1709 -0.1540
  161SAPE   C2118022   5.188   1.433   6.894  0.1186  0.1118  0.6240
  161SAPE   O2218023   5.136   1.544   6.892 -0.2618  0.0674 -0.0147
  161SAPE   C2218024   5.303   1.393   6.985 -0.5138 -0.5588  0.0877
  161SAPE   H2R18025   5.281   1.295   7.032 -1.3243  0.0756  1.0703
  161SAPE   H2S18026   5.395   1.388   6.923 -0.6447  1.2453 -0.3239
  161SAPE    C318027   4.891   1.363   6.916 -0.1430  0.7440 -0.5271
  161SAPE    HX18028   4.786   1.372   6.879 -1.6067  1.4632  3.3290
  161SAPE    HY18029   4.908   1.467   6.953  1.2335  0.4608 -0.3188
  161SAPE   O3118030   4.898   1.264   7.028  0.1855 -0.0078 -0.0322
  161SAPE   C3118031   4.810   1.159   7.028 -0.5886 -0.0840 -0.5573
  161SAPE   O3218032   4.734   1.138   6.945  0.4406 -0.0901 -0.2473
  161SAPE   C3218033   4.824   1.072   7.146  0.3311 -0.0712 -0.0776
  161SAPE   H2X18034   4.869   1.136   7.225  0.8439  0.0736 -0.4833
  161SAPE   H2Y18035   4.891   0.990   7.112 -0.8086 -0.8045 -0.6320
  161SAPE   C2318036   5.324   1.487   7.103 -0.3753 -0.0201 -0.1994
  161SAPE   H3R18037   5.228   1.496   7.157  1.4493  1.6787  3.0533
  161SAPE   H3S18038   5.353   1.584   7.056 -1.3625  0.1086 -0.5671
  161SAPE   C2418039   5.431   1.436   7.195  0.2525  0.4265  0.3392
  161SAPE   H4R18040   5.526   1.441   7.138  0.2780  1.8431  0.4912
  161SAPE   H4S18041   5.404   1.329   7.211 -0.1636  0.5723  0.6286
  161SAPE   C2518042   5.446   1.501   7.327  0.4413 -1.0219 -0.3796
  161SAPE   H5R18043   5.525   1.577   7.336 -0.5823  0.0892 -0.4620
  161SAPE   C2618044   5.362   1.484   7.429 -0.3466 -0.4283 -0.0889
  161SAPE   H6R18045   5.395   1.518   7.528 -1.1068 -0.4823  0.1885
  161SAPE   C2718046   5.236   1.407   7.434  0.4204  0.1731 -0.3528
  161SAPE   H7R18047   5.237   1.318   7.368 -1.3786 -1.0627  1.1855
  161SAPE   H7S18048   5.155   1.473   7.395  0.3742  0.7307  0.6536
  161SAPE   C2818049   5.202   1.356   7.569  0.0892  0.4439  0.7786
  161SAPE   H8R18050   5.278   1.350   7.648  1.3225  3.0104 -0.1120
  161SAPE   C2918051   5.083   1.299   7.608  0.1938  0.3603  0.4149
  161SAPE   H9R18052   5.065   1.254   7.706  0.1521  0.4720  0.4587
  161SAPE  C21018053   4.964   1.287   7.513  0.3891  0.2581 -0.1418
  161SAPE  H10R18054   4.904   1.202   7.551  1.7140 -1.7357 -2.2484
  161SAPE  H10S18055   5.002   1.253   7.414 -0.9158 -2.1824  0.1465
  161SAPE  C21118056   4.883   1.415   7.483 -0.3431 -0.3652 -0.1030
  161SAPE  H11R18057   4.922   1.482   7.405  0.9755  1.2588  1.8576
  161SAPE  C21218058   4.777   1.467   7.552 -0.1314 -0.6248  0.0602
  161SAPE  H12R18059   4.719   1.554   7.518 -1.3779 -1.6159 -0.4449
  161SAPE  C21318060   4.706   1.419   7.676 -0.1835  0.2210 -0.0766
  161SAPE  H13R18061   4.723   1.311   7.696  0.0011  0.6998  2.7942
  161SAPE  H13S18062   4.595   1.426   7.676 -0.4691 -2.7256  0.9368
  161SAPE  C21418063   4.761   1.484   7.798 -0.6281  0.8395 -0.2563
  161SAPE  H14R18064   4.868   1.459   7.802 -1.0968 -1.3409  0.4627
  161SAPE  C21518065   4.702   1.580   7.878 -0.2666 -0.1997 -0.1322
  161SAPE  H15R18066   4.760   1.621   7.961 -0.2643  1.6681 -1.0076
  161SAPE  C21618067   4.569   1.641   7.853  0.5539 -0.1079  0.4601
  161SAPE  H16R18068   4.494   1.558   7.858 -0.3250  0.5660 -1.0601
  161SAPE  H16S18069   4.561   1.676   7.748  2.5201 -0.7200  0.0531
  161SAPE  C21718070   4.534   1.756   7.939 -0.2724  0.8942 -0.2271
  161SAPE  H17R18071   4.466   1.822   7.882  0.2705  2.7885  1.2191
  161SAPE  H17S18072   4.626   1.817   7.954  1.2695 -1.4232  0.3360
  161SAPE  C21818073   4.490   1.706   8.080 -0.3205  0.3304 -0.9103
  161SAPE  H18R18074   4.566   1.633   8.117  0.1338  1.6903  1.0226
  161SAPE  H18S18075   4.399   1.647   8.061  2.1431 -3.7468 -1.2157
  161SAPE  C21918076   4.467   1.825   8.176 -1.1761  0.6419 -0.3686
  161SAPE  H19R18077   4.386   1.883   8.128 -0.1119  0.2217 -2.8155
  161SAPE  H19S18078   4.561   1.883   8.173  0.1182 -1.3695 -0.9538
  161SAPE  C22018079   4.441   1.804   8.320  0.9648 -0.3581 -0.8643
  161SAPE  H20R18080   4.526   1.768   8.381 -0.7386  1.7306  3.0816
  161SAPE  H20S18081   4.358   1.731   8.335  0.9003 -0.4750 -1.7157
  161SAPE  H20T18082   4.407   1.900   8.365  1.0902 -0.7097 -0.0147
  161SAPE   C3318083   4.689   1.011   7.188  0.1067  0.9990 -0.4944
  161SAPE   H3X18084   4.653   0.916   7.142 -1.6920  1.0982  0.5875
  161SAPE   H3Y18085   4.600   1.073   7.164  0.5012  1.0608 -1.8449
  161SAPE   C3418086   4.691   0.979   7.340 -0.2804 -0.5493 -0.3888
  161SAPE   H4X18087   4.778   1.023   7.394  1.6170 -0.2117 -3.4467
  161SAPE   H4Y18088   4.692   0.869   7.352  0.2758 -0.4518  0.5528
  161SAPE   C3518089   4.563   1.029   7.412  0.2136 -0.1272 -0.3819
  161SAPE   H5X18090   4.487   0.951   7.392 -2.5098  2.6885 -1.9281
  161SAPE   H5Y18091   4.516   1.122   7.373 -1.0149 -0.5020  0.1745
  161SAPE   C3618092   4.580   1.053   7.563  0.0898  0.3362 -0.3812
  161SAPE   H6X18093   4.491   1.101   7.608 -1.0469 -0.2560 -1.9141
  161SAPE   H6Y18094   4.651   1.138   7.572  0.0907  0.1190  3.7392
  161SAPE   C3718095   4.630   0.931   7.647 -0.4499 -0.1998  0.8470
  161SAPE   H7X18096   4.719   0.882   7.603 -1.0416 -0.6384  0.1046
  161SAPE   H7Y18097   4.547   0.857   7.647 -0.8420  0.1684 -1.2146
  161SAPE   C3818098   4.663   0.956   7.799  0.2881 -0.0680 -0.5611
  161SAPE   H8X18099   4.656   0.860   7.854  0.2444 -0.0479 -0.5316
  161SAPE   H8Y18100   4.583   1.022   7.839 -0.6578 -0.9195 -0.9980
  161SAPE   C3918101   4.799   1.015   7.832  0.0310 -0.1775 -0.2722
  161SAPE   H9X18102   4.791   1.125   7.813  3.9543  0.3164  0.1147
  161SAPE   H9Y18103   4.873   0.978   7.758  1.1758  0.8765  0.3098
  161SAPE  C31018104   4.848   0.995   7.981 -0.3240  0.5754  0.8490
  161SAPE  H10X18105   4.869   0.887   7.993 -2.2588  0.1862  0.9756
  161SAPE  H10Y18106   4.766   1.025   8.050 -2.2033  1.3421 -1.5830
  161SAPE  C31118107   4.979   1.074   7.995 -0.0471 -0.3595 -0.8442
  161SAPE  H11X18108   4.950   1.180   7.978  0.5080 -0.4163 -2.2599
  161SAPE  H11Y18109   5.051   1.045   7.916 -1.1030 -1.1133 -1.5692
  161SAPE  C31218110   5.028   1.068   8.139 -0.3166  0.7621 -0.1193
  161SAPE  H12X18111   5.073   0.968   8.153  1.0592  1.0544 -2.0830
  161SAPE  H12Y18112   4.958   1.077   8.225  0.0506  1.7957  0.0835
  161SAPE  C31318113   5.125   1.181   8.173 -0.0270 -0.6204 -0.7203
  161SAPE  H13X18114   5.139   1.174   8.283  0.6028  2.0740 -0.5767
  161SAPE  H13Y18115   5.075   1.279   8.159 -1.6727 -0.8975  2.1965
  161SAPE  C31418116   5.255   1.184   8.092 -0.1176 -0.5570  0.4126
  161SAPE  H14X18117   5.232   1.183   7.984  1.3437  0.1243  0.0683
  161SAPE  H14Y18118   5.318   1.094   8.111  1.1691  0.3222  0.4227
  161SAPE  C31518119   5.348   1.308   8.114  0.4128 -0.1047  0.1043
  161SAPE  H15X18120   5.442   1.292   8.057  0.0574 -0.8836 -0.2796
  161SAPE  H15Y18121   5.367   1.314   8.223  0.5003  0.4707  0.0572
  161SAPE  C31618122   5.283   1.442   8.073 -0.7088 -0.2951  1.1708
  161SAPE  H16X18123   5.342   1.531   8.103 -1.0682  0.2625  0.2788
  161SAPE  H16Y18124   5.184   1.446   8.123  0.1237  0.3594  2.8214
  161SAPE  C31718125   5.270   1.463   7.918  0.8601  0.1200 -1.0086
  161SAPE  H17X18126   5.212   1.374   7.884 -0.4940  0.4187  0.3615
  161SAPE  H17Y18127   5.367   1.466   7.865  1.9093  0.3005  0.8383
  161SAPE  C31818128   5.200   1.596   7.884 -0.0878 -0.5427  0.7270
  161SAPE  H18X18129   5.154   1.592   7.783  2.8747 -1.1496 -0.7277
  161SAPE  H18Y18130   5.262   1.688   7.891 -1.3206  0.3571  0.2756
  161SAPE  H18Z18131   5.117   1.605   7.958 -0.0631 -1.0798  0.8244
  162SAPE     N18132   1.705   4.502   6.133 -0.7854  0.1140  0.3369
  162SAPE   HN118133   1.729   4.528   6.035 -1.2329  0.3565  0.2904
  162SAPE   HN218134   1.787   4.455   6.176 -1.3026 -0.0487  1.1864
  162SAPE   HN318135   1.626   4.436   6.151 -0.6486  0.3323  1.8452
  162SAPE   C1218136   1.688   4.628   6.208  0.5961  0.9972 -0.5050
  162SAPE  H12A18137   1.685   4.592   6.313  0.3725 -0.7239 -1.0645
  162SAPE  H12B18138   1.592   4.670   6.174  1.0623  0.3626 -2.7690
  162SAPE   C1118139   1.806   4.719   6.174 -1.1502  0.6616 -0.8641
  162SAPE  H11A18140   1.809   4.725   6.063 -1.8689  0.4752 -0.8944
  162SAPE  H11B18141   1.900   4.678   6.216 -2.1024 -1.3016 -0.5250
  162SAPE     P18142   1.754   4.893   6.364  0.0561  0.6576 -0.2401
  162SAPE   O1318143   1.863   4.985   6.386 -0.1318 -0.1863 -0.2262
  162SAPE   O1418144   1.611   4.930   6.389  0.5583  0.2767  0.3835
  162SAPE   O1218145   1.775   4.850   6.213  0.4493 -0.5378 -0.3997
  162SAPE   O1118146   1.792   4.761   6.438 -0.3328  0.0297  0.2828
  162SAPE    C118147   1.720   4.723   6.551  0.3295  0.5141 -0.5531
  162SAPE    HA18148   1.609   4.733   6.549 -0.0126 -2.4543 -0.6459
  162SAPE    HB18149   1.733   4.614   6.571  0.0964  0.8807  1.8332
  162SAPE    C218150   1.766   4.788   6.685 -0.7248 -0.6159  0.8582
  162SAPE    HS18151   1.697   4.746   6.761  0.0414 -0.9490  1.3849
  162SAPE   O2118152   1.741   4.930   6.690 -0.1268 -0.4807  0.5182
  162SAPE   C2118153   1.612   4.970   6.712  0.0012  1.0174  0.0534
  162SAPE   O2218154   1.518   4.895   6.726 -0.3815  0.8629  0.2050
  162SAPE   C2218155   1.620   5.124   6.734 -0.1168 -0.1526 -0.3325
  162SAPE   H2R18156   1.686   5.143   6.821  0.5116  2.5144 -1.2881
  162SAPE   H2S18157   1.668   5.176   6.648 -1.6424  1.6700 -0.1514
  162SAPE    C318158   1.915   4.762   6.719  0.0129 -0.3160 -0.5178
  162SAPE    HX18159   1.985   4.833   6.668 -1.2985  2.4135  1.2281
  162SAPE    HY18160   1.932   4.658   6.685  1.5114  0.0868 -1.0928
  162SAPE   O3118161   1.945   4.776   6.865  0.4573 -0.0932  0.2825
  162SAPE   C3118162   1.980   4.895   6.901 -0.3959 -0.3548  0.2158
  162SAPE   O3218163   2.019   4.989   6.834  0.0347 -0.4541  0.4177
  162SAPE   C3218164   1.968   4.905   7.054 -0.1326 -0.1211 -0.2782
  162SAPE   H2X18165   2.071   4.883   7.088 -0.0039  0.3636 -0.3577
  162SAPE   H2Y18166   1.895   4.828   7.087 -0.7366  1.1207  1.4281
  162SAPE   C2318167   1.481   5.186   6.755 -0.0672  0.5155 -0.0264
  162SAPE   H3R18168   1.415   5.193   6.667  0.4565  2.6864 -0.3025
  162SAPE   H3S18169   1.495   5.291   6.788  0.0482  0.6590 -0.5238
  162SAPE   C2418170   1.390   5.132   6.867 -0.3559 -0.4913  0.2445
  162SAPE   H4R18171   1.365   5.024   6.853  0.5603 -0.9032  1.6048
  162SAPE   H4S18172   1.289   5.178   6.859  0.3594  0.9158 -0.9564
  162SAPE   C2518173   1.436   5.173   7.003 -0.3143  0.1095 -0.7512
  162SAPE   H5R18174   1.439   5.282   7.015 -0.8674  0.4066 -2.8995
  162SAPE   C2618175   1.466   5.090   7.104 -0.6076  0.0598 -0.1124
  162SAPE   H6R18176   1.489   5.134   7.202 -1.3987  1.5719 -0.5805
  162SAPE   C2718177   1.469   4.940   7.104  0.2418 -0.1141 -0.4970
  162SAPE   H7R18178   1.568   4.904   7.139 -0.3181 -2.1975 -0.9100
  162SAPE   H7S18179   1.480   4.910   6.998  1.5833 -1.8810  0.0794
  162SAPE   C2818180   1.345   4.877   7.160 -0.0338  0.3939  0.1944
  162SAPE   H8R18181   1.267   4.851   7.087 -0.9930 -0.4608  1.4743
  162SAPE   C2918182   1.326   4.843   7.286  0.3519 -0.5798  0.7853
  162SAPE   H9R18183   1.234   4.790   7.315  0.6100 -2.4188 -1.4096
  162SAPE  C21018184   1.427   4.866   7.393 -0.0942  0.1195 -0.8530
  162SAPE  H10R18185   1.486   4.959   7.376  2.4168 -1.6301 -2.5268
  162SAPE  H10S18186   1.506   4.788   7.402  0.2970  0.6367  0.6294
  162SAPE  C21118187   1.361   4.883   7.534 -0.4117 -0.4545 -0.5081
  162SAPE  H11R18188   1.261   4.841   7.556 -0.0890 -1.5454 -1.0235
  162SAPE  C21218189   1.419   4.939   7.643  0.5941  1.1231 -0.0358
  162SAPE  H12R18190   1.366   4.960   7.737  1.1761 -0.1194  0.5930
  162SAPE  C21318191   1.558   4.990   7.641 -0.6702 -0.0300  0.5169
  162SAPE  H13R18192   1.614   4.949   7.554  1.3007  1.9105  0.7774
  162SAPE  H13S18193   1.615   4.941   7.723 -1.1494 -1.4655  0.0025
  162SAPE  C21418194   1.556   5.139   7.642 -0.0093 -0.1067 -0.2880
  162SAPE  H14R18195   1.574   5.190   7.546  5.2979  1.2457  1.0740
  162SAPE  C21518196   1.536   5.212   7.758 -0.1414  0.0841 -0.3963
  162SAPE  H15R18197   1.535   5.322   7.748  0.6198 -0.0407 -2.4514
  162SAPE  C21618198   1.508   5.145   7.893  0.3846 -0.1984 -0.2992
  162SAPE  H16R18199   1.503   5.034   7.896 -2.1358 -0.1629 -1.2600
  162SAPE  H16S18200   1.416   5.186   7.940 -0.5708 -1.2749 -1.1713
  162SAPE  C21718201   1.615   5.197   7.995 -0.1375  0.0735  0.2535
  162SAPE  H17R18202   1.646   5.304   7.994 -2.0957  0.6835 -0.1290
  162SAPE  H17S18203   1.704   5.137   7.969  0.9466 -0.2134  4.0744
  162SAPE  C21818204   1.577   5.150   8.136 -0.2102  0.3791 -0.1597
  162SAPE  H18R18205   1.590   5.040   8.148  0.9932  0.2284 -2.2975
  162SAPE  H18S18206   1.470   5.177   8.147  0.4496  3.1965  0.1955
  162SAPE  C21918207   1.648   5.247   8.239  0.0835 -0.0921  0.1154
  162SAPE  H19R18208   1.623   5.352   8.214 -0.9645 -0.3864 -0.1380
  162SAPE  H19S18209   1.758   5.232   8.232  0.0370 -2.2146  2.5235
  162SAPE  C22018210   1.593   5.226   8.380 -0.5080 -0.3635  0.8143
  162SAPE  H20R18211   1.484   5.210   8.365 -0.0602 -0.2442 -4.2793
  162SAPE  H20S18212   1.611   5.307   8.453  2.2033 -0.4983  0.3761
  162SAPE  H20T18213   1.627   5.125   8.412 -2.8716 -0.7005  2.5946
  162SAPE   C3318214   1.908   5.032   7.115 -0.5187 -0.1939 -0.2145
  162SAPE   H3X18215   1.830   5.077   7.049 -0.3800  0.1215 -0.1640
  162SAPE   H3Y18216   1.991   5.103   7.131 -0.3278 -0.2815 -0.7991
  162SAPE   C3418217   1.859   5.017   7.266  0.3572  0.2733  0.4920
  162SAPE   H4X18218   1.780   4.940   7.280 -1.7935  2.4355  1.1239
  162SAPE   H4Y18219   1.817   5.118   7.286  0.1261  0.7090 -1.8960
  162SAPE   C3518220   1.964   4.976   7.363  0.0698  0.3559 -0.3728
  162SAPE   H5X18221   2.048   5.048   7.359  1.8561 -1.6591 -0.8231
  162SAPE   H5Y18222   2.007   4.879   7.331 -1.6371 -0.9027  0.9648
  162SAPE   C3618223   1.913   4.979   7.510 -0.5032  0.1807 -0.2346
  162SAPE   H6X18224   1.811   4.936   7.507 -0.6092  0.2926  1.1960
  162SAPE   H6Y18225   1.909   5.084   7.547 -0.9781  1.4009 -3.4278
  162SAPE   C3718226   2.003   4.895   7.599 -0.3607 -0.1839  0.7720
  162SAPE   H7X18227   2.108   4.922   7.578 -1.0755  0.8176 -2.1177
  162SAPE   H7Y18228   2.006   4.789   7.565  1.0283 -0.4007  1.5281
  162SAPE   C3818229   1.967   4.900   7.748  0.9276  0.1775  0.0727
  162SAPE   H8X18230   2.008   4.819   7.812 -3.9077 -1.3483  1.7415
  162SAPE   H8Y18231   1.858   4.878   7.752  0.7668  0.6658 -1.1803
  162SAPE   C3918232   1.992   5.038   7.814  0.5011  0.3061  0.2434
  162SAPE   H9X18233   1.919   5.114   7.777  0.4619  0.8477  1.3854
  162SAPE   H9Y18234   2.090   5.080   7.782  0.2685  0.5388 -0.1702
  162SAPE  C31018235   2.009   5.022   7.962 -0.3450 -0.2903 -0.8300
  162SAPE  H10X18236   2.085   4.945   7.984 -2.7150 -1.7628  3.4116
  162SAPE  H10Y18237   1.914   4.985   8.007  0.3999 -0.9686  0.2080
  162SAPE  C31118238   2.046   5.148   8.041 -0.1277  0.5372 -0.1858
  162SAPE  H11X18239   2.041   5.126   8.150 -0.3000  1.2120 -0.0519
  162SAPE  H11Y18240   1.970   5.226   8.023 -0.4832  0.3293  0.3814
  162SAPE  C31218241   2.195   5.184   8.028 -0.1295  0.0491 -0.0057
  162SAPE  H12X18242   2.205   5.288   8.066  0.4976 -0.2233  0.6055
  162SAPE  H12Y18243   2.241   5.183   7.926  1.3009  2.6427  0.5307
  162SAPE  C31318244   2.276   5.095   8.115 -0.9352  0.3731 -0.1737
  162SAPE  H13X18245   2.269   4.990   8.081  0.8230 -0.1720  1.0081
  162SAPE  H13Y18246   2.252   5.112   8.222  0.8831 -0.5309  0.4206
  162SAPE  C31418247   2.428   5.130   8.093  0.2644  0.3331  0.3029
  162SAPE  H14X18248   2.452   5.231   8.133 -0.6600  0.7556 -0.1924
  162SAPE  H14Y18249   2.445   5.117   7.984 -3.4793 -3.4697 -0.0637
  162SAPE  C31518250   2.524   5.029   8.163  0.5675  0.4131  0.0030
  162SAPE  H15X18251   2.519   4.934   8.107  2.0161 -0.1541  0.7805
  162SAPE  H15Y18252   2.492   5.004   8.267  1.5468 -0.8339  0.0215
  162SAPE  C31618253   2.669   5.071   8.157 -0.1578 -0.0673  0.1054
  162SAPE  H16X18254   2.676   5.159   8.225  1.6294  1.3863 -1.8513
  162SAPE  H16Y18255   2.693   5.112   8.057  1.3174  1.6354  1.1049
  162SAPE  C31718256   2.779   4.975   8.205  0.3235 -0.3363 -0.2629
  162SAPE  H17X18257   2.875   5.024   8.234 -0.0745 -0.6398  1.7008
  162SAPE  H17Y18258   2.790   4.889   8.136 -1.2175 -1.8999  1.3369
  162SAPE  C31818259   2.732   4.906   8.331 -0.3962  0.3113  0.1388
  162SAPE  H18X18260   2.814   4.846   8.375  0.6533  1.6391  0.0639
  162SAPE  H18Y18261   2.650   4.839   8.297 -3.2263  3.7784 -0.4916
  162SAPE  H18Z18262   2.683   4.975   8.402  0.4493  0.0223  1.0215
  163SAPE     N18263   3.777   1.561   6.404  0.6468  0.6816 -0.7153
  163SAPE   HN118264   3.811   1.532   6.310  1.5295 -0.4622 -0.0622
  163SAPE   HN218265   3.681   1.523   6.408  0.4658  1.1460 -0.5421
  163SAPE   HN318266   3.770   1.663   6.422  0.7011  0.2201  2.2999
  163SAPE   C1218267   3.860   1.501   6.516 -0.2355  0.3101 -0.4501
  163SAPE  H12A18268   3.950   1.565   6.524  0.0246 -0.0493 -0.4573
  163SAPE  H12B18269   3.891   1.397   6.490 -0.8357 -0.3742  1.4432
  163SAPE   C1118270   3.777   1.500   6.649  0.1338  0.1900  0.1262
  163SAPE  H11A18271   3.824   1.448   6.735  2.0228  1.9397  0.2219
  163SAPE  H11B18272   3.685   1.446   6.619  0.2181 -0.2764  0.6841
  163SAPE     P18273   3.760   1.689   6.827 -0.0684  0.1127  0.0340
  163SAPE   O1318274   3.707   1.824   6.845  0.4526  0.4522 -0.1899
  163SAPE   O1418275   3.719   1.590   6.929 -0.0315 -0.0061  0.6557
  163SAPE   O1218276   3.734   1.637   6.676 -0.2540 -0.1819 -0.8182
  163SAPE   O1118277   3.918   1.694   6.817  0.4350  0.0200 -0.3787
  163SAPE    C118278   3.992   1.626   6.915  0.0357 -0.9304 -0.3569
  163SAPE    HA18279   3.942   1.537   6.960 -0.4340 -0.2369  0.5181
  163SAPE    HB18280   4.075   1.590   6.851 -0.1730  2.0886 -2.5385
  163SAPE    C218281   4.057   1.712   7.016 -0.0064 -0.1983  0.6588
  163SAPE    HS18282   4.135   1.660   7.075  1.6099  0.5176 -0.7767
  163SAPE   O2118283   3.951   1.737   7.113 -0.4109  0.3302  0.5284
  163SAPE   C2118284   3.912   1.636   7.184  0.2818 -0.1943 -0.4566
  163SAPE   O2218285   3.976   1.530   7.204 -0.7486 -0.6203 -0.0071
  163SAPE   C2218286   3.777   1.670   7.255  0.2174  0.2967 -0.0183
  163SAPE   H2R18287   3.752   1.778   7.262 -2.4990 -0.3501  4.1468
  163SAPE   H2S18288   3.697   1.623   7.193 -1.9060  1.8448  1.3748
  163SAPE    C318289   4.114   1.844   6.960 -0.4493 -0.5443 -0.2394
  163SAPE    HX18290   4.037   1.884   6.890  1.0024  1.1960 -0.9322
  163SAPE    HY18291   4.212   1.831   6.910  0.2416  2.9672 -0.0542
  163SAPE   O3118292   4.149   1.940   7.065  0.1728  0.8150 -0.0103
  163SAPE   C3118293   4.059   2.032   7.096  0.0556  0.5748  0.8355
  163SAPE   O3218294   3.955   2.059   7.039  0.2843  0.0072  0.5008
  163SAPE   C3218295   4.103   2.107   7.219 -0.8216 -0.4405  0.1168
  163SAPE   H2X18296   4.145   2.204   7.185 -0.1829 -0.9848 -0.6968
  163SAPE   H2Y18297   4.179   2.056   7.282  0.0726  1.5365  0.7005
  163SAPE   C2318298   3.770   1.624   7.403  0.3118  0.0279 -0.0210
  163SAPE   H3R18299   3.829   1.689   7.471 -0.8442 -0.2473  1.3063
  163SAPE   H3S18300   3.817   1.524   7.413  0.6377  0.3610  2.3553
  163SAPE   C2418301   3.631   1.620   7.470 -0.6511  0.4861  0.3149
  163SAPE   H4R18302   3.661   1.594   7.574  0.8204  1.2708  0.1169
  163SAPE   H4S18303   3.569   1.545   7.417 -0.1436  1.4759 -1.7710
  163SAPE   C2518304   3.560   1.756   7.467 -0.1871  0.7289 -0.3468
  163SAPE   H5R18305   3.540   1.788   7.364 -0.0051 -0.4924 -0.7742
  163SAPE   C2618306   3.530   1.830   7.575  0.0044  0.1888 -0.0027
  163SAPE   H6R18307   3.490   1.931   7.560 -0.2138 -0.1335 -1.8275
  163SAPE   C2718308   3.550   1.794   7.716 -0.6017  0.3821 -0.0146
  163SAPE   H7R18309   3.523   1.690   7.743  0.5967  0.2557  0.7801
  163SAPE   H7S18310   3.464   1.844   7.766 -0.4581  1.4001 -0.7338
  163SAPE   C2818311   3.685   1.838   7.784  0.2490  0.5849 -0.1947
  163SAPE   H8R18312   3.761   1.903   7.738  2.1667  0.8204  2.9974
  163SAPE   C2918313   3.724   1.788   7.907 -0.1507  0.2762  0.2819
  163SAPE   H9R18314   3.814   1.838   7.947  0.1173  0.8801 -1.0135
  163SAPE  C21018315   3.658   1.685   7.995  0.0432  0.5972 -0.9177
  163SAPE  H10R18316   3.723   1.596   7.979 -1.1143 -0.2235 -1.2287
  163SAPE  H10S18317   3.557   1.648   7.969  0.3515 -1.9424  1.0789
  163SAPE  C21118318   3.638   1.727   8.146  0.3382  0.1508  0.0773
  163SAPE  H11R18319   3.553   1.794   8.168  2.0915  1.6438  2.8970
  163SAPE  C21218320   3.716   1.684   8.253  1.0439  0.0989  0.1445
  163SAPE  H12R18321   3.695   1.726   8.352 -0.1459  3.9962 -1.5421
  163SAPE  C21318322   3.829   1.594   8.243 -0.4483  0.3860 -0.2215
  163SAPE  H13R18323   3.827   1.530   8.152  1.1324  1.0070 -0.7269
  163SAPE  H13S18324   3.834   1.515   8.321  1.3653  2.3232  1.7758
  163SAPE  C21418325   3.954   1.671   8.266  0.5348  1.0604  0.4204
  163SAPE  H14R18326   3.944   1.746   8.346 -0.6481  0.6670  0.6541
  163SAPE  C21518327   4.078   1.648   8.220 -0.3476 -0.2835  0.0828
  163SAPE  H15R18328   4.156   1.711   8.264  0.2006 -0.9038  0.0145
  163SAPE  C21618329   4.123   1.532   8.133 -0.8510 -0.5221 -0.1323
  163SAPE  H16R18330   4.189   1.575   8.054  1.4634 -0.5041  1.6901
  163SAPE  H16S18331   4.031   1.496   8.083  0.7748 -1.0770 -2.9386
  163SAPE  C21718332   4.179   1.411   8.212 -0.3642 -0.0259 -0.3751
  163SAPE  H17R18333   4.210   1.332   8.141  0.1934 -0.7931  0.6967
  163SAPE  H17S18334   4.113   1.360   8.285  1.2498 -2.4364 -0.4697
  163SAPE  C21818335   4.314   1.443   8.286  0.1978 -0.8202  0.6634
  163SAPE  H18R18336   4.295   1.524   8.360  1.1555  0.5944 -0.5827
  163SAPE  H18S18337   4.378   1.487   8.206  1.3364 -0.7349  1.5898
  163SAPE  C21918338   4.385   1.324   8.356  0.7413 -0.4252 -0.6681
  163SAPE  H19R18339   4.485   1.358   8.390 -0.1112 -0.7099  2.4836
  163SAPE  H19S18340   4.395   1.242   8.282  1.9904 -0.7738 -0.1347
  163SAPE  C22018341   4.302   1.288   8.480 -0.2534  0.3104 -0.6860
  163SAPE  H20R18342   4.213   1.235   8.442  0.1770 -1.8702  1.1106
  163SAPE  H20S18343   4.271   1.377   8.538 -1.5117  0.2709 -1.2714
  163SAPE  H20T18344   4.359   1.214   8.541  0.1679  0.7767 -0.5002
  163SAPE   C3318345   3.986   2.132   7.324  0.6188 -0.3641  0.6020
  163SAPE   H3X18346   3.893   2.168   7.276  1.0973  1.3912  0.9283
  163SAPE   H3Y18347   4.009   2.218   7.390  0.6585 -0.3104  0.5184
  163SAPE   C3418348   3.960   2.012   7.409 -0.2088  0.4673 -0.4020
  163SAPE   H4X18349   3.956   1.930   7.335  2.6095  0.4526 -0.6582
  163SAPE   H4Y18350   3.857   2.013   7.451 -0.0383 -1.6368  0.2022
  163SAPE   C3518351   4.063   1.987   7.514  0.2052  0.5807 -0.5395
  163SAPE   H5X18352   4.166   2.002   7.475  0.0280 -0.0656 -1.2736
  163SAPE   H5Y18353   4.060   1.878   7.536  1.7498  0.4169 -1.0465
  163SAPE   C3618354   4.034   2.064   7.647  0.4247 -0.1162 -0.7233
  163SAPE   H6X18355   3.926   2.048   7.670  0.6461 -1.2161 -0.4183
  163SAPE   H6Y18356   4.057   2.172   7.637  2.1507 -0.3627  0.2193
  163SAPE   C3718357   4.116   2.003   7.760 -0.3116  0.2182 -0.3451
  163SAPE   H7X18358   4.214   1.997   7.709 -1.1188 -0.2781 -1.8999
  163SAPE   H7Y18359   4.081   1.898   7.771  1.3001 -0.1614  1.8334
  163SAPE   C3818360   4.117   2.098   7.882 -0.5430 -0.3376  0.8428
  163SAPE   H8X18361   4.120   2.199   7.837 -2.4269 -1.2845 -1.6580
  163SAPE   H8Y18362   4.210   2.078   7.940 -0.6073 -0.1463  1.0141
  163SAPE   C3918363   3.996   2.084   7.980 -0.1601  0.0314 -0.3495
  163SAPE   H9X18364   3.998   1.992   8.043  0.5663 -0.4169 -1.0085
  163SAPE   H9Y18365   3.900   2.081   7.924 -0.4505 -1.0617  0.1751
  163SAPE  C31018366   3.993   2.198   8.089 -0.5767  0.0750  0.2720
  163SAPE  H10X18367   3.910   2.166   8.156 -1.1321  0.2557 -0.3230
  163SAPE  H10Y18368   3.966   2.297   8.047  0.3215  0.1353 -0.1899
  163SAPE  C31118369   4.123   2.221   8.164  0.3656  0.1461  0.2138
  163SAPE  H11X18370   4.182   2.286   8.095 -2.8029 -0.2345 -3.1464
  163SAPE  H11Y18371   4.181   2.129   8.186  0.3862 -0.0681 -0.6968
  163SAPE  C31218372   4.097   2.299   8.292  0.1384  0.3450 -1.1388
  163SAPE  H12X18373   4.016   2.375   8.283  1.0522  1.4835 -0.0701
  163SAPE  H12Y18374   4.188   2.361   8.307 -0.5561  1.1011  0.1321
  163SAPE  C31318375   4.078   2.209   8.415  0.1935 -0.2249  0.4294
  163SAPE  H13X18376   4.172   2.149   8.417  1.2784  1.3381 -0.9624
  163SAPE  H13Y18377   3.983   2.151   8.408  1.2300 -1.8346 -1.0228
  163SAPE  C31418378   4.072   2.301   8.541  0.3099  0.4758 -0.0135
  163SAPE  H14X18379   3.978   2.360   8.539  0.7178  1.1182 -1.2883
  163SAPE  H14Y18380   4.151   2.377   8.525 -1.7040  2.3556 -1.5600
  163SAPE  C31518381   4.083   2.230   8.675  0.0261  0.5116  0.0445
  163SAPE  H15X18382   4.182   2.261   8.715  0.9058 -0.1511 -1.5225
  163SAPE  H15Y18383   4.072   2.119   8.674  1.0890  0.3865  0.6612
  163SAPE  C31618384   3.981   2.266   8.786  0.9381  0.1018 -0.7836
  163SAPE  H16X18385   3.881   2.223   8.762  1.4572 -1.0453 -0.9870
  163SAPE  H16Y18386   3.972   2.375   8.804 -1.6030 -0.2299  0.3076
  163SAPE  C31718387   4.021   2.219   8.929 -0.3322 -0.2413 -0.0730
  163SAPE  H17X18388   4.122   2.263   8.945 -0.2807  0.5622 -2.2689
  163SAPE  H17Y18389   4.032   2.108   8.928  0.0160 -0.2540 -2.6681
  163SAPE  C31818390   3.931   2.275   9.037  0.4771  0.8043  0.2373
  163SAPE  H18X18391   3.842   2.208   9.033  0.5023  0.8213 -0.8926
  163SAPE  H18Y18392   3.893   2.378   9.019  1.6689  1.2054 -0.0305
  163SAPE  H18Z18393   3.972   2.257   9.138  0.1977 -2.9369 -0.1466
  164SAPE     N18394   2.666   4.586   6.413  0.1261 -0.5103  0.2631
  164SAPE   HN118395   2.631   4.493   6.442 -0.7624 -0.8193 -1.6071
  164SAPE   HN218396   2.596   4.643   6.363 -0.4107  0.9969  2.5993
  164SAPE   HN318397   2.750   4.575   6.352 -0.4684 -0.8864 -0.5116
  164SAPE   C1218398   2.716   4.660   6.537 -0.0185  0.0468 -0.0933
  164SAPE  H12A18399   2.783   4.605   6.606  0.0027  0.3239  0.1089
  164SAPE  H12B18400   2.631   4.683   6.605  1.2038 -0.4727  1.6924
  164SAPE   C1118401   2.793   4.787   6.497  0.8041  0.0988  0.2558
  164SAPE  H11A18402   2.896   4.770   6.459  0.4564  0.1055 -0.7161
  164SAPE  H11B18403   2.805   4.835   6.597  0.6916  0.8946 -0.0997
  164SAPE     P18404   2.757   4.974   6.309  0.3065 -0.0886  0.6237
  164SAPE   O1318405   2.858   4.904   6.223 -0.5507  0.9588  0.0178
  164SAPE   O1418406   2.640   5.022   6.236  0.1923 -0.1443  0.5763
  164SAPE   O1218407   2.710   4.863   6.412  0.0348 -0.0567  0.1962
  164SAPE   O1118408   2.821   5.089   6.402  0.4021  0.2570  0.6248
  164SAPE    C118409   2.756   5.161   6.505 -0.3405  0.1037 -0.3717
  164SAPE    HA18410   2.683   5.231   6.459 -0.9511 -0.3010 -0.0384
  164SAPE    HB18411   2.703   5.096   6.578  1.4477 -0.0944  0.8098
  164SAPE    C218412   2.864   5.232   6.582 -0.4806 -0.2981 -0.7626
  164SAPE    HS18413   2.920   5.294   6.509 -1.6268 -1.2888 -2.5632
  164SAPE   O2118414   2.945   5.133   6.641  0.1047  0.4298 -0.6483
  164SAPE   C2118415   3.074   5.158   6.641 -0.5472  0.4020  0.0852
  164SAPE   O2218416   3.132   5.254   6.599 -0.1705  0.2742 -0.0145
  164SAPE   C2218417   3.140   5.039   6.717 -0.3359 -0.0693 -0.6479
  164SAPE   H2R18418   3.063   4.965   6.749  1.1469 -1.7155 -0.7478
  164SAPE   H2S18419   3.213   4.991   6.648 -0.9142 -0.4500 -1.0021
  164SAPE    C318420   2.825   5.332   6.697  0.6138 -0.1053 -0.7997
  164SAPE    HX18421   2.773   5.264   6.768  0.4898 -2.0459 -2.6401
  164SAPE    HY18422   2.754   5.402   6.647  1.4870  1.4653  0.0690
  164SAPE   O3118423   2.933   5.390   6.772  0.3373  0.1394  0.4804
  164SAPE   C3118424   2.984   5.500   6.725 -0.0321 -0.5087  0.3988
  164SAPE   O3218425   2.939   5.565   6.630  0.0718  0.5600  0.4902
  164SAPE   C3218426   3.094   5.538   6.824 -0.2290 -0.2589 -0.0149
  164SAPE   H2X18427   3.135   5.634   6.786  1.3100 -0.1586  1.7669
  164SAPE   H2Y18428   3.183   5.473   6.824  0.4783  0.6539  1.1763
  164SAPE   C2318429   3.221   5.091   6.838 -0.4730  0.6076 -0.1179
  164SAPE   H3R18430   3.292   5.172   6.809 -0.3019  0.5661  0.1901
  164SAPE   H3S18431   3.270   4.998   6.874 -2.3302 -0.6963 -0.7971
  164SAPE   C2418432   3.129   5.130   6.950  0.0428  0.7161 -0.1818
  164SAPE   H4R18433   3.068   5.050   6.999 -1.5097  1.5712 -0.6615
  164SAPE   H4S18434   3.056   5.203   6.909  0.3185 -0.0910 -2.2319
  164SAPE   C2518435   3.199   5.210   7.055 -0.5395  0.1196  0.2969
  164SAPE   H5R18436   3.233   5.304   7.011  1.1259 -1.1359 -1.2382
  164SAPE   C2618437   3.222   5.182   7.185  0.3239 -0.1495  0.2163
  164SAPE   H6R18438   3.257   5.261   7.253  0.7346 -0.5667  0.4990
  164SAPE   C2718439   3.165   5.061   7.256  0.7793 -0.4750  0.0210
  164SAPE   H7R18440   3.061   5.039   7.222  0.5990  1.8916 -1.1362
  164SAPE   H7S18441   3.129   5.100   7.354 -1.6911 -1.0656 -0.5701
  164SAPE   C2818442   3.249   4.938   7.267  0.0481  0.0173  0.0199
  164SAPE   H8R18443   3.343   4.956   7.214  0.0937  2.8808  0.8571
  164SAPE   C2918444   3.215   4.821   7.325 -0.1734  0.1559  0.3549
  164SAPE   H9R18445   3.295   4.748   7.347  1.5477  1.3498 -1.5673
  164SAPE  C21018446   3.080   4.789   7.384  0.0873  0.3747  0.6362
  164SAPE  H10R18447   3.072   4.680   7.399 -3.2489  0.1977 -1.3959
  164SAPE  H10S18448   3.005   4.811   7.305 -0.2037  0.0868  0.8370
  164SAPE  C21118449   3.063   4.852   7.519 -0.3227  0.3419  0.3554
  164SAPE  H11R18450   3.140   4.836   7.596  0.7415  0.8825 -0.5611
  164SAPE  C21218451   2.948   4.915   7.551 -0.0704  0.0406 -0.0230
  164SAPE  H12R18452   2.939   4.954   7.654 -0.7068 -1.6061  0.5784
  164SAPE  C21318453   2.823   4.933   7.465 -1.0202 -0.8062 -0.2846
  164SAPE  H13R18454   2.848   4.924   7.357  0.1769  1.1676 -0.2371
  164SAPE  H13S18455   2.798   5.041   7.478  1.3378 -0.5475  3.5338
  164SAPE  C21418456   2.721   4.830   7.505  0.6816 -0.0370  0.1572
  164SAPE  H14R18457   2.726   4.739   7.444 -1.7752  0.0562 -0.3079
  164SAPE  C21518458   2.616   4.839   7.593  0.2803  0.0767 -0.1801
  164SAPE  H15R18459   2.536   4.764   7.592 -0.7875  1.1854  0.3768
  164SAPE  C21618460   2.580   4.962   7.676 -0.4810 -0.1121 -0.5859
  164SAPE  H16R18461   2.665   5.034   7.675 -0.9494  0.5919  2.0253
  164SAPE  H16S18462   2.570   4.943   7.785 -0.1992 -0.5924 -0.6407
  164SAPE  C21718463   2.450   5.027   7.623  0.7270 -0.4892 -0.2308
  164SAPE  H17R18464   2.432   5.121   7.680  2.4173 -0.4846  0.3370
  164SAPE  H17S18465   2.367   4.956   7.642  1.9464 -0.9070  4.9224
  164SAPE  C21818466   2.459   5.055   7.473  0.7638 -0.1217  0.1809
  164SAPE  H18R18467   2.457   4.959   7.417  2.6777 -1.6755  2.5239
  164SAPE  H18S18468   2.550   5.115   7.451  0.5464  0.4196  0.7378
  164SAPE  C21918469   2.334   5.137   7.429  0.9525  0.2701 -0.1810
  164SAPE  H19R18470   2.333   5.241   7.467  0.0170 -0.1454  0.9791
  164SAPE  H19S18471   2.245   5.082   7.466  1.1826  0.6838  1.0101
  164SAPE  C22018472   2.333   5.150   7.277  0.5733 -0.1353 -0.0566
  164SAPE  H20R18473   2.238   5.204   7.256  1.2175  0.7105 -0.8846
  164SAPE  H20S18474   2.325   5.051   7.227  0.3304 -0.1024 -0.0869
  164SAPE  H20T18475   2.417   5.213   7.242 -0.2693  0.8604 -0.3543
  164SAPE   C3318476   3.050   5.544   6.969 -1.3421  0.3955  0.0550
  164SAPE   H3X18477   3.028   5.445   7.016 -0.8647  0.7937  1.1588
  164SAPE   H3Y18478   2.966   5.614   6.987 -1.2966  0.1307  1.4075
  164SAPE   C3418479   3.165   5.604   7.049  1.0642 -0.1449  0.8465
  164SAPE   H4X18480   3.178   5.707   7.010 -2.0437 -0.1805 -0.5619
  164SAPE   H4Y18481   3.255   5.541   7.031  1.8369  0.8168  1.2818
  164SAPE   C3518482   3.114   5.624   7.194 -0.5765  0.6360 -0.3060
  164SAPE   H5X18483   3.110   5.521   7.237 -2.1295  0.6304 -0.4260
  164SAPE   H5Y18484   3.014   5.671   7.193 -0.1887  1.5391 -2.5593
  164SAPE   C3618485   3.202   5.722   7.269  0.3029 -0.0807  0.2906
  164SAPE   H6X18486   3.209   5.815   7.208  1.6759 -1.8553 -2.4771
  164SAPE   H6Y18487   3.308   5.688   7.280 -0.2501 -1.7991  0.7021
  164SAPE   C3718488   3.140   5.754   7.414 -0.0153  0.6119 -0.5962
  164SAPE   H7X18489   3.032   5.725   7.416  0.7624 -2.9537  3.1840
  164SAPE   H7Y18490   3.146   5.859   7.450 -0.3771  0.5894 -0.4614
  164SAPE   C3818491   3.204   5.668   7.526  0.3238 -0.3789 -0.4218
  164SAPE   H8X18492   3.315   5.667   7.524  0.3946  1.8280 -0.1112
  164SAPE   H8Y18493   3.183   5.559   7.527  2.0332 -0.7452 -0.2053
  164SAPE   C3918494   3.190   5.732   7.670 -0.3451  0.2702 -0.2107
  164SAPE   H9X18495   3.084   5.717   7.701  0.0616 -1.1272  0.6129
  164SAPE   H9Y18496   3.224   5.837   7.663  0.8975 -0.1132 -0.1829
  164SAPE  C31018497   3.253   5.665   7.793 -0.0488  0.4413  0.1536
  164SAPE  H10X18498   3.240   5.747   7.867 -2.2914  1.8634 -1.6700
  164SAPE  H10Y18499   3.360   5.638   7.780 -0.2464 -0.5095  0.4063
  164SAPE  C31118500   3.177   5.550   7.850 -0.6632 -0.3648 -0.2225
  164SAPE  H11X18501   3.186   5.468   7.775  1.7536  0.9264 -1.4681
  164SAPE  H11Y18502   3.069   5.576   7.860 -0.8234 -0.2905 -1.8696
  164SAPE  C31218503   3.231   5.498   7.984  0.8976  0.0123  0.0765
  164SAPE  H12X18504   3.239   5.588   8.049  0.3943  0.9207 -1.0804
  164SAPE  H12Y18505   3.328   5.448   7.963  1.3373  0.2633  1.4244
  164SAPE  C31318506   3.139   5.394   8.053  0.0537  0.2347  0.0892
  164SAPE  H13X18507   3.117   5.309   7.984  1.5888 -0.4193  0.3612
  164SAPE  H13Y18508   3.042   5.446   8.072 -0.1085  0.6080 -1.5414
  164SAPE  C31418509   3.204   5.350   8.184 -0.2905 -0.5147 -0.2769
  164SAPE  H14X18510   3.228   5.445   8.237  0.2692  0.3861 -2.0491
  164SAPE  H14Y18511   3.307   5.316   8.159 -0.0236 -0.0915  0.2314
  164SAPE  C31518512   3.112   5.264   8.261 -0.0684  0.4745  0.3694
  164SAPE  H15X18513   3.078   5.185   8.191 -0.2238  0.1648  0.7896
  164SAPE  H15Y18514   3.020   5.319   8.291  0.0377  2.7439 -2.9667
  164SAPE  C31618515   3.169   5.223   8.404  0.4609 -0.1821  0.8324
  164SAPE  H16X18516   3.107   5.147   8.456 -1.6717  0.1726 -1.0334
  164SAPE  H16Y18517   3.150   5.321   8.453  0.8837  0.0802  0.4866
  164SAPE  C31718518   3.311   5.165   8.406  0.8835  0.3498  0.1872
  164SAPE  H17X18519   3.330   5.136   8.511  1.1678  0.2409  0.1059
  164SAPE  H17Y18520   3.396   5.234   8.386  1.2366  0.2938  1.4242
  164SAPE  C31818521   3.324   5.026   8.328  0.7385 -0.1978 -0.4317
  164SAPE  H18X18522   3.269   5.020   8.231 -1.4213  0.1517  0.7071
  164SAPE  H18Y18523   3.285   4.947   8.395  0.2873  1.5648  1.4922
  164SAPE  H18Z18524   3.434   5.015   8.317  0.8675 -0.3637  0.9177
  165SAPE     N18525   4.930   6.763   6.209 -0.5710  0.7312 -0.3210
  165SAPE   HN118526   4.911   6.672   6.162  1.5357 -0.1519  0.4308
  165SAPE   HN218527   4.935   6.828   6.128  1.6501  0.0011 -0.8418
  165SAPE   HN318528   5.022   6.774   6.256 -0.0090 -0.1187 -1.1828
  165SAPE   C1218529   4.823   6.789   6.314 -0.8033  0.1234  0.0992
  165SAPE  H12A18530   4.828   6.694   6.371  2.0723 -1.8728 -3.0559
  165SAPE  H12B18531   4.726   6.796   6.259 -0.7207  1.6036  0.1030
  165SAPE   C1118532   4.853   6.914   6.404 -0.3779  0.2134 -0.2616
  165SAPE  H11A18533   4.954   6.912   6.450 -0.8216 -0.5439  0.7210
  165SAPE  H11B18534   4.783   6.911   6.490  1.7604 -0.1390  1.5544
  165SAPE     P18535   4.859   7.178   6.402  0.0051 -0.1130 -0.7017
  165SAPE   O1318536   4.999   7.216   6.379  0.2629  1.5037  0.6556
  165SAPE   O1418537   4.750   7.268   6.363 -0.2249  0.6008  0.3157
  165SAPE   O1218538   4.848   7.034   6.327  0.7516  0.0594 -0.5473
  165SAPE   O1118539   4.842   7.143   6.552 -0.4471 -1.1257 -0.1572
  165SAPE    C118540   4.738   7.213   6.634 -0.0498  0.4745 -0.3562
  165SAPE    HA18541   4.638   7.206   6.585 -1.2379 -2.0043  2.1826
  165SAPE    HB18542   4.727   7.167   6.734 -2.0136  0.8532 -0.3654
  165SAPE    C218543   4.761   7.360   6.655  0.8077 -0.6681 -0.3499
  165SAPE    HS18544   4.752   7.407   6.554 -1.4856  0.7746  0.4260
  165SAPE   O2118545   4.885   7.376   6.730 -0.3621  0.4378 -0.5632
  165SAPE   C2118546   4.939   7.491   6.722 -0.0926  0.2783  0.2462
  165SAPE   O2218547   4.896   7.583   6.652 -0.3894 -0.0543  0.1988
  165SAPE   C2218548   5.065   7.499   6.822 -0.6723 -0.6877  0.0852
  165SAPE   H2R18549   5.045   7.424   6.901 -1.3600 -0.0804  0.4989
  165SAPE   H2S18550   5.148   7.459   6.759  0.8485 -0.0162  1.5802
  165SAPE    C318551   4.642   7.432   6.723  1.0569 -0.1815  0.5389
  165SAPE    HX18552   4.546   7.417   6.667  1.5218 -1.4437  0.0292
  165SAPE    HY18553   4.663   7.541   6.716 -3.5182  1.1600  3.1453
  165SAPE   O3118554   4.626   7.389   6.859 -0.4669 -0.0023 -0.1519
  165SAPE   C3118555   4.694   7.456   6.955  0.0462 -0.5088 -0.2847
  165SAPE   O3218556   4.751   7.560   6.939  0.0347  0.3226  0.2514
  165SAPE   C3218557   4.685   7.369   7.086 -0.7725  0.7296 -0.4083
  165SAPE   H2X18558   4.596   7.303   7.080  0.9456 -1.6045 -2.0226
  165SAPE   H2Y18559   4.668   7.435   7.174 -2.3334  1.6057 -1.3231
  165SAPE   C2318560   5.099   7.644   6.873 -0.9478  0.7612 -0.7148
  165SAPE   H3R18561   5.004   7.701   6.885 -0.6004  0.8893  2.0888
  165SAPE   H3S18562   5.161   7.688   6.792  0.8839 -0.0512  0.1917
  165SAPE   C2418563   5.162   7.636   7.009 -0.0356 -0.7622 -0.3823
  165SAPE   H4R18564   5.248   7.567   7.013 -0.4513 -1.2266  1.7648
  165SAPE   H4S18565   5.089   7.593   7.081  0.1398 -1.3594 -0.5550
  165SAPE   C2518566   5.205   7.773   7.062 -0.0618  0.3330 -0.6776
  165SAPE   H5R18567   5.230   7.852   6.989  1.5851  2.1597  1.6841
  165SAPE   C2618568   5.206   7.814   7.199  0.3678  0.0552  1.0191
  165SAPE   H6R18569   5.238   7.918   7.220  1.8982  0.1487 -1.3895
  165SAPE   C2718570   5.176   7.744   7.325 -0.3522  0.6100 -0.6061
  165SAPE   H7R18571   5.071   7.713   7.309  0.8021 -3.8180 -0.9227
  165SAPE   H7S18572   5.179   7.816   7.410  0.9891 -1.9703  1.6733
  165SAPE   C2818573   5.256   7.629   7.371  0.0470 -0.1247 -0.6477
  165SAPE   H8R18574   5.341   7.599   7.308  2.3995 -0.1012  2.2619
  165SAPE   C2918575   5.239   7.560   7.481 -0.7254 -0.1560 -0.4002
  165SAPE   H9R18576   5.312   7.478   7.491 -1.4930 -0.7654  0.4240
  165SAPE  C21018577   5.148   7.583   7.589  0.2296 -0.2869 -0.4703
  165SAPE  H10R18578   5.141   7.482   7.635 -1.4958  0.1281  0.2935
  165SAPE  H10S18579   5.044   7.615   7.567 -0.8989 -2.6481  1.0334
  165SAPE  C21118580   5.209   7.664   7.698  0.6145  0.6111  0.0015
  165SAPE  H11R18581   5.247   7.758   7.656  1.0357  0.2785 -0.3684
  165SAPE  C21218582   5.240   7.637   7.824  0.1362 -0.3819  0.4598
  165SAPE  H12R18583   5.271   7.729   7.877  0.4611 -0.2957  0.1216
  165SAPE  C21318584   5.232   7.508   7.910 -0.1528  0.0721 -0.4770
  165SAPE  H13R18585   5.174   7.420   7.873 -0.3606 -0.8750  1.9328
  165SAPE  H13S18586   5.168   7.543   7.993  0.5706 -0.5530  0.3685
  165SAPE  C21418587   5.361   7.449   7.957  0.1519  0.1458  0.2508
  165SAPE  H14R18588   5.424   7.401   7.881 -0.4013  3.2813 -2.3841
  165SAPE  C21518589   5.404   7.427   8.084  0.6543  1.0685 -1.0051
  165SAPE  H15R18590   5.506   7.389   8.099  0.8136  0.6883 -2.8471
  165SAPE  C21618591   5.323   7.466   8.203 -0.1197 -0.5171 -0.3135
  165SAPE  H16R18592   5.365   7.413   8.290  0.8278 -0.7589 -0.8931
  165SAPE  H16S18593   5.216   7.442   8.192 -0.3623 -0.1824  1.1668
  165SAPE  C21718594   5.339   7.616   8.240  0.1237  0.0042  0.0069
  165SAPE  H17R18595   5.242   7.648   8.285 -0.4003 -1.3892 -0.0783
  165SAPE  H17S18596   5.339   7.671   8.144 -0.0184  0.4825  0.2762
  165SAPE  C21818597   5.460   7.655   8.327 -0.0201 -0.2444 -0.2567
  165SAPE  H18R18598   5.546   7.607   8.275  0.5968  1.2331 -0.6515
  165SAPE  H18S18599   5.460   7.600   8.424  1.0074 -0.7421 -0.5139
  165SAPE  C21918600   5.494   7.802   8.347  0.9852  0.1069 -0.2174
  165SAPE  H19R18601   5.501   7.851   8.247  0.1934  0.1076 -0.2782
  165SAPE  H19S18602   5.597   7.806   8.387  0.8835 -1.2893  0.2446
  165SAPE  C22018603   5.381   7.863   8.437 -0.4292  0.7026 -0.1904
  165SAPE  H20R18604   5.301   7.791   8.465 -0.3617  0.9947  0.7986
  165SAPE  H20S18605   5.331   7.942   8.377 -0.9544 -0.6521 -1.5962
  165SAPE  H20T18606   5.422   7.915   8.526  0.8280  0.9113 -0.8766
  165SAPE   C3318607   4.813   7.285   7.106 -0.4866  0.4034 -0.4128
  165SAPE   H3X18608   4.859   7.250   7.011  2.6126 -0.8441  1.3965
  165SAPE   H3Y18609   4.797   7.201   7.177  1.2477  1.3418  1.1682
  165SAPE   C3418610   4.940   7.352   7.161  0.2308  0.2424 -0.0447
  165SAPE   H4X18611   4.976   7.437   7.098  2.8300  0.5574  1.6991
  165SAPE   H4Y18612   5.017   7.272   7.157  0.0306  0.0671 -0.3794
  165SAPE   C3518613   4.908   7.413   7.300  0.3486 -0.1804  1.5756
  165SAPE   H5X18614   4.833   7.494   7.293 -0.4648 -0.8183  2.6322
  165SAPE   H5Y18615   5.002   7.457   7.339  1.4762 -1.2801  0.2293
  165SAPE   C3618616   4.852   7.310   7.397 -0.1973  0.1234 -0.2120
  165SAPE   H6X18617   4.907   7.213   7.393  0.0148  0.2838 -2.2356
  165SAPE   H6Y18618   4.749   7.300   7.359 -0.9036  4.4727  0.0986
  165SAPE   C3718619   4.861   7.354   7.542 -0.2622 -0.0515  0.7441
  165SAPE   H7X18620   4.837   7.462   7.546  1.4731  0.3835  0.2105
  165SAPE   H7Y18621   4.963   7.354   7.584 -0.2419 -0.5668  0.7009
  165SAPE   C3818622   4.771   7.279   7.638  0.5696  0.0288  0.2902
  165SAPE   H8X18623   4.786   7.170   7.625 -3.8353 -0.6366 -0.8599
  165SAPE   H8Y18624   4.667   7.310   7.614  1.0903  0.5076 -1.4679
  165SAPE   C3918625   4.800   7.296   7.790  0.2291 -0.3260 -0.0087
  165SAPE   H9X18626   4.770   7.403   7.799  0.3125 -0.1921 -1.1834
  165SAPE   H9Y18627   4.906   7.279   7.819 -0.3853 -0.5932  2.2922
  165SAPE  C31018628   4.702   7.214   7.878  0.5874 -0.3391 -0.0939
  165SAPE  H10X18629   4.721   7.105   7.867  1.2659 -0.2856  0.4627
  165SAPE  H10Y18630   4.603   7.233   7.832  0.4646 -1.2160 -0.2060
  165SAPE  C31118631   4.686   7.255   8.026 -0.4063 -0.4483 -0.4511
  165SAPE  H11X18632   4.632   7.175   8.081 -2.4459 -0.4865 -2.3934
  165SAPE  H11Y18633   4.624   7.348   8.023 -0.7596 -0.7184 -1.7747
  165SAPE  C31218634   4.817   7.289   8.100 -0.7072  0.6433  0.2677
  165SAPE  H12X18635   4.878   7.363   8.043  1.1572 -1.9047 -1.2372
  165SAPE  H12Y18636   4.879   7.200   8.124 -1.4182  0.2956  0.8695
  165SAPE  C31318637   4.779   7.353   8.238 -0.6170  0.2205 -0.2522
  165SAPE  H13X18638   4.727   7.277   8.300 -0.6205  0.6362  0.2644
  165SAPE  H13Y18639   4.707   7.432   8.208 -1.3565 -0.9038 -1.5556
  165SAPE  C31418640   4.900   7.421   8.304  0.9775  0.6998 -0.1033
  165SAPE  H14X18641   4.971   7.478   8.242  3.6621 -2.4978 -0.2191
  165SAPE  H14Y18642   4.965   7.340   8.343 -1.6501 -2.3770 -1.6275
  165SAPE  C31518643   4.860   7.519   8.408  0.3128 -0.6842 -0.0273
  165SAPE  H15X18644   4.810   7.467   8.492 -0.5332  0.0073 -0.0906
  165SAPE  H15Y18645   4.783   7.591   8.372  1.2052  1.0316  1.3881
  165SAPE  C31618646   4.976   7.604   8.462  0.1470  0.4328 -0.5844
  165SAPE  H16X18647   5.012   7.665   8.375 -0.0014  1.4860  0.0729
  165SAPE  H16Y18648   5.055   7.535   8.496 -1.1493 -0.8525 -0.0636
  165SAPE  C31718649   4.922   7.714   8.556  0.0715  0.1148 -0.6061
  165SAPE  H17X18650   4.862   7.665   8.635  1.2655 -2.6417 -1.2915
  165SAPE  H17Y18651   4.851   7.774   8.496 -0.1363  1.6021  1.0368
  165SAPE  C31818652   5.037   7.798   8.621  0.0235 -0.5115  0.2838
  165SAPE  H18X18653   4.982   7.876   8.676  0.7516  0.9279 -0.9497
  165SAPE  H18Y18654   5.099   7.844   8.541 -1.0002 -0.0492 -0.2611
  165SAPE  H18Z18655   5.084   7.746   8.707 -1.2448 -0.0252  1.2911
  166SAPE     N18656   5.643   5.389   5.704 -0.6677  0.5571 -0.7334
  166SAPE   HN118657   5.673   5.396   5.803  0.9617 -1.3374 -1.0334
  166SAPE   HN218658   5.668   5.290   5.683  1.5229  0.8719  0.1310
  166SAPE   HN318659   5.703   5.448   5.644  0.4706 -1.6244 -1.8712
  166SAPE   C1218660   5.499   5.413   5.686  1.0249  0.1412  0.0076
  166SAPE  H12A18661   5.466   5.370   5.589  1.8417  0.4605 -0.4262
  166SAPE  H12B18662   5.478   5.522   5.683 -1.2763 -0.2139  1.0078
  166SAPE   C1118663   5.411   5.354   5.796  0.7911  0.4476 -0.3653
  166SAPE  H11A18664   5.305   5.384   5.777  0.9967  1.9205  0.6199
  166SAPE  H11B18665   5.432   5.407   5.891 -0.4731  2.5038 -1.1552
  166SAPE     P18666   5.340   5.127   5.903  0.0012 -0.0492 -0.2581
  166SAPE   O1318667   5.286   5.007   5.841  0.4167  0.1535 -0.1963
  166SAPE   O1418668   5.415   5.114   6.032 -0.0907  0.1470  0.5744
  166SAPE   O1218669   5.426   5.207   5.802 -0.2055  0.7360 -0.3278
  166SAPE   O1118670   5.215   5.211   5.942  0.2948  0.1478 -0.4595
  166SAPE    C118671   5.098   5.159   6.013  0.4477 -0.7617  0.3960
  166SAPE    HA18672   5.003   5.182   5.959  0.5383 -2.7099 -0.6722
  166SAPE    HB18673   5.106   5.049   6.005  2.3794 -0.5261 -2.6156
  166SAPE    C218674   5.086   5.219   6.159  0.1068 -0.0407 -0.7122
  166SAPE    HS18675   5.179   5.210   6.218 -1.7543  2.8772  3.1343
  166SAPE   O2118676   4.970   5.151   6.219  0.0077  0.2618  0.1558
  166SAPE   C2118677   4.984   5.031   6.269  0.4500 -0.0116 -0.3430
  166SAPE   O2218678   5.089   4.969   6.280  0.7613 -0.4647  0.3204
  166SAPE   C2218679   4.847   4.982   6.316 -1.1142 -0.0416  0.1385
  166SAPE   H2R18680   4.779   4.986   6.228 -2.2404  0.6353  1.0028
  166SAPE   H2S18681   4.853   4.871   6.320  0.3917 -0.0669 -1.5738
  166SAPE    C318682   5.059   5.372   6.152  0.5167 -0.4986 -0.3952
  166SAPE    HX18683   4.961   5.385   6.102 -0.6348 -2.4015  1.2178
  166SAPE    HY18684   5.150   5.408   6.098  0.6519 -0.7444 -0.3346
  166SAPE   O3118685   5.071   5.420   6.290 -0.1524  0.6464 -0.0678
  166SAPE   C3118686   4.962   5.423   6.367  0.3119  0.3204  0.0313
  166SAPE   O3218687   4.854   5.392   6.330  0.4249  0.8234  0.5663
  166SAPE   C3218688   5.005   5.470   6.506 -0.0985  0.2660 -0.5135
  166SAPE   H2X18689   5.083   5.549   6.503  2.8682 -2.3263  2.2338
  166SAPE   H2Y18690   5.060   5.385   6.551 -3.5775 -0.7595  2.2341
  166SAPE   C2318691   4.786   5.049   6.432  0.3507  0.3680  0.1405
  166SAPE   H3R18692   4.676   5.037   6.435  0.3809  0.0551  0.0903
  166SAPE   H3S18693   4.806   5.156   6.413  1.1620  0.4482  1.3723
  166SAPE   C2418694   4.841   5.011   6.568 -0.2400 -0.4819  0.3789
  166SAPE   H4R18695   4.945   4.973   6.565 -0.4355 -1.0652  0.7411
  166SAPE   H4S18696   4.785   4.918   6.590 -2.5477  1.0454  1.3227
  166SAPE   C2518697   4.809   5.115   6.678  0.3319 -0.3934 -0.5954
  166SAPE   H5R18698   4.862   5.211   6.689 -0.6823  0.4323 -2.4261
  166SAPE   C2618699   4.713   5.104   6.776  0.3972 -0.9858  0.2004
  166SAPE   H6R18700   4.700   5.193   6.840  1.1029 -0.4042 -0.4519
  166SAPE   C2718701   4.619   4.986   6.805 -0.1767  0.0461  1.0894
  166SAPE   H7R18702   4.666   4.936   6.892 -1.4245 -0.2900  1.5916
  166SAPE   H7S18703   4.616   4.916   6.718 -0.0751  0.7351  0.5187
  166SAPE   C2818704   4.470   5.013   6.833  0.0124  0.4104  0.4710
  166SAPE   H8R18705   4.411   4.986   6.744  0.3346 -1.4486  0.7831
  166SAPE   C2918706   4.419   5.056   6.944  0.4736  0.6630 -0.4411
  166SAPE   H9R18707   4.310   5.070   6.950  0.5952  1.5974 -0.2877
  166SAPE  C21018708   4.493   5.098   7.066  0.0123 -0.7837 -0.0884
  166SAPE  H10R18709   4.483   5.203   7.099  2.0775 -1.3998  2.9045
  166SAPE  H10S18710   4.600   5.079   7.047 -0.2050 -2.5314  0.2285
  166SAPE  C21118711   4.466   5.024   7.193 -0.7247  0.0811 -0.5159
  166SAPE  H11R18712   4.394   4.942   7.180 -1.3489  0.6447 -0.6896
  166SAPE  C21218713   4.509   5.043   7.315 -0.2742 -0.0634 -0.4043
  166SAPE  H12R18714   4.467   4.973   7.389  1.5619  0.6553  1.4015
  166SAPE  C21318715   4.605   5.152   7.368  0.1040 -0.5710 -0.2901
  166SAPE  H13R18716   4.540   5.225   7.422  1.6760 -0.0012  0.8819
  166SAPE  H13S18717   4.647   5.215   7.286 -0.2666 -0.2344 -0.2232
  166SAPE  C21418718   4.724   5.102   7.455  0.0891 -0.2799 -0.2759
  166SAPE  H14R18719   4.795   5.031   7.409 -1.1038 -3.5169  2.5229
  166SAPE  C21518720   4.769   5.143   7.577  0.2446  0.3426  0.7045
  166SAPE  H15R18721   4.857   5.088   7.613 -0.3068 -1.1067 -0.0822
  166SAPE  C21618722   4.718   5.248   7.669  0.3237  0.2774 -0.0995
  166SAPE  H16R18723   4.649   5.311   7.609  1.5567  0.7233 -1.0987
  166SAPE  H16S18724   4.807   5.304   7.705  1.6068 -1.9016  0.2917
  166SAPE  C21718725   4.648   5.211   7.799 -0.0753  0.1081  0.2825
  166SAPE  H17R18726   4.579   5.124   7.798  1.5316 -1.2245  0.0960
  166SAPE  H17S18727   4.579   5.294   7.821  2.0937  2.2052 -0.3690
  166SAPE  C21818728   4.748   5.193   7.916  0.5772  0.0164  0.1943
  166SAPE  H18R18729   4.823   5.275   7.903  2.1114 -1.4492 -0.7124
  166SAPE  H18S18730   4.798   5.095   7.902  0.6868  0.2666 -1.4840
  166SAPE  C21918731   4.687   5.201   8.054 -1.2165 -0.0699  0.0699
  166SAPE  H19R18732   4.611   5.124   8.080  0.6337 -1.4834  1.5839
  166SAPE  H19S18733   4.642   5.303   8.059 -0.0643  0.4836 -0.5352
  166SAPE  C22018734   4.786   5.181   8.165  1.1032 -0.5395  0.4215
  166SAPE  H20R18735   4.839   5.089   8.132 -0.0447 -0.5140 -1.6146
  166SAPE  H20S18736   4.743   5.141   8.260 -1.3779 -2.4008 -1.3529
  166SAPE  H20T18737   4.859   5.262   8.186  1.5123 -1.2825  2.0775
  166SAPE   C3318738   4.891   5.507   6.605  0.0551 -0.1389  0.4940
  166SAPE   H3X18739   4.824   5.420   6.618 -0.7525  0.6968  2.2974
  166SAPE   H3Y18740   4.835   5.588   6.553  0.1744 -1.1495 -1.3010
  166SAPE   C3418741   4.947   5.563   6.736 -0.5959  0.3600  0.7197
  166SAPE   H4X18742   4.993   5.658   6.703 -0.3936  0.9677  2.6637
  166SAPE   H4Y18743   5.022   5.490   6.774  0.2174  1.1571  0.6770
  166SAPE   C3518744   4.836   5.568   6.840  0.2144  0.7049 -0.4313
  166SAPE   H5X18745   4.825   5.467   6.884  1.8471  0.6951  0.0205
  166SAPE   H5Y18746   4.743   5.596   6.787 -1.8344 -1.0366  2.0503
  166SAPE   C3618747   4.869   5.673   6.950 -0.0296  0.0706  0.0312
  166SAPE   H6X18748   4.886   5.773   6.904  2.7496 -0.6427 -0.7145
  166SAPE   H6Y18749   4.962   5.645   7.004 -1.0840  1.6128  2.8207
  166SAPE   C3718750   4.772   5.665   7.072  0.3412  0.3142 -0.2275
  166SAPE   H7X18751   4.765   5.564   7.117 -0.4791  0.6797  0.4923
  166SAPE   H7Y18752   4.670   5.679   7.030 -0.8426 -1.3382  1.8733
  166SAPE   C3818753   4.812   5.780   7.175  0.3956 -0.5917  0.0945
  166SAPE   H8X18754   4.816   5.877   7.121  1.0355 -0.4542  0.3732
  166SAPE   H8Y18755   4.918   5.750   7.195  0.2374 -3.7813 -2.9614
  166SAPE   C3918756   4.728   5.791   7.300 -0.4558 -1.1082 -0.8208
  166SAPE   H9X18757   4.621   5.765   7.288 -0.7317  0.1208 -1.1172
  166SAPE   H9Y18758   4.733   5.895   7.337  0.9312 -0.7338 -1.9541
  166SAPE  C31018759   4.786   5.706   7.413 -0.4951  0.5661 -0.2950
  166SAPE  H10X18760   4.896   5.717   7.422 -0.6316  0.9257  1.2266
  166SAPE  H10Y18761   4.772   5.598   7.393 -0.6666  0.3579  0.8890
  166SAPE  C31118762   4.737   5.749   7.551 -0.5617 -0.1269  0.3509
  166SAPE  H11X18763   4.627   5.754   7.542 -0.4593  0.3445 -0.8844
  166SAPE  H11Y18764   4.772   5.851   7.577 -2.2445  0.4499  0.4566
  166SAPE  C31218765   4.766   5.649   7.668 -0.6143  0.5912 -0.3779
  166SAPE  H12X18766   4.876   5.639   7.678 -0.7355  0.2141  0.7943
  166SAPE  H12Y18767   4.705   5.559   7.645 -0.8941  1.1803 -2.0587
  166SAPE  C31318768   4.706   5.699   7.803 -0.3583 -0.2226 -0.2714
  166SAPE  H13X18769   4.595   5.707   7.794 -0.5623 -1.5090  0.8234
  166SAPE  H13Y18770   4.742   5.801   7.831 -0.6255 -0.5751  1.4657
  166SAPE  C31418771   4.734   5.609   7.921  0.0956 -0.4581 -0.1356
  166SAPE  H14X18772   4.835   5.562   7.916  0.0530 -0.5807  0.0988
  166SAPE  H14Y18773   4.658   5.528   7.925 -0.0781 -0.2708  2.9772
  166SAPE  C31518774   4.731   5.693   8.056 -0.3054  0.2195 -0.3614
  166SAPE  H15X18775   4.635   5.748   8.064 -0.9435 -0.9644  0.6860
  166SAPE  H15Y18776   4.818   5.762   8.056  0.3128 -0.3343  3.4470
  166SAPE  C31618777   4.758   5.600   8.173 -0.0672 -0.0406  0.1739
  166SAPE  H16X18778   4.833   5.528   8.134 -1.7327 -2.0375  0.5047
  166SAPE  H16Y18779   4.668   5.542   8.201 -0.3500  0.2113 -0.2087
  166SAPE  C31718780   4.803   5.674   8.299  0.8429 -0.9811  0.5345
  166SAPE  H17X18781   4.715   5.726   8.342  0.6324 -1.5313  0.7822
  166SAPE  H17Y18782   4.880   5.749   8.272  2.7549 -1.5610  3.8948
  166SAPE  C31818783   4.865   5.582   8.401 -0.0774  0.1294 -0.0171
  166SAPE  H18X18784   4.975   5.588   8.383  0.3368  3.6538  2.6733
  166SAPE  H18Y18785   4.827   5.478   8.391 -0.6344  0.2603  0.6559
  166SAPE  H18Z18786   4.839   5.617   8.503 -0.2091  1.6055 -0.5371
  167SAPE     N18787   5.933   2.067   6.244 -0.0098 -0.0893 -0.1853
  167SAPE   HN118788   5.999   1.990   6.222  2.4345  1.3576  1.6064
  167SAPE   HN218789   5.859   2.084   6.173 -0.8521 -2.4412  0.0373
  167SAPE   HN318790   6.005   2.137   6.271  0.5559 -1.2898  1.6465
  167SAPE   C1218791   5.869   2.042   6.378 -0.5169 -0.1040  0.3171
  167SAPE  H12A18792   5.923   2.111   6.445  0.1101 -0.0842 -0.1954
  167SAPE  H12B18793   5.893   1.937   6.406 -1.0090  0.0496  1.3338
  167SAPE   C1118794   5.721   2.059   6.367  0.5138 -0.5647 -0.0753
  167SAPE  H11A18795   5.710   2.169   6.380 -1.1613 -0.8370  1.0957
  167SAPE  H11B18796   5.680   2.003   6.454  3.2840 -1.0119  1.0323
  167SAPE     P18797   5.651   1.871   6.184 -0.2153 -0.0947 -0.0918
  167SAPE   O1318798   5.514   1.857   6.119 -0.3039 -0.6625  0.6457
  167SAPE   O1418799   5.774   1.829   6.107 -0.1028  1.0870  0.2252
  167SAPE   O1218800   5.672   2.022   6.237  0.1253 -0.1202  0.3799
  167SAPE   O1118801   5.656   1.804   6.325 -0.1598  0.4775 -0.4285
  167SAPE    C118802   5.750   1.694   6.340  0.2575  0.4723  0.1759
  167SAPE    HA18803   5.710   1.600   6.297  0.1043  1.3770 -1.7337
  167SAPE    HB18804   5.851   1.718   6.300 -0.2272 -0.8814 -2.0039
  167SAPE    C218805   5.786   1.648   6.488  0.2316 -0.1564  0.3556
  167SAPE    HS18806   5.689   1.618   6.533 -0.8773  0.0112 -1.7986
  167SAPE   O2118807   5.856   1.756   6.558 -0.3993 -0.5511  0.2493
  167SAPE   C2118808   5.818   1.789   6.675  0.9011  0.4046  0.6424
  167SAPE   O2218809   5.737   1.735   6.748 -0.3266 -0.4618  0.1050
  167SAPE   C2218810   5.887   1.922   6.715  0.4087  0.0303 -0.1059
  167SAPE   H2R18811   5.993   1.905   6.686  0.3472  0.6463 -0.7160
  167SAPE   H2S18812   5.856   2.006   6.649  0.1808  0.1125  0.1026
  167SAPE    C318813   5.872   1.525   6.496 -0.1437  0.1696  0.3684
  167SAPE    HX18814   5.974   1.536   6.452 -0.5167 -0.7554 -0.7825
  167SAPE    HY18815   5.827   1.448   6.429  0.6425  1.2121 -1.4421
  167SAPE   O3118816   5.894   1.482   6.633  0.6470 -0.0988 -0.3055
  167SAPE   C3118817   5.794   1.419   6.691 -0.8399 -0.1165  0.0475
  167SAPE   O3218818   5.691   1.381   6.638  0.2786 -0.0716  0.3328
  167SAPE   C3218819   5.829   1.391   6.842 -0.5639 -0.2664  0.5025
  167SAPE   H2X18820   5.932   1.351   6.851 -1.0760 -1.4331  1.5455
  167SAPE   H2Y18821   5.758   1.309   6.864 -0.5699 -0.8095 -1.4286
  167SAPE   C2318822   5.877   1.963   6.867  0.0175  0.2430 -0.4199
  167SAPE   H3R18823   5.876   1.871   6.929 -1.1689  1.0022  0.7370
  167SAPE   H3S18824   5.773   2.000   6.880  0.9089  2.8215  0.0914
  167SAPE   C2418825   5.992   2.051   6.914  0.4697  0.2126 -0.4282
  167SAPE   H4R18826   5.960   2.090   7.013 -0.7599  0.4226 -0.8859
  167SAPE   H4S18827   5.977   2.139   6.848 -0.6635  1.3121  1.1997
  167SAPE   C2518828   6.131   1.995   6.908 -0.0476 -0.3800  0.2513
  167SAPE   H5R18829   6.170   1.984   6.806  1.4695 -3.1930  1.0383
  167SAPE   C2618830   6.205   1.947   7.010 -0.1783  0.4523 -0.1699
  167SAPE   H6R18831   6.302   1.904   6.983 -0.5401 -0.3780 -0.1945
  167SAPE   C2718832   6.165   1.942   7.156 -0.2506  0.4179 -0.2136
  167SAPE   H7R18833   6.202   1.850   7.205 -0.4131  1.0720  1.1953
  167SAPE   H7S18834   6.056   1.923   7.163 -0.0930  0.0909  1.9855
  167SAPE   C2818835   6.206   2.061   7.245 -0.7010  0.4468 -0.5723
  167SAPE   H8R18836   6.265   2.137   7.192 -0.5628  0.8194  0.1079
  167SAPE   C2918837   6.170   2.075   7.377  0.3512 -0.0382 -0.2070
  167SAPE   H9R18838   6.207   2.156   7.441 -0.3942  0.7452 -0.7462
  167SAPE  C21018839   6.075   1.980   7.455 -0.8882 -0.3293 -0.2657
  167SAPE  H10R18840   6.124   1.930   7.541 -1.9037 -2.6223 -0.9328
  167SAPE  H10S18841   6.060   1.885   7.398  1.9544 -0.3484 -1.1189
  167SAPE  C21118842   5.944   2.053   7.466  0.0193 -0.1075  0.1306
  167SAPE  H11R18843   5.902   2.085   7.370 -1.2574  1.5899  1.2125
  167SAPE  C21218844   5.902   2.106   7.581 -0.6118  0.0431 -0.5421
  167SAPE  H12R18845   5.805   2.157   7.580  0.1240  1.4914 -0.5765
  167SAPE  C21318846   5.967   2.079   7.717  0.1584  0.1596  0.4084
  167SAPE  H13R18847   6.070   2.042   7.702 -0.1944 -0.4209 -0.7325
  167SAPE  H13S18848   5.915   1.999   7.774 -2.1698  1.3340  0.0740
  167SAPE  C21418849   5.961   2.196   7.810 -0.2171  0.7859 -0.1154
  167SAPE  H14R18850   5.902   2.281   7.773 -2.8098 -1.3791 -1.3156
  167SAPE  C21518851   6.016   2.201   7.933 -0.1416 -0.0101  0.3910
  167SAPE  H15R18852   6.004   2.291   7.995  0.9105 -0.6435  1.5643
  167SAPE  C21618853   6.094   2.094   8.008  0.4227  0.0026 -0.0345
  167SAPE  H16R18854   6.183   2.154   8.040  1.7593 -0.3513 -2.7813
  167SAPE  H16S18855   6.124   2.007   7.946  1.2267  1.7961 -2.3332
  167SAPE  C21718856   6.009   2.056   8.130  0.1183 -0.1985  0.0923
  167SAPE  H17R18857   5.927   1.994   8.089  1.3795 -0.7608 -1.6721
  167SAPE  H17S18858   5.958   2.145   8.173  2.5150  0.8098  1.0202
  167SAPE  C21818859   6.084   1.979   8.236  0.4193 -0.3179 -0.5427
  167SAPE  H18R18860   6.191   2.011   8.237  0.1944  0.4482  0.2444
  167SAPE  H18S18861   6.083   1.871   8.210 -1.7056 -1.2733  2.8536
  167SAPE  C21918862   6.019   1.995   8.374 -0.2656  0.5814  0.7780
  167SAPE  H19R18863   5.912   1.972   8.357 -0.4144  1.8682 -0.2259
  167SAPE  H19S18864   6.027   2.102   8.402 -1.2207  0.3079  2.1905
  167SAPE  C22018865   6.096   1.908   8.480 -0.2577 -0.6632 -0.4352
  167SAPE  H20R18866   6.076   1.800   8.466 -0.6699 -0.4675 -1.4719
  167SAPE  H20S18867   6.056   1.939   8.578  1.7706  1.8559 -0.2825
  167SAPE  H20T18868   6.204   1.932   8.492 -0.4634  0.9933 -1.5470
  167SAPE   C3318869   5.813   1.505   6.942  0.5650 -0.2794  0.1321
  167SAPE   H3X18870   5.710   1.548   6.937  1.2954  1.5183 -0.6984
  167SAPE   H3Y18871   5.876   1.591   6.910 -0.6482  0.2843 -0.8307
  167SAPE   C3418872   5.858   1.470   7.087 -0.0160 -0.7144  0.5180
  167SAPE   H4X18873   5.959   1.424   7.071  0.1502 -0.3847  0.6123
  167SAPE   H4Y18874   5.794   1.388   7.125 -1.2535 -0.4645 -0.9342
  167SAPE   C3518875   5.855   1.604   7.173 -0.5016  0.0960  0.3010
  167SAPE   H5X18876   5.751   1.644   7.166  0.1540  1.9159  0.3906
  167SAPE   H5Y18877   5.927   1.680   7.135 -0.1953 -0.1392  0.4155
  167SAPE   C3618878   5.920   1.582   7.313 -0.3910 -0.1767  0.1442
  167SAPE   H6X18879   5.929   1.679   7.366 -3.0250 -0.6849  1.6942
  167SAPE   H6Y18880   6.017   1.529   7.305 -1.2290 -1.8357  0.4839
  167SAPE   C3718881   5.821   1.508   7.401  0.0590 -0.0749  0.0931
  167SAPE   H7X18882   5.789   1.411   7.357 -2.2914  1.3946 -1.6658
  167SAPE   H7Y18883   5.723   1.560   7.392 -0.3295 -0.6222  0.9722
  167SAPE   C3818884   5.872   1.507   7.544  0.3651  0.4770 -0.2516
  167SAPE   H8X18885   5.863   1.613   7.576  0.6378  1.0168 -1.8864
  167SAPE   H8Y18886   5.979   1.476   7.549  0.0335 -0.5198  1.3138
  167SAPE   C3918887   5.799   1.411   7.635 -0.3959  0.2743 -1.4714
  167SAPE   H9X18888   5.821   1.304   7.614 -2.3739 -1.2164  2.8459
  167SAPE   H9Y18889   5.689   1.418   7.621 -0.8597 -2.3862 -0.0030
  167SAPE  C31018890   5.847   1.424   7.781 -0.5714 -0.4986  0.3730
  167SAPE  H10X18891   5.955   1.400   7.791 -0.0754  1.9423  1.3344
  167SAPE  H10Y18892   5.788   1.341   7.827 -2.6129  0.3199 -0.6405
  167SAPE  C31118893   5.819   1.553   7.857 -0.3020 -0.3556 -0.0908
  167SAPE  H11X18894   5.718   1.592   7.835 -1.0516 -1.8011  0.6744
  167SAPE  H11Y18895   5.902   1.621   7.826 -0.3118 -0.2876  0.0302
  167SAPE  C31218896   5.835   1.536   8.009 -0.4393  0.6719 -0.4011
  167SAPE  H12X18897   5.759   1.459   8.034 -0.0770  0.4704  0.0776
  167SAPE  H12Y18898   5.822   1.621   8.079 -1.9478 -0.9896  1.4594
  167SAPE  C31318899   5.969   1.471   8.048  0.1759  0.4456 -0.6104
  167SAPE  H13X18900   6.046   1.530   7.994  1.2136 -2.8278 -2.9911
  167SAPE  H13Y18901   5.979   1.367   8.012  2.0455  0.8233 -1.2968
  167SAPE  C31418902   5.990   1.478   8.206 -0.1463 -1.2525  0.0097
  167SAPE  H14X18903   5.978   1.584   8.234 -0.8820 -1.2086 -0.4425
  167SAPE  H14Y18904   6.097   1.458   8.227 -0.1044 -0.5433  0.5093
  167SAPE  C31518905   5.901   1.389   8.284  0.7061  0.1490 -0.5624
  167SAPE  H15X18906   5.798   1.393   8.243  0.6356 -0.9739 -0.5257
  167SAPE  H15Y18907   5.901   1.423   8.390  0.2062  0.9109 -0.8015
  167SAPE  C31618908   5.950   1.240   8.278  1.5240 -0.7714  0.6650
  167SAPE  H16X18909   5.949   1.200   8.174  0.9393 -1.1888  0.8230
  167SAPE  H16Y18910   5.864   1.184   8.321  1.8613 -0.0422  2.3743
  167SAPE  C31718911   6.089   1.216   8.338 -0.0453 -0.0502  0.5185
  167SAPE  H17X18912   6.162   1.284   8.289  0.0338  0.2865  1.1028
  167SAPE  H17Y18913   6.113   1.109   8.316  0.8984  0.1507  0.5541
  167SAPE  C31818914   6.100   1.244   8.484  0.3458  0.2987 -0.5553
  167SAPE  H18X18915   6.018   1.193   8.539 -1.6567  1.7683 -2.0207
  167SAPE  H18Y18916   6.071   1.349   8.503 -0.1781  0.0251  0.1954
  167SAPE  H18Z18917   6.199   1.214   8.524  0.1673  0.7572  0.2571
  168SAPE     N18918   0.291   6.689   6.296  0.1670  0.3825 -0.5458
  168SAPE   HN118919   0.289   6.624   6.215 -0.5728 -0.3630  0.0496
  168SAPE   HN218920   0.196   6.731   6.301 -0.6852 -1.5550  2.4919
  168SAPE   HN318921   0.361   6.766   6.290  1.1110 -0.3667  0.5138
  168SAPE   C1218922   0.331   6.605   6.417 -0.8106 -1.1252  0.3711
  168SAPE  H12A18923   0.377   6.676   6.489 -1.1246  0.2796 -0.7584
  168SAPE  H12B18924   0.405   6.530   6.383  1.8888  0.5582  2.1898
  168SAPE   C1118925   0.212   6.533   6.474  0.4391 -0.9218  0.5157
  168SAPE  H11A18926   0.130   6.609   6.475  1.3738  0.1564 -0.9338
  168SAPE  H11B18927   0.232   6.499   6.578 -0.2124 -0.5258  0.7793
  168SAPE     P18928   0.045   6.421   6.308 -0.1834  0.1708  0.1603
  168SAPE   O1318929   0.053   6.540   6.220 -0.3438  1.1021 -0.0588
  168SAPE   O1418930   0.023   6.298   6.240 -0.7406 -0.1685 -0.4452
  168SAPE   O1218931   0.175   6.414   6.397 -0.0451  0.1862 -0.8286
  168SAPE   O1118932  -0.074   6.440   6.406  0.1293 -0.7515 -0.1682
  168SAPE    C118933  -0.099   6.362   6.522  0.4094  0.1894 -0.6160
  168SAPE    HA18934  -0.132   6.259   6.497 -1.3479  0.4568  0.4195
  168SAPE    HB18935  -0.014   6.368   6.593  0.3730 -0.6167 -0.4877
  168SAPE    C218936  -0.234   6.423   6.588 -0.0776  0.5267  0.4164
  168SAPE    HS18937  -0.302   6.445   6.502 -0.4390 -2.1712 -0.0890
  168SAPE   O2118938  -0.212   6.549   6.660 -0.0955  0.2043  0.1710
  168SAPE   C2118939  -0.317   6.630   6.662  0.1660 -0.2297 -0.5579
  168SAPE   O2218940  -0.423   6.619   6.606  0.0570  0.0048 -0.2698
  168SAPE   C2218941  -0.292   6.736   6.774 -0.0952 -0.0812 -0.7168
  168SAPE   H2R18942  -0.199   6.717   6.831  0.8920 -0.1162 -2.2759
  168SAPE   H2S18943  -0.260   6.828   6.721  0.7779  0.8936  1.3842
  168SAPE    C318944  -0.313   6.315   6.673 -0.6688 -0.0330  0.1916
  168SAPE    HX18945  -0.298   6.218   6.621 -1.1053 -0.1118  0.2022
  168SAPE    HY18946  -0.421   6.342   6.671 -0.3131  1.4693 -0.2831
  168SAPE   O3118947  -0.271   6.315   6.812 -0.2914  0.2322 -0.2658
  168SAPE   C3118948  -0.169   6.231   6.851 -0.1348  0.2583 -0.1000
  168SAPE   O3218949  -0.092   6.166   6.780 -0.0331  0.2934  0.1389
  168SAPE   C3218950  -0.171   6.231   7.005  0.2132 -0.0304  0.1154
  168SAPE   H2X18951  -0.242   6.309   7.041  0.9268  0.5677  0.2302
  168SAPE   H2Y18952  -0.069   6.259   7.037 -0.4745  0.2388  2.2462
  168SAPE   C2318953  -0.411   6.758   6.870 -0.2273 -0.4447 -0.2302
  168SAPE   H3R18954  -0.499   6.790   6.811  0.5424 -1.9057 -2.2717
  168SAPE   H3S18955  -0.384   6.826   6.954 -1.6232 -1.9856  1.5683
  168SAPE   C2418956  -0.456   6.620   6.935  0.8715  0.6445  0.4419
  168SAPE   H4R18957  -0.488   6.546   6.858  1.5622  0.0347  0.7389
  168SAPE   H4S18958  -0.545   6.630   7.002 -0.6237 -3.4047 -0.6486
  168SAPE   C2518959  -0.353   6.569   7.034  0.5462 -0.0731 -0.2851
  168SAPE   H5R18960  -0.260   6.533   6.987  0.5970  0.6827 -0.7643
  168SAPE   C2618961  -0.350   6.565   7.168 -0.1021 -0.2469 -0.2310
  168SAPE   H6R18962  -0.260   6.536   7.224  0.2548  1.2023 -0.0100
  168SAPE   C2718963  -0.452   6.621   7.262  0.1868  0.4188 -0.1878
  168SAPE   H7R18964  -0.422   6.605   7.368 -0.2564  2.0783  0.2221
  168SAPE   H7S18965  -0.547   6.567   7.241  0.3755 -0.1855  0.4735
  168SAPE   C2818966  -0.461   6.774   7.254  0.7457 -0.3930  0.8603
  168SAPE   H8R18967  -0.453   6.814   7.152  1.8720  0.7580  1.3757
  168SAPE   C2918968  -0.488   6.862   7.354  0.5263 -0.2815  0.3804
  168SAPE   H9R18969  -0.507   6.969   7.336 -0.8375 -0.9841 -3.0345
  168SAPE  C21018970  -0.515   6.825   7.498  0.2978  0.3572 -0.4405
  168SAPE  H10R18971  -0.510   6.714   7.504  0.5646  0.4156  4.5437
  168SAPE  H10S18972  -0.618   6.835   7.539  0.1096 -1.1882 -0.4722
  168SAPE  C21118973  -0.424   6.893   7.597  0.0816 -0.2684  0.8535
  168SAPE  H11R18974  -0.439   7.002   7.588  0.8568 -0.3113 -1.7712
  168SAPE  C21218975  -0.334   6.830   7.672 -0.5279  0.7845  0.4250
  168SAPE  H12R18976  -0.272   6.897   7.732  0.9768  0.1673 -0.3935
  168SAPE  C21318977  -0.297   6.683   7.691 -0.8985 -0.2009 -0.1787
  168SAPE  H13R18978  -0.212   6.647   7.629 -0.7697 -0.5909  0.2215
  168SAPE  H13S18979  -0.378   6.623   7.645 -0.3681 -1.7077  0.7931
  168SAPE  C21418980  -0.271   6.653   7.840  0.2446 -0.3531 -0.3833
  168SAPE  H14R18981  -0.196   6.708   7.899 -1.8864  1.1712  1.0749
  168SAPE  C21518982  -0.335   6.559   7.908 -0.2793  0.0603  0.0994
  168SAPE  H15R18983  -0.322   6.553   8.017  1.9299 -0.0521 -0.1147
  168SAPE  C21618984  -0.445   6.478   7.851 -0.4609  0.4163  0.1132
  168SAPE  H16R18985  -0.465   6.397   7.925 -1.2951 -0.1623 -0.7298
  168SAPE  H16S18986  -0.422   6.423   7.758 -1.5118 -0.7364  0.5103
  168SAPE  C21718987  -0.577   6.563   7.833  0.0363  0.6531 -0.1220
  168SAPE  H17R18988  -0.640   6.502   7.765 -0.9360 -1.3138  2.3943
  168SAPE  H17S18989  -0.547   6.659   7.787  2.7037  0.8638  1.7922
  168SAPE  C21818990  -0.641   6.608   7.961  0.2411 -0.8554 -0.0991
  168SAPE  H18R18991  -0.735   6.660   7.935  0.2565 -0.5963  0.3687
  168SAPE  H18S18992  -0.572   6.677   8.014  2.1677 -1.0309 -2.1989
  168SAPE  C21918993  -0.697   6.500   8.052 -0.6117 -0.5477 -0.9602
  168SAPE  H19R18994  -0.620   6.424   8.075  2.1220  2.4763  0.8117
  168SAPE  H19S18995  -0.773   6.439   7.999  0.0484  0.3696 -3.0864
  168SAPE  C22018996  -0.744   6.550   8.189 -0.2990 -0.1030 -0.0651
  168SAPE  H20R18997  -0.774   6.464   8.252  0.0117  1.1038  1.8098
  168SAPE  H20S18998  -0.833   6.614   8.170 -2.0447 -1.9208  1.5048
  168SAPE  H20T18999  -0.659   6.604   8.235  1.1702  0.2484 -2.9479
  168SAPE   C3319000  -0.204   6.092   7.058 -0.2900 -0.5608 -0.3941
  168SAPE   H3X19001  -0.126   6.020   7.026 -1.2029 -1.1043 -1.4595
  168SAPE   H3Y19002  -0.304   6.054   7.029  0.8949 -2.3139 -2.4714
  168SAPE   C3419003  -0.193   6.093   7.213  0.3735 -0.1711 -0.0194
  168SAPE   H4X19004  -0.093   6.124   7.250 -1.0874  0.1440  4.2470
  168SAPE   H4Y19005  -0.215   5.991   7.251 -0.1465 -0.7076 -1.6712
  168SAPE   C3519006  -0.305   6.184   7.272 -0.3240 -0.1708  0.8201
  168SAPE   H5X19007  -0.406   6.149   7.242  0.5420 -1.6781 -0.4972
  168SAPE   H5Y19008  -0.282   6.291   7.254 -0.7501 -0.2861 -0.4609
  168SAPE   C3619009  -0.310   6.152   7.425  0.4793  0.0554 -0.5772
  168SAPE   H6X19010  -0.319   6.046   7.458  2.8041  0.6774  2.5777
  168SAPE   H6Y19011  -0.396   6.206   7.471  1.3300 -0.2511  1.4786
  168SAPE   C3719012  -0.191   6.199   7.502 -0.2380 -0.3700 -0.1525
  168SAPE   H7X19013  -0.168   6.305   7.478  1.9618 -0.7871 -0.1225
  168SAPE   H7Y19014  -0.104   6.130   7.495 -0.6827 -1.2795  2.4435
  168SAPE   C3819015  -0.208   6.203   7.658  0.1927  0.9767 -0.0831
  168SAPE   H8X19016  -0.239   6.104   7.697  1.4404  0.5434 -0.1241
  168SAPE   H8Y19017  -0.285   6.277   7.688 -0.2483  0.8597 -0.8924
  168SAPE   C3919018  -0.086   6.243   7.738 -0.8126  0.5665  0.4375
  168SAPE   H9X19019  -0.054   6.345   7.709 -1.2801  0.8958  1.0707
  168SAPE   H9Y19020   0.009   6.192   7.712  0.7261  3.0134  0.9640
  168SAPE  C31019021  -0.095   6.220   7.890  0.4048 -0.0857 -0.2849
  168SAPE  H10X19022  -0.078   6.112   7.913  0.8125 -0.0614 -0.4574
  168SAPE  H10Y19023  -0.194   6.249   7.930  0.2259  1.3000 -1.6626
  168SAPE  C31119024   0.020   6.295   7.966 -0.0428  0.0246  0.2259
  168SAPE  H11X19025  -0.001   6.403   7.949 -0.6302  0.2112  1.9696
  168SAPE  H11Y19026   0.123   6.267   7.936 -0.0752 -0.3901  0.4947
  168SAPE  C31219027   0.017   6.289   8.122  0.1291  0.0716  0.4493
  168SAPE  H12X19028  -0.088   6.316   8.146 -0.1047  0.1892 -0.6636
  168SAPE  H12Y19029   0.092   6.357   8.168 -0.3892  0.3453  0.9033
  168SAPE  C31319030   0.052   6.149   8.183  0.0038  0.1208  0.5679
  168SAPE  H13X19031   0.163   6.144   8.186 -0.0110 -0.1281  3.1326
  168SAPE  H13Y19032  -0.005   6.071   8.128 -0.7751  2.3714 -1.9951
  168SAPE  C31419033   0.012   6.150   8.326  0.0362  0.5648 -0.2557
  168SAPE  H14X19034  -0.097   6.172   8.337 -0.1070 -0.5121  0.6215
  168SAPE  H14Y19035   0.067   6.225   8.386  0.5291 -0.5777  0.7604
  168SAPE  C31519036   0.049   6.019   8.389  0.5771 -0.3344 -0.4183
  168SAPE  H15X19037   0.151   5.998   8.349  1.8559  0.7946  1.9877
  168SAPE  H15Y19038  -0.024   5.955   8.336 -0.9595  0.7981  0.2680
  168SAPE  C31619039   0.055   6.020   8.538 -0.9380  0.1989 -0.2336
  168SAPE  H16X19040  -0.043   6.050   8.580  0.0166  1.0991  1.4546
  168SAPE  H16Y19041   0.124   6.105   8.557  0.1941 -0.0131 -2.9688
  168SAPE  C31719042   0.100   5.892   8.598  0.1227  0.9891  0.0981
  168SAPE  H17X19043   0.190   5.849   8.550  0.1279  1.0454  0.0567
  168SAPE  H17Y19044   0.028   5.809   8.582  1.0527  0.2622 -0.3859
  168SAPE  C31819045   0.135   5.911   8.754 -0.1867  0.8235  0.2802
  168SAPE  H18X19046   0.203   5.996   8.776  0.3257  0.5389 -0.1833
  168SAPE  H18Y19047   0.176   5.816   8.794 -0.7304 -0.1557 -1.3728
  168SAPE  H18Z19048   0.044   5.936   8.813  0.3760  3.2790  0.1983
  169SAPE     N19049   1.080   3.525   6.244  0.2753 -0.8418  0.1727
  169SAPE   HN119050   1.183   3.536   6.256  0.2587 -1.7826  1.3960
  169SAPE   HN219051   1.040   3.621   6.245  1.2591 -0.4026  1.6272
  169SAPE   HN319052   1.047   3.469   6.326  1.3988 -0.6017  0.8143
  169SAPE   C1219053   1.058   3.455   6.113 -0.0816 -0.3314  0.0474
  169SAPE  H12A19054   1.107   3.498   6.023  0.3379 -2.7950 -0.9891
  169SAPE  H12B19055   0.952   3.466   6.082 -0.2642 -1.1461  0.3616
  169SAPE   C1119056   1.107   3.311   6.105 -0.2241  0.1162  0.0313
  169SAPE  H11A19057   1.218   3.322   6.102 -0.1697 -0.5386 -2.6071
  169SAPE  H11B19058   1.081   3.275   6.004  0.6986 -1.7432  0.4178
  169SAPE     P19059   0.920   3.154   6.177 -0.6343  0.2774 -0.0533
  169SAPE   O1319060   0.821   3.257   6.130  0.1106 -0.0458 -0.1203
  169SAPE   O1419061   0.945   3.033   6.098 -0.4171 -0.2139 -0.1457
  169SAPE   O1219062   1.063   3.222   6.201 -0.1897  0.1754 -0.8529
  169SAPE   O1119063   0.876   3.104   6.320 -0.2684  0.3751  0.3110
  169SAPE    C119064   0.955   3.012   6.394  0.1031  0.1417 -0.5433
  169SAPE    HA19065   0.943   2.909   6.354 -2.2408 -0.0266  0.4694
  169SAPE    HB19066   1.064   3.035   6.383  0.4028 -0.6088  0.6690
  169SAPE    C219067   0.911   3.003   6.538  0.0379 -0.6155 -0.7417
  169SAPE    HS19068   0.804   2.974   6.543  0.2253 -1.6696 -2.0893
  169SAPE   O2119069   0.935   3.133   6.594 -0.6665  0.3958  0.5966
  169SAPE   C2119070   0.824   3.198   6.616 -0.0000 -0.2720  0.5723
  169SAPE   O2219071   0.711   3.168   6.581  0.0475  0.1270  0.1647
  169SAPE   C2219072   0.853   3.330   6.691 -0.2910 -0.2132 -0.6247
  169SAPE   H2R19073   0.950   3.313   6.741 -0.9077 -1.9257  0.0676
  169SAPE   H2S19074   0.852   3.421   6.626 -0.7415  0.5519  0.4376
  169SAPE    C319075   0.987   2.895   6.609 -0.0410 -0.1407 -0.0364
  169SAPE    HX19076   1.091   2.933   6.609  1.1116 -2.8614  2.8084
  169SAPE    HY19077   0.979   2.796   6.558  2.1494 -0.6109  0.4225
  169SAPE   O3119078   0.945   2.875   6.739 -0.1744 -0.2773 -0.1126
  169SAPE   C3119079   1.026   2.809   6.820 -0.0057  0.6942 -0.7803
  169SAPE   O3219080   1.127   2.747   6.788 -0.3131  0.3601 -0.1756
  169SAPE   C3219081   0.965   2.814   6.961 -0.3274  0.6145  0.0787
  169SAPE   H2X19082   0.855   2.807   6.944 -0.2110  1.0244 -0.8708
  169SAPE   H2Y19083   0.997   2.911   7.003  3.8646 -0.9973  1.0717
  169SAPE   C2319084   0.745   3.358   6.804 -0.4878 -0.2856  0.5932
  169SAPE   H3R19085   0.737   3.271   6.873 -0.4373  1.5471  3.0687
  169SAPE   H3S19086   0.647   3.369   6.754 -0.0395  0.1480 -0.2233
  169SAPE   C2419087   0.777   3.487   6.877 -0.3723 -0.3439  0.3155
  169SAPE   H4R19088   0.884   3.489   6.907 -0.6975  0.9202  1.4745
  169SAPE   H4S19089   0.715   3.479   6.969 -1.0500 -2.1369 -0.2611
  169SAPE   C2519090   0.748   3.612   6.791  0.4836  0.0923  0.4524
  169SAPE   H5R19091   0.832   3.659   6.738  0.8656 -2.5055 -1.4469
  169SAPE   C2619092   0.631   3.681   6.783  0.1265  0.8543 -0.2774
  169SAPE   H6R19093   0.624   3.765   6.712 -1.7556 -0.4770 -1.7640
  169SAPE   C2719094   0.507   3.651   6.863  0.3185  1.2495 -0.3637
  169SAPE   H7R19095   0.536   3.643   6.970  1.1138 -3.8580 -0.7059
  169SAPE   H7S19096   0.463   3.554   6.830  0.2385  1.3994 -0.6956
  169SAPE   C2819097   0.384   3.742   6.868  0.2736 -0.3711  0.6901
  169SAPE   H8R19098   0.338   3.754   6.768  0.3241  0.1228  0.7202
  169SAPE   C2919099   0.335   3.806   6.977  0.8981  0.4963  0.4704
  169SAPE   H9R19100   0.247   3.870   6.966 -0.0278 -1.1033 -2.6588
  169SAPE  C21019101   0.385   3.805   7.125  0.2631  0.7330 -0.1472
  169SAPE  H10R19102   0.433   3.901   7.150 -0.0466  0.9363 -0.3223
  169SAPE  H10S19103   0.467   3.731   7.137  0.8495  1.2172 -1.0813
  169SAPE  C21119104   0.280   3.759   7.230  0.2256  0.2018  0.0435
  169SAPE  H11R19105   0.230   3.667   7.196 -1.2825  0.1633  2.1339
  169SAPE  C21219106   0.261   3.810   7.349  0.2228  0.5697  0.1769
  169SAPE  H12R19107   0.176   3.775   7.409  0.8573  0.6682  1.1572
  169SAPE  C21319108   0.336   3.920   7.412 -0.6697 -0.3480 -0.6660
  169SAPE  H13R19109   0.304   3.925   7.519  1.0379 -5.2199  0.3643
  169SAPE  H13S19110   0.312   4.015   7.360  2.7561  0.5820 -0.8403
  169SAPE  C21419111   0.484   3.901   7.418 -0.8436  0.0439  0.1135
  169SAPE  H14R19112   0.535   3.838   7.344 -2.3103 -0.0339 -0.8743
  169SAPE  C21519113   0.565   3.949   7.516  0.6752 -0.2437 -0.4288
  169SAPE  H15R19114   0.674   3.939   7.511  0.7753  0.7354 -0.3696
  169SAPE  C21619115   0.521   4.031   7.635  0.1821 -0.5305 -0.6381
  169SAPE  H16R19116   0.415   4.013   7.663 -0.1370 -0.6693 -1.8479
  169SAPE  H16S19117   0.546   4.139   7.635 -1.7103  0.0099  2.2217
  169SAPE  C21719118   0.593   3.977   7.767 -0.6954  0.2029  0.3004
  169SAPE  H17R19119   0.556   4.034   7.855 -0.5612  0.7680 -0.0012
  169SAPE  H17S19120   0.694   4.024   7.765 -0.8336  0.6759  2.5588
  169SAPE  C21819121   0.598   3.825   7.786 -0.6627  0.3266 -0.3257
  169SAPE  H18R19122   0.661   3.770   7.713 -0.1867  2.2313 -1.4293
  169SAPE  H18S19123   0.497   3.784   7.766  0.0231 -1.8019  0.3078
  169SAPE  C21919124   0.642   3.786   7.919 -0.5415  0.1454 -0.0005
  169SAPE  H19R19125   0.577   3.826   8.000  0.5743 -0.7773  1.4046
  169SAPE  H19S19126   0.747   3.820   7.933 -0.0024 -0.1182 -2.9010
  169SAPE  C22019127   0.621   3.634   7.939  0.3531  0.1808  0.3209
  169SAPE  H20R19128   0.519   3.608   7.904 -0.4402  2.3882  0.8115
  169SAPE  H20S19129   0.618   3.620   8.049  0.7855 -1.2605  0.1680
  169SAPE  H20T19130   0.690   3.571   7.879  0.2458  1.1181 -0.8262
  169SAPE   C3319131   1.012   2.699   7.056 -0.2694 -0.0950 -0.3435
  169SAPE   H3X19132   1.111   2.731   7.093 -0.4273 -1.0061  0.9491
  169SAPE   H3Y19133   1.015   2.602   7.002 -2.9179 -2.2751  2.9895
  169SAPE   C3419134   0.920   2.691   7.182 -0.0030  0.4548 -0.9453
  169SAPE   H4X19135   0.819   2.663   7.146  0.2971 -0.1748 -1.3328
  169SAPE   H4Y19136   0.924   2.786   7.239  0.5363  0.6889 -1.3626
  169SAPE   C3519137   0.965   2.587   7.290  0.4173  0.2515 -0.3831
  169SAPE   H5X19138   1.061   2.612   7.340  0.0196 -1.8212  1.6014
  169SAPE   H5Y19139   0.977   2.492   7.234  0.3697 -0.1475  0.2636
  169SAPE   C3619140   0.861   2.564   7.402 -0.0998 -0.3207 -0.9178
  169SAPE   H6X19141   0.883   2.469   7.454 -0.8574 -0.1294 -0.2206
  169SAPE   H6Y19142   0.761   2.564   7.353  0.9658  4.1193 -3.7242
  169SAPE   C3719143   0.878   2.664   7.519 -0.5571 -0.3762  0.4223
  169SAPE   H7X19144   0.851   2.769   7.494 -0.7282 -0.0676  1.8190
  169SAPE   H7Y19145   0.978   2.659   7.567 -0.1889 -1.0298 -0.3812
  169SAPE   C3819146   0.774   2.632   7.628  0.0316 -0.0778 -0.4265
  169SAPE   H8X19147   0.756   2.528   7.663 -1.1411  1.1379  3.0219
  169SAPE   H8Y19148   0.679   2.687   7.614  1.2030  2.1994  0.0759
  169SAPE   C3919149   0.821   2.694   7.763 -0.0112  0.1923  0.3871
  169SAPE   H9X19150   0.820   2.800   7.729  1.0069 -0.5919 -2.3408
  169SAPE   H9Y19151   0.930   2.677   7.761  0.2635  1.8101  0.3582
  169SAPE  C31019152   0.738   2.667   7.886 -0.6130 -0.4096  0.7110
  169SAPE  H10X19153   0.634   2.705   7.871  0.0060  1.3382  0.5412
  169SAPE  H10Y19154   0.779   2.733   7.966  0.2275  1.2228 -0.9940
  169SAPE  C31119155   0.747   2.524   7.936  0.4440 -0.0332  0.1435
  169SAPE  H11X19156   0.855   2.499   7.933  0.7624  1.1250  0.9083
  169SAPE  H11Y19157   0.680   2.452   7.884  0.2206  1.2945 -1.4958
  169SAPE  C31219158   0.689   2.524   8.081  0.7001 -0.0343 -0.3265
  169SAPE  H12X19159   0.593   2.579   8.073  0.0299 -1.3550 -2.2582
  169SAPE  H12Y19160   0.758   2.584   8.144  0.9982  1.5579 -2.1046
  169SAPE  C31319161   0.672   2.382   8.141 -0.3621 -0.1612 -0.8804
  169SAPE  H13X19162   0.610   2.320   8.073 -0.0950  1.0633 -2.2896
  169SAPE  H13Y19163   0.622   2.378   8.240 -0.1326 -1.7639 -0.8058
  169SAPE  C31419164   0.802   2.302   8.164 -0.2245  0.3380 -0.3221
  169SAPE  H14X19165   0.874   2.368   8.216  1.1047 -0.3072 -1.2751
  169SAPE  H14Y19166   0.855   2.273   8.070  1.0092 -2.2416  1.0512
  169SAPE  C31519167   0.780   2.174   8.246 -0.0798  0.0020 -0.2615
  169SAPE  H15X19168   0.687   2.125   8.209  0.8981 -1.6756 -0.6078
  169SAPE  H15Y19169   0.761   2.206   8.351  2.1178  1.5450 -0.2819
  169SAPE  C31619170   0.887   2.058   8.244  0.3303  0.7381 -0.1953
  169SAPE  H16X19171   0.987   2.105   8.231  1.2462 -0.6538  1.5123
  169SAPE  H16Y19172   0.867   1.983   8.165 -2.2056 -1.3952  2.2660
  169SAPE  C31719173   0.891   1.985   8.382 -0.6371 -1.2035  0.2073
  169SAPE  H17X19174   0.792   1.938   8.403 -1.9289 -0.2802 -3.2743
  169SAPE  H17Y19175   0.921   2.057   8.461 -0.4679 -0.4333 -0.5447
  169SAPE  C31819176   0.994   1.875   8.382  0.3202 -0.4422 -0.3152
  169SAPE  H18X19177   0.989   1.812   8.474  0.3796  0.6236  0.4442
  169SAPE  H18Y19178   1.101   1.904   8.369 -0.2615  0.7326 -3.1134
  169SAPE  H18Z19179   0.979   1.801   8.301 -0.9165 -1.7375  1.0271
  170SAPE     N19180   3.501   6.783   6.144 -0.2134 -0.3123 -0.3572
  170SAPE   HN119181   3.409   6.754   6.106  0.1600  0.2277 -1.7603
  170SAPE   HN219182   3.499   6.883   6.173  0.4353 -0.9726  2.1332
  170SAPE   HN319183   3.576   6.764   6.074  0.0325  1.7941 -0.7477
  170SAPE   C1219184   3.527   6.698   6.266 -0.2041 -0.3043 -0.9834
  170SAPE  H12A19185   3.444   6.717   6.337  1.7337  1.1378  1.0425
  170SAPE  H12B19186   3.624   6.733   6.308 -0.9836  2.0397 -1.0047
  170SAPE   C1119187   3.531   6.546   6.232 -0.3185 -0.7869 -0.2866
  170SAPE  H11A19188   3.430   6.529   6.187 -0.5242  1.0029 -0.5764
  170SAPE  H11B19189   3.538   6.490   6.328 -1.1933  3.8763  2.8120
  170SAPE     P19190   3.780   6.454   6.192  0.4177 -0.5209 -0.1113
  170SAPE   O1319191   3.811   6.340   6.100  0.3201 -0.0952 -0.7261
  170SAPE   O1419192   3.881   6.564   6.194 -0.3002 -0.1027  0.9618
  170SAPE   O1219193   3.636   6.515   6.140 -0.2772  0.1694  0.2329
  170SAPE   O1119194   3.746   6.407   6.340  0.3159 -0.0080 -0.0595
  170SAPE    C119195   3.688   6.275   6.355  0.8214  0.1431 -0.6140
  170SAPE    HA19196   3.579   6.288   6.345  0.8525  2.6267  1.4007
  170SAPE    HB19197   3.711   6.196   6.280  0.8399 -1.1394  0.6995
  170SAPE    C219198   3.727   6.210   6.490  0.4668 -0.1943 -0.2577
  170SAPE    HS19199   3.836   6.191   6.493  0.2880 -1.2751 -0.1914
  170SAPE   O2119200   3.650   6.082   6.499  0.5493 -0.0388 -0.1062
  170SAPE   C2119201   3.716   5.981   6.452 -0.5841 -0.7330  0.2946
  170SAPE   O2219202   3.836   5.976   6.419 -0.2376  0.9858  0.3164
  170SAPE   C2219203   3.635   5.850   6.462 -0.9019 -0.8279  0.0423
  170SAPE   H2R19204   3.552   5.853   6.389  0.8925 -0.0956 -2.0509
  170SAPE   H2S19205   3.710   5.772   6.435 -0.9518 -1.0975  0.6569
  170SAPE    C319206   3.692   6.305   6.611  0.2234  0.1353  0.1210
  170SAPE    HX19207   3.586   6.332   6.594  0.9475  3.0978 -0.1294
  170SAPE    HY19208   3.746   6.401   6.601  1.6795 -0.7247 -0.7141
  170SAPE   O3119209   3.712   6.254   6.744  0.5044 -0.0171  0.6118
  170SAPE   C3119210   3.832   6.232   6.787 -0.4663 -0.3158 -0.0193
  170SAPE   O3219211   3.932   6.249   6.718  0.2074 -0.5556  0.3116
  170SAPE   C3219212   3.840   6.195   6.934 -0.4487  0.0660  0.2728
  170SAPE   H2X19213   3.819   6.086   6.940 -0.7806 -0.3108 -4.2949
  170SAPE   H2Y19214   3.762   6.252   6.987 -2.3850 -0.8201 -1.4863
  170SAPE   C2319215   3.596   5.816   6.612  0.0423  0.3448  0.1067
  170SAPE   H3R19216   3.522   5.894   6.639 -1.9757 -1.5574  0.3928
  170SAPE   H3S19217   3.678   5.831   6.685 -0.3832  1.6272  0.3468
  170SAPE   C2419218   3.535   5.677   6.634  0.3750 -0.0589  0.2537
  170SAPE   H4R19219   3.607   5.593   6.622 -0.3115 -0.4727 -1.2242
  170SAPE   H4S19220   3.454   5.667   6.559  0.0941  0.4001  0.4877
  170SAPE   C2519221   3.479   5.677   6.775  0.0751 -0.2411  0.2386
  170SAPE   H5R19222   3.402   5.750   6.803  1.8970  0.4061  4.4229
  170SAPE   C2619223   3.518   5.595   6.873 -0.2254 -0.1562 -0.3660
  170SAPE   H6R19224   3.468   5.610   6.970  2.2869 -1.2099  1.2168
  170SAPE   C2719225   3.616   5.487   6.887 -0.0029  0.5418  0.0787
  170SAPE   H7R19226   3.688   5.514   6.967 -0.4590 -0.2725  0.7894
  170SAPE   H7S19227   3.671   5.479   6.792 -0.6994  0.7331 -0.3479
  170SAPE   C2819228   3.541   5.356   6.918 -0.3092  0.5544 -0.6877
  170SAPE   H8R19229   3.483   5.308   6.837 -0.9868 -1.0239  0.6711
  170SAPE   C2919230   3.535   5.299   7.040 -0.3157  0.1194  0.5505
  170SAPE   H9R19231   3.488   5.200   7.043  0.6371 -0.4343 -1.2934
  170SAPE  C21019232   3.588   5.353   7.167  0.3103 -0.1156  0.1671
  170SAPE  H10R19233   3.672   5.426   7.158 -0.7773  1.1352 -0.1397
  170SAPE  H10S19234   3.635   5.272   7.227  1.1178  0.1522 -0.0922
  170SAPE  C21119235   3.493   5.434   7.249  0.0247  1.1656  0.1928
  170SAPE  H11R19236   3.416   5.493   7.198 -0.4193  2.0396  1.8175
  170SAPE  C21219237   3.498   5.439   7.386 -0.0465 -0.3797 -0.3713
  170SAPE  H12R19238   3.419   5.491   7.442  1.9800  2.1212  0.3811
  170SAPE  C21319239   3.595   5.367   7.474  0.2446  0.7643 -1.2895
  170SAPE  H13R19240   3.698   5.401   7.450  0.2672  1.5580 -0.1690
  170SAPE  H13S19241   3.593   5.258   7.453  1.8981  0.5948 -0.7587
  170SAPE  C21419242   3.555   5.392   7.621  0.1556  0.3288 -0.1654
  170SAPE  H14R19243   3.626   5.439   7.691 -2.2945  1.5945  1.6473
  170SAPE  C21519244   3.454   5.328   7.682  0.3440  0.0188  0.3389
  170SAPE  H15R19245   3.435   5.342   7.790  2.7888  0.4683  0.7902
  170SAPE  C21619246   3.345   5.239   7.620 -0.2651 -0.4262  0.1152
  170SAPE  H16R19247   3.398   5.158   7.566 -1.7559 -0.6309 -1.1369
  170SAPE  H16S19248   3.278   5.299   7.555 -0.2764  1.3616  1.6774
  170SAPE  C21719249   3.255   5.173   7.725 -0.1433 -0.4236 -0.1690
  170SAPE  H17R19250   3.161   5.144   7.673 -0.6708  1.7964 -0.5348
  170SAPE  H17S19251   3.221   5.242   7.805  2.1951 -1.7766  2.1784
  170SAPE  C21819252   3.322   5.045   7.791  0.0126 -0.8890  0.0542
  170SAPE  H18R19253   3.428   5.061   7.817  0.6241 -0.9067 -2.1848
  170SAPE  H18S19254   3.314   4.954   7.728 -0.8208 -1.1211  0.4728
  170SAPE  C21919255   3.240   5.004   7.913 -0.1730  0.4777  0.5969
  170SAPE  H19R19256   3.233   5.093   7.980  0.3320  1.2879 -0.4049
  170SAPE  H19S19257   3.283   4.917   7.966  1.0630 -0.6084 -2.0318
  170SAPE  C22019258   3.104   4.941   7.882  0.2972 -0.8347  0.1114
  170SAPE  H20R19259   3.050   4.911   7.975  1.7992  0.6318  1.5295
  170SAPE  H20S19260   3.105   4.845   7.826 -1.8315 -0.3662 -0.8280
  170SAPE  H20T19261   3.031   5.012   7.839  0.5339 -0.7038 -0.0723
  170SAPE   C3319262   3.982   6.208   7.003  0.1984 -0.2271  0.1418
  170SAPE   H3X19263   4.011   6.315   7.008  1.0241 -0.4701  0.7161
  170SAPE   H3Y19264   4.052   6.149   6.940  0.7887  1.2408 -0.6275
  170SAPE   C3419265   3.982   6.132   7.143  0.0437  0.0122 -0.5412
  170SAPE   H4X19266   4.088   6.107   7.165  0.4535  2.6681  0.8544
  170SAPE   H4Y19267   3.933   6.034   7.126 -0.1859  0.2988 -1.6451
  170SAPE   C3519268   3.952   6.227   7.261  0.7461  0.0821 -0.5829
  170SAPE   H5X19269   3.847   6.261   7.254  0.8079  0.1730 -1.1253
  170SAPE   H5Y19270   4.028   6.308   7.261  0.9508 -0.0970  0.1925
  170SAPE   C3619271   3.982   6.154   7.393  0.1032 -0.4930  0.3097
  170SAPE   H6X19272   4.090   6.150   7.421  0.1733  3.7768  1.4633
  170SAPE   H6Y19273   3.941   6.051   7.389  0.4176 -0.6240  0.3795
  170SAPE   C3719274   3.924   6.235   7.509 -0.9782  0.1347 -0.4217
  170SAPE   H7X19275   3.815   6.253   7.503 -0.7422  1.7880 -0.3569
  170SAPE   H7Y19276   3.967   6.338   7.515  1.4673 -0.8616  0.7596
  170SAPE   C3819277   3.974   6.190   7.647  0.1979  0.1733  0.0099
  170SAPE   H8X19278   4.081   6.211   7.666  0.2711 -1.4315  1.6823
  170SAPE   H8Y19279   3.972   6.080   7.633  1.6799  0.0978  0.2660
  170SAPE   C3919280   3.880   6.245   7.756  0.4442 -0.5066  0.5529
  170SAPE   H9X19281   3.783   6.190   7.761  0.5009 -0.5664  1.0784
  170SAPE   H9Y19282   3.866   6.353   7.739 -2.4493 -0.8927 -0.0363
  170SAPE  C31019283   3.958   6.238   7.889  0.5498 -1.2546  0.3438
  170SAPE  H10X19284   3.913   6.316   7.955 -1.7122 -1.4896 -0.8227
  170SAPE  H10Y19285   4.060   6.276   7.867 -1.1027  3.5228 -0.2410
  170SAPE  C31119286   3.939   6.110   7.966  0.0110  0.3384  0.2625
  170SAPE  H11X19287   3.965   6.017   7.911 -0.0900 -0.1166  0.9693
  170SAPE  H11Y19288   3.835   6.112   8.006  0.0945  1.7497  0.4653
  170SAPE  C31219289   4.016   6.123   8.097 -0.3151  0.2439 -0.1185
  170SAPE  H12X19290   4.119   6.146   8.065 -0.2688 -1.3704 -1.2230
  170SAPE  H12Y19291   4.014   6.016   8.128 -0.7869 -0.3045 -1.9157
  170SAPE  C31319292   3.959   6.218   8.202  0.0403 -0.8479  0.2920
  170SAPE  H13X19293   3.859   6.176   8.222 -1.0666  0.7246 -1.6399
  170SAPE  H13Y19294   3.945   6.320   8.161  1.2249 -0.5003  0.7007
  170SAPE  C31419295   4.040   6.220   8.327 -0.0710 -0.2912  0.0047
  170SAPE  H14X19296   4.000   6.313   8.373 -2.4533 -0.9588 -0.5655
  170SAPE  H14Y19297   4.148   6.225   8.300 -0.0039 -2.2659 -0.2645
  170SAPE  C31519298   4.025   6.103   8.428 -0.7213  0.1935 -0.2775
  170SAPE  H15X19299   4.035   6.008   8.372  2.0523  0.2370  0.0128
  170SAPE  H15Y19300   3.929   6.108   8.484 -1.0378  3.2764 -0.9303
  170SAPE  C31619301   4.133   6.102   8.532  0.5957  0.0855  0.6367
  170SAPE  H16X19302   4.100   6.155   8.625  1.2074  2.3283 -0.3456
  170SAPE  H16Y19303   4.214   6.153   8.475 -0.0110  0.2973 -0.0564
  170SAPE  C31719304   4.172   5.958   8.561 -0.0078  0.5173  1.4872
  170SAPE  H17X19305   4.204   5.906   8.468 -0.8619  1.3352  0.6998
  170SAPE  H17Y19306   4.078   5.909   8.594 -0.3880 -2.6540 -3.3023
  170SAPE  C31819307   4.283   5.960   8.657 -0.0984  0.0012 -0.0429
  170SAPE  H18X19308   4.255   6.019   8.747  0.9542  1.5168 -0.6523
  170SAPE  H18Y19309   4.376   5.997   8.608  0.2617 -0.0166  0.6084
  170SAPE  H18Z19310   4.304   5.857   8.693 -0.6715 -0.1899 -0.2490
  171SAPE     N19311   1.786   3.555   6.400  0.0799  0.2501 -0.6853
  171SAPE   HN119312   1.766   3.611   6.314 -4.0401  0.7752  0.3925
  171SAPE   HN219313   1.885   3.527   6.412  0.4118  1.6449  0.0233
  171SAPE   HN319314   1.730   3.468   6.396  0.6973 -0.1796 -0.2058
  171SAPE   C1219315   1.735   3.643   6.510 -0.3383  0.1506 -0.1947
  171SAPE  H12A19316   1.818   3.716   6.517 -0.8469  0.7185 -0.0329
  171SAPE  H12B19317   1.734   3.592   6.609 -1.7014 -2.0470 -1.2599
  171SAPE   C1119318   1.608   3.717   6.461 -0.4038 -0.1814  0.2642
  171SAPE  H11A19319   1.560   3.784   6.536  0.6898  1.3407 -0.3278
  171SAPE  H11B19320   1.529   3.646   6.430 -1.3763  1.6127 -1.6264
  171SAPE     P19321   1.557   3.909   6.291 -0.1384  0.3463  0.4096
  171SAPE   O1319322   1.622   3.944   6.163 -0.7572 -0.0259  0.3934
  171SAPE   O1419323   1.413   3.883   6.289 -0.4960  0.4143 -0.5236
  171SAPE   O1219324   1.637   3.784   6.339 -0.0519  0.7322  0.1583
  171SAPE   O1119325   1.599   4.018   6.390  0.5535 -0.2934 -0.3994
  171SAPE    C119326   1.725   4.063   6.439  0.0189  0.2049  0.3149
  171SAPE    HA19327   1.804   3.987   6.420  0.2476  0.7365 -0.9416
  171SAPE    HB19328   1.753   4.160   6.392 -0.3503  1.1619  1.9972
  171SAPE    C219329   1.716   4.105   6.587  0.5625  0.3347 -0.0427
  171SAPE    HS19330   1.821   4.125   6.617  1.6877 -2.5447 -1.5585
  171SAPE   O2119331   1.665   3.990   6.665  0.0503 -0.5357  0.1977
  171SAPE   C2119332   1.727   3.979   6.780 -0.1216 -0.0262 -0.7735
  171SAPE   O2219333   1.805   4.057   6.827  0.1457  0.2040  0.2375
  171SAPE   C2219334   1.683   3.853   6.843  0.5830 -0.0130 -0.7334
  171SAPE   H2R19335   1.573   3.845   6.829  0.3590  2.4353 -0.8201
  171SAPE   H2S19336   1.743   3.776   6.791  0.5624  0.7974 -1.9953
  171SAPE    C319337   1.629   4.228   6.607 -0.4972 -0.6826  0.4305
  171SAPE    HX19338   1.524   4.200   6.584 -0.6979  1.0068 -0.9851
  171SAPE    HY19339   1.663   4.308   6.538  0.7282  0.0162  1.7830
  171SAPE   O3119340   1.651   4.271   6.744 -0.0375  0.3035 -0.1924
  171SAPE   C3119341   1.750   4.357   6.780  0.3309 -0.1440 -0.1862
  171SAPE   O3219342   1.823   4.415   6.703  0.7913 -0.1363  0.3198
  171SAPE   C3219343   1.757   4.374   6.932 -0.0616 -0.3036 -0.9870
  171SAPE   H2X19344   1.824   4.293   6.968 -1.1476 -0.7376  0.1472
  171SAPE   H2Y19345   1.655   4.346   6.967  0.3964 -2.5551 -1.2708
  171SAPE   C2319346   1.714   3.863   6.999  0.1841 -0.7189  0.8085
  171SAPE   H3R19347   1.822   3.883   7.013  0.9422 -2.3262 -1.8679
  171SAPE   H3S19348   1.681   3.761   7.031 -0.9635 -1.3210 -2.0122
  171SAPE   C2419349   1.624   3.967   7.071  0.3299 -0.4888 -1.0117
  171SAPE   H4R19350   1.629   4.061   7.012 -2.1226  1.6828  1.8878
  171SAPE   H4S19351   1.681   3.999   7.161  1.4869  0.5715 -2.0869
  171SAPE   C2519352   1.489   3.913   7.100 -0.3602 -0.2601  0.1908
  171SAPE   H5R19353   1.484   3.818   7.155 -1.7899 -0.5205 -0.3347
  171SAPE   C2619354   1.374   3.970   7.053  0.6278  0.5187 -0.6537
  171SAPE   H6R19355   1.289   3.902   7.070  0.6683  0.4165 -0.8544
  171SAPE   C2719356   1.347   4.102   6.981  0.0408 -0.1626  0.6926
  171SAPE   H7R19357   1.270   4.093   6.901  1.5387  1.2788 -1.0136
  171SAPE   H7S19358   1.439   4.129   6.924 -0.2364 -0.6167  0.0222
  171SAPE   C2819359   1.301   4.207   7.075 -0.6979 -0.6644 -0.4644
  171SAPE   H8R19360   1.270   4.173   7.175 -2.8508 -1.4025 -1.3142
  171SAPE   C2919361   1.246   4.327   7.034  1.1567  0.2101  0.3406
  171SAPE   H9R19362   1.191   4.397   7.098 -1.0424 -0.3180 -0.8784
  171SAPE  C21019363   1.235   4.370   6.884 -0.1609  0.2176 -0.5863
  171SAPE  H10R19364   1.132   4.333   6.864 -0.5781 -0.9723  3.0004
  171SAPE  H10S19365   1.312   4.316   6.825  0.3857 -2.2845  2.1797
  171SAPE  C21119366   1.236   4.517   6.875 -0.4426 -0.4818  0.6565
  171SAPE  H11R19367   1.307   4.572   6.940  2.2285 -0.6527 -1.9036
  171SAPE  C21219368   1.161   4.583   6.782  0.5682 -0.3093  0.2436
  171SAPE  H12R19369   1.183   4.690   6.771 -1.3468  0.0757 -0.2765
  171SAPE  C21319370   1.071   4.514   6.683  0.6184  0.5169 -0.1000
  171SAPE  H13R19371   1.002   4.588   6.638  4.0620  1.7631 -3.8847
  171SAPE  H13S19372   1.011   4.433   6.729  2.6048 -0.0827  1.6551
  171SAPE  C21419373   1.160   4.465   6.567  0.0773  0.1823 -1.0165
  171SAPE  H14R19374   1.216   4.553   6.531 -0.1105  0.9755  0.5771
  171SAPE  C21519375   1.176   4.343   6.509  0.2808  0.6573  0.2063
  171SAPE  H15R19376   1.267   4.324   6.450 -0.6037 -0.8873 -0.7370
  171SAPE  C21619377   1.106   4.218   6.553 -0.0053  0.4045  0.7897
  171SAPE  H16R19378   1.029   4.176   6.485  0.8072 -1.3004  0.8534
  171SAPE  H16S19379   1.036   4.229   6.639  0.4823 -1.0267  1.4033
  171SAPE  C21719380   1.195   4.106   6.611 -0.1758 -0.1182 -0.2051
  171SAPE  H17R19381   1.259   4.142   6.695 -1.0182  0.6539  0.1213
  171SAPE  H17S19382   1.265   4.074   6.530  0.7333  1.4926 -0.1168
  171SAPE  C21819383   1.112   3.998   6.665 -0.0419 -0.4624  0.6271
  171SAPE  H18R19384   1.038   3.961   6.592 -1.1241 -0.3869  1.6594
  171SAPE  H18S19385   1.052   4.030   6.752  1.2602 -0.4252  1.5438
  171SAPE  C21919386   1.201   3.877   6.704 -0.0062 -0.7209  0.2664
  171SAPE  H19R19387   1.250   3.904   6.799 -0.1712 -0.5451  0.3009
  171SAPE  H19S19388   1.273   3.867   6.620  1.5470 -0.1230  1.4892
  171SAPE  C22019389   1.120   3.751   6.720  0.6349  0.2844 -0.0721
  171SAPE  H20R19390   1.033   3.774   6.786  0.1525  0.9182 -0.9143
  171SAPE  H20S19391   1.178   3.665   6.760 -2.9981 -2.0645  0.6400
  171SAPE  H20T19392   1.090   3.708   6.622 -0.8852  1.1077 -0.0072
  171SAPE   C3319393   1.799   4.516   6.982  0.0241 -0.1480  0.3260
  171SAPE   H3X19394   1.715   4.588   6.972 -0.8384 -1.2593 -0.7684
  171SAPE   H3Y19395   1.886   4.543   6.919 -0.6037 -2.7215 -1.8545
  171SAPE   C3419396   1.850   4.520   7.128 -0.8010  0.2065 -0.5552
  171SAPE   H4X19397   1.884   4.619   7.165 -0.7997  1.3908 -3.4306
  171SAPE   H4Y19398   1.938   4.452   7.132  0.7202  1.9467 -2.2319
  171SAPE   C3519399   1.755   4.465   7.235  0.2187 -0.2781  0.3568
  171SAPE   H5X19400   1.710   4.367   7.207  1.2055 -1.5700  2.9623
  171SAPE   H5Y19401   1.682   4.549   7.243  0.4393 -0.1020  0.5353
  171SAPE   C3619402   1.815   4.445   7.378  0.1561 -0.2438  0.0401
  171SAPE   H6X19403   1.923   4.471   7.387 -0.0058  0.0275  1.4950
  171SAPE   H6Y19404   1.807   4.341   7.415 -0.9995 -0.1364  0.1233
  171SAPE   C3719405   1.738   4.527   7.482 -0.2112  0.1562  0.0604
  171SAPE   H7X19406   1.629   4.505   7.482 -0.5812  1.8263 -0.5990
  171SAPE   H7Y19407   1.750   4.633   7.450  0.6311  0.1731  0.3997
  171SAPE   C3819408   1.789   4.511   7.627 -0.0541  0.0589  0.2810
  171SAPE   H8X19409   1.893   4.539   7.599 -0.4547  0.9199 -0.3871
  171SAPE   H8Y19410   1.778   4.405   7.661 -0.8768  0.2634  0.6659
  171SAPE   C3919411   1.737   4.622   7.714  0.0409 -0.3624 -0.0717
  171SAPE   H9X19412   1.627   4.604   7.711  0.1968 -1.3885  0.0554
  171SAPE   H9Y19413   1.757   4.721   7.669  0.5260 -0.0683  0.7733
  171SAPE  C31019414   1.767   4.621   7.867  0.1440  0.4330 -0.2799
  171SAPE  H10X19415   1.876   4.635   7.885  0.4900 -1.6539 -0.4455
  171SAPE  H10Y19416   1.737   4.522   7.905  3.3579  0.5537  3.0810
  171SAPE  C31119417   1.692   4.730   7.939 -0.0730 -0.9808  0.3745
  171SAPE  H11X19418   1.589   4.728   7.896 -0.3118  1.0263  0.7853
  171SAPE  H11Y19419   1.731   4.832   7.919  0.4690 -1.0899  0.8574
  171SAPE  C31219420   1.699   4.711   8.088 -0.3288 -0.3116 -0.0420
  171SAPE  H12X19421   1.647   4.614   8.104  0.3901 -0.6870  0.0379
  171SAPE  H12Y19422   1.632   4.794   8.120  0.9911  1.1404 -0.8788
  171SAPE  C31319423   1.837   4.716   8.146 -0.2258  0.3096 -0.1978
  171SAPE  H13X19424   1.901   4.776   8.077 -0.5244  1.2391  0.3149
  171SAPE  H13Y19425   1.881   4.615   8.139  0.4328  0.3589  2.5049
  171SAPE  C31419426   1.837   4.774   8.289  0.1944  0.4348  0.2444
  171SAPE  H14X19427   1.782   4.708   8.359 -0.8368 -0.7158 -1.5598
  171SAPE  H14Y19428   1.782   4.870   8.292 -1.0912 -0.2684  0.0606
  171SAPE  C31519429   1.974   4.823   8.341 -0.1124 -0.1344  0.3096
  171SAPE  H15X19430   1.966   4.872   8.440  0.5497 -0.6266  0.6202
  171SAPE  H15Y19431   2.006   4.905   8.274  1.6903 -0.7516  0.3590
  171SAPE  C31619432   2.084   4.718   8.353  0.0687  0.6832  1.1864
  171SAPE  H16X19433   2.180   4.769   8.376  1.6981 -1.1353 -1.0451
  171SAPE  H16Y19434   2.095   4.661   8.258  2.3548  1.3460  0.9883
  171SAPE  C31719435   2.059   4.608   8.459 -0.2421  0.6968 -0.0932
  171SAPE  H17X19436   1.977   4.538   8.432  0.6374 -0.5619  0.4115
  171SAPE  H17Y19437   2.038   4.659   8.555  2.1089  0.8709  0.3849
  171SAPE  C31819438   2.181   4.516   8.469 -0.2533 -0.2048 -0.4842
  171SAPE  H18X19439   2.259   4.569   8.529 -1.2199 -0.2621  0.8759
  171SAPE  H18Y19440   2.217   4.484   8.369  2.3294 -2.7944  1.1165
  171SAPE  H18Z19441   2.158   4.429   8.533 -0.0435 -0.5423 -0.8648
  172SAPE     N19442   6.219   4.286   6.057  0.3765 -0.8656  0.0247
  172SAPE   HN119443   6.153   4.206   6.064 -1.4409  0.7195  3.2923
  172SAPE   HN219444   6.259   4.279   6.153  0.1377  0.0132  0.1900
  172SAPE   HN319445   6.162   4.371   6.071  2.0427  0.6921 -1.9504
  172SAPE   C1219446   6.303   4.296   5.940 -0.1539  0.0554 -0.1855
  172SAPE  H12A19447   6.347   4.398   5.952 -0.4612  0.0410  1.2238
  172SAPE  H12B19448   6.238   4.286   5.850 -0.2559 -0.7605 -0.0284
  172SAPE   C1119449   6.410   4.180   5.944  0.2014  0.4615  0.3137
  172SAPE  H11A19450   6.462   4.199   5.848 -0.4152  0.1795 -0.0741
  172SAPE  H11B19451   6.365   4.079   5.940  2.1042 -0.4129 -0.2151
  172SAPE     P19452   6.613   4.309   6.060  0.4188 -0.4051 -0.0325
  172SAPE   O1319453   6.700   4.316   5.940 -0.2544 -0.1711  0.0103
  172SAPE   O1419454   6.540   4.432   6.101 -0.4003  0.5099  0.1720
  172SAPE   O1219455   6.513   4.192   6.049  0.6866  0.0601  0.4850
  172SAPE   O1119456   6.700   4.264   6.188  0.6008  0.4167  0.8573
  172SAPE    C119457   6.676   4.149   6.266 -0.6362 -0.7559 -0.8925
  172SAPE    HA19458   6.620   4.068   6.213  0.1409  0.6168 -4.0809
  172SAPE    HB19459   6.776   4.113   6.299  0.7308  2.4163 -1.2178
  172SAPE    C219460   6.597   4.182   6.399 -0.6166  0.5036  0.7234
  172SAPE    HS19461   6.500   4.218   6.360 -0.6735  0.4292  0.7964
  172SAPE   O2119462   6.668   4.280   6.475 -0.0103 -0.2315 -0.0277
  172SAPE   C2119463   6.592   4.350   6.557 -0.1272  1.5984 -0.1907
  172SAPE   O2219464   6.470   4.357   6.549 -0.2646  0.4782 -0.1657
  172SAPE   C2219465   6.682   4.413   6.667  0.5112 -0.1548 -0.9115
  172SAPE   H2R19466   6.706   4.337   6.745 -0.5179 -1.8368 -2.1665
  172SAPE   H2S19467   6.779   4.436   6.619 -0.3493  1.2294 -2.0606
  172SAPE    C319468   6.568   4.056   6.487 -0.4432 -0.7214 -0.1041
  172SAPE    HX19469   6.668   4.019   6.518  2.5264  1.3086 -5.9415
  172SAPE    HY19470   6.532   3.970   6.427  0.1009 -3.1843  2.8313
  172SAPE   O3119471   6.493   4.073   6.608 -0.4507  0.5189 -0.0525
  172SAPE   C3119472   6.362   4.067   6.587 -0.2153  0.0531 -0.0308
  172SAPE   O3219473   6.311   4.042   6.478 -0.4305 -0.3080  0.1579
  172SAPE   C3219474   6.284   4.089   6.719  0.0360  0.4907  0.3941
  172SAPE   H2X19475   6.180   4.058   6.697  0.7934 -1.6580 -0.3981
  172SAPE   H2Y19476   6.295   4.196   6.746 -4.4190  1.3179 -0.3368
  172SAPE   C2319477   6.620   4.544   6.722 -0.6212  0.4139 -0.3231
  172SAPE   H3R19478   6.529   4.528   6.782  0.7286  2.6558  2.6139
  172SAPE   H3S19479   6.602   4.611   6.635  2.1543  2.5892  0.5894
  172SAPE   C2419480   6.725   4.596   6.826 -0.2016 -0.1679  0.2516
  172SAPE   H4R19481   6.823   4.600   6.775 -0.2784 -3.5056 -0.3294
  172SAPE   H4S19482   6.735   4.522   6.908 -0.3534 -0.7256 -0.2310
  172SAPE   C2519483   6.690   4.723   6.890 -0.7270 -0.3544 -0.7018
  172SAPE   H5R19484   6.638   4.788   6.817 -1.7150 -1.3103 -0.8694
  172SAPE   C2619485   6.725   4.758   7.017  0.6621  0.0695 -0.5788
  172SAPE   H6R19486   6.707   4.863   7.046 -0.4243 -0.3505  0.3250
  172SAPE   C2719487   6.795   4.672   7.121 -0.1422  0.0909  0.4016
  172SAPE   H7R19488   6.858   4.733   7.188  0.3307 -0.7258  0.7218
  172SAPE   H7S19489   6.863   4.599   7.072  0.3476 -0.4366  1.8042
  172SAPE   C2819490   6.703   4.589   7.199  0.2503 -0.3337 -0.0255
  172SAPE   H8R19491   6.608   4.560   7.151 -0.3649  4.6317 -2.4261
  172SAPE   C2919492   6.707   4.570   7.333  0.6905 -0.2013 -0.1044
  172SAPE   H9R19493   6.643   4.496   7.384  2.1318 -1.9055 -0.6385
  172SAPE  C21019494   6.814   4.626   7.421  0.4830  0.2500  0.4021
  172SAPE  H10R19495   6.911   4.649   7.373  0.5426  0.1857  0.4912
  172SAPE  H10S19496   6.846   4.552   7.497  0.8717  1.3296  1.3187
  172SAPE  C21119497   6.759   4.745   7.492  0.2888  0.0724 -0.0614
  172SAPE  H11R19498   6.673   4.794   7.444 -0.5882 -1.4114 -0.0551
  172SAPE  C21219499   6.788   4.767   7.624 -0.0292  0.6053 -0.2522
  172SAPE  H12R19500   6.737   4.848   7.677  1.1292  1.5482 -0.5604
  172SAPE  C21319501   6.877   4.685   7.716 -0.1024 -0.0132  0.2591
  172SAPE  H13R19502   6.943   4.755   7.772  1.0261 -1.4470  0.7916
  172SAPE  H13S19503   6.948   4.620   7.660 -0.1287  0.7851 -0.7179
  172SAPE  C21419504   6.796   4.591   7.803 -0.2008 -0.5356  0.0705
  172SAPE  H14R19505   6.752   4.509   7.744 -1.1841 -0.6805  0.9802
  172SAPE  C21519506   6.779   4.617   7.932 -0.0942  0.1103 -0.8065
  172SAPE  H15R19507   6.714   4.548   7.987  0.3617  1.4476  1.5389
  172SAPE  C21619508   6.836   4.730   8.020  0.6204  0.0415  0.5866
  172SAPE  H16R19509   6.775   4.720   8.112 -0.2874 -1.5509 -0.1494
  172SAPE  H16S19510   6.817   4.832   7.981  0.5319  1.2810  3.6363
  172SAPE  C21719511   6.981   4.712   8.050 -1.0574 -0.1745  0.1718
  172SAPE  H17R19512   7.036   4.731   7.956  0.2486  2.5454  1.3633
  172SAPE  H17S19513   6.998   4.606   8.079 -0.6401 -0.2028 -0.1778
  172SAPE  C21819514   7.029   4.806   8.158 -0.4025  0.0404 -0.0679
  172SAPE  H18R19515   6.986   4.775   8.255 -1.2852  0.0311 -0.4478
  172SAPE  H18S19516   6.998   4.909   8.129  0.8333 -0.1853 -2.4772
  172SAPE  C21919517   7.185   4.821   8.157 -0.1291 -0.4434  0.1724
  172SAPE  H19R19518   7.223   4.841   8.054  1.3616  0.2331  0.8221
  172SAPE  H19S19519   7.213   4.715   8.180 -0.1764 -0.5735 -0.3380
  172SAPE  C22019520   7.251   4.917   8.252 -0.0387 -0.3113 -0.0394
  172SAPE  H20R19521   7.255   4.881   8.357  3.2528 -0.5396 -0.1432
  172SAPE  H20S19522   7.205   5.017   8.238  1.1912  0.2898  0.0577
  172SAPE  H20T19523   7.360   4.933   8.237  0.0021  0.0033  0.5330
  172SAPE   C3319524   6.335   3.992   6.831  0.4370 -0.7482  0.0928
  172SAPE   H3X19525   6.441   4.019   6.846  0.9779 -2.2411 -0.8508
  172SAPE   H3Y19526   6.337   3.888   6.793 -1.4771 -0.7650 -0.0954
  172SAPE   C3419527   6.270   4.010   6.970 -0.2434  0.3074 -0.1622
  172SAPE   H4X19528   6.264   3.912   7.022  0.3016  1.2768  1.8577
  172SAPE   H4Y19529   6.170   4.057   6.968  0.4996  2.1371  1.3594
  172SAPE   C3519530   6.348   4.103   7.065  0.9143 -0.1960 -0.1190
  172SAPE   H5X19531   6.384   4.193   7.011 -0.2546  0.1068 -0.4320
  172SAPE   H5Y19532   6.427   4.036   7.104  0.3634 -0.2262  1.0056
  172SAPE   C3619533   6.275   4.165   7.189 -0.2699  0.2263  0.3905
  172SAPE   H6X19534   6.187   4.228   7.164  0.2684 -0.0220 -2.3922
  172SAPE   H6Y19535   6.356   4.223   7.239 -1.4866  0.9625  1.5926
  172SAPE   C3719536   6.221   4.055   7.274  0.5258  0.0119 -0.1202
  172SAPE   H7X19537   6.306   3.987   7.297  1.6881  1.7604  0.9785
  172SAPE   H7Y19538   6.142   3.991   7.228  0.6079 -0.5020  0.4351
  172SAPE   C3819539   6.162   4.108   7.406  0.6397 -0.0931 -0.0986
  172SAPE   H8X19540   6.076   4.044   7.434 -0.3459  1.0040 -0.5676
  172SAPE   H8Y19541   6.110   4.206   7.399  1.0920  0.2428  0.8878
  172SAPE   C3919542   6.262   4.125   7.522 -0.3442 -0.3375 -0.0612
  172SAPE   H9X19543   6.344   4.197   7.500 -1.4961  1.0788  0.1098
  172SAPE   H9Y19544   6.304   4.026   7.552 -0.4109 -0.5217 -0.5821
  172SAPE  C31019545   6.183   4.170   7.646 -0.3569  0.1974 -0.3717
  172SAPE  H10X19546   6.087   4.115   7.658  0.3378 -1.2409 -1.0889
  172SAPE  H10Y19547   6.158   4.278   7.635 -1.2547  0.0112 -0.2645
  172SAPE  C31119548   6.249   4.152   7.782  0.7457 -0.0165 -0.3163
  172SAPE  H11X19549   6.198   4.225   7.848  0.9855  1.0382 -1.2769
  172SAPE  H11Y19550   6.349   4.198   7.763  1.7181 -0.0897  3.5717
  172SAPE  C31219551   6.250   4.010   7.836  0.2668  0.0974 -0.0190
  172SAPE  H12X19552   6.297   3.948   7.758  1.6553  2.2231 -0.9551
  172SAPE  H12Y19553   6.144   3.977   7.830  0.1758  0.6160 -1.8452
  172SAPE  C31319554   6.326   4.005   7.968  0.0949  0.3618 -0.2317
  172SAPE  H13X19555   6.287   3.917   8.024  0.6756  0.4280  0.2966
  172SAPE  H13Y19556   6.296   4.095   8.025 -1.7845 -0.8656  0.8358
  172SAPE  C31419557   6.475   4.000   7.953 -0.2389 -0.3780  0.1008
  172SAPE  H14X19558   6.506   4.005   8.059  1.2843  0.2809 -0.3491
  172SAPE  H14Y19559   6.508   4.100   7.917 -0.7624  0.9935  3.1434
  172SAPE  C31519560   6.527   3.880   7.876  0.0083  0.4762  0.0271
  172SAPE  H15X19561   6.637   3.889   7.861 -0.1860  2.3457 -0.5065
  172SAPE  H15Y19562   6.473   3.874   7.779 -1.0669 -1.5487  0.6901
  172SAPE  C31619563   6.507   3.745   7.942  0.3189 -0.0596 -0.4759
  172SAPE  H16X19564   6.571   3.673   7.887  0.2580  0.4843 -1.2785
  172SAPE  H16Y19565   6.398   3.720   7.940 -0.0548  1.4939 -0.3328
  172SAPE  C31719566   6.559   3.740   8.085  0.2758 -0.4464 -0.4367
  172SAPE  H17X19567   6.493   3.805   8.146  0.6815  1.3373 -1.8166
  172SAPE  H17Y19568   6.649   3.804   8.072 -2.3451  3.2432 -2.3629
  172SAPE  C31819569   6.594   3.600   8.151  0.4165 -0.6662  0.0265
  172SAPE  H18X19570   6.660   3.621   8.238  1.5363  1.3581 -1.2210
  172SAPE  H18Y19571   6.642   3.535   8.075  2.2082  0.2766  0.2873
  172SAPE  H18Z19572   6.496   3.563   8.189 -0.2724 -0.2325 -1.2553
  173SOPE     N19573   6.186   6.698  10.951  0.0042  0.7612  0.1813
  173SOPE   HN119574   6.133   6.624  10.901  1.2074  1.2306 -1.9331
  173SOPE   HN219575   6.188   6.657  11.046 -2.6322 -0.1890 -0.0756
  173SOPE   HN319576   6.137   6.790  10.946  1.3573  1.4632 -0.8204
  173SOPE   C1219577   6.325   6.725  10.895 -0.5053  0.2781  0.1884
  173SOPE  H12A19578   6.376   6.803  10.955  1.5659 -1.1147  0.3282
  173SOPE  H12B19579   6.319   6.752  10.787 -1.9201 -1.4878 -0.2404
  173SOPE   C1119580   6.409   6.603  10.892  0.7841  0.7443 -0.4442
  173SOPE  H11A19581   6.507   6.638  10.852  2.4440 -1.1049  1.7652
  173SOPE  H11B19582   6.360   6.525  10.830 -1.5399  0.9701  0.9964
  173SOPE     P19583   6.524   6.439  11.053  0.1527 -0.0115  0.4604
  173SOPE   O1319584   6.454   6.346  11.142  0.1967 -0.1550 -0.6877
  173SOPE   O1419585   6.660   6.484  11.086  0.1620  0.8778 -0.4663
  173SOPE   O1219586   6.435   6.560  11.024 -0.2421  0.0242  0.2212
  173SOPE   O1119587   6.529   6.371  10.910 -0.1672  0.1034 -0.3954
  173SOPE    C119588   6.622   6.269  10.882 -0.4110 -0.3157  0.0205
  173SOPE    HA19589   6.593   6.169  10.921 -0.8374  0.5345  2.0275
  173SOPE    HB19590   6.723   6.293  10.922  0.6235  0.3826 -2.7618
  173SOPE    C219591   6.648   6.276  10.732  0.2358  0.7551 -0.0679
  173SOPE    HS19592   6.659   6.385  10.714  0.1848  0.9183  0.8516
  173SOPE   O2119593   6.522   6.228  10.678  0.0120  0.0900  0.2976
  173SOPE   C2119594   6.486   6.281  10.556 -0.3524 -0.2705  0.7538
  173SOPE   O2219595   6.554   6.367  10.497  0.2627 -0.3263 -0.2117
  173SOPE   C2219596   6.356   6.230  10.499 -0.0218 -0.1264 -0.0209
  173SOPE   H2R19597   6.334   6.279  10.402 -0.6163 -0.2200  0.0664
  173SOPE   H2S19598   6.283   6.255  10.578 -0.3698  1.0280 -0.6876
  173SOPE    C319599   6.764   6.187  10.678  0.2929  0.1252 -0.4029
  173SOPE    HX19600   6.748   6.082  10.712 -1.4480  0.7257  0.7509
  173SOPE    HY19601   6.860   6.215  10.726  0.2509 -0.4646  0.0374
  173SOPE   O3119602   6.780   6.185  10.531  0.3586  1.0858  0.2766
  173SOPE   C3119603   6.898   6.159  10.486 -0.0703  0.4633 -0.3540
  173SOPE   O3219604   7.000   6.146  10.557  0.4560  0.4000  0.2616
  173SOPE   C3219605   6.893   6.146  10.341 -0.5621  0.4897 -0.3219
  173SOPE   H2X19606   6.875   6.246  10.297  0.3244 -0.3861 -2.8784
  173SOPE   H2Y19607   6.814   6.075  10.308 -1.4943  1.8048 -0.9787
  173SOPE   C2319608   6.363   6.077  10.476 -0.0557 -0.2415 -0.1476
  173SOPE   H3R19609   6.259   6.036  10.476  0.5226 -1.8408 -1.9383
  173SOPE   H3S19610   6.414   6.025  10.559 -0.3353  0.0022  0.1824
  173SOPE   C2419611   6.427   6.029  10.343  0.1662  0.6570  0.3559
  173SOPE   H4R19612   6.538   6.037  10.347  0.1172  1.3579  0.4992
  173SOPE   H4S19613   6.405   5.922  10.327 -0.5887  0.4725  2.3663
  173SOPE   C2519614   6.369   6.096  10.214 -0.7689 -0.0026 -0.5848
  173SOPE   H5R19615   6.262   6.069  10.202 -1.3807  0.7543  2.4270
  173SOPE   H5S19616   6.365   6.207  10.215  3.9778  0.3735 -0.2474
  173SOPE   C2619617   6.450   6.052  10.098 -0.6213 -0.1464 -0.6346
  173SOPE   H6R19618   6.558   6.072  10.119  0.1932 -3.1867 -1.4053
  173SOPE   H6S19619   6.450   5.941  10.093  0.8028 -0.1948 -0.0142
  173SOPE   C2719620   6.403   6.098   9.964  0.0141  0.3317 -0.5440
  173SOPE   H7R19621   6.310   6.042   9.939  1.2052 -1.6070 -0.8396
  173SOPE   H7S19622   6.372   6.205   9.969  0.2443  0.4796 -1.8298
  173SOPE   C2819623   6.505   6.080   9.851 -0.4731 -0.0837 -0.0470
  173SOPE   H8R19624   6.551   5.979   9.857  1.5021  0.6713 -1.4139
  173SOPE   H8S19625   6.450   6.088   9.755 -1.7689 -0.0123  0.6806
  173SOPE   C2919626   6.619   6.179   9.856  0.5312  0.6750 -0.3868
  173SOPE   H9119627   6.666   6.200   9.953  1.0039  0.0183 -0.4673
  173SOPE  C21019628   6.658   6.260   9.755  0.5444  0.4183  0.2338
  173SOPE  H10119629   6.739   6.332   9.777 -0.9355  2.0790  0.4669
  173SOPE  C21119630   6.601   6.255   9.619  0.7954  0.5997 -0.0507
  173SOPE  H11R19631   6.533   6.339   9.594  2.5397  2.0029 -0.3350
  173SOPE  H11S19632   6.548   6.159   9.602  0.8691  0.0839  2.2274
  173SOPE  C21219633   6.717   6.271   9.527 -0.1626  0.0030 -0.4129
  173SOPE  H12R19634   6.804   6.211   9.562 -0.4801 -1.7498 -2.4452
  173SOPE  H12S19635   6.750   6.377   9.523  4.7170 -1.0440  2.8954
  173SOPE  C21319636   6.696   6.215   9.387 -0.2394 -0.4302  0.2620
  173SOPE  H13R19637   6.642   6.117   9.391 -0.9108 -0.2024 -1.8653
  173SOPE  H13S19638   6.790   6.200   9.331 -0.5243 -3.7770  0.4586
  173SOPE  C21419639   6.615   6.309   9.298 -0.2805  0.0909 -0.0729
  173SOPE  H14R19640   6.673   6.402   9.281  1.7625 -1.4351 -2.2971
  173SOPE  H14S19641   6.510   6.321   9.332 -0.1067  1.1040  0.1123
  173SOPE  C21519642   6.601   6.262   9.152  0.3865  0.2238  0.2304
  173SOPE  H15R19643   6.528   6.331   9.105 -1.9705 -1.7954  0.7555
  173SOPE  H15S19644   6.546   6.166   9.143 -0.8362  1.0505 -2.1015
  173SOPE  C21619645   6.725   6.236   9.059  0.2376  0.1203 -0.1014
  173SOPE  H16R19646   6.804   6.183   9.116  1.0561  0.5966 -0.7702
  173SOPE  H16S19647   6.769   6.333   9.027  0.0711  0.5848  1.0096
  173SOPE  C21719648   6.683   6.171   8.923 -0.6728 -0.2591 -0.0509
  173SOPE  H17R19649   6.640   6.070   8.939  0.3003 -0.2765  2.9701
  173SOPE  H17S19650   6.772   6.149   8.861 -0.4277  1.3481 -0.2927
  173SOPE  C21819651   6.585   6.261   8.838  0.4558  0.3414  0.3112
  173SOPE  H18R19652   6.621   6.366   8.832 -3.0207  1.7497  1.6882
  173SOPE  H18S19653   6.486   6.261   8.889  0.0578  1.2887 -0.4481
  173SOPE  H18T19654   6.565   6.233   8.733  0.6968 -1.2824  0.6701
  173SOPE   C3319655   7.022   6.089  10.279  0.3389  0.0409 -0.1793
  173SOPE   H3X19656   7.038   5.987  10.320 -1.0391 -0.7763 -1.5656
  173SOPE   H3Y19657   7.103   6.156  10.314  0.8287 -0.0725 -1.0867
  173SOPE   C3419658   7.013   6.091  10.130 -0.2599  0.2459  0.1604
  173SOPE   H4X19659   7.013   6.193  10.088 -0.7852 -0.6651 -2.2105
  173SOPE   H4Y19660   6.917   6.049  10.093 -0.0016  0.5889 -0.9363
  173SOPE   C3519661   7.139   6.016  10.065  0.3441 -0.6580 -0.5154
  173SOPE   H5X19662   7.169   5.940  10.140  0.5916  2.1870  2.4994
  173SOPE   H5Y19663   7.232   6.077  10.071 -1.0058  1.6197 -1.4795
  173SOPE   C3619664   7.124   5.964   9.918 -0.3943  0.5032 -0.4228
  173SOPE   H6X19665   7.044   5.887   9.924 -0.4905  0.5698 -0.8856
  173SOPE   H6Y19666   7.222   5.919   9.889 -0.8817  0.8192 -2.6683
  173SOPE   C3719667   7.077   6.067   9.825  1.0042  0.3141 -0.7103
  173SOPE   H7X19668   7.101   6.171   9.856  0.0830  0.4976 -0.5785
  173SOPE   H7Y19669   6.966   6.063   9.826  1.0438 -1.2752  0.4942
  173SOPE   C3819670   7.136   6.045   9.686 -0.4936 -0.8733  0.0281
  173SOPE   H8X19671   7.242   6.018   9.706  0.1358 -0.1875 -2.1349
  173SOPE   H8Y19672   7.120   6.138   9.627 -0.5605  0.2596  1.7597
  173SOPE   C3919673   7.080   5.925   9.615  0.1860  0.0120  0.8482
  173SOPE   H9X19674   6.980   5.961   9.583 -0.3763 -0.7215  1.7293
  173SOPE   H9Y19675   7.048   5.841   9.680  0.9645 -0.4250  0.6900
  173SOPE  C31019676   7.170   5.870   9.497  0.3698 -0.0775  0.0617
  173SOPE  H10X19677   7.138   5.766   9.477  1.0012 -0.5996  1.6444
  173SOPE  H10Y19678   7.273   5.864   9.537 -0.5124 -1.3999  2.3108
  173SOPE  C31119679   7.169   5.964   9.370  0.8068  0.2572 -0.0137
  173SOPE  H11X19680   7.215   6.061   9.398 -0.7446  0.8545  0.5706
  173SOPE  H11Y19681   7.063   5.991   9.355  0.4242 -0.8894  0.5544
  173SOPE  C31219682   7.239   5.903   9.245  0.3194  0.2037 -0.5174
  173SOPE  H12X19683   7.189   5.808   9.217  0.6363  0.0290 -0.4993
  173SOPE  H12Y19684   7.345   5.874   9.265  0.2159 -0.3459 -0.7286
  173SOPE  C31319685   7.221   5.996   9.124  0.1568 -0.8142 -0.2140
  173SOPE  H13X19686   7.286   6.086   9.131  0.3088 -0.7809 -1.6999
  173SOPE  H13Y19687   7.116   6.033   9.118 -0.1206 -1.8371 -3.5664
  173SOPE  C31419688   7.252   5.931   8.986 -0.7947  0.1455 -0.2992
  173SOPE  H14X19689   7.243   6.000   8.900  0.5702  1.5912  0.6638
  173SOPE  H14Y19690   7.181   5.847   8.974  0.1495 -1.4566  3.7241
  173SOPE  C31519691   7.395   5.863   8.982 -0.3359 -0.0220 -0.1067
  173SOPE  H15X19692   7.387   5.785   9.060 -0.4021  1.0840  1.0238
  173SOPE  H15Y19693   7.477   5.935   9.005 -1.1600  0.8327  0.1968
  173SOPE  C31619694   7.426   5.804   8.843 -0.1051 -0.1113 -0.1816
  173SOPE  H16X19695   7.426   5.890   8.772  0.5892 -0.5306 -0.6976
  173SOPE  H16Y19696   7.340   5.742   8.808  1.5630 -2.6796 -0.0161
  173SOPE  C31719697   7.554   5.728   8.837 -0.2028 -0.0734 -0.4898
  173SOPE  H17X19698   7.536   5.640   8.901 -2.1865  0.4709 -0.2038
  173SOPE  H17Y19699   7.642   5.780   8.879 -0.4179 -0.7808  0.8686
  173SOPE  C31819700   7.585   5.687   8.694 -0.0833 -0.4656  0.0037
  173SOPE  H18X19701   7.691   5.716   8.677  0.1638 -1.1526  0.3398
  173SOPE  H18Y19702   7.518   5.743   8.624 -1.5704 -1.9301  0.1899
  173SOPE  H18Z19703   7.574   5.576   8.690 -0.1168 -0.5148  1.2542
  174SOPE     N19704   5.899   4.300  10.732 -0.0835 -0.4604 -0.0402
  174SOPE   HN119705   5.900   4.392  10.682  1.2315 -1.3894 -1.8305
  174SOPE   HN219706   5.928   4.222  10.671  0.5083 -1.0489  0.9641
  174SOPE   HN319707   5.803   4.287  10.770  0.4441  2.5957  2.8680
  174SOPE   C1219708   5.981   4.298  10.861  1.1406  0.6452  0.1969
  174SOPE  H12A19709   5.965   4.200  10.911  1.5767  0.5994  0.2468
  174SOPE  H12B19710   5.943   4.380  10.927  0.2568  0.8589 -0.5516
  174SOPE   C1119711   6.135   4.299  10.831  0.4678  0.1456  0.4401
  174SOPE  H11A19712   6.194   4.291  10.924  1.7718  0.8420 -0.2876
  174SOPE  H11B19713   6.168   4.399  10.795  1.6877 -1.0746 -2.1422
  174SOPE     P19714   6.300   4.128  10.716  0.1305  0.4025 -0.1751
  174SOPE   O1319715   6.288   3.983  10.704  0.2511  0.5850  0.4345
  174SOPE   O1419716   6.383   4.179  10.823 -0.2017 -0.1504 -0.7748
  174SOPE   O1219717   6.160   4.192  10.733  0.1884 -0.2375  0.5219
  174SOPE   O1119718   6.359   4.192  10.580  0.2806 -0.1656  0.1913
  174SOPE    C119719   6.345   4.330  10.542  0.0432  0.5209  0.8323
  174SOPE    HA19720   6.436   4.370  10.492 -1.6918  3.3800 -0.2983
  174SOPE    HB19721   6.323   4.400  10.625 -1.1442  0.1307  0.8734
  174SOPE    C219722   6.230   4.343  10.441 -0.9952  0.1879  0.5651
  174SOPE    HS19723   6.138   4.297  10.483 -0.7938 -2.1889 -1.3434
  174SOPE   O2119724   6.267   4.269  10.320 -0.0284  0.0522  0.9059
  174SOPE   C2119725   6.175   4.212  10.254  0.6793  0.4521  0.0408
  174SOPE   O2219726   6.057   4.208  10.294  0.2817 -0.2547  0.3056
  174SOPE   C2219727   6.213   4.155  10.119  0.7049  0.0260 -0.0528
  174SOPE   H2R19728   6.265   4.234  10.061 -2.0491  0.1157 -2.5842
  174SOPE   H2S19729   6.119   4.148  10.061  0.4318  0.7512  0.2878
  174SOPE    C319730   6.186   4.487  10.402 -0.4516 -0.1215 -0.3938
  174SOPE    HX19731   6.268   4.546  10.355 -1.9407  0.1203 -2.8648
  174SOPE    HY19732   6.159   4.556  10.484  1.4295 -1.6578  1.6179
  174SOPE   O3119733   6.075   4.488  10.310 -0.2261  0.0664 -0.3888
  174SOPE   C3119734   5.954   4.476  10.371 -0.4571  0.2401 -0.4693
  174SOPE   O3219735   5.943   4.481  10.495  0.0399  0.0328  0.1582
  174SOPE   C3219736   5.840   4.471  10.270  0.0489  0.1689  1.0002
  174SOPE   H2X19737   5.799   4.574  10.260  0.2073  0.1922  0.5806
  174SOPE   H2Y19738   5.756   4.409  10.308 -1.7888  2.6635  1.2630
  174SOPE   C2319739   6.290   4.025  10.121  0.0071 -0.7700 -0.2003
  174SOPE   H3R19740   6.241   3.957  10.193 -0.8683 -0.1778 -0.2172
  174SOPE   H3S19741   6.392   4.041  10.162 -1.1027  0.5319  2.3059
  174SOPE   C2419742   6.267   3.960   9.986  0.2468  1.1946  0.3803
  174SOPE   H4R19743   6.317   3.861   9.997  2.6464  2.5074  2.7141
  174SOPE   H4S19744   6.162   3.933   9.962  0.4595  1.5260 -0.9930
  174SOPE   C2519745   6.334   4.020   9.870  0.7105 -0.2700  0.2167
  174SOPE   H5R19746   6.301   4.126   9.859  1.1873 -0.1190  0.2163
  174SOPE   H5S19747   6.445   4.022   9.880  0.5832  0.5955  1.7886
  174SOPE   C2619748   6.305   3.948   9.745 -0.5822 -0.6700  0.4388
  174SOPE   H6R19749   6.360   3.852   9.742 -2.0489 -1.5294 -0.0882
  174SOPE   H6S19750   6.199   3.915   9.741 -1.0161  0.7385 -0.2282
  174SOPE   C2719751   6.339   4.033   9.617 -0.3582  0.0562  0.9790
  174SOPE   H7R19752   6.265   4.115   9.600  0.6239  0.8299  0.3223
  174SOPE   H7S19753   6.436   4.087   9.622 -0.8251  0.9232  1.0210
  174SOPE   C2819754   6.351   3.953   9.488 -0.2464 -0.1262  0.1775
  174SOPE   H8R19755   6.405   3.859   9.514 -1.7376 -0.5915  1.7939
  174SOPE   H8S19756   6.252   3.925   9.447 -0.7572 -0.1273  1.3672
  174SOPE   C2919757   6.435   4.023   9.384  0.1656  0.0340  0.4627
  174SOPE   H9119758   6.493   4.113   9.410  0.4348 -0.2413  0.8235
  174SOPE  C21019759   6.451   3.983   9.255 -0.0615  0.5609  0.1288
  174SOPE  H10119760   6.508   4.040   9.181 -0.1094  0.6558  0.1639
  174SOPE  C21119761   6.396   3.853   9.196  0.3302  1.1329  0.2942
  174SOPE  H11R19762   6.389   3.776   9.276  0.1295  2.2632  1.3943
  174SOPE  H11S19763   6.460   3.814   9.114 -2.0018  0.5184 -1.3407
  174SOPE  C21219764   6.251   3.864   9.136 -0.2099  0.2901  0.2878
  174SOPE  H12R19765   6.176   3.890   9.214 -0.5582  0.3252 -0.0562
  174SOPE  H12S19766   6.226   3.763   9.096  1.2058  0.6128 -1.5463
  174SOPE  C21319767   6.225   3.952   9.015  0.1066 -0.3121 -0.3584
  174SOPE  H13R19768   6.232   4.060   9.042  1.1395  0.0080 -1.7961
  174SOPE  H13S19769   6.126   3.925   8.974 -1.3148  1.4130  1.7295
  174SOPE  C21419770   6.318   3.930   8.894  0.0646 -0.5114 -0.3574
  174SOPE  H14R19771   6.333   3.820   8.888 -0.7519 -0.6574  0.1002
  174SOPE  H14S19772   6.420   3.972   8.902 -0.7030  1.4913 -0.3531
  174SOPE  C21519773   6.256   3.993   8.766  0.0327  0.1176 -0.7359
  174SOPE  H15R19774   6.229   4.100   8.776 -1.1178 -0.1564 -0.7717
  174SOPE  H15S19775   6.164   3.939   8.737  1.2549 -1.4865 -1.8469
  174SOPE  C21619776   6.361   3.997   8.653  0.4006 -0.0616  0.0269
  174SOPE  H16R19777   6.408   3.899   8.633 -0.3226 -0.6561  1.1378
  174SOPE  H16S19778   6.439   4.064   8.696 -0.1316  0.4655  0.1935
  174SOPE  C21719779   6.312   4.048   8.518  0.5179 -0.0478 -0.1467
  174SOPE  H17R19780   6.291   4.157   8.509 -0.9067 -0.1963  1.0019
  174SOPE  H17S19781   6.220   3.997   8.484  0.0922  1.7593 -1.8740
  174SOPE  C21819782   6.411   4.004   8.416 -0.6310  0.2362  0.1163
  174SOPE  H18R19783   6.372   4.028   8.314 -1.5042  1.9360  0.7948
  174SOPE  H18S19784   6.431   3.896   8.425 -1.0510  0.1422 -0.0291
  174SOPE  H18T19785   6.504   4.060   8.439  0.3417 -1.0520 -0.5841
  174SOPE   C3319786   5.871   4.425  10.127 -0.4097  0.2201  0.7303
  174SOPE   H3X19787   5.782   4.383  10.074  0.4636 -1.1416  0.2982
  174SOPE   H3Y19788   5.932   4.333  10.131 -0.9504 -0.2490 -0.7997
  174SOPE   C3419789   5.947   4.531  10.037 -0.3315 -0.3392  0.5748
  174SOPE   H4X19790   6.006   4.591  10.109  0.0842  1.3705 -1.1304
  174SOPE   H4Y19791   5.877   4.600   9.985  0.0658  1.3632  2.1937
  174SOPE   C3519792   6.051   4.479   9.934  0.1421 -0.2017 -0.1109
  174SOPE   H5X19793   6.100   4.388   9.975  3.1170  0.6260 -1.5114
  174SOPE   H5Y19794   6.123   4.563   9.926  1.5497 -1.4804 -1.7698
  174SOPE   C3619795   5.993   4.453   9.796  0.0663  0.4026 -0.0289
  174SOPE   H6X19796   5.957   4.551   9.758 -0.6158  0.5165  0.8660
  174SOPE   H6Y19797   5.910   4.378   9.796 -0.1236  0.5487  1.9766
  174SOPE   C3719798   6.105   4.396   9.703 -0.0379  0.1686 -0.0458
  174SOPE   H7X19799   6.146   4.302   9.746  1.8651  0.8562 -0.2533
  174SOPE   H7Y19800   6.188   4.470   9.696 -1.6888  1.9340 -2.2739
  174SOPE   C3819801   6.062   4.344   9.570  0.1974  0.2182  0.7832
  174SOPE   H8X19802   5.960   4.302   9.584 -0.7525  2.5799  1.3881
  174SOPE   H8Y19803   6.138   4.271   9.535  0.2022  0.4754  0.2493
  174SOPE   C3919804   6.047   4.460   9.465  0.4649 -0.1965  0.2370
  174SOPE   H9X19805   6.139   4.510   9.429 -0.2727  0.7894 -0.3321
  174SOPE   H9Y19806   5.984   4.542   9.507  0.1013  0.0705 -0.7893
  174SOPE  C31019807   5.989   4.421   9.328 -0.6607  0.2384 -0.1380
  174SOPE  H10X19808   5.898   4.362   9.350 -0.2418 -0.6249 -0.6657
  174SOPE  H10Y19809   6.049   4.339   9.283 -4.2853 -3.8866  1.8106
  174SOPE  C31119810   5.960   4.551   9.247 -0.8645  0.3555 -0.0583
  174SOPE  H11X19811   6.041   4.623   9.273 -0.8593 -0.0413  1.1013
  174SOPE  H11Y19812   5.865   4.589   9.290 -0.8965  0.2779 -0.0622
  174SOPE  C31219813   5.944   4.516   9.095  0.0598  0.4189  0.0297
  174SOPE  H12X19814   5.877   4.430   9.074 -1.2113  1.4108 -0.0196
  174SOPE  H12Y19815   6.045   4.488   9.057 -0.2464 -0.1657 -0.3667
  174SOPE  C31319816   5.897   4.636   9.002 -0.5333 -0.0679 -0.2109
  174SOPE  H13X19817   5.960   4.726   9.021 -0.0981 -0.2146 -0.8917
  174SOPE  H13Y19818   5.790   4.661   9.012 -0.9895 -1.2403 -1.7150
  174SOPE  C31419819   5.906   4.613   8.849  0.0146  0.1367  0.0785
  174SOPE  H14X19820   5.998   4.555   8.825 -1.5928 -4.2625  3.2578
  174SOPE  H14Y19821   5.901   4.709   8.793 -1.0950 -0.2441 -0.4947
  174SOPE  C31519822   5.786   4.525   8.798 -0.5480 -0.0441  0.8528
  174SOPE  H15X19823   5.794   4.427   8.851  0.7249  0.0473  0.8601
  174SOPE  H15Y19824   5.822   4.510   8.694  0.1630  1.3990  0.8695
  174SOPE  C31619825   5.651   4.589   8.822 -0.7646 -0.3718 -0.3572
  174SOPE  H16X19826   5.660   4.698   8.800  0.1142 -0.0990  1.2207
  174SOPE  H16Y19827   5.621   4.575   8.928 -2.8794  1.1623 -0.7022
  174SOPE  C31719828   5.528   4.542   8.739  0.1220  0.1179  0.6257
  174SOPE  H17X19829   5.519   4.432   8.746  1.0425 -0.0592 -0.7012
  174SOPE  H17Y19830   5.570   4.561   8.638 -2.2413  0.6279 -0.3400
  174SOPE  C31819831   5.394   4.617   8.745  0.2564 -0.7295 -0.3362
  174SOPE  H18X19832   5.345   4.600   8.843  0.5493  0.7093  0.0950
  174SOPE  H18Y19833   5.334   4.575   8.661  0.1991 -0.5433 -0.3899
  174SOPE  H18Z19834   5.415   4.725   8.730  2.1556 -0.5056  3.0458
  175SOPE     N19835   2.209   0.063  10.772  0.8256  0.6556  1.0969
  175SOPE   HN119836   2.117   0.075  10.819  0.8931  1.8667  0.9316
  175SOPE   HN219837   2.187   0.073  10.671 -2.2003  0.2532  1.6210
  175SOPE   HN319838   2.250  -0.030  10.796 -1.3768 -0.5236  0.5854
  175SOPE   C1219839   2.304   0.168  10.816  0.4831 -0.6753  0.7890
  175SOPE  H12A19840   2.322   0.142  10.923 -0.2281 -0.5115  0.9525
  175SOPE  H12B19841   2.247   0.262  10.812  1.4004 -0.1412 -0.7137
  175SOPE   C1119842   2.436   0.173  10.731 -0.4964  0.0123  0.0678
  175SOPE  H11A19843   2.488   0.078  10.757 -0.7912 -0.2282 -0.2253
  175SOPE  H11B19844   2.501   0.256  10.767  1.7008 -0.8361 -1.7254
  175SOPE     P19845   2.551   0.168  10.502 -0.2406 -0.0078  0.5333
  175SOPE   O1319846   2.509   0.184  10.360 -0.0695 -0.1946 -0.4795
  175SOPE   O1419847   2.619   0.040  10.549 -0.2623  0.5294  0.2050
  175SOPE   O1219848   2.418   0.189  10.591 -0.1588 -0.6543 -0.2771
  175SOPE   O1119849   2.651   0.285  10.530 -0.2772  0.1400 -0.0443
  175SOPE    C119850   2.621   0.423  10.544  0.2673 -0.5703 -0.4795
  175SOPE    HA19851   2.709   0.477  10.585 -1.6008  0.6164  2.2834
  175SOPE    HB19852   2.542   0.446  10.619  0.0046  1.0945 -1.2255
  175SOPE    C219853   2.584   0.498  10.415 -0.4860 -0.7425  0.4127
  175SOPE    HS19854   2.589   0.605  10.445 -1.6572 -0.4667 -0.3345
  175SOPE   O2119855   2.464   0.469  10.353  0.1056 -0.2416  0.4342
  175SOPE   C2119856   2.360   0.512  10.418 -0.6578  0.1626 -0.4871
  175SOPE   O2219857   2.357   0.571  10.526 -0.0436  0.3947  0.1887
  175SOPE   C2219858   2.235   0.480  10.339  0.1986 -0.8403  0.7399
  175SOPE   H2R19859   2.171   0.420  10.408 -1.2147 -1.6555 -1.1751
  175SOPE   H2S19860   2.268   0.413  10.257  2.3083  0.5530  0.3908
  175SOPE    C319861   2.694   0.489  10.305 -0.4113  0.3678 -0.3371
  175SOPE    HX19862   2.687   0.383  10.274  0.5891  0.9892 -3.0245
  175SOPE    HY19863   2.796   0.504  10.347 -0.1717  0.2119 -0.8523
  175SOPE   O3119864   2.680   0.581  10.192 -0.5425  0.6084 -0.4898
  175SOPE   C3119865   2.649   0.528  10.076  0.3793 -0.4240 -0.4855
  175SOPE   O3219866   2.625   0.416  10.046 -0.0978  0.1552 -0.9484
  175SOPE   C3219867   2.641   0.644   9.972  0.1433 -0.3689 -0.1733
  175SOPE   H2X19868   2.733   0.704   9.990 -0.9990  1.4660 -0.1565
  175SOPE   H2Y19869   2.547   0.699   9.996  0.2045 -0.6035  0.6130
  175SOPE   C2319870   2.162   0.608  10.300 -0.5292  0.6554 -0.0121
  175SOPE   H3R19871   2.153   0.668  10.393  1.1187 -0.7614  1.1323
  175SOPE   H3S19872   2.060   0.583  10.264  0.1917 -1.7011 -0.6185
  175SOPE   C2419873   2.230   0.669  10.175 -0.1882 -0.4250 -0.1158
  175SOPE   H4R19874   2.183   0.768  10.152 -0.8803 -0.8378 -0.5281
  175SOPE   H4S19875   2.333   0.695  10.208 -0.4931 -0.8993  1.2711
  175SOPE   C2519876   2.213   0.576  10.051  0.3986 -0.7807 -0.2531
  175SOPE   H5R19877   2.280   0.488  10.065  0.5377 -0.6745 -0.2505
  175SOPE   H5S19878   2.108   0.542  10.055 -0.0505  0.5851 -0.1443
  175SOPE   C2619879   2.240   0.629   9.914  0.2888 -0.5633  0.0067
  175SOPE   H6R19880   2.172   0.716   9.898  0.0613 -0.7379  0.0208
  175SOPE   H6S19881   2.344   0.669   9.913 -0.0691  0.3971 -0.7992
  175SOPE   C2719882   2.233   0.518   9.810 -0.3822  0.5901 -0.2595
  175SOPE   H7R19883   2.305   0.441   9.846 -0.2336  0.7372 -0.2367
  175SOPE   H7S19884   2.132   0.475   9.818 -1.7978  3.7071  0.1158
  175SOPE   C2819885   2.258   0.559   9.664 -0.1178 -0.3247  0.0254
  175SOPE   H8R19886   2.358   0.608   9.661  1.6114 -3.5621 -0.5097
  175SOPE   H8S19887   2.281   0.466   9.607  0.9936 -0.0742  0.0345
  175SOPE   C2919888   2.134   0.633   9.621  0.1122 -0.3583  0.2169
  175SOPE   H9119889   2.077   0.667   9.708 -1.7354 -3.0350  0.1672
  175SOPE  C21019890   2.083   0.643   9.495 -0.3082 -0.7860  0.3254
  175SOPE  H10119891   1.988   0.698   9.483  1.0373  1.3849 -0.9764
  175SOPE  C21119892   2.145   0.584   9.367 -0.1866 -0.4755 -0.0491
  175SOPE  H11R19893   2.065   0.527   9.316 -2.1566  1.8037  0.3576
  175SOPE  H11S19894   2.223   0.512   9.401 -2.4694 -1.7932  2.8671
  175SOPE  C21219895   2.220   0.682   9.278  0.4367 -0.2302  0.9233
  175SOPE  H12R19896   2.305   0.640   9.222  1.8788  2.9474  0.4756
  175SOPE  H12S19897   2.253   0.778   9.324 -0.7927  0.8227 -0.3109
  175SOPE  C21319898   2.137   0.742   9.161  0.0718  0.4445  0.0509
  175SOPE  H13R19899   2.048   0.789   9.208  1.3309  1.6161  1.3683
  175SOPE  H13S19900   2.101   0.664   9.090 -2.0597  1.4264 -0.0232
  175SOPE  C21419901   2.230   0.841   9.088  0.5221  1.1221  0.0665
  175SOPE  H14R19902   2.326   0.791   9.065 -0.6865 -1.3765  0.1093
  175SOPE  H14S19903   2.251   0.927   9.155 -1.7836  1.5311  0.3371
  175SOPE  C21519904   2.151   0.882   8.958 -0.1688 -0.9507  0.4402
  175SOPE  H15R19905   2.047   0.901   8.990  0.2276  0.5183  0.9274
  175SOPE  H15S19906   2.139   0.799   8.885 -1.9563 -0.1600 -0.2312
  175SOPE  C21619907   2.200   1.014   8.896  0.1687 -0.8712  0.0781
  175SOPE  H16R19908   2.311   1.006   8.884  0.6897 -1.5580  4.1254
  175SOPE  H16S19909   2.193   1.100   8.966  0.1670 -0.1445 -0.7899
  175SOPE  C21719910   2.133   1.054   8.765 -0.2396 -0.1071 -0.6685
  175SOPE  H17R19911   2.167   0.983   8.685  1.4321  0.0662 -0.1391
  175SOPE  H17S19912   2.167   1.156   8.737 -1.3471  0.5568  0.3510
  175SOPE  C21819913   1.978   1.074   8.767 -0.4302  0.0163  0.4637
  175SOPE  H18R19914   1.922   0.978   8.776 -0.6305  0.0331 -0.5177
  175SOPE  H18S19915   1.955   1.108   8.664  3.3465  0.1748 -0.4402
  175SOPE  H18T19916   1.954   1.147   8.847 -2.2040 -0.2761  0.2577
  175SOPE   C3319917   2.644   0.599   9.828 -0.4626 -1.0511  1.1885
  175SOPE   H3X19918   2.554   0.545   9.792 -0.9913 -0.3459  1.4247
  175SOPE   H3Y19919   2.727   0.535   9.792 -2.4616 -1.5022 -3.2350
  175SOPE   C3419920   2.654   0.721   9.742 -0.2673  0.0912 -0.5255
  175SOPE   H4X19921   2.742   0.785   9.766 -0.8102  1.1343 -1.2547
  175SOPE   H4Y19922   2.574   0.795   9.765 -0.8213 -0.5607 -0.3246
  175SOPE   C3519923   2.631   0.679   9.595  0.0062 -0.0709 -0.5000
  175SOPE   H5X19924   2.605   0.768   9.533 -0.1647  1.7188  1.9935
  175SOPE   H5Y19925   2.546   0.608   9.589 -1.9296  2.1953 -1.8820
  175SOPE   C3619926   2.759   0.618   9.524  0.1818 -0.3095 -0.0323
  175SOPE   H6X19927   2.770   0.519   9.572  1.3979  0.2354  0.8541
  175SOPE   H6Y19928   2.854   0.673   9.542  1.3589 -2.0750 -0.6008
  175SOPE   C3719929   2.741   0.609   9.372 -0.1880  0.5665 -0.4128
  175SOPE   H7X19930   2.633   0.583   9.363  0.0252  0.3773 -3.7662
  175SOPE   H7Y19931   2.804   0.525   9.335 -0.8864  0.2852 -0.9907
  175SOPE   C3819932   2.770   0.734   9.294  0.5884  0.1089 -0.1567
  175SOPE   H8X19933   2.879   0.755   9.306  0.2033  1.7065  0.8781
  175SOPE   H8Y19934   2.722   0.824   9.339 -0.0220 -0.3654  0.1526
  175SOPE   C3919935   2.729   0.711   9.145  0.6879 -0.2641  0.4367
  175SOPE   H9X19936   2.619   0.713   9.137  0.7572 -0.6127 -0.7820
  175SOPE   H9Y19937   2.774   0.617   9.107 -0.1639 -0.7908  0.6979
  175SOPE  C31019938   2.790   0.822   9.058  0.3166 -0.0553  0.1994
  175SOPE  H10X19939   2.894   0.828   9.098  0.6950 -1.1169 -0.5574
  175SOPE  H10Y19940   2.731   0.915   9.067 -0.1633 -0.0673 -2.1081
  175SOPE  C31119941   2.798   0.802   8.904  0.9168 -0.5096 -0.5603
  175SOPE  H11X19942   2.818   0.695   8.880 -1.3968 -0.8976 -0.9210
  175SOPE  H11Y19943   2.877   0.871   8.865 -0.7522  0.7149 -1.9115
  175SOPE  C31219944   2.665   0.843   8.828  0.0230 -0.5427 -0.3699
  175SOPE  H12X19945   2.652   0.948   8.861  0.4158 -0.0041 -1.8908
  175SOPE  H12Y19946   2.570   0.797   8.864 -0.1730 -0.8249 -1.2380
  175SOPE  C31319947   2.690   0.832   8.675  0.5439  0.2076 -0.3372
  175SOPE  H13X19948   2.768   0.757   8.651  1.6242  1.2355 -0.1176
  175SOPE  H13Y19949   2.727   0.930   8.639 -2.2765  0.9915 -1.3770
  175SOPE  C31419950   2.565   0.791   8.594  0.7088  0.8672  0.7131
  175SOPE  H14X19951   2.546   0.687   8.630 -1.6928  0.9677 -0.1031
  175SOPE  H14Y19952   2.591   0.783   8.486  2.2062 -0.4877  1.1391
  175SOPE  C31519953   2.441   0.874   8.618  0.3470 -0.2794  0.1016
  175SOPE  H15X19954   2.456   0.980   8.588 -2.8064  0.3543  0.3424
  175SOPE  H15Y19955   2.404   0.870   8.723 -2.8868 -0.5384 -0.9249
  175SOPE  C31619956   2.336   0.832   8.518 -0.2176  0.8829  0.0605
  175SOPE  H16X19957   2.392   0.824   8.422 -0.9311  3.4995 -0.6508
  175SOPE  H16Y19958   2.265   0.911   8.486 -1.7002  0.0210  1.1259
  175SOPE  C31719959   2.255   0.716   8.565 -0.2318  0.6012 -0.7379
  175SOPE  H17X19960   2.181   0.745   8.642 -1.2552 -1.5586 -0.8507
  175SOPE  H17Y19961   2.319   0.632   8.602 -2.0715 -1.0624 -1.1449
  175SOPE  C31819962   2.165   0.655   8.455 -0.2279 -0.4131 -0.1424
  175SOPE  H18X19963   2.223   0.581   8.395 -0.2126 -0.3787 -0.1708
  175SOPE  H18Y19964   2.125   0.733   8.387 -0.9135  1.1724  1.9852
  175SOPE  H18Z19965   2.080   0.596   8.494  1.1473 -2.3906 -0.0039
  176SOPE     N19966   0.423   6.771  10.945 -0.2108  0.1084  0.4528
  176SOPE   HN119967   0.323   6.794  10.928 -0.1416 -0.7697 -1.3126
  176SOPE   HN219968   0.419   6.667  10.956 -2.3113 -0.1723 -2.0795
  176SOPE   HN319969   0.454   6.832  11.023 -2.2123  1.8910 -0.0552
  176SOPE   C1219970   0.501   6.800  10.825  0.4272  0.2925 -0.1826
  176SOPE  H12A19971   0.485   6.906  10.794 -0.4043  1.0746  2.6323
  176SOPE  H12B19972   0.463   6.733  10.745 -0.9655 -1.9230  2.2075
  176SOPE   C1119973   0.644   6.757  10.850 -0.0329  0.1795  0.5452
  176SOPE  H11A19974   0.702   6.845  10.888  2.6286 -0.1493 -2.3505
  176SOPE  H11B19975   0.675   6.746  10.744 -0.0099 -0.1474  0.5885
  176SOPE     P19976   0.801   6.567  10.931 -0.1622 -0.0095 -0.0512
  176SOPE   O1319977   0.787   6.430  10.991 -0.3266  0.1150 -0.0692
  176SOPE   O1419978   0.900   6.662  10.990  0.5499 -0.1393  0.3491
  176SOPE   O1219979   0.661   6.634  10.931 -0.1712  0.1252  0.1641
  176SOPE   O1119980   0.821   6.544  10.777 -0.5315 -0.0484  0.2035
  176SOPE    C119981   0.739   6.450  10.704  0.1987 -0.1382 -0.8875
  176SOPE    HA19982   0.631   6.476  10.705 -0.3542 -2.2365 -0.5173
  176SOPE    HB19983   0.765   6.347  10.739 -2.6954 -0.3114  1.1401
  176SOPE    C219984   0.778   6.457  10.556 -0.5696 -0.5889 -0.1102
  176SOPE    HS19985   0.698   6.399  10.503 -2.4724  1.9863 -0.2549
  176SOPE   O2119986   0.910   6.417  10.532 -0.1985  0.4768 -0.2523
  176SOPE   C2119987   0.928   6.389  10.408 -0.7645  0.1280 -0.2300
  176SOPE   O2219988   0.845   6.376  10.320  0.0137 -0.5911 -0.3441
  176SOPE   C2219989   1.081   6.373  10.394  0.5899 -0.1183 -0.3336
  176SOPE   H2R19990   1.113   6.275  10.436 -1.0504 -0.8868 -0.8127
  176SOPE   H2S19991   1.131   6.455  10.450  0.6499  0.7482 -1.5944
  176SOPE    C319992   0.750   6.605  10.507  0.6785 -0.5456 -0.3582
  176SOPE    HX19993   0.825   6.664  10.565  2.1836 -0.6182 -2.1526
  176SOPE    HY19994   0.649   6.627  10.546  0.4710 -0.2865 -1.0378
  176SOPE   O3119995   0.772   6.624  10.365 -0.0494 -0.2398  0.4967
  176SOPE   C3119996   0.671   6.603  10.297  0.0614 -0.1767  0.6861
  176SOPE   O3219997   0.563   6.570  10.343  0.0551  0.1057 -0.5082
  176SOPE   C3219998   0.711   6.620  10.150  0.5902 -0.5744  0.0175
  176SOPE   H2X19999   0.780   6.538  10.124  1.3933  0.1842 -0.2870
  176SOPE   H2Y20000   0.762   6.718  10.143  1.9309 -1.3164 -1.0365
  176SOPE   C2320001   1.144   6.387  10.250  0.6588 -0.2929  0.9845
  176SOPE   H3R20002   1.106   6.311  10.178  1.7045 -0.5692  0.7028
  176SOPE   H3S20003   1.255   6.379  10.255  0.6850 -0.6414  0.0787
  176SOPE   C2420004   1.112   6.525  10.195  0.0463 -0.1852  0.1283
  176SOPE   H4R20005   1.004   6.528  10.171  0.1726  1.1476 -0.3057
  176SOPE   H4S20006   1.133   6.601  10.273  1.3794  0.0041 -0.3920
  176SOPE   C2520007   1.200   6.573  10.078 -0.2698  0.6207 -0.0360
  176SOPE   H5R20008   1.202   6.683  10.063  3.5015  0.4268 -2.1616
  176SOPE   H5S20009   1.300   6.539  10.113 -0.8418 -1.2598 -0.1223
  176SOPE   C2620010   1.170   6.500   9.946 -0.2533  0.0329  0.1390
  176SOPE   H6R20011   1.173   6.392   9.973 -1.9815  0.3026  1.5594
  176SOPE   H6S20012   1.066   6.525   9.915  0.2491  0.0923 -1.6008
  176SOPE   C2720013   1.274   6.529   9.836  0.1800  0.3658  0.0142
  176SOPE   H7R20014   1.289   6.638   9.825  0.8651  0.4682  1.7214
  176SOPE   H7S20015   1.365   6.476   9.870  0.7345  0.9947 -0.4864
  176SOPE   C2820016   1.230   6.481   9.695  0.7609  0.4820  0.0080
  176SOPE   H8R20017   1.205   6.374   9.716  0.8341  0.5474  0.4345
  176SOPE   H8S20018   1.137   6.537   9.671  0.1476  0.1268  1.3826
  176SOPE   C2920019   1.331   6.497   9.584 -0.2188  0.1625 -0.4292
  176SOPE   H9120020   1.438   6.508   9.607 -0.2619 -1.3150  0.5855
  176SOPE  C21020021   1.294   6.503   9.455  0.5553 -0.3728  0.1348
  176SOPE  H10120022   1.374   6.522   9.382 -2.3294  1.2836 -2.8537
  176SOPE  C21120023   1.162   6.483   9.383 -0.7816 -0.4548  0.3523
  176SOPE  H11R20024   1.135   6.580   9.337  0.8763  0.3114  0.9071
  176SOPE  H11S20025   1.080   6.458   9.453 -0.1241 -0.6932  1.0474
  176SOPE  C21220026   1.166   6.375   9.265  0.2905 -0.7834 -0.4412
  176SOPE  H12R20027   1.062   6.354   9.234 -0.5563 -0.1716  1.7694
  176SOPE  H12S20028   1.221   6.285   9.301 -0.0555 -0.2153  1.6364
  176SOPE  C21320029   1.246   6.417   9.143 -0.1897  0.4106 -0.0287
  176SOPE  H13R20030   1.355   6.425   9.161  0.0355  0.3375 -1.2884
  176SOPE  H13S20031   1.210   6.514   9.102 -0.4083 -0.3320 -1.6661
  176SOPE  C21420032   1.231   6.318   9.026 -0.2359 -0.1828 -0.5121
  176SOPE  H14R20033   1.136   6.327   8.968 -1.1166  2.0934  1.1359
  176SOPE  H14S20034   1.243   6.222   9.079 -3.4647  1.2015  3.2068
  176SOPE  C21520035   1.334   6.342   8.914 -0.4546  0.2343 -0.4152
  176SOPE  H15R20036   1.437   6.323   8.950 -0.2169  2.2486  0.0527
  176SOPE  H15S20037   1.329   6.447   8.879  0.6111  0.2643 -0.4968
  176SOPE  C21620038   1.312   6.255   8.787 -0.2277  0.7391  0.1042
  176SOPE  H16R20039   1.210   6.275   8.746 -1.1957 -4.4022 -0.6809
  176SOPE  H16S20040   1.302   6.150   8.821  1.1801  0.5612  0.0269
  176SOPE  C21720041   1.417   6.268   8.676  0.2414  0.0470  0.4901
  176SOPE  H17R20042   1.516   6.234   8.714  0.3836  0.4326  0.4796
  176SOPE  H17S20043   1.414   6.375   8.644  1.5669 -0.3496 -1.1690
  176SOPE  C21820044   1.398   6.186   8.552 -0.1272  0.0671  0.3479
  176SOPE  H18R20045   1.344   6.238   8.471  0.9884  0.4857 -0.1534
  176SOPE  H18S20046   1.342   6.094   8.579  2.4823 -1.1878  1.8660
  176SOPE  H18T20047   1.496   6.147   8.516 -0.9784  0.1968 -2.3504
  176SOPE   C3320048   0.595   6.629  10.055  0.2261 -0.1729  0.3664
  176SOPE   H3X20049   0.517   6.705  10.077 -0.2055  0.3272 -2.5016
  176SOPE   H3Y20050   0.559   6.524  10.049  0.6450 -0.2284 -1.8557
  176SOPE   C3420051   0.639   6.653   9.913 -0.1437 -0.1250  0.5034
  176SOPE   H4X20052   0.702   6.743   9.901  0.5629 -0.7156 -0.3424
  176SOPE   H4Y20053   0.555   6.657   9.840 -1.0316 -1.6623  1.3788
  176SOPE   C3520054   0.727   6.543   9.856  0.1414 -0.4379  0.4376
  176SOPE   H5X20055   0.674   6.463   9.799  0.6124  0.0553 -0.7218
  176SOPE   H5Y20056   0.774   6.488   9.940 -1.8535 -1.5212  0.9311
  176SOPE   C3620057   0.836   6.597   9.763  0.4406 -0.9127  0.6624
  176SOPE   H6X20058   0.904   6.524   9.715 -0.7863 -1.1275 -0.8205
  176SOPE   H6Y20059   0.893   6.662   9.833  0.3961 -1.3688  1.1289
  176SOPE   C3720060   0.784   6.693   9.646  0.2411  0.0202  0.2287
  176SOPE   H7X20061   0.856   6.777   9.637 -1.5220  1.4197 -1.9765
  176SOPE   H7Y20062   0.686   6.741   9.669  0.2810  0.1851  0.0584
  176SOPE   C3820063   0.777   6.619   9.519  0.1357  0.3459 -0.0585
  176SOPE   H8X20064   0.727   6.521   9.535  1.3617 -0.2778  0.0783
  176SOPE   H8Y20065   0.881   6.579   9.508 -0.2143 -0.1169 -2.2857
  176SOPE   C3920066   0.729   6.704   9.405 -0.3212  0.0294  0.0246
  176SOPE   H9X20067   0.787   6.799   9.398  0.0856 -0.3346 -2.0183
  176SOPE   H9Y20068   0.622   6.730   9.420 -0.3105 -0.4991  1.0991
  176SOPE  C31020069   0.723   6.625   9.274  0.3072 -0.3364 -0.2425
  176SOPE  H10X20070   0.649   6.680   9.212  0.8857  0.5461 -0.1677
  176SOPE  H10Y20071   0.667   6.533   9.301  1.2548 -0.9101 -0.2019
  176SOPE  C31120072   0.843   6.595   9.196  0.1602 -0.4368 -0.3267
  176SOPE  H11X20073   0.921   6.537   9.251 -0.3551  1.0024  2.0886
  176SOPE  H11Y20074   0.888   6.691   9.162 -1.7931 -0.3958 -3.1099
  176SOPE  C31220075   0.804   6.520   9.063  0.5716 -0.2653  0.3080
  176SOPE  H12X20076   0.886   6.522   8.987  1.4273 -0.7455  1.1928
  176SOPE  H12Y20077   0.721   6.574   9.013  0.8306  1.6161  1.8019
  176SOPE  C31320078   0.762   6.376   9.098  0.1268  0.7431 -0.4527
  176SOPE  H13X20079   0.674   6.375   9.167  0.9916 -3.4838  0.8872
  176SOPE  H13Y20080   0.843   6.329   9.158  0.7744  2.7050  0.3032
  176SOPE  C31420081   0.717   6.293   8.974 -0.4684  0.3641 -0.1903
  176SOPE  H14X20082   0.620   6.327   8.931 -0.0412  2.7253  0.5835
  176SOPE  H14Y20083   0.698   6.189   9.008 -1.6890  0.5326 -0.3205
  176SOPE  C31520084   0.830   6.281   8.866 -0.2275 -0.1668 -0.6429
  176SOPE  H15X20085   0.923   6.264   8.924  0.8557 -2.7212 -2.9015
  176SOPE  H15Y20086   0.833   6.374   8.806  1.6652 -0.4913 -1.1253
  176SOPE  C31620087   0.820   6.167   8.762 -0.5201  0.0269  0.3956
  176SOPE  H16X20088   0.736   6.187   8.692  1.0066  1.6273 -1.0824
  176SOPE  H16Y20089   0.802   6.078   8.826 -1.2321  1.5291  2.4165
  176SOPE  C31720090   0.946   6.154   8.676  0.4236  1.4476  0.2760
  176SOPE  H17X20091   0.933   6.069   8.606  0.2714  1.1092  0.7111
  176SOPE  H17Y20092   1.038   6.135   8.735  0.9547  1.1582 -0.6281
  176SOPE  C31820093   0.976   6.269   8.581  0.0250  0.3601 -0.8322
  176SOPE  H18X20094   1.069   6.246   8.525  0.0012 -1.4969 -0.1681
  176SOPE  H18Y20095   1.000   6.357   8.645 -0.9463 -1.2621  1.9049
  176SOPE  H18Z20096   0.891   6.286   8.512 -0.6793 -1.1015 -0.3564
  177SOPE     N20097   2.082   1.955  11.250 -0.8206 -0.3044  0.0148
  177SOPE   HN120098   2.154   2.012  11.203 -1.5739 -0.3662 -1.2563
  177SOPE   HN220099   2.084   1.975  11.352  0.6219 -0.2482 -0.0012
  177SOPE   HN320100   2.096   1.853  11.232  1.3687 -0.3720  1.6127
  177SOPE   C1220101   1.947   1.999  11.214 -0.0505  0.1130 -0.1797
  177SOPE  H12A20102   1.931   2.105  11.245  0.9756  0.2727 -0.1651
  177SOPE  H12B20103   1.873   1.937  11.269  0.2623  0.3823  0.5524
  177SOPE   C1120104   1.927   1.972  11.058 -0.1120 -0.2128  0.0210
  177SOPE  H11A20105   1.918   1.866  11.028 -0.6542  0.1739 -1.2146
  177SOPE  H11B20106   2.018   2.012  11.009  0.8447 -0.0642  1.8031
  177SOPE     P20107   1.791   2.169  10.956  0.2660  0.3483  0.3198
  177SOPE   O1320108   1.844   2.274  11.045  0.4222  0.5464 -0.2692
  177SOPE   O1420109   1.648   2.183  10.913 -0.3303  0.3361 -0.5974
  177SOPE   O1220110   1.801   2.025  11.016  0.0294 -0.3128  0.2009
  177SOPE   O1120111   1.878   2.167  10.827  0.1669 -0.0309  0.2891
  177SOPE    C120112   1.867   2.076  10.719  0.4225  0.1117  0.0133
  177SOPE    HA20113   1.866   2.138  10.626 -0.5663 -0.4539 -0.3710
  177SOPE    HB20114   1.771   2.021  10.728  1.1866 -1.4924 -1.1499
  177SOPE    C220115   1.979   1.969  10.706 -0.4678 -0.2744  0.5373
  177SOPE    HS20116   1.974   1.906  10.797  0.7328 -1.4718 -0.1933
  177SOPE   O2120117   2.101   2.039  10.687 -0.0036  0.0009 -0.1703
  177SOPE   C2120118   2.206   1.975  10.737  0.1992 -0.4297  0.3259
  177SOPE   O2220119   2.210   1.860  10.776  0.4622 -0.2503  0.3906
  177SOPE   C2220120   2.330   2.055  10.706  0.3666  0.4072 -0.3645
  177SOPE   H2R20121   2.381   2.086  10.800  1.0827 -0.9429 -0.2717
  177SOPE   H2S20122   2.304   2.135  10.634 -0.4892  0.1327 -0.3618
  177SOPE    C320123   1.965   1.865  10.591 -0.6765  0.2610 -0.5846
  177SOPE    HX20124   1.868   1.810  10.592 -1.1122  0.9116  2.4461
  177SOPE    HY20125   2.039   1.785  10.610  0.2192  1.0425 -0.7264
  177SOPE   O3120126   1.999   1.928  10.465 -0.3438  0.3695 -0.1631
  177SOPE   C3120127   1.900   1.970  10.396 -0.3783 -0.1768 -0.1168
  177SOPE   O3220128   1.784   1.973  10.437 -0.1627  0.3159 -0.0542
  177SOPE   C3220129   1.950   2.012  10.255  0.2166 -0.1564 -0.2321
  177SOPE   H2X20130   1.930   1.930  10.183  1.4044  0.1266 -0.9074
  177SOPE   H2Y20131   2.060   2.017  10.245  0.0979  0.1039 -1.5720
  177SOPE   C2320132   2.441   1.974  10.636  0.1393  0.3109  0.3806
  177SOPE   H3R20133   2.480   1.906  10.714  0.4359 -0.2515 -0.2532
  177SOPE   H3S20134   2.522   2.044  10.605  1.3188  0.2621  3.0744
  177SOPE   C2420135   2.396   1.890  10.513 -0.1731 -0.0558 -0.6054
  177SOPE   H4R20136   2.478   1.818  10.494  2.2505  2.7875 -1.7736
  177SOPE   H4S20137   2.304   1.831  10.531 -0.0503 -0.3455 -0.9258
  177SOPE   C2520138   2.372   1.989  10.395  0.7264  0.7070 -0.5032
  177SOPE   H5R20139   2.293   2.062  10.422  1.2295  0.1255  3.0683
  177SOPE   H5S20140   2.464   2.051  10.382  0.0834  1.6170 -0.7730
  177SOPE   C2620141   2.331   1.922  10.269 -0.0893 -0.5719  0.0424
  177SOPE   H6R20142   2.406   1.841  10.257 -0.4691 -0.6385 -2.2854
  177SOPE   H6S20143   2.232   1.873  10.276  0.1025 -0.8293  0.9853
  177SOPE   C2720144   2.339   2.022  10.150  0.2643 -0.0925 -0.1180
  177SOPE   H7R20145   2.255   2.094  10.159  0.3146  0.0912 -1.0564
  177SOPE   H7S20146   2.438   2.073  10.154  0.4624 -0.3645 -1.3359
  177SOPE   C2820147   2.305   1.971  10.004  0.3223  0.1298  0.2081
  177SOPE   H8R20148   2.212   1.911  10.009 -0.0244  0.4035 -1.8878
  177SOPE   H8S20149   2.287   2.060   9.939  0.1348  0.0482  0.1474
  177SOPE   C2920150   2.405   1.885   9.940 -0.3896  0.0032 -0.0961
  177SOPE   H9120151   2.467   1.827  10.009 -1.7679 -0.4376  0.7982
  177SOPE  C21020152   2.427   1.856   9.807  0.4824  0.3390  0.5896
  177SOPE  H10120153   2.525   1.815   9.778  1.2711  2.4446  0.0377
  177SOPE  C21120154   2.335   1.920   9.698 -0.3219  0.4993  0.1761
  177SOPE  H11R20155   2.356   2.029   9.687  2.2726  0.0198 -0.3893
  177SOPE  H11S20156   2.230   1.915   9.734 -0.8952 -3.0674 -1.5469
  177SOPE  C21220157   2.330   1.862   9.552 -0.6999  0.3366  0.7457
  177SOPE  H12R20158   2.319   1.752   9.562 -2.0229  0.5280  1.5957
  177SOPE  H12S20159   2.429   1.882   9.506 -1.5816  0.6185 -1.1490
  177SOPE  C21320160   2.222   1.932   9.474 -0.0588 -0.3949  0.0019
  177SOPE  H13R20161   2.267   2.032   9.461 -0.9265 -0.0707 -0.5622
  177SOPE  H13S20162   2.128   1.940   9.533  0.8385  2.7135  1.2072
  177SOPE  C21420163   2.186   1.861   9.344 -0.5437  0.3765 -0.1371
  177SOPE  H14R20164   2.163   1.753   9.350  0.2349  0.0107 -2.7885
  177SOPE  H14S20165   2.272   1.876   9.275  0.3363 -0.4468  0.7318
  177SOPE  C21520166   2.053   1.921   9.298 -0.5271 -0.3336  0.3745
  177SOPE  H15R20167   2.044   2.030   9.317 -0.5979 -0.2102 -0.3480
  177SOPE  H15S20168   1.978   1.879   9.370  1.3936 -0.3537  2.4639
  177SOPE  C21620169   2.000   1.887   9.161  0.3279 -0.9315  0.0641
  177SOPE  H16R20170   1.900   1.933   9.151  0.0197 -2.0672 -3.5592
  177SOPE  H16S20171   2.000   1.777   9.146  1.6005 -0.9372 -0.0216
  177SOPE  C21720172   2.094   1.943   9.050 -0.4974  0.4123  0.5732
  177SOPE  H17R20173   2.052   1.919   8.949  0.2085  3.3730 -0.5113
  177SOPE  H17S20174   2.193   1.892   9.044  0.6383  2.3197  2.1364
  177SOPE  C21820175   2.117   2.095   9.038 -0.2163 -0.4146  0.0196
  177SOPE  H18R20176   2.196   2.119   8.963 -0.3853  0.7382  0.1834
  177SOPE  H18S20177   2.151   2.139   9.134  2.7885 -0.8928 -0.7337
  177SOPE  H18T20178   2.020   2.145   9.018 -0.2705 -0.0241  1.1890
  177SOPE   C3320179   1.897   2.148  10.217  0.6919  0.2109  0.5028
  177SOPE   H3X20180   1.977   2.225  10.222  0.1081  0.8382  0.3588
  177SOPE   H3Y20181   1.805   2.174  10.273  0.7401 -0.4411  0.8889
  177SOPE   C3420182   1.856   2.153  10.073 -0.1182  0.3278 -0.6746
  177SOPE   H4X20183   1.803   2.248  10.048 -0.3765  0.2433 -0.4543
  177SOPE   H4Y20184   1.782   2.072  10.056 -0.7949  0.7596  0.1198
  177SOPE   C3520185   1.974   2.131   9.980  0.2970 -0.6599  0.1377
  177SOPE   H5X20186   1.984   2.021   9.974 -2.6772 -0.9963 -0.2876
  177SOPE   H5Y20187   2.069   2.173  10.020 -0.0579 -1.0793  1.4679
  177SOPE   C3620188   1.959   2.188   9.836 -0.8331  0.4512  0.3715
  177SOPE   H6X20189   1.899   2.280   9.850  1.0263  1.4978  2.0441
  177SOPE   H6Y20190   1.893   2.128   9.770 -1.5332  3.9279 -2.3653
  177SOPE   C3720191   2.092   2.216   9.776 -0.1114 -0.0250 -0.4304
  177SOPE   H7X20192   2.152   2.123   9.775  1.9172  1.2124 -1.1293
  177SOPE   H7Y20193   2.145   2.285   9.846 -0.8433 -0.5190  0.6410
  177SOPE   C3820194   2.086   2.273   9.636 -0.4013  0.3499 -0.3551
  177SOPE   H8X20195   2.031   2.370   9.628  1.3919  1.3485 -1.2451
  177SOPE   H8Y20196   2.030   2.199   9.576  0.7135 -0.9157  0.1282
  177SOPE   C3920197   2.224   2.311   9.579  0.4721  0.1746  0.0795
  177SOPE   H9X20198   2.291   2.223   9.575 -0.5457 -0.5819 -1.1144
  177SOPE   H9Y20199   2.269   2.394   9.637  1.0754  1.0210 -1.5439
  177SOPE  C31020200   2.225   2.378   9.438 -0.3471 -0.0353 -0.0237
  177SOPE  H10X20201   2.172   2.473   9.459 -3.7068 -1.8872  0.7115
  177SOPE  H10Y20202   2.158   2.315   9.375  1.6705 -2.9444  0.5248
  177SOPE  C31120203   2.368   2.387   9.375 -0.4018 -0.2559  0.0309
  177SOPE  H11X20204   2.396   2.282   9.353  2.7734  0.7234 -1.1286
  177SOPE  H11Y20205   2.437   2.419   9.455 -1.9265  0.8433  0.9681
  177SOPE  C31220206   2.362   2.483   9.247 -0.1542  0.2242  0.2972
  177SOPE  H12X20207   2.327   2.584   9.277 -0.6831  0.4030 -0.8525
  177SOPE  H12Y20208   2.275   2.455   9.184 -0.6794 -0.5230  1.3246
  177SOPE  C31320209   2.492   2.479   9.169  0.1750 -0.5871 -0.8763
  177SOPE  H13X20210   2.493   2.386   9.109  0.2039 -2.2469  1.5402
  177SOPE  H13Y20211   2.578   2.467   9.238 -0.0854  0.6619 -0.2926
  177SOPE  C31420212   2.493   2.606   9.080 -0.4264 -0.6307  0.2964
  177SOPE  H14X20213   2.499   2.698   9.141  0.4582  1.3894 -2.6553
  177SOPE  H14Y20214   2.401   2.620   9.019 -0.3376  1.4588  0.5913
  177SOPE  C31520215   2.624   2.611   8.997  0.0920 -0.1502  0.6377
  177SOPE  H15X20216   2.647   2.508   8.965 -0.6789 -0.3303  0.6390
  177SOPE  H15Y20217   2.711   2.636   9.061  0.8968 -0.0593 -0.4618
  177SOPE  C31620218   2.610   2.712   8.885 -0.7447  0.4311 -0.1567
  177SOPE  H16X20219   2.707   2.765   8.875 -1.9557  2.6260 -0.9275
  177SOPE  H16Y20220   2.532   2.788   8.904 -1.2576  0.0536 -0.7203
  177SOPE  C31720221   2.577   2.636   8.750  0.8392 -0.3900 -1.3663
  177SOPE  H17X20222   2.666   2.574   8.725  0.8841 -0.9395  0.0193
  177SOPE  H17Y20223   2.583   2.708   8.666  1.8878 -0.1098 -1.0669
  177SOPE  C31820224   2.445   2.557   8.757  0.0167 -0.3810  0.6883
  177SOPE  H18X20225   2.436   2.489   8.845  0.6004 -0.7020  0.5094
  177SOPE  H18Y20226   2.431   2.491   8.670  1.0852  0.2286  0.0273
  177SOPE  H18Z20227   2.366   2.634   8.762 -1.7022 -2.0794  0.6381
  178SOPE     N20228   4.317   0.610  10.876  0.2814 -0.3799  0.0697
  178SOPE   HN120229   4.267   0.652  10.956 -0.8950 -0.8070 -0.4130
  178SOPE   HN220230   4.379   0.529  10.897 -1.3938 -1.5931  0.5693
  178SOPE   HN320231   4.384   0.680  10.838 -1.3876  1.2667  0.0247
  178SOPE   C1220232   4.207   0.557  10.780 -0.1596  0.0655  0.3767
  178SOPE  H12A20233   4.251   0.531  10.681  0.6407  1.4458  0.3422
  178SOPE  H12B20234   4.139   0.644  10.770 -1.1759 -0.4093  2.6708
  178SOPE   C1120235   4.142   0.436  10.850  0.2795  0.4426  0.2531
  178SOPE  H11A20236   4.056   0.400  10.789  0.4850  0.1986  0.1009
  178SOPE  H11B20237   4.089   0.459  10.945  2.2840 -0.1392  1.5736
  178SOPE     P20238   4.226   0.195  10.818 -0.2844  0.4155  0.0131
  178SOPE   O1320239   4.082   0.160  10.810 -0.2712  0.6123  0.5443
  178SOPE   O1420240   4.299   0.099  10.903  0.2917 -0.0900 -0.1608
  178SOPE   O1220241   4.240   0.337  10.881 -0.2632 -0.7076 -0.2833
  178SOPE   O1120242   4.291   0.215  10.674 -0.3556  0.1688  0.0919
  178SOPE    C120243   4.433   0.201  10.646 -0.2959  0.7084 -0.6905
  178SOPE    HA20244   4.493   0.163  10.732 -1.2595  0.4564 -0.1178
  178SOPE    HB20245   4.487   0.293  10.614  1.9466 -0.9081 -1.7876
  178SOPE    C220246   4.449   0.112  10.520  0.0726  0.3132 -0.1539
  178SOPE    HS20247   4.444   0.003  10.545  2.6721  0.0311 -0.5702
  178SOPE   O2120248   4.579   0.136  10.477  0.2808 -0.4411  0.1853
  178SOPE   C2120249   4.658   0.045  10.424  0.1096  0.3010  0.3014
  178SOPE   O2220250   4.640  -0.076  10.420 -0.3858  0.4057  0.7602
  178SOPE   C2220251   4.780   0.121  10.372 -0.6335 -0.1871  0.1545
  178SOPE   H2R20252   4.850   0.112  10.459 -1.2135  0.6297  0.7186
  178SOPE   H2S20253   4.757   0.229  10.371 -1.2046 -0.3077 -0.4071
  178SOPE    C320254   4.337   0.126  10.411 -0.4693 -0.6787 -0.4590
  178SOPE    HX20255   4.317   0.234  10.392  1.1739 -0.5459 -1.6278
  178SOPE    HY20256   4.240   0.093  10.453 -2.3465  1.4267 -2.8129
  178SOPE   O3120257   4.378   0.061  10.289 -0.5190 -0.2252  0.3080
  178SOPE   C3120258   4.284   0.056  10.192  0.3917  0.1243  0.7198
  178SOPE   O3220259   4.167   0.090  10.204  0.4429 -0.3497  0.6131
  178SOPE   C3220260   4.351   0.003  10.061  0.3744  0.6525  0.1671
  178SOPE   H2X20261   4.402  -0.095  10.075 -0.4360  0.0794 -0.7714
  178SOPE   H2Y20262   4.432   0.073  10.032  2.5498 -1.5034  0.6109
  178SOPE   C2320263   4.823   0.079  10.232 -0.2598  0.3555  0.7169
  178SOPE   H3R20264   4.805  -0.030  10.223 -1.7619  0.7001 -1.1216
  178SOPE   H3S20265   4.931   0.098  10.217 -0.7964  2.4848 -1.1509
  178SOPE   C2420266   4.756   0.167  10.122  0.6654  0.8593  0.1477
  178SOPE   H4R20267   4.648   0.179  10.147  0.9066  0.0304  1.7401
  178SOPE   H4S20268   4.799   0.270  10.121  0.7610  0.8446  1.3757
  178SOPE   C2520269   4.755   0.103   9.983 -0.0104 -0.1844 -0.5354
  178SOPE   H5R20270   4.861   0.107   9.952  0.1781 -0.1103  0.1062
  178SOPE   H5S20271   4.719  -0.002   9.980 -1.1812  0.0925  1.8529
  178SOPE   C2620272   4.678   0.185   9.884 -0.1572 -0.3278 -0.1433
  178SOPE   H6R20273   4.637   0.121   9.802  1.7835  1.2319 -2.4534
  178SOPE   H6S20274   4.579   0.211   9.929 -0.0401 -0.6470  0.3068
  178SOPE   C2720275   4.751   0.304   9.829 -0.3154 -0.8007 -0.3332
  178SOPE   H7R20276   4.752   0.374   9.915 -0.6593 -0.3919 -0.6573
  178SOPE   H7S20277   4.856   0.272   9.812  0.5161  0.0950  2.6132
  178SOPE   C2820278   4.683   0.369   9.710  0.2877 -0.3298 -0.1146
  178SOPE   H8R20279   4.576   0.376   9.737  0.8078  0.2216  1.9864
  178SOPE   H8S20280   4.718   0.470   9.680  0.5485 -0.9360 -2.0135
  178SOPE   C2920281   4.697   0.282   9.581 -0.0605 -0.1487  0.0326
  178SOPE   H9120282   4.797   0.246   9.555 -0.2291 -0.4341 -0.2253
  178SOPE  C21020283   4.597   0.248   9.501 -0.0212  0.0643 -0.0274
  178SOPE  H10120284   4.614   0.198   9.404  2.7105 -3.4879  2.0448
  178SOPE  C21120285   4.454   0.305   9.510  0.1535 -0.3927 -0.4418
  178SOPE  H11R20286   4.457   0.415   9.518  2.2768 -0.4466  0.2676
  178SOPE  H11S20287   4.409   0.257   9.600  0.0805 -1.5224 -1.0620
  178SOPE  C21220288   4.370   0.265   9.390  0.2829 -0.0842  0.0365
  178SOPE  H12R20289   4.263   0.276   9.418 -0.8983  2.5821 -4.4481
  178SOPE  H12S20290   4.394   0.166   9.346  0.4200  1.1002 -2.7266
  178SOPE  C21320291   4.387   0.373   9.279  0.6996 -0.4539  0.2389
  178SOPE  H13R20292   4.494   0.402   9.281 -0.1300  3.1651  0.2391
  178SOPE  H13S20293   4.337   0.466   9.314 -0.6639 -1.1750  0.2693
  178SOPE  C21420294   4.326   0.338   9.143  0.4854  0.5014  0.2785
  178SOPE  H14R20295   4.351   0.417   9.071  1.4572 -0.0278  0.0199
  178SOPE  H14S20296   4.217   0.319   9.160  0.5502  2.3671  3.8778
  178SOPE  C21520297   4.396   0.216   9.089  0.1573  0.0411  0.2933
  178SOPE  H15R20298   4.368   0.130   9.153 -1.4596 -2.4905 -3.4300
  178SOPE  H15S20299   4.505   0.233   9.100  0.0389  2.8918 -1.6504
  178SOPE  C21620300   4.373   0.176   8.941 -0.3698 -0.8359  0.1982
  178SOPE  H16R20301   4.410   0.073   8.922 -1.6726 -1.6979  1.9656
  178SOPE  H16S20302   4.442   0.241   8.884  1.0256 -1.3089  1.3003
  178SOPE  C21720303   4.230   0.187   8.899  0.5010 -1.3079 -0.0780
  178SOPE  H17R20304   4.189   0.284   8.933  0.5189 -0.8410 -1.3414
  178SOPE  H17S20305   4.172   0.112   8.958  0.7844 -0.3337  1.4702
  178SOPE  C21820306   4.205   0.160   8.752  0.4858  0.0628 -0.2202
  178SOPE  H18R20307   4.256   0.065   8.726 -2.1517 -1.1655 -1.3679
  178SOPE  H18S20308   4.244   0.237   8.683 -0.2645 -1.0704 -1.9639
  178SOPE  H18T20309   4.094   0.153   8.745  0.3318 -2.8744  2.7422
  178SOPE   C3320310   4.243  -0.007   9.959 -0.2459  0.0050 -0.1583
  178SOPE   H3X20311   4.191   0.091   9.954  2.0928  1.4953  2.0777
  178SOPE   H3Y20312   4.171  -0.086   9.987 -1.6061  1.5858  0.9686
  178SOPE   C3420313   4.292  -0.032   9.814 -0.3157 -0.0875  0.6747
  178SOPE   H4X20314   4.376  -0.105   9.807 -0.1538  0.0481  1.1630
  178SOPE   H4Y20315   4.316   0.071   9.781  0.1045  0.4204  2.4495
  178SOPE   C3520316   4.180  -0.082   9.725 -0.4192  0.5573  0.7144
  178SOPE   H5X20317   4.090  -0.022   9.750  0.2672  0.8342  2.6613
  178SOPE   H5Y20318   4.147  -0.187   9.740 -0.6163  0.5191  0.0785
  178SOPE   C3620319   4.234  -0.065   9.584  0.1012 -0.0030  0.5400
  178SOPE   H6X20320   4.328  -0.122   9.568  0.8626  0.7123  2.1626
  178SOPE   H6Y20321   4.265   0.037   9.554 -1.0140 -0.2059 -1.4871
  178SOPE   C3720322   4.122  -0.117   9.490 -0.3913 -0.2139 -0.1503
  178SOPE   H7X20323   4.031  -0.057   9.512 -1.8412 -2.7937  1.2734
  178SOPE   H7Y20324   4.106  -0.225   9.507 -0.7005 -0.7713 -3.3909
  178SOPE   C3820325   4.158  -0.112   9.341  0.1156 -0.2357 -0.0652
  178SOPE   H8X20326   4.245  -0.176   9.318 -0.7290 -1.6087  0.4357
  178SOPE   H8Y20327   4.166  -0.006   9.309 -1.3247 -0.1540 -0.2446
  178SOPE   C3920328   4.033  -0.164   9.258  0.3918 -0.2923 -0.0307
  178SOPE   H9X20329   3.948  -0.100   9.288  0.0904 -1.5782  2.0652
  178SOPE   H9Y20330   4.004  -0.265   9.294  1.0224 -0.5641 -0.2557
  178SOPE  C31020331   4.043  -0.170   9.106  0.0306  0.2938 -0.2369
  178SOPE  H10X20332   4.094  -0.266   9.084  0.8425  0.5850  0.3346
  178SOPE  H10Y20333   4.117  -0.097   9.068 -0.0942 -0.3980 -1.9029
  178SOPE  C31120334   3.912  -0.161   9.030  0.0647 -0.0946 -0.8166
  178SOPE  H11X20335   3.868  -0.065   9.065  2.4911  1.1308 -0.8366
  178SOPE  H11Y20336   3.855  -0.253   9.052  0.9538  0.2134  3.8337
  178SOPE  C31220337   3.934  -0.141   8.879 -0.2269  0.0993  0.0452
  178SOPE  H12X20338   4.002  -0.220   8.840 -1.5801 -0.2470 -1.7161
  178SOPE  H12Y20339   3.979  -0.042   8.856  0.0093  0.3352  1.4021
  178SOPE  C31320340   3.805  -0.150   8.802 -0.6747 -0.4538  0.0662
  178SOPE  H13X20341   3.754  -0.055   8.831  0.7234  0.8296 -1.4880
  178SOPE  H13Y20342   3.750  -0.243   8.826 -1.9510  0.0279 -0.8544
  178SOPE  C31420343   3.825  -0.151   8.644 -0.2809  0.0284  0.3625
  178SOPE  H14X20344   3.725  -0.155   8.596  0.4608  1.0991 -1.3590
  178SOPE  H14Y20345   3.885  -0.243   8.636 -0.3487 -0.1543  1.7301
  178SOPE  C31520346   3.910  -0.033   8.601 -0.3061 -0.6462  0.7045
  178SOPE  H15X20347   4.018  -0.051   8.620 -0.3195 -1.3466  0.1430
  178SOPE  H15Y20348   3.869   0.047   8.667 -0.8028 -1.0619  0.9046
  178SOPE  C31620349   3.908  -0.010   8.451 -0.2755 -0.0975 -0.6170
  178SOPE  H16X20350   3.954   0.089   8.431  4.0244 -2.2271 -2.8719
  178SOPE  H16Y20351   3.802  -0.002   8.420 -0.1798  0.5341 -0.7923
  178SOPE  C31720352   3.970  -0.111   8.357  0.8256  0.2366  0.5993
  178SOPE  H17X20353   3.922  -0.211   8.362  1.1375 -0.0112 -0.8388
  178SOPE  H17Y20354   4.079  -0.117   8.377  0.7968  2.4446  1.7187
  178SOPE  C31820355   3.947  -0.066   8.209  0.1428  0.0886  0.6457
  178SOPE  H18X20356   3.973  -0.142   8.133 -2.3004  1.4499 -1.7169
  178SOPE  H18Y20357   4.001   0.027   8.181 -0.7715  0.7645  1.0663
  178SOPE  H18Z20358   3.836  -0.066   8.204  0.1823  0.7739 -1.6453
  179SOPE     N20359   5.124   0.316   6.121  0.1603  0.2632 -0.4697
  179SOPE   HN120360   5.057   0.295   6.044 -0.0212 -0.7704 -0.0515
  179SOPE   HN220361   5.131   0.236   6.187  0.2469  0.4423 -0.2583
  179SOPE   HN320362   5.071   0.398   6.158  1.2532 -0.1016  2.1285
  179SOPE   C1220363   5.264   0.351   6.069  0.3113  0.7699 -0.0959
  179SOPE  H12A20364   5.262   0.462   6.077  0.2613  0.7275  0.5388
  179SOPE  H12B20365   5.279   0.320   5.963 -2.6656  0.9138 -0.6514
  179SOPE   C1120366   5.373   0.297   6.167  0.2176 -0.8313  0.7482
  179SOPE  H11A20367   5.360   0.348   6.265 -0.9879 -1.7388  1.0754
  179SOPE  H11B20368   5.469   0.343   6.134 -0.9515  1.2253  0.0141
  179SOPE     P20369   5.307   0.075   6.302 -0.1423  0.1440 -0.1139
  179SOPE   O1320370   5.365  -0.062   6.299 -0.9246  0.6456 -0.5416
  179SOPE   O1420371   5.163   0.094   6.287 -0.4179  0.5750 -0.3756
  179SOPE   O1220372   5.375   0.155   6.181  0.2527  0.3075 -0.3953
  179SOPE   O1120373   5.355   0.152   6.432 -0.2146  0.6953  0.1977
  179SOPE    C120374   5.280   0.254   6.498  0.6584  0.2928  0.1252
  179SOPE    HA20375   5.175   0.262   6.462  0.8091 -1.5054 -0.8300
  179SOPE    HB20376   5.323   0.354   6.477 -1.3866  1.4840  1.2351
  179SOPE    C220377   5.268   0.240   6.651  0.1030  0.6157 -0.6036
  179SOPE    HS20378   5.370   0.266   6.687 -0.0115  0.3742 -0.0900
  179SOPE   O2120379   5.232   0.114   6.687 -0.3382  0.2849 -0.4043
  179SOPE   C2120380   5.330   0.027   6.688 -0.2940 -0.4164 -0.8370
  179SOPE   O2220381   5.453   0.051   6.691 -0.0237  0.3728 -0.4149
  179SOPE   C2220382   5.275  -0.116   6.721  0.1029  0.3190  0.4532
  179SOPE   H2R20383   5.321  -0.185   6.647 -1.1545  0.2689 -0.3048
  179SOPE   H2S20384   5.168  -0.117   6.691 -0.0222 -2.8659  0.6830
  179SOPE    C320385   5.170   0.341   6.718 -0.3509 -0.2582  0.0027
  179SOPE    HX20386   5.072   0.303   6.682 -0.1898  0.8210 -1.6955
  179SOPE    HY20387   5.191   0.439   6.670 -2.3780  0.8611  1.2420
  179SOPE   O3120388   5.189   0.338   6.863 -0.3478  0.3208 -0.5140
  179SOPE   C3120389   5.280   0.419   6.906 -0.5550  0.2756 -0.6705
  179SOPE   O3220390   5.347   0.497   6.843 -0.2421 -0.3254 -0.1203
  179SOPE   C3220391   5.294   0.415   7.062  0.2915  0.6416  0.4619
  179SOPE   H2X20392   5.257   0.514   7.094 -0.4561  0.0999  1.3081
  179SOPE   H2Y20393   5.401   0.408   7.091  0.2609 -1.3724  0.2143
  179SOPE   C2320394   5.298  -0.155   6.859 -0.0861 -0.5219 -0.8077
  179SOPE   H3R20395   5.255  -0.079   6.927  0.9263 -2.9346  2.8281
  179SOPE   H3S20396   5.409  -0.163   6.870 -0.0470 -0.6279 -1.2527
  179SOPE   C2420397   5.252  -0.294   6.900 -0.1740 -0.3425  0.0092
  179SOPE   H4R20398   5.141  -0.291   6.891 -0.2043  0.2474  0.4984
  179SOPE   H4S20399   5.291  -0.374   6.834 -0.0068 -0.0758 -0.2191
  179SOPE   C2520400   5.265  -0.331   7.049  0.6525  0.7471 -0.0140
  179SOPE   H5R20401   5.232  -0.437   7.054 -2.0555  1.5681  1.2170
  179SOPE   H5S20402   5.373  -0.337   7.076  0.6236 -0.7499 -0.1520
  179SOPE   C2620403   5.193  -0.256   7.165 -0.1486  0.3891  0.3224
  179SOPE   H6R20404   5.238  -0.155   7.153  1.1697 -0.4600 -2.8164
  179SOPE   H6S20405   5.084  -0.246   7.146 -0.2161 -0.0288  0.4763
  179SOPE   C2720406   5.226  -0.310   7.306 -0.4147 -0.5868  0.9576
  179SOPE   H7R20407   5.172  -0.407   7.313  1.1186 -1.6061 -0.4743
  179SOPE   H7S20408   5.336  -0.325   7.316 -0.1982  0.6985  0.7550
  179SOPE   C2820409   5.186  -0.225   7.425  0.5758 -0.6166 -0.0419
  179SOPE   H8R20410   5.231  -0.270   7.517 -0.3961  0.5813  1.0560
  179SOPE   H8S20411   5.244  -0.131   7.425  0.7834 -0.7259  0.8580
  179SOPE   C2920412   5.035  -0.213   7.444 -0.2713 -0.6273  0.2425
  179SOPE   H9120413   4.988  -0.183   7.350 -0.6687  2.2433  1.2523
  179SOPE  C21020414   4.975  -0.211   7.563 -0.5041 -0.1299  0.5672
  179SOPE  H10120415   4.866  -0.198   7.559 -0.4092  0.3082 -1.2017
  179SOPE  C21120416   5.030  -0.235   7.699  0.2000 -0.1401  0.2143
  179SOPE  H11R20417   5.110  -0.162   7.721  2.0945 -1.4662 -1.7920
  179SOPE  H11S20418   5.089  -0.329   7.709  0.1011 -0.1548  0.6990
  179SOPE  C21220419   4.926  -0.236   7.807  0.7146 -0.3291 -0.2616
  179SOPE  H12R20420   4.856  -0.321   7.787 -0.4096  0.0312  1.8532
  179SOPE  H12S20421   4.878  -0.136   7.803 -1.9701 -1.3931  1.6796
  179SOPE  C21320422   4.980  -0.268   7.945  0.3765  0.0230  0.1712
  179SOPE  H13R20423   5.073  -0.209   7.955  0.1515  0.8694 -2.1869
  179SOPE  H13S20424   5.011  -0.372   7.969 -0.1896 -0.5698 -1.5812
  179SOPE  C21420425   4.877  -0.233   8.057 -1.1506 -0.1500  0.1689
  179SOPE  H14R20426   4.801  -0.313   8.067 -0.2268 -0.9149  1.5230
  179SOPE  H14S20427   4.834  -0.134   8.030 -0.9002 -0.0661  0.0754
  179SOPE  C21520428   4.944  -0.214   8.193  0.1198 -0.0080  0.3094
  179SOPE  H15R20429   5.053  -0.237   8.189  0.0459 -0.2440 -0.5054
  179SOPE  H15S20430   4.915  -0.296   8.262  1.5201  1.1797  2.4537
  179SOPE  C21620431   4.915  -0.077   8.252 -0.7389  0.2326 -1.0840
  179SOPE  H16R20432   4.931   0.005   8.179 -1.0721 -0.6377 -2.1544
  179SOPE  H16S20433   4.983  -0.057   8.338  0.5518  1.4586 -2.3409
  179SOPE  C21720434   4.772  -0.067   8.317  0.1545 -0.0652 -0.2000
  179SOPE  H17R20435   4.775  -0.141   8.400 -1.8256 -1.0884 -0.9743
  179SOPE  H17S20436   4.698  -0.104   8.243  0.0297  2.5356 -1.4729
  179SOPE  C21820437   4.739   0.070   8.367 -0.3483 -0.1121 -0.3461
  179SOPE  H18R20438   4.651   0.072   8.435  0.8858 -2.6013  1.4828
  179SOPE  H18S20439   4.712   0.139   8.284  3.0714  1.3980 -0.3707
  179SOPE  H18T20440   4.817   0.121   8.426 -1.0258  1.4235 -0.7239
  179SOPE   C3320441   5.209   0.298   7.124  0.3836 -0.2949 -0.5929
  179SOPE   H3X20442   5.220   0.200   7.073 -0.5575  0.6310 -2.6869
  179SOPE   H3Y20443   5.101   0.311   7.102  0.6438  0.5482 -1.4230
  179SOPE   C3420444   5.230   0.282   7.275 -0.0092  0.1951  0.5300
  179SOPE   H4X20445   5.207   0.374   7.334  1.6786  0.3049  1.0751
  179SOPE   H4Y20446   5.336   0.261   7.303 -0.2310 -1.7444  0.0136
  179SOPE   C3520447   5.152   0.165   7.327 -0.0964  0.4329  0.2522
  179SOPE   H5X20448   5.193   0.076   7.274  0.5353  0.4022  0.7810
  179SOPE   H5Y20449   5.045   0.173   7.298 -0.5551 -1.0883  1.3816
  179SOPE   C3620450   5.156   0.147   7.478  0.3063  0.9226  0.1955
  179SOPE   H6X20451   5.257   0.150   7.525  0.7352 -2.4062 -0.2759
  179SOPE   H6Y20452   5.121   0.043   7.492 -2.8847  1.3447 -3.0092
  179SOPE   C3720453   5.057   0.231   7.561 -0.3984 -0.5000  0.3189
  179SOPE   H7X20454   4.965   0.237   7.499 -0.3261 -1.1334  0.1504
  179SOPE   H7Y20455   5.116   0.326   7.563  1.2808 -1.4695 -0.5626
  179SOPE   C3820456   5.040   0.181   7.701  0.5777  0.0043 -0.2195
  179SOPE   H8X20457   5.010   0.076   7.688  1.4658 -0.3130  0.1748
  179SOPE   H8Y20458   4.955   0.233   7.750  1.5836  2.7802 -1.1941
  179SOPE   C3920459   5.158   0.198   7.796 -0.0383  0.1724  0.2451
  179SOPE   H9X20460   5.200   0.301   7.784 -1.6895  0.9165  0.4980
  179SOPE   H9Y20461   5.235   0.127   7.760 -0.1511  0.8916 -1.5305
  179SOPE  C31020462   5.126   0.176   7.942 -0.1095 -0.7440 -0.0659
  179SOPE  H10X20463   5.086   0.077   7.971  0.3542 -0.6900  0.8136
  179SOPE  H10Y20464   5.052   0.249   7.982 -0.7638 -1.2083 -0.4150
  179SOPE  C31120465   5.247   0.204   8.029 -0.2695  0.3895  0.3436
  179SOPE  H11X20466   5.258   0.314   8.018 -1.1887  0.3942 -0.6615
  179SOPE  H11Y20467   5.341   0.152   8.000 -1.0237 -0.9897  0.2878
  179SOPE  C31220468   5.236   0.160   8.180 -0.1019 -0.9823  0.3228
  179SOPE  H12X20469   5.217   0.051   8.186 -1.0177 -1.0438 -2.4184
  179SOPE  H12Y20470   5.160   0.227   8.225  0.8190 -0.1749  0.7282
  179SOPE  C31320471   5.357   0.215   8.271  0.0054 -0.2136  0.4011
  179SOPE  H13X20472   5.372   0.321   8.241 -0.3867  0.6778  3.0501
  179SOPE  H13Y20473   5.443   0.147   8.252 -1.2685 -1.4829 -1.0459
  179SOPE  C31420474   5.327   0.217   8.423  0.3534  0.6948 -0.8655
  179SOPE  H14X20475   5.278   0.121   8.447  0.7154 -0.1250 -3.1444
  179SOPE  H14Y20476   5.253   0.300   8.433 -1.9544 -1.1683 -1.5770
  179SOPE  C31520477   5.442   0.244   8.517 -0.7066  0.4026 -0.5538
  179SOPE  H15X20478   5.492   0.148   8.541 -3.3887 -0.5369  1.8844
  179SOPE  H15Y20479   5.396   0.280   8.612  1.1105  2.6971 -0.4419
  179SOPE  C31620480   5.531   0.349   8.462 -0.4623 -0.0121  0.7770
  179SOPE  H16X20481   5.477   0.441   8.433  1.2050 -0.0213 -2.8253
  179SOPE  H16Y20482   5.575   0.323   8.363 -0.2433  3.9879 -0.3382
  179SOPE  C31720483   5.652   0.374   8.558  0.4539 -0.0853 -0.0972
  179SOPE  H17X20484   5.746   0.398   8.503 -0.1100  3.2163  0.1255
  179SOPE  H17Y20485   5.674   0.279   8.610 -0.5112  0.8535  2.1728
  179SOPE  C31820486   5.628   0.476   8.668  0.1558  0.4181 -0.4932
  179SOPE  H18X20487   5.723   0.499   8.721 -0.7268  4.0199 -0.2359
  179SOPE  H18Y20488   5.567   0.434   8.750  4.3095 -0.3940  2.5323
  179SOPE  H18Z20489   5.588   0.575   8.638  2.4593  1.9422  1.0990
  180SOPE     N20490   0.409   0.629   6.388  0.4965 -0.2283 -0.2479
  180SOPE   HN120491   0.312   0.654   6.362  0.8215  0.0748 -1.1966
  180SOPE   HN220492   0.400   0.597   6.487 -1.7844  2.2315  0.4580
  180SOPE   HN320493   0.476   0.708   6.380 -0.7459  0.8027 -0.8469
  180SOPE   C1220494   0.471   0.535   6.294 -0.1249 -0.7857 -0.0498
  180SOPE  H12A20495   0.575   0.538   6.331 -1.2362 -1.2096  3.4344
  180SOPE  H12B20496   0.463   0.576   6.191 -0.2663  0.2695  0.3780
  180SOPE   C1120497   0.414   0.396   6.319 -0.1311 -0.2442  0.4800
  180SOPE  H11A20498   0.420   0.329   6.230 -2.7378  1.3754 -1.0305
  180SOPE  H11B20499   0.306   0.414   6.337  0.1952  1.9522  0.4340
  180SOPE     P20500   0.494   0.186   6.457 -0.0314 -0.2029  0.2373
  180SOPE   O1320501   0.636   0.167   6.483  0.4975 -0.0270 -0.0656
  180SOPE   O1420502   0.441   0.117   6.337 -0.0986 -0.4310 -0.7052
  180SOPE   O1220503   0.475   0.347   6.439  0.2798  0.1998 -0.0145
  180SOPE   O1120504   0.415   0.156   6.587  0.3168  0.4258  0.0908
  180SOPE    C120505   0.293   0.230   6.619 -0.8214 -0.0197  0.0768
  180SOPE    HA20506   0.227   0.236   6.530 -1.1091  1.8535  0.3674
  180SOPE    HB20507   0.308   0.335   6.654 -0.1522  0.9039 -2.7334
  180SOPE    C220508   0.209   0.165   6.727  0.2281  0.9532 -0.0479
  180SOPE    HS20509   0.125   0.236   6.745  0.4470  1.2079 -0.0193
  180SOPE   O2120510   0.293   0.130   6.841  0.0540 -0.1215  0.0052
  180SOPE   C2120511   0.291   0.233   6.935 -0.4156  0.1076  0.2680
  180SOPE   O2220512   0.227   0.334   6.923  0.0219 -0.2736  0.0262
  180SOPE   C2220513   0.339   0.175   7.065  0.4438  0.3584 -0.3950
  180SOPE   H2R20514   0.410   0.252   7.101 -1.3282  2.6379 -1.5092
  180SOPE   H2S20515   0.394   0.079   7.052  2.1601  0.8018  2.6026
  180SOPE    C320516   0.142   0.035   6.678 -1.2182  0.0057 -0.2783
  180SOPE    HX20517   0.224  -0.032   6.644 -1.3683 -0.2837 -0.0808
  180SOPE    HY20518   0.074   0.065   6.596  0.1088  0.9981 -1.0450
  180SOPE   O3120519   0.062  -0.030   6.788 -0.1140 -0.0822 -0.7228
  180SOPE   C3120520   0.117  -0.135   6.853 -0.6298 -0.2151  0.1817
  180SOPE   O3220521   0.221  -0.187   6.813 -1.0172 -0.0103  0.6681
  180SOPE   C3220522   0.040  -0.170   6.978 -0.1855  0.1043  1.1552
  180SOPE   H2X20523  -0.016  -0.262   6.948 -0.9327  1.5189 -2.2783
  180SOPE   H2Y20524  -0.040  -0.100   7.009 -1.1647 -0.9028  0.9971
  180SOPE   C2320525   0.228   0.179   7.172  0.3967  0.4182 -0.2507
  180SOPE   H3R20526   0.140   0.119   7.138  1.4279 -0.8491 -0.7331
  180SOPE   H3S20527   0.196   0.286   7.171  1.3844  0.7187 -0.7720
  180SOPE   C2420528   0.285   0.131   7.312 -0.2657 -0.0507  0.8200
  180SOPE   H4R20529   0.290   0.020   7.314 -2.3801 -0.2635 -1.2362
  180SOPE   H4S20530   0.387   0.175   7.320 -0.8867  1.3052  1.6492
  180SOPE   C2520531   0.190   0.185   7.423 -0.4641  0.1536 -0.8007
  180SOPE   H5R20532   0.206   0.295   7.420  1.1118  0.0727  1.5434
  180SOPE   H5S20533   0.087   0.148   7.406 -0.3061 -1.9374  2.0013
  180SOPE   C2620534   0.236   0.142   7.560  0.0847 -0.1472  0.4886
  180SOPE   H6R20535   0.346   0.129   7.566  0.2396 -0.1209 -1.6773
  180SOPE   H6S20536   0.216   0.217   7.640  2.3607  0.3030  0.7006
  180SOPE   C2720537   0.176   0.006   7.602  0.3791 -0.5235 -0.0861
  180SOPE   H7R20538   0.065   0.016   7.605  0.3870  0.0792 -1.2901
  180SOPE   H7S20539   0.216  -0.064   7.526  2.2432 -0.3879  0.7297
  180SOPE   C2820540   0.222  -0.020   7.747 -0.0114 -0.2565  0.3217
  180SOPE   H8R20541   0.331  -0.007   7.764  0.1222 -2.5653  1.7999
  180SOPE   H8S20542   0.178   0.054   7.818  0.7124  0.6375 -0.1547
  180SOPE   C2920543   0.187  -0.161   7.788 -1.0997  0.7282  0.1549
  180SOPE   H9120544   0.083  -0.183   7.760 -0.4548 -0.5228 -1.3913
  180SOPE  C21020545   0.268  -0.256   7.837  0.0091  0.7160  0.1622
  180SOPE  H10120546   0.223  -0.354   7.859  1.9691  0.1210  1.9025
  180SOPE  C21120547   0.411  -0.242   7.868 -0.0724 -0.2337  0.0807
  180SOPE  H11R20548   0.429  -0.144   7.916 -2.2270  0.0306  0.4592
  180SOPE  H11S20549   0.468  -0.249   7.774 -0.7158  1.9190 -0.5273
  180SOPE  C21220550   0.467  -0.363   7.953  0.0124 -0.6279  0.2268
  180SOPE  H12R20551   0.577  -0.353   7.961 -0.2837  3.3720  2.1087
  180SOPE  H12S20552   0.441  -0.456   7.899 -0.5264  0.4794 -1.4779
  180SOPE  C21320553   0.423  -0.372   8.095  0.5322 -0.5574  0.4125
  180SOPE  H13R20554   0.313  -0.387   8.100  0.4487 -0.4998 -0.8943
  180SOPE  H13S20555   0.438  -0.272   8.142 -1.7810 -0.6017  1.4094
  180SOPE  C21420556   0.488  -0.477   8.188  0.6701  0.5822  0.3469
  180SOPE  H14R20557   0.598  -0.481   8.170  0.6857 -0.3884  0.5713
  180SOPE  H14S20558   0.445  -0.576   8.160  0.8387  1.2419 -2.4995
  180SOPE  C21520559   0.443  -0.446   8.330 -0.2762  0.2508  0.1097
  180SOPE  H15R20560   0.335  -0.462   8.350 -0.5330 -0.2019 -1.5023
  180SOPE  H15S20561   0.486  -0.346   8.356  1.5013  0.2133 -2.3725
  180SOPE  C21620562   0.508  -0.539   8.444  0.1275 -0.3408 -0.2888
  180SOPE  H16R20563   0.503  -0.478   8.537 -1.7684  0.8125 -1.0757
  180SOPE  H16S20564   0.616  -0.545   8.417  0.0720 -0.2527 -0.5374
  180SOPE  C21720565   0.456  -0.682   8.447  0.2379  0.4492  0.3764
  180SOPE  H17R20566   0.471  -0.725   8.345 -1.5368  0.6523 -0.0069
  180SOPE  H17S20567   0.347  -0.675   8.466 -0.0675 -0.3015 -0.9752
  180SOPE  C21820568   0.521  -0.768   8.552  0.9162 -0.1912 -0.2153
  180SOPE  H18R20569   0.529  -0.712   8.648  0.1722 -0.4987  0.0329
  180SOPE  H18S20570   0.623  -0.800   8.521  0.6309 -1.0423 -0.3031
  180SOPE  H18T20571   0.456  -0.857   8.567  1.0826 -0.0079  1.8325
  180SOPE   C3320572   0.142  -0.220   7.081 -0.2023  0.2236  0.1123
  180SOPE   H3X20573   0.213  -0.140   7.110  0.2244 -0.8528  2.2781
  180SOPE   H3Y20574   0.202  -0.310   7.053  1.2426  0.9499  0.7834
  180SOPE   C3420575   0.066  -0.267   7.207  0.1854  0.3492  0.2351
  180SOPE   H4X20576  -0.005  -0.347   7.178  2.7579 -2.1014  0.3501
  180SOPE   H4Y20577   0.020  -0.172   7.242  3.8663  2.2774  0.3201
  180SOPE   C3520578   0.167  -0.334   7.297  0.3890 -0.0126  0.0927
  180SOPE   H5X20579   0.239  -0.260   7.340  1.6594 -0.8614 -0.4912
  180SOPE   H5Y20580   0.225  -0.410   7.241 -1.3390 -0.8381 -0.6309
  180SOPE   C3620581   0.108  -0.399   7.424 -0.2420  0.1370  0.5056
  180SOPE   H6X20582   0.031  -0.471   7.389 -3.8778  2.7227  2.4254
  180SOPE   H6Y20583   0.051  -0.321   7.480 -0.4791  1.2847 -1.2448
  180SOPE   C3720584   0.212  -0.455   7.520  0.4725 -0.0457 -0.4681
  180SOPE   H7X20585   0.149  -0.510   7.593 -2.1570  0.3008 -2.3658
  180SOPE   H7Y20586   0.255  -0.377   7.587  0.6872 -1.0971  0.6515
  180SOPE   C3820587   0.316  -0.543   7.450 -0.6578  0.2566  0.4488
  180SOPE   H8X20588   0.365  -0.493   7.363 -0.0122  0.5575  0.9776
  180SOPE   H8Y20589   0.267  -0.636   7.413 -1.5147  1.1525 -0.7316
  180SOPE   C3920590   0.438  -0.589   7.537  0.2585  0.0502  0.0025
  180SOPE   H9X20591   0.525  -0.520   7.539  0.7303 -0.3585 -2.6506
  180SOPE   H9Y20592   0.467  -0.689   7.496 -0.5845 -0.2438  0.1091
  180SOPE  C31020593   0.390  -0.623   7.677  0.2228 -0.0687 -0.2058
  180SOPE  H10X20594   0.292  -0.672   7.660 -0.7813  1.6347  0.4541
  180SOPE  H10Y20595   0.369  -0.530   7.733  0.3866  0.0999 -0.4248
  180SOPE  C31120596   0.486  -0.713   7.760  0.4360 -0.7268  0.3536
  180SOPE  H11X20597   0.576  -0.653   7.784  0.7446 -0.0231 -2.2420
  180SOPE  H11Y20598   0.522  -0.797   7.697  0.5840  0.8512 -1.7706
  180SOPE  C31220599   0.418  -0.764   7.893 -0.0629 -0.4317  0.5933
  180SOPE  H12X20600   0.327  -0.822   7.865  0.7679 -0.9259 -1.2597
  180SOPE  H12Y20601   0.368  -0.679   7.945  3.1027  0.5237  2.3438
  180SOPE  C31320602   0.516  -0.838   7.981  0.6460  0.6444  0.5575
  180SOPE  H13X20603   0.602  -0.769   7.998  1.9868 -0.5862 -0.8447
  180SOPE  H13Y20604   0.561  -0.923   7.926 -0.8659  0.5459 -0.5785
  180SOPE  C31420605   0.456  -0.895   8.115 -0.8815 -0.5668  0.8756
  180SOPE  H14X20606   0.390  -0.820   8.165 -2.5661 -2.0566  0.9736
  180SOPE  H14Y20607   0.544  -0.910   8.181 -0.7757  0.1814  0.9183
  180SOPE  C31520608   0.380  -1.024   8.088 -0.3981 -0.2688 -0.7964
  180SOPE  H15X20609   0.447  -1.105   8.052  0.3170 -0.1766  0.2619
  180SOPE  H15Y20610   0.310  -1.013   8.003 -0.8011 -1.4591 -0.6343
  180SOPE  C31620611   0.295  -1.077   8.212 -0.6582 -0.2651  0.2950
  180SOPE  H16X20612   0.226  -1.158   8.179  1.1917 -1.9376  0.3731
  180SOPE  H16Y20613   0.235  -0.988   8.237 -0.3885  0.0771 -0.2470
  180SOPE  C31720614   0.378  -1.140   8.325  0.8281  0.1417  0.6621
  180SOPE  H17X20615   0.428  -1.050   8.368  1.6305 -0.0238  0.0789
  180SOPE  H17Y20616   0.449  -1.220   8.296  2.0450  0.2872  2.9805
  180SOPE  C31820617   0.289  -1.195   8.436  0.9032  0.1735  0.5635
  180SOPE  H18X20618   0.339  -1.198   8.536  1.8903  0.6773  0.1008
  180SOPE  H18Y20619   0.248  -1.297   8.416  0.3874  0.5220 -0.1710
  180SOPE  H18Z20620   0.209  -1.122   8.456 -0.8052 -0.7755 -2.2548
  181SOPE     N20621   5.283   4.581   6.117 -0.5438 -0.0496 -0.1288
  181SOPE   HN120622   5.200   4.625   6.074  0.2810 -0.3268 -2.1242
  181SOPE   HN220623   5.367   4.641   6.104 -0.6746  0.7545  2.2988
  181SOPE   HN320624   5.310   4.496   6.062 -2.1361 -0.5887 -0.1381
  181SOPE   C1220625   5.247   4.520   6.253  0.1695  0.6187 -0.2899
  181SOPE  H12A20626   5.239   4.600   6.330  0.0387  0.5833 -0.2650
  181SOPE  H12B20627   5.331   4.453   6.281 -0.5158 -0.6231 -1.1078
  181SOPE   C1120628   5.123   4.422   6.262  0.1355 -0.4888  0.2374
  181SOPE  H11A20629   5.030   4.484   6.264  0.8264  0.5761  2.0689
  181SOPE  H11B20630   5.128   4.380   6.365  0.3126  0.2911  0.5563
  181SOPE     P20631   5.040   4.181   6.199  0.3787  0.0062 -0.5979
  181SOPE   O1320632   5.127   4.078   6.144 -0.4574 -0.2327  0.1975
  181SOPE   O1420633   4.896   4.181   6.154 -0.5781 -0.6450 -0.5002
  181SOPE   O1220634   5.113   4.318   6.168  0.6229 -0.1246  0.2368
  181SOPE   O1120635   5.036   4.163   6.353 -0.3417 -0.3779 -0.0874
  181SOPE    C120636   4.928   4.178   6.440 -0.3147 -0.5908 -0.1069
  181SOPE    HA20637   4.843   4.116   6.404  0.1506 -0.1044 -2.1932
  181SOPE    HB20638   4.901   4.286   6.432  2.6120  0.2747  0.5410
  181SOPE    C220639   4.957   4.152   6.590 -0.4436  0.4857  1.0242
  181SOPE    HS20640   4.995   4.246   6.636  0.5939  1.0156 -0.8232
  181SOPE   O2120641   5.058   4.056   6.609 -0.3466  0.2228 -0.0472
  181SOPE   C2120642   5.133   4.067   6.714 -0.2552 -0.4937  0.6301
  181SOPE   O2220643   5.129   4.153   6.798  0.3808  0.0195 -0.1846
  181SOPE   C2220644   5.233   3.950   6.715  0.3955  0.9307 -0.5011
  181SOPE   H2R20645   5.282   3.949   6.616 -1.0500 -1.0252 -1.2501
  181SOPE   H2S20646   5.168   3.860   6.711  1.3216  0.2998 -1.8886
  181SOPE    C320647   4.825   4.114   6.655 -0.5817 -1.2824  0.1690
  181SOPE    HX20648   4.795   4.017   6.609 -1.9284 -0.4536 -0.7429
  181SOPE    HY20649   4.743   4.181   6.623  0.3841 -1.2214 -2.4025
  181SOPE   O3120650   4.847   4.109   6.801 -0.7411 -0.8306 -0.0639
  181SOPE   C3120651   4.824   4.221   6.869 -0.1614 -0.3871  0.4765
  181SOPE   O3220652   4.785   4.329   6.826  0.3295 -0.1349  0.3266
  181SOPE   C3220653   4.857   4.193   7.018  0.2009  0.6451  0.5454
  181SOPE   H2X20654   4.964   4.165   7.019  0.3214  0.8297 -1.8384
  181SOPE   H2Y20655   4.788   4.110   7.044  0.5090  0.1693 -0.1268
  181SOPE   C2320656   5.329   3.949   6.834 -0.1526 -0.6426  0.0055
  181SOPE   H3R20657   5.375   4.049   6.851 -0.9249 -0.3215  0.2554
  181SOPE   H3S20658   5.409   3.875   6.810  0.3133  0.6530 -2.7584
  181SOPE   C2420659   5.266   3.906   6.966  0.3977 -0.1171  0.1271
  181SOPE   H4R20660   5.189   3.982   6.989  0.6202 -0.4678  2.2219
  181SOPE   H4S20661   5.218   3.807   6.952 -0.7532  0.4607 -0.1464
  181SOPE   C2520662   5.365   3.886   7.080  0.9120 -0.1564 -0.7197
  181SOPE   H5R20663   5.434   3.804   7.051 -1.4026 -3.2461  1.8420
  181SOPE   H5S20664   5.433   3.972   7.099  2.6280 -1.4114 -0.9197
  181SOPE   C2620665   5.299   3.859   7.223  0.5807  0.0324  0.1352
  181SOPE   H6R20666   5.220   3.780   7.215  1.7483 -1.0404 -1.3210
  181SOPE   H6S20667   5.381   3.815   7.283 -0.1270 -0.7703  0.5325
  181SOPE   C2720668   5.238   3.983   7.286  0.6756  0.4134  0.0786
  181SOPE   H7R20669   5.312   4.066   7.294 -0.9199  2.1332 -1.8808
  181SOPE   H7S20670   5.164   4.022   7.213  0.4585 -0.3997 -0.1405
  181SOPE   C2820671   5.177   3.959   7.425 -0.7074 -0.0888 -0.5483
  181SOPE   H8R20672   5.122   4.051   7.453  0.7110 -0.0606  2.5028
  181SOPE   H8S20673   5.092   3.888   7.411 -1.3141  0.9451 -2.5108
  181SOPE   C2920674   5.278   3.909   7.526 -0.0118 -0.2378  0.2975
  181SOPE   H9120675   5.369   3.867   7.480  0.4104 -1.8752  2.4790
  181SOPE  C21020676   5.274   3.921   7.662  0.5170  1.1773  0.1704
  181SOPE  H10120677   5.351   3.881   7.729  1.4151  0.6274 -1.1581
  181SOPE  C21120678   5.165   3.989   7.731  0.4759  0.2522  0.2947
  181SOPE  H11R20679   5.084   4.019   7.661  0.8416 -3.6891 -2.1937
  181SOPE  H11S20680   5.203   4.077   7.787 -1.6781  1.0529  0.5832
  181SOPE  C21220681   5.112   3.898   7.845 -0.8328  0.2424  0.1589
  181SOPE  H12R20682   5.199   3.870   7.909 -0.4734  0.8173 -0.0698
  181SOPE  H12S20683   5.065   3.806   7.805  2.6271 -0.8780 -1.7338
  181SOPE  C21320684   5.021   3.971   7.944  0.6950 -0.0739  0.2802
  181SOPE  H13R20685   4.927   3.997   7.891  0.3778  2.9174  2.0701
  181SOPE  H13S20686   5.070   4.063   7.981 -1.7335  0.9020  1.3149
  181SOPE  C21420687   4.982   3.885   8.065  0.6943 -0.4618 -0.5140
  181SOPE  H14R20688   4.963   3.781   8.029 -1.5883 -0.7342  1.2331
  181SOPE  H14S20689   4.881   3.911   8.105  0.8222 -2.1372  1.0288
  181SOPE  C21520690   5.076   3.902   8.191 -0.0869  0.0804  0.3235
  181SOPE  H15R20691   5.098   4.010   8.207 -1.8175  0.6020 -0.6139
  181SOPE  H15S20692   5.167   3.849   8.155 -0.4717 -1.7402  1.8182
  181SOPE  C21620693   5.033   3.836   8.323  0.0890  0.7910  0.2979
  181SOPE  H16R20694   5.009   3.732   8.292 -1.3712  1.3320 -0.4742
  181SOPE  H16S20695   4.940   3.883   8.363  0.7844  2.6679 -0.2058
  181SOPE  C21720696   5.144   3.848   8.424  0.1210 -0.3666  0.6160
  181SOPE  H17R20697   5.153   3.955   8.452 -0.8889 -0.0977 -0.0311
  181SOPE  H17S20698   5.239   3.817   8.376  0.4359  2.2279 -0.6385
  181SOPE  C21820699   5.122   3.766   8.554  0.4082 -0.7921 -0.5737
  181SOPE  H18R20700   5.032   3.810   8.601  0.3720 -0.2483 -1.1383
  181SOPE  H18S20701   5.213   3.773   8.618 -0.0552  0.3630 -0.0182
  181SOPE  H18T20702   5.091   3.664   8.524  0.0222 -1.6713  2.5048
  181SOPE   C3320703   4.837   4.312   7.119 -0.3535 -0.6970 -0.6104
  181SOPE   H3X20704   4.731   4.346   7.120 -0.0781  0.3101  1.5457
  181SOPE   H3Y20705   4.903   4.399   7.099  1.0805 -1.1460  1.8206
  181SOPE   C3420706   4.861   4.265   7.264 -0.8949 -0.2374 -0.4497
  181SOPE   H4X20707   4.971   4.247   7.269 -1.1898 -2.3338 -0.6250
  181SOPE   H4Y20708   4.804   4.170   7.274  0.0239 -1.1144 -2.7018
  181SOPE   C3520709   4.826   4.371   7.367  0.4782 -0.7227 -0.5323
  181SOPE   H5X20710   4.717   4.388   7.360  0.2929 -1.3239  0.5421
  181SOPE   H5Y20711   4.885   4.460   7.336  2.2767 -1.4534  0.5816
  181SOPE   C3620712   4.867   4.343   7.511  0.3929  0.0426 -0.1603
  181SOPE   H6X20713   4.975   4.365   7.528  0.5445 -0.7762  0.0165
  181SOPE   H6Y20714   4.855   4.235   7.535 -1.9167  0.3875  0.4209
  181SOPE   C3720715   4.786   4.430   7.606  0.6673 -0.2482 -0.4430
  181SOPE   H7X20716   4.680   4.396   7.606  0.0110  1.4578 -3.1099
  181SOPE   H7Y20717   4.785   4.533   7.564  3.3879 -0.0012 -0.0551
  181SOPE   C3820718   4.835   4.436   7.751 -0.3985 -0.1463 -0.0505
  181SOPE   H8X20719   4.746   4.467   7.810 -0.5520 -0.7654  0.0446
  181SOPE   H8Y20720   4.908   4.518   7.769 -0.3264 -0.4276  1.0194
  181SOPE   C3920721   4.879   4.301   7.816  0.2119  0.9683 -0.2495
  181SOPE   H9X20722   4.961   4.254   7.757 -1.1708 -0.8414 -0.8309
  181SOPE   H9Y20723   4.792   4.236   7.792  0.1134  1.3687 -1.0025
  181SOPE  C31020724   4.922   4.309   7.965  0.6092  0.4992  0.1472
  181SOPE  H10X20725   5.021   4.358   7.975  0.5725  0.1297  3.0366
  181SOPE  H10Y20726   4.935   4.208   8.007  2.3218  0.1047 -1.2156
  181SOPE  C31120727   4.829   4.401   8.056  0.1550  0.3351 -0.1763
  181SOPE  H11X20728   4.818   4.502   8.011 -2.3820  0.0656 -0.2760
  181SOPE  H11Y20729   4.887   4.417   8.149  2.4803 -0.6360 -1.3533
  181SOPE  C31220730   4.691   4.334   8.085  0.3656 -0.5074  0.5786
  181SOPE  H12X20731   4.640   4.319   7.988  0.8767 -0.5117  0.3066
  181SOPE  H12Y20732   4.640   4.413   8.145  1.0804 -0.9923  1.8686
  181SOPE  C31320733   4.715   4.226   8.193  0.3321 -0.3800 -0.6229
  181SOPE  H13X20734   4.776   4.276   8.270  1.1182 -1.7222 -0.3466
  181SOPE  H13Y20735   4.770   4.147   8.137 -2.6933 -1.9332 -1.6232
  181SOPE  C31420736   4.582   4.175   8.251 -0.3713  0.5108 -0.5133
  181SOPE  H14X20737   4.504   4.151   8.175 -1.4554  1.2461  0.3189
  181SOPE  H14Y20738   4.538   4.255   8.315  1.4212  0.3038  1.0742
  181SOPE  C31520739   4.588   4.048   8.344  0.0398 -0.4968  0.8194
  181SOPE  H15X20740   4.628   3.958   8.293  0.3933 -0.7535  1.5285
  181SOPE  H15Y20741   4.487   4.030   8.387 -1.0361 -0.0781 -1.3637
  181SOPE  C31620742   4.691   4.082   8.449 -0.3021  0.7249 -0.1324
  181SOPE  H16X20743   4.676   4.179   8.500 -0.2581  1.4685 -1.4791
  181SOPE  H16Y20744   4.798   4.083   8.418 -0.1060  1.9985  0.5242
  181SOPE  C31720745   4.674   3.968   8.561  0.8887 -0.7379  0.0110
  181SOPE  H17X20746   4.698   3.871   8.512  0.9870 -2.2096  2.7908
  181SOPE  H17Y20747   4.568   3.966   8.593  0.6039  1.1587 -0.6378
  181SOPE  C31820748   4.770   3.976   8.681  0.0731  0.1956  0.1616
  181SOPE  H18X20749   4.734   4.050   8.756 -0.5764  0.9895 -0.8927
  181SOPE  H18Y20750   4.875   4.003   8.657 -0.3023  0.4183 -1.3265
  181SOPE  H18Z20751   4.772   3.878   8.733  1.5224  0.1276  0.0068
  182SOPE     N20752   4.612   1.629   6.466 -0.1605  0.3987 -0.2707
  182SOPE   HN120753   4.635   1.529   6.480 -0.0613  0.6190  1.3243
  182SOPE   HN220754   4.555   1.629   6.378 -1.5192 -0.2123  0.5827
  182SOPE   HN320755   4.703   1.676   6.451  0.0533 -0.1214 -0.6298
  182SOPE   C1220756   4.542   1.671   6.589  0.2597  0.3039 -0.9991
  182SOPE  H12A20757   4.543   1.782   6.590  1.4367  0.2935 -0.2186
  182SOPE  H12B20758   4.595   1.632   6.678  0.5333  1.8601 -0.4520
  182SOPE   C1120759   4.395   1.622   6.574  0.3017  0.8820 -0.5441
  182SOPE  H11A20760   4.347   1.676   6.490  0.5713  2.7178  0.4362
  182SOPE  H11B20761   4.358   1.660   6.671  0.3861  0.2700 -0.2682
  182SOPE     P20762   4.280   1.400   6.554  0.2094 -0.0728 -0.4839
  182SOPE   O1320763   4.290   1.312   6.437 -0.0235  0.0467  0.4386
  182SOPE   O1420764   4.169   1.495   6.554 -0.0220 -0.2846 -0.0233
  182SOPE   O1220765   4.409   1.477   6.571  0.5647 -0.3046  0.5151
  182SOPE   O1120766   4.268   1.312   6.687  0.0215  0.2175  0.2185
  182SOPE    C120767   4.377   1.244   6.753  0.0946  0.1286 -0.5612
  182SOPE    HA20768   4.470   1.233   6.693  0.4849 -2.3577  0.4000
  182SOPE    HB20769   4.345   1.141   6.776 -0.3783 -0.1050 -2.1428
  182SOPE    C220770   4.434   1.311   6.880 -0.3299  0.2396 -0.9804
  182SOPE    HS20771   4.514   1.250   6.926  0.3334  1.4569 -0.4710
  182SOPE   O2120772   4.328   1.335   6.978  0.5984 -0.5841  0.4234
  182SOPE   C2120773   4.281   1.226   7.037  0.5178 -0.0820  0.2360
  182SOPE   O2220774   4.321   1.114   7.015 -0.4468  0.2646  0.4186
  182SOPE   C2220775   4.158   1.263   7.120 -0.3502  0.3675 -0.0942
  182SOPE   H2R20776   4.074   1.269   7.048 -1.9498 -0.8233  1.5945
  182SOPE   H2S20777   4.165   1.368   7.153 -0.9090  0.7511 -1.1568
  182SOPE    C320778   4.500   1.447   6.859  0.1433  0.3487  0.8942
  182SOPE    HX20779   4.428   1.520   6.816 -0.1379 -0.4904 -0.1170
  182SOPE    HY20780   4.587   1.434   6.791  0.4925 -1.1548  1.5657
  182SOPE   O3120781   4.546   1.499   6.984  0.4521 -0.0671 -0.1026
  182SOPE   C3120782   4.474   1.585   7.051  0.2002  0.1052  0.6229
  182SOPE   O3220783   4.381   1.651   7.008 -0.6588  0.0370 -0.1581
  182SOPE   C3220784   4.520   1.585   7.200 -0.6277 -0.4146 -0.1680
  182SOPE   H2X20785   4.603   1.657   7.208 -0.6562  0.2909 -4.3311
  182SOPE   H2Y20786   4.564   1.495   7.249  0.8318  0.3463 -0.0351
  182SOPE   C2320787   4.124   1.162   7.223  0.2082  0.4526 -0.6652
  182SOPE   H3R20788   4.220   1.134   7.272 -1.3231 -3.1568  0.6114
  182SOPE   H3S20789   4.084   1.070   7.177  1.1667 -0.1217 -0.3739
  182SOPE   C2420790   4.032   1.218   7.329 -0.2880  0.1873  0.1140
  182SOPE   H4R20791   4.073   1.309   7.378  1.2808 -0.3726 -0.1153
  182SOPE   H4S20792   3.939   1.238   7.271 -0.2743 -0.1116 -0.0104
  182SOPE   C2520793   3.998   1.121   7.443  0.7584  0.1910  0.6214
  182SOPE   H5R20794   3.900   1.154   7.484 -1.3479 -0.6744 -3.2115
  182SOPE   H5S20795   3.966   1.025   7.397 -1.1492  1.7135 -1.5028
  182SOPE   C2620796   4.119   1.093   7.530 -0.5567 -0.3571  0.0365
  182SOPE   H6R20797   4.204   1.052   7.472  0.6391  1.1854  0.6043
  182SOPE   H6S20798   4.154   1.182   7.588 -2.2142  0.6865 -0.5082
  182SOPE   C2720799   4.094   1.002   7.646  0.6737 -0.2923  0.3151
  182SOPE   H7R20800   4.020   1.050   7.713  1.0022  1.0720 -0.2687
  182SOPE   H7S20801   4.035   0.917   7.604  0.8288 -0.0259 -0.4615
  182SOPE   C2820802   4.214   0.957   7.727 -0.2307  0.6521  0.9077
  182SOPE   H8R20803   4.191   0.866   7.786  2.3939 -0.2118  0.7368
  182SOPE   H8S20804   4.283   0.912   7.652 -2.0160 -0.6708 -0.0357
  182SOPE   C2920805   4.279   1.066   7.804  0.1629  0.4087  0.4967
  182SOPE   H9120806   4.307   1.142   7.730 -0.8205 -0.5463 -0.8971
  182SOPE  C21020807   4.315   1.071   7.932  0.2051  0.1859  0.1122
  182SOPE  H10120808   4.349   1.168   7.971 -1.2523  1.0939 -0.7453
  182SOPE  C21120809   4.284   0.962   8.029 -0.4545 -0.4058  0.7769
  182SOPE  H11R20810   4.375   0.942   8.088 -0.4513  1.0478  1.3116
  182SOPE  H11S20811   4.264   0.867   7.976  2.2926 -0.1622 -0.9013
  182SOPE  C21220812   4.169   0.986   8.119  0.7887  0.4645 -0.4901
  182SOPE  H12R20813   4.072   0.951   8.079 -0.5478  2.3687  0.8882
  182SOPE  H12S20814   4.158   1.095   8.137  1.8327  0.5007 -0.0231
  182SOPE  C21320815   4.179   0.926   8.263  0.5464 -0.0755 -0.6110
  182SOPE  H13R20816   4.260   0.980   8.317 -2.4186  3.4920  0.7179
  182SOPE  H13S20817   4.205   0.818   8.256 -2.5889 -0.8187 -2.8130
  182SOPE  C21420818   4.052   0.931   8.342  0.4121  0.1514 -0.4772
  182SOPE  H14R20819   4.008   1.033   8.337 -0.0765 -0.0247  0.1081
  182SOPE  H14S20820   4.072   0.922   8.451  0.9030 -0.7253 -0.6279
  182SOPE  C21520821   3.933   0.833   8.310 -0.3678  0.2097  0.3075
  182SOPE  H15R20822   3.967   0.727   8.306  0.6151  0.4645  1.3988
  182SOPE  H15S20823   3.888   0.861   8.213 -1.5081  2.7502  1.4619
  182SOPE  C21620824   3.826   0.832   8.421  0.1142  0.2507 -1.0234
  182SOPE  H16R20825   3.772   0.929   8.423 -0.8566 -0.2819  0.1235
  182SOPE  H16S20826   3.865   0.838   8.525 -1.9853  3.3731 -0.2577
  182SOPE  C21720827   3.721   0.722   8.410  0.0648  0.1290 -0.4633
  182SOPE  H17R20828   3.774   0.625   8.417 -0.8828 -0.2833  1.5544
  182SOPE  H17S20829   3.665   0.738   8.316 -0.2442  0.3120 -0.2492
  182SOPE  C21820830   3.617   0.726   8.525 -0.0322  0.2993  0.1413
  182SOPE  H18R20831   3.685   0.707   8.611 -0.5233  0.4803  0.5691
  182SOPE  H18S20832   3.535   0.653   8.518 -0.1956  0.5113 -0.1733
  182SOPE  H18T20833   3.577   0.828   8.541 -3.3517 -1.2095  2.5381
  182SOPE   C3320834   4.417   1.641   7.305 -0.6460 -0.4670 -0.0962
  182SOPE   H3X20835   4.329   1.573   7.305 -0.2499 -0.9880 -0.0401
  182SOPE   H3Y20836   4.388   1.741   7.269  1.7077  0.7515  1.1251
  182SOPE   C3420837   4.456   1.658   7.456  0.7597  0.0771  0.4110
  182SOPE   H4X20838   4.523   1.746   7.454  0.0964  0.5745 -0.0780
  182SOPE   H4Y20839   4.502   1.563   7.493 -0.3464 -0.9998 -0.9061
  182SOPE   C3520840   4.345   1.690   7.548  0.8611  0.1958  0.6980
  182SOPE   H5X20841   4.287   1.770   7.497  1.5928 -0.6595 -1.6149
  182SOPE   H5Y20842   4.383   1.738   7.641  3.6459 -1.2401  0.3896
  182SOPE   C3620843   4.253   1.568   7.566  0.2182 -0.6534 -0.1456
  182SOPE   H6X20844   4.324   1.496   7.611 -0.6190 -1.0049  0.6500
  182SOPE   H6Y20845   4.209   1.527   7.473 -0.4418 -0.4599  0.0716
  182SOPE   C3720846   4.138   1.592   7.667  0.7933  0.4300 -0.2994
  182SOPE   H7X20847   4.091   1.691   7.651  1.4496  1.0199  1.2542
  182SOPE   H7Y20848   4.175   1.588   7.772  1.3984 -3.3580 -0.4875
  182SOPE   C3820849   4.030   1.485   7.646 -0.0187 -0.9733  0.5032
  182SOPE   H8X20850   4.060   1.381   7.670 -0.7627 -1.1281  0.7741
  182SOPE   H8Y20851   3.985   1.487   7.544 -1.5694  0.1315  1.1618
  182SOPE   C3920852   3.915   1.519   7.750 -0.1139 -0.2138 -0.3063
  182SOPE   H9X20853   3.881   1.624   7.737  0.7847  0.1036 -0.1466
  182SOPE   H9Y20854   3.965   1.523   7.849 -1.9823  1.5517  0.6469
  182SOPE  C31020855   3.802   1.418   7.746 -0.2654 -0.0667  0.2618
  182SOPE  H10X20856   3.772   1.422   7.639  0.1321  0.7458  0.1729
  182SOPE  H10Y20857   3.720   1.458   7.809 -0.3750 -0.6475  0.4936
  182SOPE  C31120858   3.832   1.273   7.794 -0.1496 -0.0119  0.2279
  182SOPE  H11X20859   3.910   1.227   7.730 -1.8900 -0.7172 -1.5228
  182SOPE  H11Y20860   3.741   1.209   7.788  0.9331 -1.6410  0.3873
  182SOPE  C31220861   3.878   1.248   7.936 -0.5083  0.8482  0.4815
  182SOPE  H12X20862   3.978   1.290   7.961 -0.4892  2.5186 -2.0477
  182SOPE  H12Y20863   3.900   1.139   7.929 -1.2976  0.6510  1.0055
  182SOPE  C31320864   3.772   1.270   8.037 -0.1800 -0.5128  0.3410
  182SOPE  H13X20865   3.683   1.207   8.018 -1.4092  1.5621 -1.1291
  182SOPE  H13Y20866   3.740   1.376   8.033  0.8493 -0.1768  0.6858
  182SOPE  C31420867   3.818   1.222   8.177 -0.1826 -0.0777  0.4372
  182SOPE  H14X20868   3.911   1.277   8.205 -0.3068  0.5011 -0.2573
  182SOPE  H14Y20869   3.836   1.113   8.167 -0.3433 -0.1453  0.8568
  182SOPE  C31520870   3.711   1.249   8.278  0.9628 -0.2410 -0.1009
  182SOPE  H15X20871   3.683   1.357   8.272  0.9750 -0.0516  2.1606
  182SOPE  H15Y20872   3.752   1.241   8.381  1.6393 -1.2878 -0.4417
  182SOPE  C31620873   3.586   1.164   8.277 -0.1394 -0.6851  0.8130
  182SOPE  H16X20874   3.623   1.061   8.260  1.3632 -0.4045  2.1233
  182SOPE  H16Y20875   3.524   1.188   8.188 -1.1076 -3.1472  0.7628
  182SOPE  C31720876   3.502   1.173   8.399 -0.2544 -0.8651 -0.9611
  182SOPE  H17X20877   3.558   1.138   8.488 -0.9598  1.0794  0.3320
  182SOPE  H17Y20878   3.412   1.110   8.389 -0.9997 -0.2236  1.0753
  182SOPE  C31820879   3.432   1.309   8.437 -0.7367 -0.5357 -0.6073
  182SOPE  H18X20880   3.507   1.390   8.429 -0.9006 -0.4860 -1.9804
  182SOPE  H18Y20881   3.385   1.293   8.536  1.4299 -1.7733  0.2927
  182SOPE  H18Z20882   3.359   1.331   8.356 -1.0039 -0.1320 -0.2573
  183SOPE     N20883   1.785   3.016   6.005 -0.4367 -0.2101 -0.1504
  183SOPE   HN120884   1.843   2.965   5.936  1.0635  0.7243  0.3797
  183SOPE   HN220885   1.702   3.051   5.953 -0.4863 -1.7724 -1.1895
  183SOPE   HN320886   1.845   3.094   6.039 -0.7704  0.6333 -1.4510
  183SOPE   C1220887   1.742   2.944   6.132 -0.7043  0.4333 -0.4617
  183SOPE  H12A20888   1.821   2.959   6.208 -0.4067  1.0574 -0.8814
  183SOPE  H12B20889   1.728   2.837   6.104  0.7123  0.1385 -0.1244
  183SOPE   C1120890   1.614   3.002   6.194  0.6181 -0.2143  0.2769
  183SOPE  H11A20891   1.574   2.935   6.273 -0.8615  0.8129  0.4320
  183SOPE  H11B20892   1.536   3.005   6.115  0.8607  0.7017  0.0631
  183SOPE     P20893   1.659   3.178   6.378 -0.2124 -0.2988  0.2222
  183SOPE   O1320894   1.645   3.324   6.381 -0.5453  0.3915  0.2310
  183SOPE   O1420895   1.782   3.121   6.424 -0.4115 -0.3027 -0.2032
  183SOPE   O1220896   1.633   3.139   6.228  0.2249  0.2945 -0.0743
  183SOPE   O1120897   1.544   3.114   6.460 -0.5591  0.0912  0.2329
  183SOPE    C120898   1.501   3.154   6.589 -0.1785 -0.0666 -0.0265
  183SOPE    HA20899   1.460   3.257   6.582 -3.2678 -0.8305  3.6157
  183SOPE    HB20900   1.579   3.153   6.668  1.7440  1.1573 -1.8049
  183SOPE    C220901   1.392   3.062   6.630  0.3425  0.1448 -0.1055
  183SOPE    HS20902   1.325   3.075   6.543  1.6003 -0.6624 -1.2409
  183SOPE   O2120903   1.326   3.097   6.756 -0.2391  0.3873  0.3018
  183SOPE   C2120904   1.268   3.218   6.760  0.1728 -0.4059  0.0290
  183SOPE   O2220905   1.254   3.288   6.661  0.2661  0.2029 -0.2306
  183SOPE   C2220906   1.238   3.251   6.901  0.2055  1.0233  0.6060
  183SOPE   H2R20907   1.138   3.297   6.918  0.3325  1.1296  1.0706
  183SOPE   H2S20908   1.315   3.324   6.931  2.5616 -1.4755  1.0424
  183SOPE    C320909   1.421   2.907   6.624 -0.2782  0.1080  0.0467
  183SOPE    HX20910   1.449   2.900   6.517 -2.1969  1.8871 -0.6355
  183SOPE    HY20911   1.320   2.864   6.640  0.6190 -2.4735 -0.7618
  183SOPE   O3120912   1.532   2.862   6.700  0.7557 -0.1205 -0.2686
  183SOPE   C3120913   1.508   2.828   6.822 -0.1906  0.8669 -1.3540
  183SOPE   O3220914   1.410   2.856   6.887 -0.1357 -0.3407 -0.4900
  183SOPE   C3220915   1.626   2.738   6.869 -0.3053  0.6380 -0.6807
  183SOPE   H2X20916   1.724   2.751   6.817  0.1150  0.2826  0.0023
  183SOPE   H2Y20917   1.599   2.631   6.852  1.7145 -0.4264  2.1536
  183SOPE   C2320918   1.237   3.130   6.996 -0.8764  0.1837  0.5496
  183SOPE   H3R20919   1.339   3.087   7.014 -1.0626 -0.3879  0.2685
  183SOPE   H3S20920   1.188   3.040   6.954  3.4012 -2.0013 -0.4072
  183SOPE   C2420921   1.177   3.173   7.135 -0.1699 -0.2486  0.5445
  183SOPE   H4R20922   1.242   3.249   7.184 -2.0819  2.4645 -0.8349
  183SOPE   H4S20923   1.080   3.215   7.101 -0.3775 -0.9126  0.3148
  183SOPE   C2520924   1.140   3.062   7.235  0.2991 -0.4468  0.3029
  183SOPE   H5R20925   1.053   3.005   7.196  0.4790 -0.5029 -0.0254
  183SOPE   H5S20926   1.227   2.996   7.255 -1.2579 -3.6504 -2.5261
  183SOPE   C2620927   1.079   3.127   7.362  0.1488  0.1862 -0.6617
  183SOPE   H6R20928   1.148   3.200   7.411  2.2117 -1.7271 -0.5510
  183SOPE   H6S20929   0.979   3.174   7.357  0.4181  0.7372 -0.9730
  183SOPE   C2720930   1.054   3.032   7.486  0.3427  0.0498  0.1461
  183SOPE   H7R20931   0.992   3.076   7.566  0.8978 -0.5296  0.9114
  183SOPE   H7S20932   0.992   2.948   7.448 -0.4988  0.4740  0.5745
  183SOPE   C2820933   1.176   2.977   7.557  1.0263  0.1680 -0.4574
  183SOPE   H8R20934   1.133   2.902   7.626 -0.5379  1.1088 -0.3755
  183SOPE   H8S20935   1.231   2.921   7.477  0.0646 -0.4706 -0.6856
  183SOPE   C2920936   1.276   3.071   7.626 -0.1712 -0.1510  1.1950
  183SOPE   H9120937   1.342   3.116   7.550 -0.7774 -2.5988 -0.9088
  183SOPE  C21020938   1.314   3.085   7.755 -0.0318 -0.2368  0.4055
  183SOPE  H10120939   1.402   3.147   7.777  0.3737  0.3234 -2.4131
  183SOPE  C21120940   1.246   3.029   7.874 -0.0289  0.7946 -0.6306
  183SOPE  H11R20941   1.313   2.959   7.929  3.6272  1.8715 -3.2700
  183SOPE  H11S20942   1.163   2.964   7.839  0.3253 -0.0973  0.1415
  183SOPE  C21220943   1.198   3.141   7.968 -0.1165  0.5760  0.5736
  183SOPE  H12R20944   1.111   3.197   7.928 -1.1054 -0.0110  1.8433
  183SOPE  H12S20945   1.284   3.210   7.988 -0.8549  1.5434  0.4922
  183SOPE  C21320946   1.159   3.092   8.106 -0.5503 -0.0602 -0.1058
  183SOPE  H13R20947   1.120   3.175   8.169  0.2471 -0.4134  0.8698
  183SOPE  H13S20948   1.252   3.055   8.154 -0.1124  0.3189 -0.6564
  183SOPE  C21420949   1.055   2.978   8.110 -0.3362 -0.9922 -0.6671
  183SOPE  H14R20950   1.074   2.905   8.028  1.4754  0.0971 -1.2761
  183SOPE  H14S20951   0.955   3.021   8.087  1.4867  2.3831 -3.2765
  183SOPE  C21520952   1.055   2.920   8.253  0.5042  0.0022 -0.5963
  183SOPE  H15R20953   1.055   3.002   8.328 -0.5956 -1.1272  0.6794
  183SOPE  H15S20954   1.148   2.860   8.256  0.4670 -0.1023 -1.3287
  183SOPE  C21620955   0.938   2.828   8.298 -0.5931 -0.4334 -0.0322
  183SOPE  H16R20956   0.983   2.763   8.376  1.2760 -0.4515 -1.0527
  183SOPE  H16S20957   0.915   2.752   8.220  0.1316  0.3427 -1.0364
  183SOPE  C21720958   0.810   2.909   8.324  0.0630 -0.2035 -0.1532
  183SOPE  H17R20959   0.787   2.957   8.227 -0.7827 -0.7919 -0.2553
  183SOPE  H17S20960   0.819   2.980   8.409  2.0103 -1.1581  0.5072
  183SOPE  C21820961   0.696   2.825   8.365 -0.2411 -0.4437  0.2222
  183SOPE  H18R20962   0.725   2.764   8.453  2.1554 -0.7508 -0.7176
  183SOPE  H18S20963   0.666   2.748   8.291  1.4515 -3.0777  2.0767
  183SOPE  H18T20964   0.598   2.871   8.389 -1.5900 -3.1201  0.2811
  183SOPE   C3320965   1.667   2.755   7.017  0.2312  0.0079 -0.4525
  183SOPE   H3X20966   1.720   2.663   7.047 -0.5387  0.1327  1.4258
  183SOPE   H3Y20967   1.580   2.758   7.086  0.2097 -0.3963 -0.4616
  183SOPE   C3420968   1.764   2.872   7.038  0.6634  0.5419 -0.5108
  183SOPE   H4X20969   1.850   2.872   6.967  0.0835 -0.7055 -1.2436
  183SOPE   H4Y20970   1.801   2.869   7.143 -2.3327 -1.2533  0.6110
  183SOPE   C3520971   1.700   3.011   7.027 -0.1672 -0.3192  0.2132
  183SOPE   H5X20972   1.659   3.040   6.928 -0.3559 -0.7514  0.1614
  183SOPE   H5Y20973   1.779   3.085   7.050 -0.0221 -0.0205 -1.1600
  183SOPE   C3620974   1.599   3.050   7.141  0.4378 -0.4373 -0.1716
  183SOPE   H6X20975   1.510   2.983   7.146  0.5717 -0.5009  2.2477
  183SOPE   H6Y20976   1.563   3.153   7.124 -1.4602 -1.3531 -2.3710
  183SOPE   C3720977   1.663   3.044   7.281  0.1757  0.6563  0.3976
  183SOPE   H7X20978   1.772   3.065   7.274  0.4514 -0.4761  1.0390
  183SOPE   H7Y20979   1.664   2.940   7.320  1.7288  0.1467 -0.8777
  183SOPE   C3820980   1.586   3.115   7.392  0.5867  0.0815  0.4650
  183SOPE   H8X20981   1.624   3.086   7.493  1.8320  1.1902  0.3504
  183SOPE   H8Y20982   1.479   3.087   7.389  0.1776  1.5853 -2.0339
  183SOPE   C3920983   1.601   3.271   7.376 -0.5669  0.6580 -0.2209
  183SOPE   H9X20984   1.550   3.295   7.280 -1.7620 -0.4162  0.1147
  183SOPE   H9Y20985   1.711   3.288   7.376 -0.7088  1.6518 -0.9186
  183SOPE  C31020986   1.543   3.357   7.492  0.0929 -0.0030  1.2665
  183SOPE  H10X20987   1.436   3.327   7.492 -0.5723  2.1091  0.0204
  183SOPE  H10Y20988   1.554   3.461   7.454  1.7736 -0.4280  0.5338
  183SOPE  C31120989   1.614   3.332   7.626  0.3450 -0.3641  0.2111
  183SOPE  H11X20990   1.721   3.352   7.603  0.1466  1.3657  0.6305
  183SOPE  H11Y20991   1.610   3.225   7.654 -0.7615 -0.4225 -0.1288
  183SOPE  C31220992   1.553   3.409   7.748  0.0868  0.1641 -0.0671
  183SOPE  H12X20993   1.597   3.373   7.843  1.4876 -0.6075 -0.9770
  183SOPE  H12Y20994   1.448   3.375   7.761 -0.0337  0.7712  0.6265
  183SOPE  C31320995   1.562   3.558   7.729 -0.4367 -0.0926  0.1835
  183SOPE  H13X20996   1.505   3.593   7.641  0.1782 -1.0714 -0.6363
  183SOPE  H13Y20997   1.668   3.587   7.711 -1.4147  3.1204 -1.1173
  183SOPE  C31420998   1.505   3.636   7.847  0.0511  0.2929  0.4701
  183SOPE  H14X20999   1.415   3.577   7.876  1.3742 -1.3077  1.4754
  183SOPE  H14Y21000   1.473   3.737   7.814 -0.4703 -0.2999 -0.9692
  183SOPE  C31521001   1.600   3.642   7.966  0.0016 -0.5574  0.3122
  183SOPE  H15X21002   1.703   3.653   7.926 -0.1527  1.3038  0.3262
  183SOPE  H15Y21003   1.605   3.549   8.027  2.6866  0.0547  1.1675
  183SOPE  C31621004   1.567   3.761   8.057 -0.2257 -0.3337 -0.6511
  183SOPE  H16X21005   1.461   3.753   8.089 -0.0889 -2.2083 -0.5366
  183SOPE  H16Y21006   1.574   3.851   7.992  0.5352 -0.2683 -0.4876
  183SOPE  C31721007   1.660   3.761   8.181 -0.3897  0.2289 -0.0761
  183SOPE  H17X21008   1.763   3.770   8.140 -0.8054 -0.7756 -1.4125
  183SOPE  H17Y21009   1.647   3.662   8.231 -1.9316  1.6609  2.5686
  183SOPE  C31821010   1.633   3.872   8.281  0.8575 -0.6495  0.5078
  183SOPE  H18X21011   1.606   3.963   8.224  2.0506  0.4478  1.6120
  183SOPE  H18Y21012   1.722   3.902   8.341  0.8742  0.2918  0.0219
  183SOPE  H18Z21013   1.535   3.861   8.333 -0.3054 -1.1657 -1.6921
  184SOPE     N21014   6.127   5.670   6.056  0.4763 -0.3258 -0.1534
  184SOPE   HN121015   6.217   5.634   6.018  0.5825  1.8731 -2.2403
  184SOPE   HN221016   6.115   5.773   6.052  2.1495 -0.1189 -0.4029
  184SOPE   HN321017   6.111   5.639   6.154 -0.2538  0.6822  0.0638
  184SOPE   C1221018   6.033   5.606   5.965  0.6493  0.4897  0.1083
  184SOPE  H12A21019   6.085   5.582   5.870  0.1534  0.4316 -0.1505
  184SOPE  H12B21020   5.948   5.675   5.946 -1.0972 -1.7043 -0.5557
  184SOPE   C1121021   5.982   5.463   6.019  1.0512  0.4959 -0.9453
  184SOPE  H11A21022   6.070   5.398   6.037  3.0243  3.4209  0.9732
  184SOPE  H11B21023   5.940   5.424   5.924 -0.7991 -0.2534  0.1431
  184SOPE     P21024   5.734   5.455   6.105  0.0585  0.2467  0.0627
  184SOPE   O1321025   5.713   5.406   5.968  0.4555  0.5244 -0.4050
  184SOPE   O1421026   5.660   5.581   6.133 -0.8808  0.1678  1.0405
  184SOPE   O1221027   5.885   5.481   6.126 -0.7802  0.4966 -0.0708
  184SOPE   O1121028   5.699   5.339   6.211  0.2210  0.1650  0.1356
  184SOPE    C121029   5.772   5.332   6.331  0.1441 -0.0797 -0.7593
  184SOPE    HA21030   5.854   5.407   6.340 -0.0726  0.2726 -1.5637
  184SOPE    HB21031   5.821   5.235   6.352  2.1046  1.1344  0.7207
  184SOPE    C221032   5.682   5.366   6.457  0.8528 -0.7811 -0.9504
  184SOPE    HS21033   5.744   5.333   6.544  0.1555  0.0150 -0.1273
  184SOPE   O2121034   5.554   5.306   6.447  0.1849 -0.3483  0.0207
  184SOPE   C2121035   5.556   5.168   6.452  0.3676 -0.1804 -0.4766
  184SOPE   O2221036   5.663   5.103   6.466  0.6379  0.5167 -0.6884
  184SOPE   C2221037   5.417   5.113   6.429 -0.3697  0.4961  0.0457
  184SOPE   H2R21038   5.428   5.003   6.417 -1.0103  0.0561  2.8214
  184SOPE   H2S21039   5.378   5.162   6.337 -0.5192  1.3304  0.5425
  184SOPE    C321040   5.658   5.517   6.489 -0.4141 -0.2592 -0.7998
  184SOPE    HX21041   5.613   5.574   6.405  1.3423  1.8803 -0.3771
  184SOPE    HY21042   5.762   5.555   6.499  0.2406 -2.2905  0.6778
  184SOPE   O3121043   5.582   5.530   6.609  0.2941  0.4922  0.2082
  184SOPE   C3121044   5.498   5.641   6.622  0.3615  0.4207 -0.4145
  184SOPE   O3221045   5.507   5.735   6.551  0.4474  0.0097  0.1080
  184SOPE   C3221046   5.378   5.604   6.711 -0.3089  0.1304  0.1389
  184SOPE   H2X21047   5.308   5.542   6.651  0.4037  1.7064 -2.4796
  184SOPE   H2Y21048   5.338   5.705   6.733 -1.3821 -0.2982  0.2167
  184SOPE   C2321049   5.313   5.165   6.536 -0.1926 -0.4226 -0.3808
  184SOPE   H3R21050   5.217   5.114   6.512 -0.4120 -0.2085  0.0173
  184SOPE   H3S21051   5.290   5.274   6.531 -0.4341 -0.3007  1.9239
  184SOPE   C2421052   5.348   5.144   6.686 -0.1590  0.1608 -0.4725
  184SOPE   H4R21053   5.389   5.041   6.697  0.7665  0.4733 -0.8968
  184SOPE   H4S21054   5.428   5.211   6.724 -0.6423 -0.6605  2.2498
  184SOPE   C2521055   5.220   5.155   6.770  0.5295  0.4938 -0.3922
  184SOPE   H5R21056   5.159   5.242   6.736  1.0936  0.7105 -0.8755
  184SOPE   H5S21057   5.155   5.069   6.743  0.7174  0.7049 -1.5667
  184SOPE   C2621058   5.238   5.166   6.918  0.4811 -0.2734 -0.9546
  184SOPE   H6R21059   5.271   5.067   6.956  4.2318  0.8054 -0.9437
  184SOPE   H6S21060   5.318   5.240   6.942 -0.1367  0.9240 -2.4017
  184SOPE   C2721061   5.103   5.214   6.980 -0.3031 -0.5241 -0.2086
  184SOPE   H7R21062   5.100   5.322   6.954  0.5334 -0.8048 -1.5694
  184SOPE   H7S21063   5.016   5.157   6.940 -2.6408  1.4029  1.7947
  184SOPE   C2821064   5.104   5.205   7.134 -0.1273 -0.1533  0.1750
  184SOPE   H8R21065   5.140   5.106   7.168  2.1512  0.8569  0.9056
  184SOPE   H8S21066   5.189   5.272   7.162  0.3917 -0.2272 -1.1465
  184SOPE   C2921067   4.974   5.252   7.191  0.9990  0.0800 -0.2671
  184SOPE   H9121068   4.882   5.211   7.147  0.0130  1.8372  0.0305
  184SOPE  C21021069   4.954   5.336   7.293 -0.1132 -0.0428 -0.0054
  184SOPE  H10121070   4.851   5.351   7.327 -0.6174 -0.3610 -1.3554
  184SOPE  C21121071   5.060   5.411   7.368 -0.5302  0.2402 -0.5229
  184SOPE  H11R21072   5.054   5.518   7.339  1.5505 -0.0053 -2.0562
  184SOPE  H11S21073   5.163   5.377   7.346 -1.1116 -3.1852  1.3813
  184SOPE  C21221074   5.042   5.380   7.518 -0.2150  0.3397 -0.5373
  184SOPE  H12R21075   4.936   5.359   7.541 -0.1201  0.0339 -0.3746
  184SOPE  H12S21076   5.073   5.466   7.582  3.6951  2.0500 -4.2106
  184SOPE  C21321077   5.140   5.269   7.563  0.4826  0.4666  0.0874
  184SOPE  H13R21078   5.246   5.289   7.536  1.2871 -2.4905  0.7648
  184SOPE  H13S21079   5.117   5.173   7.513 -1.3514  0.4446  0.9010
  184SOPE  C21421080   5.157   5.232   7.714 -0.3221  0.7839 -0.2487
  184SOPE  H14R21081   5.217   5.139   7.725 -1.1564  0.4524  2.0699
  184SOPE  H14S21082   5.059   5.202   7.755  0.3932 -0.1552  0.8487
  184SOPE  C21521083   5.214   5.359   7.782  0.3328 -0.2052  0.8060
  184SOPE  H15R21084   5.131   5.433   7.784  1.3289  0.9338  1.4256
  184SOPE  H15S21085   5.292   5.400   7.715 -1.1902  0.3821 -0.6624
  184SOPE  C21621086   5.271   5.337   7.918 -0.4725 -0.0999  0.0945
  184SOPE  H16R21087   5.293   5.443   7.940 -0.6649  0.0131 -0.2588
  184SOPE  H16S21088   5.363   5.276   7.902 -0.1448  0.6052 -0.8392
  184SOPE  C21721089   5.184   5.265   8.024 -0.4716 -0.3989  1.0088
  184SOPE  H17R21090   5.190   5.154   8.019 -0.1479 -0.3913  1.2269
  184SOPE  H17S21091   5.081   5.293   7.994  0.1964  1.2190  0.0697
  184SOPE  C21821092   5.191   5.313   8.168 -0.4610 -0.8520 -0.2102
  184SOPE  H18R21093   5.287   5.287   8.217  0.3594 -0.2792 -1.4468
  184SOPE  H18S21094   5.106   5.260   8.214  0.4517 -0.3948  2.1611
  184SOPE  H18T21095   5.175   5.423   8.159  1.6573 -0.4764  0.0744
  184SOPE   C3321096   5.422   5.530   6.840  1.0091  0.4185 -0.1676
  184SOPE   H3X21097   5.524   5.564   6.869  2.0186 -0.1016 -2.7845
  184SOPE   H3Y21098   5.429   5.422   6.811  0.8983  1.0009 -2.5828
  184SOPE   C3421099   5.322   5.538   6.957 -0.3682  0.0155 -0.7729
  184SOPE   H4X21100   5.366   5.480   7.040  0.5193  1.1149 -0.4453
  184SOPE   H4Y21101   5.220   5.499   6.937  0.7750 -4.1385  0.5800
  184SOPE   C3521102   5.306   5.683   7.017 -0.1663  0.0833  0.6261
  184SOPE   H5X21103   5.261   5.751   6.940  0.3630  0.6227  0.7827
  184SOPE   H5Y21104   5.403   5.736   7.024  1.9637 -3.0636 -2.0808
  184SOPE   C3621105   5.225   5.696   7.144  0.7503 -0.7870 -0.3625
  184SOPE   H6X21106   5.254   5.619   7.218  1.0799  0.2933  0.6692
  184SOPE   H6Y21107   5.118   5.681   7.118 -0.7708 -0.6400  4.7543
  184SOPE   C3721108   5.240   5.833   7.202 -0.3394 -0.2162  0.4263
  184SOPE   H7X21109   5.189   5.904   7.133 -0.2823 -1.4231 -0.8991
  184SOPE   H7Y21110   5.347   5.858   7.216 -0.8497  2.0291  0.7717
  184SOPE   C3821111   5.177   5.858   7.341 -0.2246 -0.1512 -0.1355
  184SOPE   H8X21112   5.069   5.831   7.345 -0.4711  0.9220  1.3045
  184SOPE   H8Y21113   5.173   5.968   7.356 -1.2825 -0.4521  2.0800
  184SOPE   C3921114   5.249   5.792   7.468 -0.2846  0.5260  0.1000
  184SOPE   H9X21115   5.356   5.817   7.485  0.1739 -2.4430  2.2248
  184SOPE   H9Y21116   5.236   5.683   7.454  0.9261  0.5298 -1.3227
  184SOPE  C31021117   5.180   5.836   7.597 -0.2978  0.2026 -0.7593
  184SOPE  H10X21118   5.072   5.825   7.574 -1.2324  1.3504  2.5414
  184SOPE  H10Y21119   5.173   5.944   7.624 -0.3148  0.0678 -0.2021
  184SOPE  C31121120   5.219   5.754   7.723  0.0720 -0.3277  0.1754
  184SOPE  H11X21121   5.329   5.758   7.707 -0.1033 -0.0783 -1.1304
  184SOPE  H11Y21122   5.185   5.650   7.705 -0.1053 -0.4252  1.0498
  184SOPE  C31221123   5.146   5.805   7.847 -0.4132  0.5229 -0.1486
  184SOPE  H12X21124   5.036   5.793   7.834 -0.1760  0.4414 -2.4212
  184SOPE  H12Y21125   5.165   5.913   7.859 -0.8939  0.5174  0.7440
  184SOPE  C31321126   5.189   5.730   7.975 -0.1208 -0.7003  0.4919
  184SOPE  H13X21127   5.290   5.685   7.965  0.2129  0.3001 -1.2266
  184SOPE  H13Y21128   5.121   5.643   7.982  0.6009 -1.1711  2.2880
  184SOPE  C31421129   5.197   5.806   8.107 -0.2336 -0.3098  0.5277
  184SOPE  H14X21130   5.100   5.793   8.158 -0.7693 -0.2942 -0.4490
  184SOPE  H14Y21131   5.219   5.912   8.080 -1.1051 -0.3516 -0.4013
  184SOPE  C31521132   5.304   5.766   8.215  0.2451 -0.1341 -0.4300
  184SOPE  H15X21133   5.403   5.764   8.164  0.8053 -1.4936  0.6641
  184SOPE  H15Y21134   5.281   5.664   8.253 -1.4355  0.2587 -0.3073
  184SOPE  C31621135   5.308   5.841   8.347 -0.2747  0.1404 -0.6235
  184SOPE  H16X21136   5.206   5.874   8.374  0.9224  2.5234  1.4029
  184SOPE  H16Y21137   5.366   5.936   8.337 -0.2626  0.0822 -1.1568
  184SOPE  C31721138   5.359   5.754   8.464  0.1518 -0.4718 -0.2997
  184SOPE  H17X21139   5.460   5.712   8.441  0.2941  0.5487 -1.7456
  184SOPE  H17Y21140   5.285   5.673   8.477  0.2364 -0.1369  3.3089
  184SOPE  C31821141   5.366   5.836   8.590  0.0223  0.2819 -0.3447
  184SOPE  H18X21142   5.389   5.769   8.676  1.4515  1.2452  0.0741
  184SOPE  H18Y21143   5.264   5.878   8.603 -0.5897  0.2032 -3.8882
  184SOPE  H18Z21144   5.445   5.914   8.579 -1.3763  1.6046 -1.3761
  185SAPI   C1221145   6.481   5.152  10.914 -1.2008  0.1314  0.5516
  185SAPI    H221146   6.509   5.252  10.876 -2.4002 -0.5011 -2.2818
  185SAPI    O221147   6.503   5.060  10.805 -0.5679 -0.7319 -0.1701
  185SAPI   HO221148   6.438   5.083  10.737  1.2670  0.2130 -1.7014
  185SAPI   C1321149   6.570   5.114  11.032 -0.2064 -0.0605  0.2234
  185SAPI    H321150   6.550   5.176  11.122  1.9675 -2.4437  2.4993
  185SAPI    O321151   6.708   5.132  11.007 -0.3288 -0.0401 -0.1611
  185SAPI   HO321152   6.728   5.059  10.948  0.6043 -0.5744  0.7726
  185SAPI   C1421153   6.546   4.971  11.080  0.5566 -0.5157  0.7649
  185SAPI    H421154   6.580   4.897  11.003 -2.7225 -0.8888 -0.4547
  185SAPI    O421155   6.629   4.931  11.192  0.1945 -0.2068  0.6576
  185SAPI   HO421156   6.647   4.837  11.201 -0.1820 -0.2079  1.4424
  185SAPI   C1521157   6.399   4.948  11.113 -0.5041  0.0106  0.4609
  185SAPI    H521158   6.392   5.025  11.193 -2.1005  1.4754 -1.0008
  185SAPI    O521159   6.371   4.819  11.168 -0.1969 -0.7664 -0.4230
  185SAPI   HO521160   6.344   4.814  11.260 -0.7951 -0.6571 -0.5918
  185SAPI   C1621161   6.313   4.992  11.000  0.3895  0.1130  0.0567
  185SAPI    H621162   6.334   4.931  10.910 -1.3702  0.3122 -0.5309
  185SAPI    O621163   6.178   4.967  11.029 -0.3858 -0.0761 -0.5008
  185SAPI   HO621164   6.158   5.010  11.113  0.7973 -1.1030  0.3314
  185SAPI   C1121165   6.331   5.138  10.959  0.0251 -0.5858 -0.9418
  185SAPI    H121166   6.319   5.193  11.054  2.7129  1.1392 -1.4829
  185SAPI     P21167   6.184   5.336  10.855 -0.3654  0.1827 -0.4515
  185SAPI   O1321168   6.264   5.413  10.944 -0.1049 -0.0002 -0.2338
  185SAPI   O1421169   6.039   5.320  10.894 -0.3862 -0.5375 -0.0063
  185SAPI   O1221170   6.241   5.186  10.857  0.0155  0.0051 -0.3883
  185SAPI   O1121171   6.208   5.382  10.708  0.3758 -0.3492  0.1810
  185SAPI    C121172   6.321   5.446  10.651 -0.6032  0.4729 -0.4812
  185SAPI    HA21173   6.322   5.555  10.672  1.2401  0.8887 -2.3716
  185SAPI    HB21174   6.414   5.407  10.700 -0.6678  0.2699 -0.5208
  185SAPI    C221175   6.324   5.427  10.496  0.7523 -0.0894  0.4662
  185SAPI    HS21176   6.423   5.460  10.456  0.5897 -1.7274 -1.4720
  185SAPI   O2121177   6.213   5.501  10.438 -0.6108  0.3002  0.3512
  185SAPI   C2121178   6.258   5.622  10.416 -0.6861 -0.0649 -0.4630
  185SAPI   O2221179   6.363   5.667  10.462  0.1260 -0.7590  0.1341
  185SAPI   C2221180   6.161   5.705  10.341 -0.0610 -0.4268  0.1179
  185SAPI   H2R21181   6.206   5.794  10.292 -1.1441  0.9957  1.6001
  185SAPI   H2S21182   6.119   5.635  10.266  0.2647 -1.0177  0.4859
  185SAPI    C321183   6.305   5.281  10.468 -0.0344  0.1268 -0.2315
  185SAPI    HX21184   6.214   5.232  10.509  2.7555 -1.3501  5.1808
  185SAPI    HY21185   6.393   5.229  10.512 -0.9949 -1.0324  0.3796
  185SAPI   O3121186   6.311   5.258  10.321  0.6787 -0.6141  0.3462
  185SAPI   C3121187   6.201   5.256  10.257  0.6432 -0.9094  0.9376
  185SAPI   O3221188   6.090   5.293  10.304  0.2698 -0.3325  0.2323
  185SAPI   C3221189   6.217   5.223  10.108  0.0937 -0.0741 -0.5538
  185SAPI   H2X21190   6.118   5.202  10.063 -1.2141 -2.4595  2.9763
  185SAPI   H2Y21191   6.278   5.131  10.094  1.3103  0.6736 -0.3781
  185SAPI   C2321192   6.047   5.763  10.425 -0.4674  0.7109  0.5181
  185SAPI   H3R21193   6.095   5.809  10.514 -0.5050 -0.8441  1.3691
  185SAPI   H3S21194   5.992   5.675  10.464 -0.4610  0.4348 -0.0776
  185SAPI   C2421195   5.947   5.863  10.357 -0.3511 -0.2551 -0.8253
  185SAPI   H4R21196   5.912   5.836  10.255 -1.5433  3.2316 -1.4724
  185SAPI   H4S21197   5.994   5.961  10.334  0.5557 -0.7245 -1.0204
  185SAPI   C2521198   5.821   5.884  10.434 -0.1356 -0.5212  0.3032
  185SAPI   H5R21199   5.836   5.958  10.515  1.2580  0.8665 -1.1437
  185SAPI   C2621200   5.705   5.827  10.415  0.5828  0.3575  0.1211
  185SAPI   H6R21201   5.625   5.844  10.488 -0.1415 -0.2787 -0.5052
  185SAPI   C2721202   5.675   5.734  10.300  0.8393  0.2113  0.3082
  185SAPI   H7R21203   5.671   5.791  10.204  1.3378  1.9352  1.2700
  185SAPI   H7S21204   5.566   5.714  10.305  0.7412 -0.3599 -2.3794
  185SAPI   C2821205   5.750   5.608  10.278  0.5903  1.2087 -0.5825
  185SAPI   H8R21206   5.741   5.540  10.363  2.8479  0.5899 -0.7601
  185SAPI   C2921207   5.823   5.569  10.174  0.0050  0.1280 -0.4710
  185SAPI   H9R21208   5.866   5.468  10.179 -0.1549  0.1096  1.8505
  185SAPI  C21021209   5.846   5.648  10.052 -0.4157 -0.4019  0.2774
  185SAPI  H10R21210   5.817   5.755  10.056 -0.9608 -0.3864 -2.1277
  185SAPI  H10S21211   5.769   5.613   9.979 -2.5368  1.7172  1.3601
  185SAPI  C21121212   5.986   5.658   9.994 -0.2306 -0.4955  0.3606
  185SAPI  H11R21213   6.068   5.647  10.066 -0.0175  1.7984  0.5481
  185SAPI  C21221214   6.019   5.700   9.868  0.1721  0.1221 -0.8018
  185SAPI  H12R21215   6.125   5.692   9.840  0.1076 -0.5195 -0.8764
  185SAPI  C21321216   5.929   5.744   9.758  0.1918  0.5385 -0.1820
  185SAPI  H13R21217   5.950   5.843   9.713 -1.4460  0.0059 -2.2613
  185SAPI  H13S21218   5.829   5.758   9.803  0.0004 -0.0148 -0.4160
  185SAPI  C21421219   5.918   5.628   9.661  0.3603  0.1466  0.0100
  185SAPI  H14R21220   5.848   5.552   9.699 -0.8699  1.5035  0.5309
  185SAPI  C21521221   5.969   5.627   9.537 -0.3610 -0.0525 -0.1352
  185SAPI  H15R21222   5.965   5.534   9.479  1.2660  0.7165 -1.5724
  185SAPI  C21621223   6.047   5.733   9.473  0.4695 -0.4678  0.2852
  185SAPI  H16R21224   6.003   5.833   9.495 -2.1930 -0.9700 -2.1797
  185SAPI  H16S21225   6.022   5.741   9.365 -0.2090  2.9873  0.5713
  185SAPI  C21721226   6.197   5.723   9.478 -0.4942 -0.0891 -0.5689
  185SAPI  H17R21227   6.235   5.623   9.448  0.5643 -1.0351  3.3630
  185SAPI  H17S21228   6.229   5.734   9.584 -0.3861  0.3356 -0.6418
  185SAPI  C21821229   6.271   5.833   9.398  0.3843 -0.0402 -0.3008
  185SAPI  H18R21230   6.225   5.927   9.433 -1.2847 -0.9780  0.1188
  185SAPI  H18S21231   6.237   5.802   9.297 -1.8143 -0.3916  0.4917
  185SAPI  C21921232   6.423   5.832   9.415 -0.5002 -0.3456 -0.0009
  185SAPI  H19R21233   6.450   5.725   9.426  1.6959 -0.1142 -2.2786
  185SAPI  H19S21234   6.445   5.887   9.509 -0.9356 -0.4565  0.1687
  185SAPI  C22021235   6.497   5.890   9.293  0.0781 -1.0851 -0.2389
  185SAPI  H20R21236   6.475   5.827   9.205  0.6153 -0.6524 -0.6912
  185SAPI  H20S21237   6.606   5.891   9.312 -0.0540 -0.2952  0.5733
  185SAPI  H20T21238   6.465   5.996   9.282 -0.3153 -1.1572  0.1778
  185SAPI   C3321239   6.279   5.338  10.024  0.2165 -0.1216  0.6825
  185SAPI   H3X21240   6.390   5.327  10.018  0.0462 -3.1648  1.3626
  185SAPI   H3Y21241   6.273   5.440  10.069  0.1026  0.0109  0.3647
  185SAPI   C3421242   6.221   5.333   9.885 -0.0525 -0.2054 -0.0956
  185SAPI   H4X21243   6.118   5.372   9.893 -0.2236 -0.7861  0.7592
  185SAPI   H4Y21244   6.213   5.228   9.849  0.2423  0.2763 -1.6157
  185SAPI   C3521245   6.298   5.410   9.774  0.0229 -1.0821  0.2932
  185SAPI   H5X21246   6.302   5.519   9.794  1.2981 -1.0830  0.0745
  185SAPI   H5Y21247   6.241   5.391   9.680  0.3303  0.8013 -0.3327
  185SAPI   C3621248   6.440   5.353   9.745 -0.3888 -0.1818 -0.4130
  185SAPI   H6X21249   6.440   5.243   9.759  0.2113 -0.3687 -1.7759
  185SAPI   H6Y21250   6.508   5.403   9.817 -0.5707 -0.5838  0.0445
  185SAPI   C3721251   6.489   5.388   9.597 -0.1833 -0.2462  0.2998
  185SAPI   H7X21252   6.599   5.377   9.595 -0.3011 -1.5221 -0.7249
  185SAPI   H7Y21253   6.465   5.493   9.572  0.6483 -0.0564  0.2762
  185SAPI   C3821254   6.428   5.296   9.485 -0.5142  0.5185 -0.0772
  185SAPI   H8X21255   6.441   5.361   9.396  0.7302  1.2892  0.6420
  185SAPI   H8Y21256   6.318   5.288   9.497 -0.3534  0.0048  1.3776
  185SAPI   C3921257   6.496   5.165   9.465  0.3634 -0.1293  0.1277
  185SAPI   H9X21258   6.476   5.107   9.557  0.9390  0.1869  0.4605
  185SAPI   H9Y21259   6.605   5.179   9.445  0.3605 -0.4830 -0.1535
  185SAPI  C31021260   6.442   5.087   9.346 -0.0809 -1.1533 -0.5733
  185SAPI  H10X21261   6.335   5.059   9.353 -0.3703 -0.3703 -1.6207
  185SAPI  H10Y21262   6.511   5.001   9.335  1.2071 -0.4920  1.6543
  185SAPI  C31121263   6.454   5.159   9.205  0.2043 -0.5972 -0.3729
  185SAPI  H11X21264   6.549   5.218   9.210  0.0905 -0.2760 -1.7879
  185SAPI  H11Y21265   6.374   5.235   9.194 -2.0782 -2.8265  0.1297
  185SAPI  C31221266   6.453   5.059   9.096 -0.6766  0.3587 -0.5244
  185SAPI  H12X21267   6.360   5.001   9.079  0.6605 -2.2639  0.6325
  185SAPI  H12Y21268   6.507   4.970   9.134  0.4488  1.0365 -0.4944
  185SAPI  C31321269   6.525   5.099   8.966 -0.2555 -0.2438  0.2852
  185SAPI  H13X21270   6.519   5.010   8.901  1.0867 -0.1088 -0.0524
  185SAPI  H13Y21271   6.635   5.109   8.983 -0.1683 -1.0783  0.2595
  185SAPI  C31421272   6.478   5.226   8.905 -0.6768 -0.4109 -0.0879
  185SAPI  H14X21273   6.486   5.304   8.984  0.4647  1.2008 -1.7420
  185SAPI  H14Y21274   6.377   5.205   8.863  0.0705 -1.4832 -1.4083
  185SAPI  C31521275   6.573   5.283   8.803  0.1402 -0.4479  0.3455
  185SAPI  H15X21276   6.526   5.359   8.738  1.9708 -1.3243 -2.1512
  185SAPI  H15Y21277   6.612   5.201   8.739 -1.1099 -1.5728  0.9695
  185SAPI  C31621278   6.697   5.365   8.855  0.4451  0.4335 -0.2237
  185SAPI  H16X21279   6.754   5.306   8.930  0.5048 -0.0583 -0.6583
  185SAPI  H16Y21280   6.658   5.449   8.917  0.5005 -0.3750  0.9440
  185SAPI  C31721281   6.792   5.410   8.751 -0.1443  0.3355  0.6933
  185SAPI  H17X21282   6.734   5.449   8.665  0.8098  3.3027  1.2656
  185SAPI  H17Y21283   6.864   5.329   8.726  1.5350  1.6360  1.1167
  185SAPI  C31821284   6.882   5.535   8.801 -0.4793 -0.4883  0.3046
  185SAPI  H18X21285   6.956   5.571   8.726 -1.2388 -0.9990 -0.7161
  185SAPI  H18Y21286   6.937   5.492   8.887 -1.3730 -2.7136 -0.1403
  185SAPI  H18Z21287   6.824   5.623   8.834 -0.2500  0.5233 -1.7990
  186SAPI   C1221288   1.555   4.300  11.079  1.0234  0.2516 -0.5327
  186SAPI    H221289   1.500   4.270  10.987 -0.0513  1.3276 -0.2593
  186SAPI    O221290   1.461   4.365  11.161  0.7174 -0.7336 -0.6620
  186SAPI   HO221291   1.389   4.404  11.112 -0.3546  0.1907  1.5164
  186SAPI   C1321292   1.603   4.168  11.138 -0.1249  0.4231 -0.8251
  186SAPI    H321293   1.677   4.130  11.064  0.8544 -0.0293  0.3385
  186SAPI    O321294   1.499   4.075  11.150 -0.2374  0.3532  0.3328
  186SAPI   HO321295   1.524   4.002  11.093  0.5755  1.7440 -1.2044
  186SAPI   C1421296   1.692   4.184  11.261  0.8759 -0.2293  0.3842
  186SAPI    H421297   1.632   4.223  11.346  2.1342 -0.3199  1.3371
  186SAPI    O421298   1.741   4.063  11.314  0.4862 -0.0659  0.5326
  186SAPI   HO421299   1.662   4.028  11.356  0.9588 -1.7320  0.1036
  186SAPI   C1521300   1.805   4.285  11.239  0.8327 -0.8004  0.4389
  186SAPI    H521301   1.869   4.252  11.155  1.4874  1.6612 -0.1269
  186SAPI    O521302   1.894   4.294  11.350  0.2016 -0.8162  0.3040
  186SAPI   HO521303   1.984   4.300  11.318  0.1092  0.5611  0.2581
  186SAPI   C1621304   1.749   4.421  11.186  0.1968  0.3382 -0.0671
  186SAPI    H621305   1.685   4.470  11.263  1.4228 -0.0231  1.2065
  186SAPI    O621306   1.854   4.517  11.160 -0.1008  0.1418  0.1625
  186SAPI   HO621307   1.824   4.598  11.119  0.2066 -0.5759 -1.5795
  186SAPI   C1121308   1.672   4.393  11.054 -0.3909 -0.8796 -0.3626
  186SAPI    H121309   1.747   4.345  10.989  1.6986 -0.6836  1.7768
  186SAPI     P21310   1.646   4.535  10.831 -0.4656 -0.4013 -0.1639
  186SAPI   O1321311   1.794   4.516  10.805 -0.0225  0.3875 -0.9348
  186SAPI   O1421312   1.593   4.668  10.791 -0.0976 -0.0268  0.0081
  186SAPI   O1221313   1.622   4.514  10.990 -0.2024 -0.8900 -0.2045
  186SAPI   O1121314   1.570   4.418  10.759 -0.3472  0.4543 -0.7533
  186SAPI    C121315   1.427   4.404  10.759 -0.6459  0.2509  0.4805
  186SAPI    HA21316   1.398   4.300  10.788 -1.1346  0.0576 -0.6705
  186SAPI    HB21317   1.370   4.472  10.825 -0.4014  0.6430  0.2895
  186SAPI    C221318   1.379   4.427  10.612  0.7289 -0.2832  0.8965
  186SAPI    HS21319   1.270   4.416  10.631  0.8363 -2.6438  0.4166
  186SAPI   O2121320   1.434   4.323  10.523  0.0492 -0.0481  0.2863
  186SAPI   C2121321   1.356   4.298  10.419  0.3189 -0.6206 -0.0619
  186SAPI   O2221322   1.246   4.344  10.398  0.5059  0.3555 -0.1322
  186SAPI   C2221323   1.432   4.203  10.323  0.1999 -0.4570  0.4431
  186SAPI   H2R21324   1.507   4.144  10.382  0.2258 -1.6646 -0.7614
  186SAPI   H2S21325   1.355   4.134  10.283  0.2411  0.2868 -0.9318
  186SAPI    C321326   1.418   4.567  10.562 -0.5483 -0.8783  0.9102
  186SAPI    HX21327   1.529   4.558  10.557 -0.4433  0.4816  0.2689
  186SAPI    HY21328   1.398   4.644  10.639  0.9391  1.5158 -0.9429
  186SAPI   O3121329   1.372   4.615  10.431 -0.1927  0.9078  0.6310
  186SAPI   C3121330   1.243   4.649  10.433  0.2497 -0.1967 -0.5092
  186SAPI   O3221331   1.172   4.664  10.538 -0.4224  0.4392 -0.5453
  186SAPI   C3221332   1.192   4.666  10.291 -0.0759  0.3837  0.2027
  186SAPI   H2X21333   1.114   4.590  10.267 -1.9433  2.3338 -0.2673
  186SAPI   H2Y21334   1.274   4.652  10.218 -1.1299  0.9253 -1.1406
  186SAPI   C2321335   1.487   4.296  10.209  0.2049 -0.3348 -0.1050
  186SAPI   H3R21336   1.537   4.377  10.266 -1.3802  1.4753 -1.1633
  186SAPI   H3S21337   1.413   4.355  10.151 -0.9786  1.2345  2.8087
  186SAPI   C2421338   1.579   4.230  10.101 -0.3791 -0.4067 -0.1638
  186SAPI   H4R21339   1.637   4.148  10.149 -0.2576  1.2812  2.8219
  186SAPI   H4S21340   1.641   4.318  10.074  0.2862 -1.2907 -1.6611
  186SAPI   C2521341   1.509   4.190   9.976 -0.7825 -0.1293 -0.3799
  186SAPI   H5R21342   1.412   4.142  10.000 -1.0224 -1.8530 -4.1418
  186SAPI   C2621343   1.555   4.185   9.851  0.2594 -0.1133  0.2795
  186SAPI   H6R21344   1.483   4.145   9.777  1.0389 -1.7573  0.3661
  186SAPI   C2721345   1.691   4.219   9.803 -0.2593  0.2710 -0.1568
  186SAPI   H7R21346   1.718   4.152   9.718  2.0660  0.1043  0.6315
  186SAPI   H7S21347   1.773   4.209   9.877 -1.0314  1.7118  0.9401
  186SAPI   C2821348   1.698   4.365   9.752  0.1451  0.3940 -0.6216
  186SAPI   H8R21349   1.686   4.439   9.833  0.7761  0.6684 -0.7698
  186SAPI   C2921350   1.697   4.394   9.623 -0.3745  0.0643  0.3534
  186SAPI   H9R21351   1.691   4.501   9.597  2.0118  0.6435  1.9419
  186SAPI  C21021352   1.687   4.300   9.503  0.4099 -0.4030  0.2378
  186SAPI  H10R21353   1.607   4.226   9.522 -0.6024  0.7209  0.5110
  186SAPI  H10S21354   1.787   4.256   9.481  0.7141 -0.5942  1.8709
  186SAPI  C21121355   1.653   4.374   9.377 -0.2052  0.1235  0.0214
  186SAPI  H11R21356   1.612   4.476   9.390  1.4602  0.9941 -1.1416
  186SAPI  C21221357   1.670   4.334   9.245  0.5030 -0.0551 -0.2607
  186SAPI  H12R21358   1.640   4.400   9.162 -2.3648 -2.0003 -0.9228
  186SAPI  C21321359   1.729   4.197   9.213 -0.4392 -0.3583 -0.6530
  186SAPI  H13R21360   1.694   4.151   9.118  3.1734 -2.5701 -1.1154
  186SAPI  H13S21361   1.696   4.127   9.293 -2.5401  0.7226 -0.5100
  186SAPI  C21421362   1.882   4.194   9.212 -0.4619 -0.8240 -0.7022
  186SAPI  H14R21363   1.932   4.202   9.310  0.2629  0.5987 -1.1711
  186SAPI  C21521364   1.963   4.199   9.098  0.0442 -0.2547  0.2262
  186SAPI  H15R21365   2.073   4.196   9.107 -0.1000 -0.7165  2.3716
  186SAPI  C21621366   1.917   4.218   8.954  0.7767  0.1459 -0.3199
  186SAPI  H16R21367   1.807   4.205   8.943  0.5481  0.8323  0.9621
  186SAPI  H16S21368   1.963   4.141   8.889 -0.3486 -1.4534  0.6892
  186SAPI  C21721369   1.948   4.356   8.888  0.6800  0.5804  0.4431
  186SAPI  H17R21370   1.895   4.426   8.957 -0.1270 -1.1497  1.6298
  186SAPI  H17S21371   1.890   4.359   8.794  1.6613  2.3418 -0.1657
  186SAPI  C21821372   2.097   4.388   8.865  0.0902 -0.6609 -0.0271
  186SAPI  H18R21373   2.127   4.330   8.775 -0.1527  0.0890 -0.6061
  186SAPI  H18S21374   2.161   4.360   8.951  1.6577 -1.4783 -1.4111
  186SAPI  C21921375   2.123   4.545   8.861 -0.6098 -0.0594  0.1293
  186SAPI  H19R21376   2.099   4.595   8.958  2.3643 -0.7865  1.3601
  186SAPI  H19S21377   2.063   4.577   8.774  2.0017  1.6577 -1.1946
  186SAPI  C22021378   2.273   4.571   8.845  0.2893  0.1093 -0.5443
  186SAPI  H20R21379   2.302   4.517   8.752 -2.5258 -0.2871 -1.2885
  186SAPI  H20S21380   2.322   4.516   8.928  3.4729  2.4702 -0.6680
  186SAPI  H20T21381   2.306   4.677   8.843  0.2677  0.1098 -0.9459
  186SAPI   C3321382   1.123   4.793  10.273 -0.2793  0.4434 -0.3591
  186SAPI   H3X21383   1.197   4.875  10.292  1.3536 -0.9055 -0.6179
  186SAPI   H3Y21384   1.061   4.806  10.364  3.3138  1.6336  2.1520
  186SAPI   C3421385   1.043   4.819  10.146 -0.1479 -0.0124  0.6761
  186SAPI   H4X21386   0.976   4.906  10.164  1.1804  1.0202  0.8049
  186SAPI   H4Y21387   0.970   4.737  10.130 -2.0119  2.0049 -2.2156
  186SAPI   C3521388   1.125   4.844  10.018  0.0981 -0.8123  0.5323
  186SAPI   H5X21389   1.186   4.753  10.005 -0.8633 -1.3744 -0.1690
  186SAPI   H5Y21390   1.196   4.929  10.032  0.1172 -1.1505  2.7457
  186SAPI   C3621391   1.025   4.854   9.896  0.2568  0.0029 -0.3704
  186SAPI   H6X21392   0.960   4.943   9.911 -0.6524 -0.7853  0.4807
  186SAPI   H6Y21393   0.960   4.764   9.893  0.3930 -0.0735 -1.5827
  186SAPI   C3721394   1.092   4.864   9.758  0.6104 -0.4479  0.2225
  186SAPI   H7X21395   1.187   4.808   9.764  0.6917 -0.4491 -0.7867
  186SAPI   H7Y21396   1.118   4.970   9.736 -1.0356  0.0770  0.6056
  186SAPI   C3821397   1.003   4.804   9.650 -1.2619  0.0088  0.2502
  186SAPI   H8X21398   0.901   4.846   9.662 -1.6027  0.1108 -2.3960
  186SAPI   H8Y21399   0.987   4.695   9.651 -1.1807  0.0002  1.1300
  186SAPI   C3921400   1.054   4.846   9.510  0.4854 -0.0732 -0.7816
  186SAPI   H9X21401   1.161   4.818   9.500  0.6470  0.0541  0.3730
  186SAPI   H9Y21402   1.048   4.956   9.497  1.0161 -0.0710 -1.0340
  186SAPI  C31021403   0.971   4.780   9.398  0.5947  0.3721  0.0033
  186SAPI  H10X21404   0.863   4.805   9.411  0.8283  0.1961  2.8341
  186SAPI  H10Y21405   0.984   4.670   9.388  0.9201  0.4169 -0.0658
  186SAPI  C31121406   1.016   4.827   9.257  0.0015  0.4463  1.3392
  186SAPI  H11X21407   1.127   4.831   9.257  0.1411 -1.5032 -0.4781
  186SAPI  H11Y21408   0.977   4.930   9.250 -0.5446  0.2264  1.0248
  186SAPI  C31221409   0.964   4.726   9.151 -0.3368 -0.5800  0.3268
  186SAPI  H12X21410   0.854   4.730   9.163 -0.3544  0.0021 -0.0005
  186SAPI  H12Y21411   1.009   4.626   9.167  1.9838  0.6347  2.1879
  186SAPI  C31321412   1.010   4.763   9.014 -0.0435 -0.6762 -0.3533
  186SAPI  H13X21413   1.120   4.761   9.023 -0.1500 -4.1173  2.0658
  186SAPI  H13Y21414   0.978   4.863   8.977  2.1118 -0.9375 -3.2724
  186SAPI  C31421415   0.963   4.673   8.907 -0.3870  0.1080  0.3208
  186SAPI  H14X21416   0.856   4.692   8.887 -0.6054 -1.3198 -0.0399
  186SAPI  H14Y21417   0.970   4.563   8.927 -1.6999 -0.0745 -0.1474
  186SAPI  C31521418   1.049   4.683   8.780 -0.5095 -0.0713  0.0218
  186SAPI  H15X21419   1.159   4.674   8.794 -0.5789 -1.3682 -0.1717
  186SAPI  H15Y21420   1.020   4.787   8.753  3.1994  0.8695 -0.8316
  186SAPI  C31621421   1.005   4.597   8.662  0.3346 -0.0840 -0.0883
  186SAPI  H16X21422   1.071   4.610   8.573 -0.0174  2.0630 -0.0886
  186SAPI  H16Y21423   0.898   4.618   8.640  0.0252  1.6987  2.7281
  186SAPI  C31721424   1.019   4.444   8.699  0.2435  0.0052  0.7209
  186SAPI  H17X21425   0.943   4.419   8.777  1.2516 -1.1829  1.3694
  186SAPI  H17Y21426   1.122   4.432   8.741 -0.2395 -0.7771  1.7318
  186SAPI  C31821427   0.999   4.340   8.583 -0.2001 -0.2394 -0.0354
  186SAPI  H18X21428   0.899   4.320   8.538 -0.6213 -0.4016  0.9551
  186SAPI  H18Y21429   1.048   4.241   8.600  1.6239  0.2829 -1.8401
  186SAPI  H18Z21430   1.043   4.389   8.493 -1.7451 -1.2404 -1.4132
  187SAPI   C1221431   6.671   2.035   6.110 -0.2765 -0.0750  0.3725
  187SAPI    H221432   6.692   1.950   6.042 -2.9519 -0.4546 -0.0609
  187SAPI    O221433   6.770   2.142   6.093  0.4704 -0.4494 -0.2124
  187SAPI   HO221434   6.852   2.111   6.132  1.4735 -0.2011 -1.9919
  187SAPI   C1321435   6.531   2.076   6.080 -0.0692  0.8170 -0.7908
  187SAPI    H321436   6.465   1.988   6.097  1.9915 -0.4872  0.9709
  187SAPI    O321437   6.514   2.097   5.940 -0.2364 -1.0029 -0.2662
  187SAPI   HO321438   6.419   2.096   5.927 -0.6260 -2.3530  2.1330
  187SAPI   C1421439   6.492   2.196   6.168  0.2287  0.1225  0.0077
  187SAPI    H421440   6.567   2.277   6.152  1.5821 -1.0472  0.2372
  187SAPI    O421441   6.363   2.241   6.137  0.2703 -0.1655 -0.2127
  187SAPI   HO421442   6.372   2.335   6.119  0.1181 -0.0160  0.4469
  187SAPI   C1521443   6.496   2.144   6.311 -0.4508  0.4912 -0.8096
  187SAPI    H521444   6.421   2.062   6.315 -0.6073  0.6890  0.9863
  187SAPI    O521445   6.451   2.242   6.410 -0.3780 -0.7218  0.4002
  187SAPI   HO521446   6.410   2.196   6.483 -3.2099 -0.1985 -0.7098
  187SAPI   C1621447   6.630   2.085   6.347 -0.1124 -0.7355 -0.3584
  187SAPI    H621448   6.706   2.167   6.340 -1.1780  0.3685  0.5518
  187SAPI    O621449   6.643   2.020   6.473  0.2308 -0.4008  0.1536
  187SAPI   HO621450   6.700   1.945   6.456  1.0419 -0.5874  3.1207
  187SAPI   C1121451   6.677   1.980   6.248  0.5519 -0.4747  0.0224
  187SAPI    H121452   6.602   1.899   6.262 -2.6590  2.5966  2.4905
  187SAPI     P21453   6.828   1.769   6.276 -0.1008  0.0899  0.1470
  187SAPI   O1321454   6.973   1.736   6.289 -0.1911 -0.2440 -0.3222
  187SAPI   O1421455   6.754   1.700   6.169  0.5355 -0.1952  0.4710
  187SAPI   O1221456   6.811   1.935   6.272 -0.0314  0.4635  0.7617
  187SAPI   O1121457   6.761   1.748   6.410  0.5277 -0.0839 -0.5136
  187SAPI    C121458   6.775   1.628   6.496  0.0087  0.3648 -0.2155
  187SAPI    HA21459   6.671   1.590   6.506 -0.1197 -0.1640 -2.8792
  187SAPI    HB21460   6.842   1.552   6.451 -0.6542 -0.2172 -0.2270
  187SAPI    C221461   6.836   1.668   6.634 -0.0776  0.6300  0.1938
  187SAPI    HS21462   6.946   1.656   6.647  0.2283  1.2266 -1.6064
  187SAPI   O2121463   6.765   1.588   6.737  0.3394 -0.0189 -0.3717
  187SAPI   C2121464   6.823   1.468   6.744 -0.1055  0.8187 -0.0286
  187SAPI   O2221465   6.915   1.421   6.679  0.5280  0.0097 -0.4744
  187SAPI   C2221466   6.748   1.388   6.855  0.4406  0.5717  0.6070
  187SAPI   H2R21467   6.709   1.459   6.931 -1.0916  0.2404  0.1755
  187SAPI   H2S21468   6.654   1.356   6.804  0.8551 -0.1431  0.2750
  187SAPI    C321469   6.801   1.809   6.681 -0.7753 -0.5008 -0.2072
  187SAPI    HX21470   6.696   1.835   6.657 -0.2155  0.3279 -1.8594
  187SAPI    HY21471   6.873   1.872   6.626  1.1144 -1.1379  1.4201
  187SAPI   O3121472   6.844   1.825   6.820  0.3351 -0.1998  0.0692
  187SAPI   C3121473   6.737   1.826   6.906 -0.4204  0.6577 -0.4800
  187SAPI   O3221474   6.622   1.815   6.873  0.0681 -0.0983  0.2967
  187SAPI   C3221475   6.797   1.814   7.047 -0.0084  0.5928  0.2792
  187SAPI   H2X21476   6.733   1.871   7.118 -1.2329 -1.1351  0.6116
  187SAPI   H2Y21477   6.902   1.847   7.041 -0.5338  2.0714 -2.8701
  187SAPI   C2321478   6.821   1.268   6.926  0.2872 -0.4690  0.7829
  187SAPI   H3R21479   6.865   1.204   6.847  0.4293  0.2332  0.2835
  187SAPI   H3S21480   6.734   1.215   6.971 -1.1079  0.5107 -0.6487
  187SAPI   C2421481   6.918   1.316   7.035 -0.4285 -0.7743 -0.2549
  187SAPI   H4R21482   6.859   1.374   7.109 -0.2327 -1.9358  0.8605
  187SAPI   H4S21483   6.992   1.380   6.983 -0.4415 -1.6346 -1.3556
  187SAPI   C2521484   6.989   1.193   7.101 -0.3968 -0.0774 -0.1562
  187SAPI   H5R21485   7.058   1.136   7.036  0.0597  0.9608 -0.6032
  187SAPI   C2621486   6.967   1.155   7.226  0.5378  0.1880  0.4537
  187SAPI   H6R21487   7.020   1.064   7.257 -0.7838 -1.4588 -1.8278
  187SAPI   C2721488   6.888   1.236   7.325 -0.1156  0.0533 -0.0468
  187SAPI   H7R21489   6.925   1.341   7.331 -2.5518  0.9872 -0.0242
  187SAPI   H7S21490   6.912   1.184   7.420  0.1188 -0.3108 -0.3043
  187SAPI   C2821491   6.742   1.243   7.307  0.1101 -0.1221  0.4022
  187SAPI   H8R21492   6.709   1.234   7.203  0.0135  0.5761  0.3646
  187SAPI   C2921493   6.656   1.269   7.411  0.2996  0.4111 -0.3100
  187SAPI   H9R21494   6.550   1.284   7.387  0.3016  1.2944  0.1823
  187SAPI  C21021495   6.702   1.295   7.554  0.4121  0.1198  0.1549
  187SAPI  H10R21496   6.813   1.296   7.556  0.4526  1.4563 -0.9606
  187SAPI  H10S21497   6.663   1.213   7.618  0.8089 -1.6938 -1.7916
  187SAPI  C21121498   6.653   1.428   7.609  0.0573 -0.6036  0.1434
  187SAPI  H11R21499   6.573   1.470   7.547  0.7357 -0.5228 -0.7006
  187SAPI  C21221500   6.691   1.496   7.724 -0.4653 -0.1230  0.5189
  187SAPI  H12R21501   6.626   1.582   7.744 -1.7383 -1.1226  0.8466
  187SAPI  C21321502   6.788   1.460   7.831  0.6737  0.2685 -0.0167
  187SAPI  H13R21503   6.770   1.353   7.855  0.7295 -0.3073 -2.2674
  187SAPI  H13S21504   6.760   1.506   7.928 -3.9530 -0.8973 -0.5193
  187SAPI  C21421505   6.931   1.473   7.789 -0.2684 -0.0958  0.3162
  187SAPI  H14R21506   6.944   1.458   7.681 -2.6104 -0.7607  0.0752
  187SAPI  C21521507   7.039   1.493   7.863 -0.7245 -0.2924  0.4619
  187SAPI  H15R21508   7.135   1.493   7.809 -2.1548 -0.8763 -2.2676
  187SAPI  C21621509   7.041   1.528   8.008  0.1596 -0.9154 -0.2717
  187SAPI  H16R21510   6.936   1.540   8.040  0.6026  0.2545  0.8353
  187SAPI  H16S21511   7.085   1.630   8.015 -0.3918 -0.7481  0.9542
  187SAPI  C21721512   7.101   1.423   8.105  0.4191 -0.5104 -0.5405
  187SAPI  H17R21513   7.088   1.473   8.203 -2.1141  0.7130 -1.4153
  187SAPI  H17S21514   7.211   1.407   8.103  0.4858 -0.5683  1.6824
  187SAPI  C21821515   7.018   1.290   8.109  0.4621 -0.1686  0.6444
  187SAPI  H18R21516   7.006   1.252   8.005  0.2238 -1.4732  1.1212
  187SAPI  H18S21517   6.916   1.298   8.153  0.3840 -2.1421  0.9284
  187SAPI  C21921518   7.079   1.174   8.175  0.1929  0.0606 -0.2269
  187SAPI  H19R21519   7.177   1.147   8.131  1.0644  0.1801  1.5562
  187SAPI  H19S21520   7.013   1.086   8.157 -1.2132  1.2414 -1.0652
  187SAPI  C22021521   7.104   1.178   8.324 -0.1647  0.2016  0.8487
  187SAPI  H20R21522   7.125   1.285   8.345  1.2946  0.1122 -0.0530
  187SAPI  H20S21523   7.191   1.116   8.354 -0.5816 -0.7287  0.1776
  187SAPI  H20T21524   7.008   1.159   8.378 -0.8659  0.7305 -0.1770
  187SAPI   C3321525   6.792   1.669   7.096 -0.1729  0.5353  0.4099
  187SAPI   H3X21526   6.861   1.607   7.035  1.0535  2.0189  0.2240
  187SAPI   H3Y21527   6.692   1.625   7.079  0.5474 -0.7635 -0.7864
  187SAPI   C3421528   6.813   1.667   7.249 -0.0705  0.9782 -0.4017
  187SAPI   H4X21529   6.764   1.580   7.298  0.5157  1.5733  1.3195
  187SAPI   H4Y21530   6.762   1.749   7.305 -1.8304 -1.3525  1.6366
  187SAPI   C3521531   6.963   1.651   7.286  0.4215 -0.5957  0.1043
  187SAPI   H5X21532   7.031   1.721   7.234  1.1988  0.5779  2.5255
  187SAPI   H5Y21533   6.999   1.548   7.265  0.4767 -0.3157 -1.2558
  187SAPI   C3621534   6.998   1.674   7.434 -0.1993  0.0433  0.5869
  187SAPI   H6X21535   7.083   1.619   7.479  1.0084  1.0208 -0.4349
  187SAPI   H6Y21536   6.907   1.634   7.484 -1.4902 -0.8892 -2.3124
  187SAPI   C3721537   7.017   1.828   7.469 -0.0753 -0.5103 -0.1223
  187SAPI   H7X21538   6.929   1.882   7.428 -1.2657 -0.2386  2.5452
  187SAPI   H7Y21539   7.110   1.876   7.430 -1.0407  0.2505 -1.6080
  187SAPI   C3821540   7.006   1.850   7.623  0.3262 -0.2755 -0.2719
  187SAPI   H8X21541   7.042   1.954   7.641  1.3422 -0.5664 -0.5312
  187SAPI   H8Y21542   7.065   1.775   7.681 -1.4647 -0.9166  0.8013
  187SAPI   C3921543   6.862   1.843   7.687 -0.2746 -0.3022  0.6088
  187SAPI   H9X21544   6.817   1.742   7.680  1.3324 -0.9492 -1.7214
  187SAPI   H9Y21545   6.805   1.915   7.625  0.1204 -1.6935 -1.4820
  187SAPI  C31021546   6.858   1.884   7.835 -0.6618 -0.6102  0.0192
  187SAPI  H10X21547   6.896   1.988   7.833 -0.2533 -0.7597 -0.7952
  187SAPI  H10Y21548   6.925   1.815   7.890  0.3250 -1.5386 -2.2208
  187SAPI  C31121549   6.713   1.869   7.891  0.2585 -0.8570  0.0297
  187SAPI  H11X21550   6.686   1.763   7.876 -2.7839 -0.3550  1.2345
  187SAPI  H11Y21551   6.657   1.927   7.815  0.5234 -0.4821  0.1121
  187SAPI  C31221552   6.684   1.918   8.035  0.3473  0.0574  0.3154
  187SAPI  H12X21553   6.579   1.893   8.063 -0.4434  0.5736 -1.9337
  187SAPI  H12Y21554   6.681   2.029   8.032  1.4028  0.0967 -2.7922
  187SAPI  C31321555   6.782   1.855   8.136 -0.2977 -0.0846  0.7296
  187SAPI  H13X21556   6.884   1.894   8.120 -0.9944  1.6664  0.3611
  187SAPI  H13Y21557   6.777   1.745   8.119 -0.6074  0.2038 -1.2349
  187SAPI  C31421558   6.752   1.887   8.286  0.4385 -0.3601 -0.2623
  187SAPI  H14X21559   6.823   1.836   8.355 -0.1155  2.2348  2.4331
  187SAPI  H14Y21560   6.659   1.834   8.316 -0.3884  1.1199 -0.1155
  187SAPI  C31521561   6.753   2.040   8.326  0.1762 -0.2493  0.7353
  187SAPI  H15X21562   6.691   2.094   8.252 -1.5460 -2.8504  0.1138
  187SAPI  H15Y21563   6.857   2.077   8.318 -0.2450  0.5620 -1.7080
  187SAPI  C31621564   6.677   2.048   8.454 -0.6760 -0.6050 -0.3939
  187SAPI  H16X21565   6.721   1.965   8.513  0.8883  0.3341 -0.1642
  187SAPI  H16Y21566   6.568   2.032   8.447 -0.5749 -1.0453 -1.1085
  187SAPI  C31721567   6.698   2.179   8.541 -0.2352  0.6534  0.1372
  187SAPI  H17X21568   6.644   2.257   8.482 -0.6820  0.4522  0.2749
  187SAPI  H17Y21569   6.803   2.215   8.536  0.3456 -0.9165  0.5121
  187SAPI  C31821570   6.642   2.175   8.679 -0.1814 -0.0890 -0.3674
  187SAPI  H18X21571   6.636   2.070   8.715 -2.0559 -0.3748 -1.4223
  187SAPI  H18Y21572   6.542   2.223   8.686 -1.0132 -1.6525 -1.0759
  187SAPI  H18Z21573   6.709   2.229   8.750 -0.5762  0.8384 -0.6764
  188SAPI   C1221574   6.752   4.972   5.946 -0.2822  0.9681 -1.1477
  188SAPI    H221575   6.844   5.029   5.970  1.2972 -1.2712 -1.6198
  188SAPI    O221576   6.653   5.050   5.882  0.5271 -0.1744 -0.2839
  188SAPI   HO221577   6.658   5.137   5.921 -1.3768 -0.2777  0.2567
  188SAPI   C1321578   6.807   4.867   5.853 -0.5829 -0.1822  0.1465
  188SAPI    H321579   6.881   4.807   5.910  1.1302  0.8295 -0.9207
  188SAPI    O321580   6.868   4.918   5.730 -0.3839  0.1387  0.2944
  188SAPI   HO321581   6.886   4.848   5.667  1.2594  0.6129  0.1939
  188SAPI   C1421582   6.691   4.779   5.826  0.1937  0.3496  0.6906
  188SAPI    H421583   6.612   4.838   5.774  0.0946 -0.8390 -0.5539
  188SAPI    O421584   6.730   4.673   5.739 -0.0586  0.1503 -0.4334
  188SAPI   HO421585   6.672   4.597   5.737  0.3705 -0.3198  2.1449
  188SAPI   C1521586   6.624   4.722   5.955 -0.6945  0.5001  1.3633
  188SAPI    H521587   6.688   4.639   5.990  1.1502  0.9653 -0.7058
  188SAPI    O521588   6.508   4.646   5.918 -0.1009  0.0019 -0.1516
  188SAPI   HO521589   6.497   4.583   5.989 -1.2606  0.0956 -0.2295
  188SAPI   C1621590   6.586   4.828   6.059 -1.0837 -0.1094  0.4052
  188SAPI    H621591   6.504   4.898   6.031  0.3126  0.8688 -1.4130
  188SAPI    O621592   6.550   4.772   6.179  0.3643 -0.0666  0.0073
  188SAPI   HO621593   6.486   4.832   6.219 -0.3801 -0.8392  0.0214
  188SAPI   C1121594   6.699   4.920   6.082  0.3580  0.3787  0.7436
  188SAPI    H121595   6.781   4.879   6.146 -0.6680  1.0250  2.5344
  188SAPI     P21596   6.729   5.101   6.289  0.8030 -0.8382 -0.3604
  188SAPI   O1321597   6.644   5.223   6.320 -0.2494  0.3242 -0.4000
  188SAPI   O1421598   6.873   5.114   6.266  0.3109  0.5868  0.2320
  188SAPI   O1221599   6.657   5.033   6.160  0.1614 -0.0164  0.5099
  188SAPI   O1121600   6.696   4.997   6.395 -0.4205  0.0511 -0.6276
  188SAPI    C121601   6.784   4.901   6.450 -0.6378  0.0934  0.7020
  188SAPI    HA21602   6.735   4.801   6.447 -0.5846  0.0850 -0.4719
  188SAPI    HB21603   6.878   4.902   6.391 -1.4423  2.0289 -0.6322
  188SAPI    C221604   6.809   4.924   6.598  0.0416 -0.1426  0.1067
  188SAPI    HS21605   6.737   4.865   6.659  0.4786  0.4622  1.2474
  188SAPI   O2121606   6.807   5.064   6.628  0.0622  0.2819 -0.2321
  188SAPI   C2121607   6.691   5.110   6.662  0.4624 -0.0421 -0.9213
  188SAPI   O2221608   6.590   5.045   6.691 -0.2058  0.1698  0.2168
  188SAPI   C2221609   6.701   5.264   6.681  0.1306  0.3331 -0.4942
  188SAPI   H2R21610   6.705   5.301   6.576 -1.6065 -1.6655 -1.3389
  188SAPI   H2S21611   6.619   5.305   6.744  1.3203 -1.0830  2.1501
  188SAPI    C321612   6.954   4.883   6.639  0.4788 -0.0430 -0.3587
  188SAPI    HX21613   7.024   4.949   6.584 -1.8349  2.3553 -0.6142
  188SAPI    HY21614   6.976   4.777   6.616  1.2623  0.5167 -2.3099
  188SAPI   O3121615   6.961   4.906   6.781  0.1514  0.2734 -0.5385
  188SAPI   C3121616   7.079   4.887   6.830 -0.5213  0.5255  0.0615
  188SAPI   O3221617   7.170   4.825   6.777  0.1056 -0.5197  0.2388
  188SAPI   C3221618   7.078   4.939   6.984  0.7547  0.1726  0.2637
  188SAPI   H2X21619   6.973   4.918   7.012  0.5889 -1.3411 -1.3077
  188SAPI   H2Y21620   7.110   5.046   6.990  1.2944 -0.0653  2.3518
  188SAPI   C2321621   6.829   5.301   6.758  1.1160 -0.2800  0.1103
  188SAPI   H3R21622   6.864   5.404   6.737 -0.0250  0.0045 -0.4667
  188SAPI   H3S21623   6.904   5.226   6.727 -0.0498 -0.8873 -1.3739
  188SAPI   C2421624   6.810   5.296   6.912 -0.0271  0.4424  0.2458
  188SAPI   H4R21625   6.767   5.196   6.934  1.9109 -0.3440  0.6215
  188SAPI   H4S21626   6.739   5.371   6.953 -2.2502 -0.4409 -1.7410
  188SAPI   C2521627   6.944   5.307   6.984  0.2186 -0.1737 -0.0083
  188SAPI   H5R21628   7.025   5.335   6.916  0.2416 -0.9093 -0.2829
  188SAPI   C2621629   6.959   5.296   7.121  0.3595  0.5945 -0.1615
  188SAPI   H6R21630   7.055   5.310   7.175 -0.8542 -1.6973  2.9204
  188SAPI   C2721631   6.852   5.262   7.216  1.1594 -0.5206 -0.0433
  188SAPI   H7R21632   6.747   5.273   7.178  0.6600  0.1185  1.4696
  188SAPI   H7S21633   6.856   5.335   7.300  0.6127  0.5626 -0.9265
  188SAPI   C2821634   6.871   5.125   7.257 -0.1144  0.6363  0.2531
  188SAPI   H8R21635   6.878   5.060   7.169 -0.7479  1.3938 -0.3775
  188SAPI   C2921636   6.871   5.071   7.382 -0.2834  0.2278 -0.7089
  188SAPI   H9R21637   6.881   4.962   7.392 -1.8313  0.1655  0.4950
  188SAPI  C21021638   6.853   5.142   7.516 -0.7674  0.6942 -0.5004
  188SAPI  H10R21639   6.764   5.089   7.555  0.2976 -2.2713 -1.7412
  188SAPI  H10S21640   6.833   5.249   7.495 -0.9423  0.2932 -2.7130
  188SAPI  C21121641   6.975   5.138   7.606 -0.3554 -0.4251  0.0307
  188SAPI  H11R21642   7.070   5.173   7.561 -1.1646  0.7930 -0.7922
  188SAPI  C21221643   6.978   5.105   7.737 -1.2493 -0.5228  0.6188
  188SAPI  H12R21644   7.081   5.103   7.775 -1.5424  0.5139  1.5077
  188SAPI  C21321645   6.870   5.063   7.834 -0.7480 -0.1265  0.7428
  188SAPI  H13R21646   6.918   5.010   7.919  0.2502  0.2707  0.4359
  188SAPI  H13S21647   6.793   4.996   7.789  1.0257 -2.5202  1.0484
  188SAPI  C21421648   6.803   5.194   7.871 -0.6034  0.0400  0.2067
  188SAPI  H14R21649   6.734   5.232   7.795 -0.1849 -0.9918 -0.7179
  188SAPI  C21521650   6.811   5.267   7.981  0.0732  0.2466 -0.4226
  188SAPI  H15R21651   6.747   5.355   7.993  1.1447  0.9204  0.6463
  188SAPI  C21621652   6.890   5.245   8.110 -0.2982 -0.1954 -0.0717
  188SAPI  H16R21653   6.958   5.332   8.124 -1.1179  0.6640 -1.2358
  188SAPI  H16S21654   6.960   5.160   8.095  2.1429  1.9531 -1.8522
  188SAPI  C21721655   6.816   5.207   8.230 -0.0350  0.6730 -0.5721
  188SAPI  H17R21656   6.765   5.110   8.212  1.4535 -0.3178  0.3334
  188SAPI  H17S21657   6.746   5.290   8.252  0.5331  1.5881 -2.0609
  188SAPI  C21821658   6.909   5.175   8.352  0.4649  0.2423  0.0602
  188SAPI  H18R21659   6.959   5.268   8.386  3.1333 -0.9404 -0.3336
  188SAPI  H18S21660   6.986   5.105   8.313 -1.4875 -2.7160  1.1524
  188SAPI  C21921661   6.837   5.113   8.467  0.0417 -0.4683 -0.0711
  188SAPI  H19R21662   6.797   5.012   8.442  0.0515 -0.6438  0.5830
  188SAPI  H19S21663   6.762   5.187   8.503  0.7479  0.0604  0.3437
  188SAPI  C22021664   6.941   5.090   8.578  0.3283  0.1730  0.0038
  188SAPI  H20R21665   7.015   5.011   8.552 -0.0294 -0.7156  1.5404
  188SAPI  H20S21666   6.885   5.047   8.664 -0.5707 -1.4354 -1.3337
  188SAPI  H20T21667   6.990   5.186   8.602 -0.2782  0.4181  0.2938
  188SAPI   C3321668   7.158   4.845   7.075 -0.4910  0.0216 -0.4873
  188SAPI   H3X21669   7.265   4.839   7.045 -0.5511 -1.4277 -0.5067
  188SAPI   H3Y21670   7.131   4.738   7.060 -0.1814  0.0093 -1.0092
  188SAPI   C3421671   7.153   4.873   7.230 -0.2483  0.0896  0.2994
  188SAPI   H4X21672   7.045   4.882   7.254 -0.1678  1.9587  0.0909
  188SAPI   H4Y21673   7.199   4.972   7.250  1.3723 -0.3931 -0.8154
  188SAPI   C3521674   7.219   4.768   7.309  0.0931  1.1451  0.0387
  188SAPI   H5X21675   7.324   4.752   7.278  0.0025  0.1840  0.2033
  188SAPI   H5Y21676   7.172   4.670   7.285 -2.2842  1.6751  2.0654
  188SAPI   C3621677   7.211   4.789   7.465  0.2788 -0.6140 -0.4340
  188SAPI   H6X21678   7.107   4.815   7.496  1.1734  0.8096  1.6268
  188SAPI   H6Y21679   7.263   4.887   7.475 -1.0630  0.4596 -3.0154
  188SAPI   C3721680   7.269   4.673   7.549  1.3819  0.1937  0.6173
  188SAPI   H7X21681   7.368   4.647   7.505  0.8538  0.6609 -0.9216
  188SAPI   H7Y21682   7.198   4.590   7.532  1.2484  0.4884 -0.3391
  188SAPI   C3821683   7.276   4.704   7.700  0.3189 -0.1321  0.2205
  188SAPI   H8X21684   7.171   4.705   7.734  0.2904  0.8610  0.1318
  188SAPI   H8Y21685   7.314   4.807   7.715 -1.8780  0.7744 -0.0564
  188SAPI   C3921686   7.344   4.587   7.780  0.2338  0.8542  0.3426
  188SAPI   H9X21687   7.324   4.608   7.887 -0.1705 -2.9673  1.1531
  188SAPI   H9Y21688   7.454   4.581   7.763  0.2556 -0.9253  0.8728
  188SAPI  C31021689   7.269   4.449   7.776  0.1489 -0.8888 -0.0222
  188SAPI  H10X21690   7.295   4.397   7.682  1.3689 -0.2252 -0.0695
  188SAPI  H10Y21691   7.161   4.473   7.774 -0.3230 -1.3874  5.0658
  188SAPI  C31121692   7.299   4.358   7.902 -0.1704 -0.2571  0.2568
  188SAPI  H11X21693   7.410   4.344   7.903 -0.2942 -1.3690  0.3677
  188SAPI  H11Y21694   7.247   4.264   7.874 -0.0908 -0.3279  0.3428
  188SAPI  C31221695   7.236   4.384   8.034  0.3991 -0.6152 -0.6684
  188SAPI  H12X21696   7.126   4.372   8.033  0.1655  1.2617 -1.5562
  188SAPI  H12Y21697   7.247   4.493   8.053 -0.1070 -0.8575  1.3052
  188SAPI  C31321698   7.304   4.296   8.141 -0.2900 -0.7559  0.1076
  188SAPI  H13X21699   7.298   4.333   8.246 -1.8116 -0.2774 -0.1329
  188SAPI  H13Y21700   7.414   4.299   8.124  0.3687  1.5382  3.6463
  188SAPI  C31421701   7.248   4.146   8.158  0.0681  0.3089 -0.4555
  188SAPI  H14X21702   7.285   4.082   8.075 -1.6208 -0.6102 -0.5531
  188SAPI  H14Y21703   7.137   4.142   8.151  0.0514 -0.2112  0.0750
  188SAPI  C31521704   7.300   4.084   8.295 -0.3276 -0.1624 -0.3878
  188SAPI  H15X21705   7.233   3.997   8.311 -0.7535  0.0906 -0.7630
  188SAPI  H15Y21706   7.264   4.148   8.378 -1.0315 -1.4298  0.3085
  188SAPI  C31621707   7.441   4.051   8.302  0.6847  0.1033 -0.4049
  188SAPI  H16X21708   7.490   4.149   8.285 -1.4586  1.4006  0.5683
  188SAPI  H16Y21709   7.466   3.967   8.234  2.3987 -0.2907  0.6372
  188SAPI  C31721710   7.483   4.023   8.450 -0.9329  0.2667  0.2073
  188SAPI  H17X21711   7.482   4.117   8.508  2.0331  0.2604  0.4516
  188SAPI  H17Y21712   7.591   3.999   8.466 -0.9669  0.0240  0.0719
  188SAPI  C31821713   7.420   3.897   8.516 -0.1790 -0.5438 -0.2268
  188SAPI  H18X21714   7.432   3.805   8.456  2.6593 -0.7307  0.4678
  188SAPI  H18Y21715   7.312   3.917   8.534  0.4143  2.2705  0.8293
  188SAPI  H18Z21716   7.462   3.879   8.618 -2.1590  2.0610  1.1884
  189POPC     N21717   0.930   0.938  11.039  0.0816 -0.7726  0.1884
  189POPC   C1221718   0.808   1.023  11.055  0.2386 -0.5381  0.7442
  189POPC  H12A21719   0.842   1.121  11.086 -0.8425 -0.2720  1.1134
  189POPC  H12B21720   0.742   0.988  11.133 -0.8379  0.6367  0.3855
  189POPC   C1321721   0.899   0.793  11.020 -0.2008 -0.1245  0.5115
  189POPC  H13A21722   0.989   0.734  11.006 -0.4838 -0.5495  0.4595
  189POPC  H13B21723   0.841   0.750  11.101 -2.1292  0.3723 -0.5489
  189POPC  H13C21724   0.830   0.784  10.938 -1.9332 -1.0604  1.9963
  189POPC   C1421725   1.013   0.984  10.923 -0.8333 -0.6134 -0.3092
  189POPC  H14A21726   0.954   0.982  10.833  0.3525 -1.2285 -1.0968
  189POPC  H14B21727   1.051   1.084  10.940  3.1683 -2.1920  1.2249
  189POPC  H14C21728   1.097   0.916  10.913  0.7924  1.1383  0.8001
  189POPC   C1521729   1.020   0.954  11.160  0.2295 -0.2655  0.5029
  189POPC  H15A21730   0.968   0.986  11.248 -0.8674  0.0077 -0.2202
  189POPC  H15B21731   1.103   1.019  11.135 -0.1454  0.4650  1.1203
  189POPC  H15C21732   1.065   0.856  11.169 -2.0131 -1.3494  0.5720
  189POPC   C1121733   0.716   1.036  10.928  0.1938  0.1313 -0.0467
  189POPC  H11A21734   0.780   1.078  10.847 -1.1705 -0.7084 -1.6436
  189POPC  H11B21735   0.633   1.102  10.960 -0.2160 -0.9136  1.1212
  189POPC     P21736   0.519   0.881  10.896 -0.0018 -0.1282  0.1635
  189POPC   O1321737   0.476   0.909  11.037 -0.1523  0.3331  0.0834
  189POPC   O1421738   0.495   0.740  10.852  0.0245 -0.2767  0.5507
  189POPC   O1221739   0.668   0.912  10.874 -0.0344  0.0721  0.5886
  189POPC   O1121740   0.450   0.981  10.803  0.3563  0.6466 -0.2453
  189POPC    C121741   0.496   1.055  10.690  0.9031 -0.2448 -0.3217
  189POPC    HA21742   0.604   1.037  10.673  1.8373  2.6805  1.6572
  189POPC    HB21743   0.481   1.161  10.719 -2.1269 -0.9514  1.1206
  189POPC    C221744   0.408   1.034  10.564 -0.6271 -0.3625 -0.1516
  189POPC    HS21745   0.305   1.042  10.604 -0.6490 -3.6224  0.7086
  189POPC   O2121746   0.431   0.889  10.524 -0.0225  0.3147 -0.5524
  189POPC   C2121747   0.327   0.843  10.455 -0.1050  1.0682 -0.7543
  189POPC   O2221748   0.221   0.897  10.447  0.2440  0.3587 -0.2663
  189POPC   C2221749   0.364   0.707  10.401  0.3538  0.1350  0.3174
  189POPC   H2R21750   0.343   0.635  10.483 -0.5497 -1.1181 -0.9706
  189POPC   H2S21751   0.469   0.712  10.366  0.2067  1.5500  0.0048
  189POPC    C321752   0.433   1.144  10.456  0.3048 -0.0649 -0.2925
  189POPC    HX21753   0.538   1.173  10.477  0.0310  0.0751  0.9722
  189POPC    HY21754   0.382   1.238  10.484 -2.5909 -1.5147 -0.2142
  189POPC   O3121755   0.398   1.096  10.328 -0.1083 -0.0055 -0.6220
  189POPC   C3121756   0.296   1.146  10.260 -0.2606 -0.8762  0.5797
  189POPC   O3221757   0.216   1.230  10.306  0.4001 -0.1206  1.1352
  189POPC   C3221758   0.282   1.091  10.121  0.0979  0.2821  0.0980
  189POPC   H2X21759   0.206   1.011  10.132 -0.7992  0.5240 -3.2793
  189POPC   H2Y21760   0.384   1.052  10.099  0.5892  0.8969  1.1689
  189POPC   C2321761   0.283   0.657  10.280 -0.3127  0.3423 -0.3340
  189POPC   H3R21762   0.174   0.659  10.300 -0.8821  0.1639 -3.0625
  189POPC   H3S21763   0.308   0.549  10.274 -1.1463  0.0981  0.3734
  189POPC   C2421764   0.322   0.710  10.143  0.2366 -0.0824  0.2460
  189POPC   H4R21765   0.433   0.708  10.146  0.2001 -0.5265  1.5503
  189POPC   H4S21766   0.287   0.812  10.116  0.6856 -0.5963 -2.6606
  189POPC   C2521767   0.274   0.632  10.018  0.0466 -0.0973 -0.4568
  189POPC   H5R21768   0.171   0.603  10.045 -0.7053 -0.1440 -3.0928
  189POPC   H5S21769   0.323   0.533  10.011  0.8324  0.1992  0.6306
  189POPC   C2621770   0.285   0.707   9.890  0.1757  0.2930  0.5212
  189POPC   H6R21771   0.393   0.726   9.871  0.4479  2.2663  3.4647
  189POPC   H6S21772   0.224   0.799   9.900  0.9227  0.5840  3.2423
  189POPC   C2721773   0.222   0.631   9.773  0.2366  0.3278  0.6482
  189POPC   H7R21774   0.121   0.594   9.803 -0.5843  2.0289  0.1187
  189POPC   H7S21775   0.272   0.533   9.755 -1.9564 -1.1855  2.2341
  189POPC   C2821776   0.212   0.717   9.644 -0.1318 -0.2873 -0.8040
  189POPC   H8R21777   0.317   0.747   9.623  0.0161 -0.7324 -0.7010
  189POPC   H8S21778   0.163   0.814   9.669  3.0754  0.6200  3.2790
  189POPC   C2921779   0.143   0.647   9.530 -0.6138 -0.4782  0.1380
  189POPC   H9121780   0.168   0.541   9.521 -0.7490 -0.5842  0.9408
  189POPC  C21021781   0.069   0.709   9.436  0.3359  0.4538  0.5212
  189POPC  H10121782   0.025   0.654   9.352 -0.5266 -1.6075  2.2236
  189POPC  C21121783   0.047   0.858   9.434  0.0714  0.1095  0.3558
  189POPC  H11R21784   0.142   0.915   9.424 -0.0076  0.3018  0.6909
  189POPC  H11S21785  -0.014   0.886   9.523 -0.9567  1.4445 -0.7241
  189POPC  C21221786  -0.013   0.897   9.293  0.2304  0.2909 -0.3283
  189POPC  H12R21787  -0.040   1.004   9.308 -0.6921 -0.1216  1.2776
  189POPC  H12S21788  -0.099   0.832   9.267 -0.8504  1.9742 -1.1479
  189POPC  C21321789   0.090   0.887   9.178  0.8836 -0.1910 -0.6709
  189POPC  H13R21790   0.128   0.783   9.179  1.3848 -0.0058 -0.3880
  189POPC  H13S21791   0.174   0.960   9.181 -0.4803  1.4406  0.1185
  189POPC  C21421792   0.015   0.897   9.048  0.3882  0.7690  0.3607
  189POPC  H14R21793  -0.061   0.978   9.053  0.2107  0.5633  1.1416
  189POPC  H14S21794  -0.048   0.807   9.030 -0.5807  1.4758  0.1555
  189POPC  C21521795   0.110   0.916   8.931  0.4542 -0.3999 -0.5683
  189POPC  H15R21796   0.187   0.837   8.942 -0.2040 -0.7759  1.7733
  189POPC  H15S21797   0.156   1.017   8.930 -0.2814 -0.0553 -0.3611
  189POPC  C21621798   0.039   0.897   8.792  0.1012 -0.8426  0.1856
  189POPC  H16R21799  -0.042   0.973   8.796  2.5148  1.9680 -1.1748
  189POPC  H16S21800  -0.010   0.797   8.782 -2.5840  0.3896  0.1113
  189POPC  C21721801   0.125   0.941   8.672  0.4464  0.3333 -0.7844
  189POPC  H17R21802   0.136   1.052   8.669  0.8348  0.2942 -0.9970
  189POPC  H17S21803   0.064   0.918   8.582 -1.6532 -1.3379  0.9581
  189POPC  C21821804   0.259   0.873   8.662 -0.4997  0.7172 -0.8202
  189POPC  H18R21805   0.314   0.892   8.567  1.2822  1.6128  0.3350
  189POPC  H18S21806   0.247   0.764   8.680  2.4598  0.5340  0.6388
  189POPC  H18T21807   0.331   0.911   8.738 -2.1962 -0.3230  1.4423
  189POPC   C3321808   0.240   1.196  10.018  0.1183 -0.8305  0.1764
  189POPC   H3X21809   0.300   1.290  10.021 -2.3173  0.7852  1.5197
  189POPC   H3Y21810   0.134   1.216  10.042  0.4393  0.8546  0.3417
  189POPC   C3421811   0.229   1.143   9.875  0.2698  0.5332  0.3116
  189POPC   H4X21812   0.165   1.198   9.802 -0.6077 -2.3750 -1.3168
  189POPC   H4Y21813   0.178   1.044   9.879 -0.4844  0.7922 -1.6582
  189POPC   C3521814   0.365   1.134   9.794  0.4586 -0.4928  0.3097
  189POPC   H5X21815   0.413   1.040   9.831 -0.9187 -1.5757 -0.5718
  189POPC   H5Y21816   0.426   1.224   9.812  1.0714 -1.2816  2.5433
  189POPC   C3621817   0.329   1.119   9.650 -0.5285  0.3084  0.5882
  189POPC   H6X21818   0.257   1.035   9.644  1.1583 -1.3652  2.4081
  189POPC   H6Y21819   0.422   1.084   9.601 -1.1091  0.0122 -0.3129
  189POPC   C3721820   0.294   1.245   9.560 -0.4260  0.2504  0.2213
  189POPC   H7X21821   0.386   1.307   9.559 -0.2516 -0.0116 -0.4045
  189POPC   H7Y21822   0.209   1.300   9.606  0.7440  2.5379 -0.1859
  189POPC   C3821823   0.265   1.212   9.415 -0.7159  0.6372  0.1202
  189POPC   H8X21824   0.181   1.140   9.403  0.8680 -1.8825  2.9134
  189POPC   H8Y21825   0.358   1.172   9.370 -0.3660 -1.7446  2.7302
  189POPC   C3921826   0.223   1.328   9.331 -0.0969  0.4672  0.4142
  189POPC   H9X21827   0.304   1.404   9.336 -0.8906  1.3554  0.0008
  189POPC   H9Y21828   0.125   1.371   9.361 -0.0246  2.5442 -1.9927
  189POPC  C31021829   0.224   1.283   9.178  0.2645  0.0011 -0.3593
  189POPC  H10X21830   0.158   1.196   9.158  0.7282 -0.3449 -0.3815
  189POPC  H10Y21831   0.330   1.268   9.147  0.8068  1.8036  0.4748
  189POPC  C31121832   0.163   1.388   9.082 -0.4405 -0.2889  0.2871
  189POPC  H11X21833   0.212   1.483   9.111  2.2314 -1.0970 -1.2699
  189POPC  H11Y21834   0.057   1.386   9.115  0.0571  0.1058  1.9574
  189POPC  C31221835   0.159   1.355   8.932  0.6145 -0.0981  0.4283
  189POPC  H12X21836   0.114   1.257   8.907 -0.6140  0.2260  1.2706
  189POPC  H12Y21837   0.264   1.332   8.905 -0.0009  0.1104 -2.5339
  189POPC  C31321838   0.116   1.467   8.838  0.2495 -0.8080 -0.0843
  189POPC  H13X21839   0.175   1.557   8.865  1.4767 -1.3932 -0.7331
  189POPC  H13Y21840   0.013   1.506   8.852 -0.0412 -2.1933  2.1608
  189POPC  C31421841   0.139   1.432   8.688  0.6576 -0.0061  0.2466
  189POPC  H14X21842   0.075   1.350   8.649 -2.0193  2.5346 -1.0281
  189POPC  H14Y21843   0.245   1.401   8.675  0.0203 -2.5701  0.6631
  189POPC  C31521844   0.127   1.556   8.599 -0.4174 -0.1530 -0.3375
  189POPC  H15X21845   0.222   1.614   8.604  0.2221 -1.2666  0.8087
  189POPC  H15Y21846   0.036   1.617   8.617 -1.0533  0.1840 -4.0025
  189POPC  C31621847   0.118   1.529   8.447 -0.0655  0.3523  0.5165
  189POPC  H16X21848   0.206   1.471   8.412 -0.4785 -0.1144  0.2511
  189POPC  H16Y21849   0.089   1.620   8.389  1.0422  1.5004  1.6861
  189POPC  H16Z21850   0.031   1.464   8.426  0.1072 -0.6252  2.5820
  190POPC     N21851   3.143   1.920  10.992  0.7426 -0.0715 -0.3106
  190POPC   C1221852   3.129   2.036  10.905  0.6129 -0.6724  0.1951
  190POPC  H12A21853   3.212   2.034  10.836 -0.7697 -2.2728 -1.5543
  190POPC  H12B21854   3.132   2.122  10.970  0.7512 -1.1641  0.8511
  190POPC   C1321855   3.268   1.906  11.069  0.3552  0.0005 -0.9069
  190POPC  H13A21856   3.300   1.987  11.134  1.8604 -0.6228 -0.8287
  190POPC  H13B21857   3.256   1.820  11.133  3.0815  0.9745  1.1478
  190POPC  H13C21858   3.360   1.899  11.012  0.2778  0.4164 -1.0886
  190POPC   C1421859   3.023   1.906  11.086  0.3176 -0.0688 -0.2370
  190POPC  H14A21860   2.934   1.903  11.025 -0.9224  0.4637  1.4750
  190POPC  H14B21861   3.033   1.816  11.145  2.2505  1.4167  1.9323
  190POPC  H14C21862   3.022   1.996  11.147  0.0451  0.1933 -0.6291
  190POPC   C1521863   3.142   1.786  10.911 -0.3754 -0.3638 -0.3301
  190POPC  H15A21864   3.064   1.778  10.836  0.7840  0.7880 -1.7482
  190POPC  H15B21865   3.154   1.694  10.965 -0.8894 -0.6994 -0.7671
  190POPC  H15C21866   3.218   1.785  10.834 -0.4891  1.4715 -0.5103
  190POPC   C1121867   2.998   2.049  10.818  0.2209 -0.4031  0.1588
  190POPC  H11A21868   2.997   1.963  10.748  1.3486  0.4113 -0.9034
  190POPC  H11B21869   3.025   2.132  10.750 -0.5194 -1.2823 -1.2681
  190POPC     P21870   2.845   2.222  10.939  0.3963 -0.2232  0.7689
  190POPC   O1321871   2.960   2.275  11.016 -0.2180 -0.3523 -0.5726
  190POPC   O1421872   2.720   2.206  11.013  0.4591 -0.2522  0.1472
  190POPC   O1221873   2.876   2.071  10.892 -0.3398 -0.0226 -0.4859
  190POPC   O1121874   2.824   2.300  10.792 -0.4999  0.3358 -0.4600
  190POPC    C121875   2.708   2.272  10.715  0.0817  0.0836  0.2049
  190POPC    HA21876   2.639   2.357  10.733  0.0285 -0.2009  1.4345
  190POPC    HB21877   2.661   2.174  10.740 -2.2458  0.2228 -2.9964
  190POPC    C221878   2.746   2.260  10.559  0.0495 -0.0945 -0.0949
  190POPC    HS21879   2.652   2.265  10.501 -1.1005  2.1897  1.7723
  190POPC   O2121880   2.806   2.131  10.539 -0.3661 -0.1357 -0.0624
  190POPC   C2121881   2.778   2.078  10.426  0.3342  0.0417  0.7910
  190POPC   O2221882   2.699   2.130  10.341  0.2637  0.0451 -0.1834
  190POPC   C2221883   2.860   1.950  10.403  0.2676 -0.5010 -0.6876
  190POPC   H2R21884   2.856   1.894  10.498  3.7901 -0.8120 -0.6148
  190POPC   H2S21885   2.968   1.971  10.388  0.5154 -1.4523 -0.2528
  190POPC    C321886   2.842   2.368  10.511 -0.4526  0.5345 -0.0973
  190POPC    HX21887   2.933   2.348  10.571  0.7529 -1.2328 -2.3408
  190POPC    HY21888   2.803   2.466  10.547 -0.7915 -0.5498  2.6569
  190POPC   O3121889   2.877   2.346  10.371  0.2137 -0.2365 -0.1370
  190POPC   C3121890   2.796   2.400  10.287  0.2348  0.4869  0.5596
  190POPC   O3221891   2.686   2.450  10.310 -0.0881  0.5110 -0.2358
  190POPC   C3221892   2.846   2.384  10.146 -0.1841 -0.4066 -0.2608
  190POPC   H2X21893   2.877   2.279  10.127  2.2315  0.1132  0.4267
  190POPC   H2Y21894   2.943   2.438  10.137 -0.9163  1.3437  1.6548
  190POPC   C2321895   2.800   1.861  10.292  0.6472 -0.0038 -0.5045
  190POPC   H3R21896   2.694   1.839  10.319  0.2643  0.8437 -1.2467
  190POPC   H3S21897   2.852   1.763  10.284  0.8733  0.0744 -0.0233
  190POPC   C2421898   2.796   1.923  10.152 -0.0501 -0.1433  0.7384
  190POPC   H4R21899   2.714   1.997  10.145  0.0452 -0.0938 -0.0490
  190POPC   H4S21900   2.760   1.837  10.090 -0.7562  0.4015  0.3810
  190POPC   C2521901   2.925   1.969  10.090  0.7419 -0.0964 -0.0598
  190POPC   H5R21902   2.997   1.886  10.103  0.2965 -0.4889 -0.0761
  190POPC   H5S21903   2.962   2.059  10.143  0.6684  0.6490 -1.2458
  190POPC   C2621904   2.922   2.003   9.937 -0.3670  0.0701 -0.2752
  190POPC   H6R21905   3.025   2.038   9.915  1.1571 -3.4983  0.6137
  190POPC   H6S21906   2.864   2.096   9.917  1.4167  0.8963 -1.9638
  190POPC   C2721907   2.883   1.888   9.840 -0.5143  0.6574  0.1387
  190POPC   H7R21908   2.802   1.823   9.880  0.0611  0.4376  0.9610
  190POPC   H7S21909   2.971   1.820   9.830 -0.7496  0.2011  1.0777
  190POPC   C2821910   2.835   1.943   9.706 -0.6365 -0.5130 -0.5870
  190POPC   H8R21911   2.808   1.857   9.641  1.8474  0.9345 -3.8517
  190POPC   H8S21912   2.929   1.984   9.663 -0.5908 -1.5987 -1.5800
  190POPC   C2921913   2.712   2.027   9.709 -0.7636 -0.1037 -0.0599
  190POPC   H9121914   2.639   2.022   9.791 -0.6534 -0.4714  0.0135
  190POPC  C21021915   2.677   2.108   9.607 -0.3274  0.5911  0.3820
  190POPC  H10121916   2.576   2.148   9.599  0.0858  1.3043 -1.8533
  190POPC  C21121917   2.744   2.111   9.475  0.0991  0.9618 -0.2006
  190POPC  H11R21918   2.822   2.033   9.457  1.2121  2.1927 -0.8761
  190POPC  H11S21919   2.806   2.202   9.461  1.0173  0.4366  0.3228
  190POPC  C21221920   2.664   2.114   9.344  0.4642 -0.6291  0.2830
  190POPC  H12R21921   2.612   2.211   9.329 -1.8920 -2.0214 -1.3166
  190POPC  H12S21922   2.578   2.045   9.362 -0.3980  0.4870  0.5872
  190POPC  C21321923   2.759   2.087   9.229 -0.1752 -0.0951 -0.4857
  190POPC  H13R21924   2.794   1.982   9.233  1.4786  0.4051 -0.8614
  190POPC  H13S21925   2.853   2.147   9.238 -0.1179 -0.4726  2.3977
  190POPC  C21421926   2.682   2.112   9.088 -0.3010  0.0925 -0.0535
  190POPC  H14R21927   2.623   2.206   9.087 -1.5287 -0.6527 -0.6249
  190POPC  H14S21928   2.613   2.025   9.084 -0.6401  0.3355  0.5399
  190POPC  C21521929   2.774   2.103   8.956  1.0728  0.0991 -0.0691
  190POPC  H15R21930   2.703   2.134   8.877 -0.0179 -0.8901  0.4909
  190POPC  H15S21931   2.808   2.001   8.928  2.2061  0.4599 -0.0516
  190POPC  C21621932   2.891   2.203   8.961 -0.0805  0.1016 -0.2687
  190POPC  H16R21933   2.954   2.163   9.043  0.6573  1.1299 -0.3259
  190POPC  H16S21934   2.846   2.299   8.994  0.4459  0.1529  0.3217
  190POPC  C21721935   2.963   2.229   8.835 -0.5079  0.5482 -0.1248
  190POPC  H17R21936   3.031   2.317   8.845 -0.0894  0.7510 -3.5305
  190POPC  H17S21937   2.886   2.263   8.762 -1.7393 -1.0651  0.3662
  190POPC  C21821938   3.049   2.111   8.802 -0.7724  0.1606  0.2771
  190POPC  H18R21939   2.990   2.017   8.804 -0.2746 -0.2098 -1.3793
  190POPC  H18S21940   3.139   2.108   8.868 -0.9067  0.3637  0.4737
  190POPC  H18T21941   3.088   2.123   8.699  0.9772 -0.0132  0.8847
  190POPC   C3321942   2.752   2.443  10.040  0.1521 -0.6474  0.1561
  190POPC   H3X21943   2.723   2.548  10.061 -1.1786 -0.3813 -2.5587
  190POPC   H3Y21944   2.657   2.387  10.040  0.1252 -0.6040  0.9646
  190POPC   C3421945   2.827   2.421   9.904  0.4845 -0.1668  0.1194
  190POPC   H4X21946   2.861   2.317   9.885 -0.6773 -0.6521  0.6299
  190POPC   H4Y21947   2.919   2.481   9.923  0.7612 -1.0049  1.5478
  190POPC   C3521948   2.761   2.489   9.791  0.1216 -0.0244 -0.8602
  190POPC   H5X21949   2.750   2.598   9.810  0.0084 -0.1384 -0.2286
  190POPC   H5Y21950   2.654   2.459   9.797 -0.2827  1.3340 -0.8551
  190POPC   C3621951   2.819   2.458   9.656  0.4215  0.2080  0.6162
  190POPC   H6X21952   2.821   2.349   9.638 -0.4168  0.0461  1.4454
  190POPC   H6Y21953   2.922   2.499   9.657  0.7453 -0.4997 -0.8877
  190POPC   C3721954   2.746   2.525   9.534  0.2144 -0.5454  0.6852
  190POPC   H7X21955   2.730   2.635   9.539 -3.0159 -0.8379 -1.0171
  190POPC   H7Y21956   2.651   2.468   9.525  0.4570 -0.7800 -0.5449
  190POPC   C3821957   2.829   2.501   9.402  0.5789 -0.1539  0.0819
  190POPC   H8X21958   2.767   2.454   9.323  0.6284 -2.2820  1.2247
  190POPC   H8Y21959   2.908   2.429   9.432  1.9985  0.1749 -2.6115
  190POPC   C3921960   2.907   2.617   9.330  1.1252  0.8750 -0.6287
  190POPC   H9X21961   2.981   2.644   9.409 -0.9736  1.0858  1.4015
  190POPC   H9Y21962   2.833   2.700   9.325 -0.7003 -0.6809 -0.7869
  190POPC  C31021963   2.961   2.567   9.194 -0.1077  0.2942 -0.5816
  190POPC  H10X21964   2.882   2.504   9.148  1.3140 -0.2928 -2.3984
  190POPC  H10Y21965   3.044   2.496   9.215 -1.4183 -1.5982 -1.5119
  190POPC  C31121966   3.012   2.675   9.090 -0.3577 -0.3702  0.1643
  190POPC  H11X21967   3.109   2.715   9.125 -0.4573 -0.3974  0.4715
  190POPC  H11Y21968   2.946   2.764   9.100  1.3618  0.8528  1.2262
  190POPC  C31221969   3.020   2.629   8.941 -0.4492 -0.3505 -0.0728
  190POPC  H12X21970   2.917   2.599   8.912 -0.1037 -0.3849 -1.3121
  190POPC  H12Y21971   3.086   2.541   8.929 -0.1376  0.1039 -2.0007
  190POPC  C31321972   3.061   2.741   8.845 -0.7324  0.8100  0.0801
  190POPC  H13X21973   3.170   2.760   8.854 -1.0314  2.3598  0.9588
  190POPC  H13Y21974   2.999   2.828   8.878 -3.2727 -0.0190 -2.1594
  190POPC  C31421975   3.022   2.717   8.698  0.4834  0.2848 -0.1955
  190POPC  H14X21976   3.054   2.803   8.636  0.7841 -0.6645 -1.3980
  190POPC  H14Y21977   2.911   2.726   8.693  0.3221 -0.1832  1.8829
  190POPC  C31521978   3.052   2.583   8.632  0.4052 -0.2325 -0.5358
  190POPC  H15X21979   3.056   2.498   8.704 -1.3531  0.7124  0.7759
  190POPC  H15Y21980   3.155   2.592   8.592  0.7374 -1.3799  0.0239
  190POPC  C31621981   2.967   2.549   8.512 -0.2683 -0.9701  0.5255
  190POPC  H16X21982   2.918   2.640   8.470  1.1957  0.2852  1.4464
  190POPC  H16Y21983   2.880   2.490   8.548 -0.9413  0.5209  1.4594
  190POPC  H16Z21984   3.019   2.492   8.433 -0.8163  1.1471 -1.4699
  191POPC     N21985   2.267   1.699   6.135  0.1628 -0.3319 -0.4200
  191POPC   C1221986   2.313   1.578   6.213  0.0227  1.3543 -0.8283
  191POPC  H12A21987   2.420   1.579   6.219 -0.0474  1.3533  0.7995
  191POPC  H12B21988   2.274   1.488   6.167 -0.7184 -0.0973  2.3079
  191POPC   C1321989   2.317   1.814   6.212  0.1784 -0.2936  0.9868
  191POPC  H13A21990   2.266   1.805   6.307  0.0330 -0.2730  0.9104
  191POPC  H13B21991   2.424   1.826   6.215  0.4983 -1.0611 -2.7160
  191POPC  H13C21992   2.276   1.904   6.171  0.4259 -0.0472  1.2763
  191POPC   C1421993   2.320   1.679   5.995  0.2234 -0.6013 -0.7329
  191POPC  H14A21994   2.304   1.768   5.936 -0.5727 -0.9294 -1.0289
  191POPC  H14B21995   2.424   1.650   5.994  0.4983 -0.3238  3.1863
  191POPC  H14C21996   2.254   1.611   5.944  0.2152 -2.4364  1.5500
  191POPC   C1521997   2.122   1.705   6.128  0.4611 -0.6757 -1.2315
  191POPC  H15A21998   2.087   1.734   6.226 -0.0832 -1.3783 -1.2160
  191POPC  H15B21999   2.067   1.617   6.100 -0.5280 -0.9842  1.4767
  191POPC  H15C22000   2.092   1.793   6.071 -1.3940 -1.5008 -1.6229
  191POPC   C1122001   2.259   1.561   6.362  0.1728  0.0346 -0.2553
  191POPC  H11A22002   2.273   1.452   6.381  2.5553  0.1255 -1.1515
  191POPC  H11B22003   2.150   1.581   6.353 -0.0349 -1.2767 -1.0046
  191POPC     P22004   2.469   1.630   6.502 -0.0233  0.0442  0.1375
  191POPC   O1322005   2.520   1.769   6.525 -0.4546 -0.0155 -0.0662
  191POPC   O1422006   2.539   1.555   6.395 -0.1122  0.0002  0.5871
  191POPC   O1222007   2.320   1.641   6.458 -0.0201  0.1201 -0.7433
  191POPC   O1122008   2.470   1.541   6.627 -0.1616 -0.0137 -0.4770
  191POPC    C122009   2.391   1.420   6.632  0.0735  0.2917 -0.0437
  191POPC    HA22010   2.372   1.378   6.531  0.6557 -1.6981  0.6245
  191POPC    HB22011   2.290   1.446   6.672 -0.1455 -1.4105  0.6184
  191POPC    C222012   2.448   1.299   6.714 -0.0768  0.1993 -0.2886
  191POPC    HS22013   2.370   1.220   6.707 -1.1858  1.3212 -1.2874
  191POPC   O2122014   2.486   1.338   6.847  0.2702 -0.3924  0.2395
  191POPC   C2122015   2.391   1.360   6.929  0.4075  0.0829 -0.3454
  191POPC   O2222016   2.270   1.362   6.905 -0.1413 -0.0504 -0.5028
  191POPC   C2222017   2.448   1.407   7.063  0.5019 -0.2389 -0.6707
  191POPC   H2R22018   2.446   1.518   7.069 -0.0067 -0.2512 -0.5542
  191POPC   H2S22019   2.553   1.372   7.063 -0.5381 -3.8728  1.5102
  191POPC    C322020   2.567   1.240   6.633 -0.0597  0.2999 -0.1059
  191POPC    HX22021   2.638   1.323   6.612  0.3196  0.5371  1.8999
  191POPC    HY22022   2.521   1.214   6.535 -0.7715 -1.0424  0.5739
  191POPC   O3122023   2.626   1.114   6.680 -0.3528  0.3881  0.1188
  191POPC   C3122024   2.715   1.139   6.775  0.2248  0.0486  0.3912
  191POPC   O3222025   2.752   1.253   6.805  0.3033  0.4423 -0.5574
  191POPC   C3222026   2.774   1.002   6.819 -0.0540 -0.7314  1.0083
  191POPC   H2X22027   2.861   0.969   6.759 -0.1079  2.1668 -0.8724
  191POPC   H2Y22028   2.700   0.922   6.795 -0.2220  0.2347 -2.2324
  191POPC   C2322029   2.361   1.359   7.182 -0.2704  0.7390  0.6349
  191POPC   H3R22030   2.253   1.387   7.177 -0.2534  0.7521 -3.7011
  191POPC   H3S22031   2.401   1.424   7.263  0.2501  1.5868 -0.2689
  191POPC   C2422032   2.382   1.214   7.218 -0.0538  0.0245  0.0993
  191POPC   H4R22033   2.485   1.201   7.256 -0.0600  0.1379  0.1552
  191POPC   H4S22034   2.368   1.146   7.131 -2.7218  0.6581 -0.0739
  191POPC   C2522035   2.281   1.156   7.319  0.0806  0.1839 -0.3291
  191POPC   H5R22036   2.296   1.046   7.325 -0.1144  0.0705 -1.5566
  191POPC   H5S22037   2.180   1.192   7.288 -0.8448 -0.7449  1.4374
  191POPC   C2622038   2.296   1.225   7.453  0.2898 -0.3772 -0.3945
  191POPC   H6R22039   2.326   1.331   7.438  0.0468 -0.4859 -1.7914
  191POPC   H6S22040   2.385   1.180   7.502 -1.2917 -0.7693  2.2833
  191POPC   C2722041   2.176   1.200   7.541 -0.8231 -0.3002 -0.3526
  191POPC   H7R22042   2.146   1.094   7.535  0.9328 -0.9718  1.4228
  191POPC   H7S22043   2.089   1.259   7.508  1.1906  3.1098 -0.0663
  191POPC   C2822044   2.200   1.246   7.686  0.3731 -0.6055 -0.4264
  191POPC   H8R22045   2.206   1.356   7.674 -0.6310 -0.3939  0.7468
  191POPC   H8S22046   2.304   1.225   7.717  0.9185  1.0811 -1.0360
  191POPC   C2922047   2.088   1.197   7.778  0.7049  0.5437  0.3624
  191POPC   H9122048   2.007   1.145   7.724  1.3326  2.8196 -3.0861
  191POPC  C21022049   2.080   1.240   7.909  0.0361 -0.0133  0.1827
  191POPC  H10122050   1.996   1.204   7.972  1.1605 -3.1289  0.1025
  191POPC  C21122051   2.181   1.326   7.987 -0.2965  0.1939  0.0985
  191POPC  H11R22052   2.136   1.426   8.008  1.8661  1.1770  0.3966
  191POPC  H11S22053   2.263   1.331   7.913 -1.4815 -0.2880 -1.2837
  191POPC  C21222054   2.229   1.263   8.118 -0.4995  0.0995  0.4557
  191POPC  H12R22055   2.313   1.317   8.165  0.6255 -1.2533  0.0667
  191POPC  H12S22056   2.264   1.158   8.110 -0.1158  0.1030  1.8344
  191POPC  C21322057   2.116   1.261   8.226  0.5217  0.7109 -0.2059
  191POPC  H13R22058   2.111   1.170   8.290 -0.7281 -0.1524 -1.4832
  191POPC  H13S22059   2.012   1.249   8.189  0.3898  0.2093  0.3104
  191POPC  C21422060   2.125   1.394   8.309 -0.0601 -1.3251  0.1169
  191POPC  H14R22061   2.132   1.478   8.236  2.3866 -1.0553  0.5716
  191POPC  H14S22062   2.218   1.392   8.369  0.2345  1.3542 -0.1272
  191POPC  C21522063   2.009   1.412   8.407 -0.2158  0.0711 -0.1822
  191POPC  H15R22064   2.009   1.338   8.489  0.9147 -0.2577 -0.4642
  191POPC  H15S22065   1.911   1.416   8.355 -0.4077  0.4720  0.2037
  191POPC  C21622066   2.021   1.549   8.478 -0.5780  0.0486  0.0863
  191POPC  H16R22067   1.985   1.632   8.414  0.6400  0.9917  0.5695
  191POPC  H16S22068   2.129   1.566   8.500 -0.1539 -1.6653 -0.5161
  191POPC  C21722069   1.969   1.547   8.620  0.5335 -0.1487  0.1163
  191POPC  H17R22070   2.012   1.469   8.687 -0.0746 -0.0148  0.6674
  191POPC  H17S22071   1.864   1.515   8.609  0.3058  0.2713  0.9281
  191POPC  C21822072   1.974   1.682   8.686  0.0475 -0.1777  0.2001
  191POPC  H18R22073   1.934   1.766   8.625  1.1600  0.7662  0.7438
  191POPC  H18S22074   2.082   1.701   8.700  0.0274 -0.0293  0.1618
  191POPC  H18T22075   1.925   1.678   8.786 -1.5251 -0.7881 -0.5641
  191POPC   C3322076   2.820   0.993   6.973 -0.0467 -0.5842  0.7780
  191POPC   H3X22077   2.881   1.084   6.991 -1.5132  0.4366  0.7405
  191POPC   H3Y22078   2.882   0.901   6.978 -0.2526 -0.6904  1.6152
  191POPC   C3422079   2.708   0.997   7.083  0.5618 -0.2934  0.0051
  191POPC   H4X22080   2.648   0.904   7.073  1.6152 -0.9233 -0.6650
  191POPC   H4Y22081   2.638   1.082   7.068  0.5336 -0.7275 -3.1917
  191POPC   C3522082   2.758   0.995   7.225 -0.6209 -0.0261 -0.0787
  191POPC   H5X22083   2.681   0.983   7.304  1.8186 -1.8381  2.1784
  191POPC   H5Y22084   2.798   1.098   7.243 -1.5999  0.3100  0.2389
  191POPC   C3622085   2.876   0.902   7.239 -0.4699  0.0978 -0.1547
  191POPC   H6X22086   2.973   0.939   7.199 -0.5371 -1.8905 -2.4336
  191POPC   H6Y22087   2.848   0.814   7.177 -0.9741  2.7191 -4.0049
  191POPC   C3722088   2.889   0.853   7.385 -0.2969  0.4791 -0.2342
  191POPC   H7X22089   2.950   0.761   7.380 -2.0936 -0.7567 -0.3883
  191POPC   H7Y22090   2.788   0.819   7.417  0.2395  0.6632  1.7897
  191POPC   C3822091   2.944   0.959   7.482  0.1007 -0.3204  0.1486
  191POPC   H8X22092   2.891   1.056   7.483  3.3853  1.6799  2.9345
  191POPC   H8Y22093   3.041   0.994   7.440 -0.5224  1.7032  0.3242
  191POPC   C3922094   2.961   0.918   7.628 -0.0218 -0.0998  0.4682
  191POPC   H9X22095   3.030   0.831   7.627  0.5114  0.2438 -2.3319
  191POPC   H9Y22096   2.867   0.895   7.681  1.0795 -0.9285  2.1373
  191POPC  C31022097   3.023   1.026   7.704 -0.3285 -0.5748  0.5994
  191POPC  H10X22098   2.961   1.118   7.707  2.8312  1.7046  1.4421
  191POPC  H10Y22099   3.108   1.065   7.643 -2.2354 -1.7848 -3.1878
  191POPC  C31122100   3.056   0.980   7.850  0.2412 -0.1086 -0.2871
  191POPC  H11X22101   3.147   1.030   7.889  2.3102 -2.3685 -1.9517
  191POPC  H11Y22102   3.080   0.871   7.850  0.6803 -0.0133 -0.3971
  191POPC  C31222103   2.928   0.991   7.943 -0.0510  0.4836 -0.2952
  191POPC  H12X22104   2.863   0.907   7.909 -0.4152  0.5606  0.1939
  191POPC  H12Y22105   2.870   1.086   7.935 -0.5120  0.2626  0.3698
  191POPC  C31322106   2.957   0.962   8.087  0.5353 -0.0845 -0.9534
  191POPC  H13X22107   3.020   1.036   8.141  0.1453 -2.1723  2.6865
  191POPC  H13Y22108   3.009   0.867   8.110 -0.9455 -0.6349  0.2515
  191POPC  C31422109   2.824   0.928   8.154 -0.4864  0.4665  0.1421
  191POPC  H14X22110   2.852   0.895   8.257  4.9873 -0.4767 -1.3390
  191POPC  H14Y22111   2.772   0.836   8.120 -0.3341  0.2121  0.5822
  191POPC  C31522112   2.717   1.043   8.172 -0.7361 -0.2000  0.6320
  191POPC  H15X22113   2.692   1.093   8.076 -2.3142  1.6954  1.9573
  191POPC  H15Y22114   2.759   1.125   8.233 -1.1780  1.3664 -1.0915
  191POPC  C31622115   2.585   0.987   8.226  0.6105  0.0177  0.3158
  191POPC  H16X22116   2.554   0.899   8.167 -1.0960  1.1172 -0.5105
  191POPC  H16Y22117   2.502   1.062   8.225  2.6634  2.4699 -1.8842
  191POPC  H16Z22118   2.604   0.970   8.334  0.8253 -0.8865  0.1371
  192POPC     N22119   2.749   5.833   5.956  0.1788 -0.4966 -0.0276
  192POPC   C1222120   2.616   5.895   6.009  0.2493 -0.4239  0.3229
  192POPC  H12A22121   2.559   5.908   5.918  0.9517 -0.5418 -0.1380
  192POPC  H12B22122   2.636   5.996   6.039  1.2464 -0.6856  0.5554
  192POPC   C1322123   2.843   5.817   6.074 -0.1958 -0.8330 -0.3199
  192POPC  H13A22124   2.790   5.767   6.153 -2.7625 -0.7249 -1.8542
  192POPC  H13B22125   2.939   5.773   6.051  2.7951  4.5822  0.0175
  192POPC  H13C22126   2.867   5.910   6.124  2.4830 -1.3161 -0.5345
  192POPC   C1422127   2.726   5.697   5.893  0.1494  0.8600  0.1380
  192POPC  H14A22128   2.825   5.655   5.877  0.1429  0.5809  0.8258
  192POPC  H14B22129   2.665   5.633   5.954 -0.6029  1.4020 -0.0292
  192POPC  H14C22130   2.677   5.692   5.797  0.6458 -2.4900 -0.0516
  192POPC   C1522131   2.818   5.920   5.856 -0.5415 -0.4890  0.2597
  192POPC  H15A22132   2.750   5.934   5.773  0.6545  1.0020 -0.5280
  192POPC  H15B22133   2.908   5.873   5.820 -1.2004 -0.3874 -1.6907
  192POPC  H15C22134   2.845   6.017   5.896 -2.9009  0.8206 -1.0439
  192POPC   C1122135   2.536   5.826   6.124  0.1502  0.9315  0.3915
  192POPC  H11A22136   2.447   5.886   6.151 -0.6307 -0.5902  1.3084
  192POPC  H11B22137   2.598   5.816   6.216 -1.0090 -0.2160  1.0827
  192POPC     P22138   2.350   5.662   6.047  0.1774 -0.3848  0.4318
  192POPC   O1322139   2.337   5.521   6.007 -1.0601  0.0238 -0.4124
  192POPC   O1422140   2.297   5.762   5.951 -0.0529 -0.1350  0.0230
  192POPC   O1222141   2.498   5.692   6.079 -0.0203 -0.7533 -0.3553
  192POPC   O1122142   2.281   5.697   6.184 -0.1462  0.1579 -0.1406
  192POPC    C122143   2.223   5.598   6.272 -0.9352 -0.0884  0.6441
  192POPC    HA22144   2.195   5.501   6.224  0.5356 -0.3948  0.3535
  192POPC    HB22145   2.137   5.632   6.334  0.0761  0.3073  1.8686
  192POPC    C222146   2.340   5.565   6.369 -0.0392  0.0329 -0.3380
  192POPC    HS22147   2.432   5.537   6.313  0.8936  0.1695  1.0726
  192POPC   O2122148   2.301   5.453   6.463 -0.3141 -0.3611  0.8466
  192POPC   C2122149   2.332   5.331   6.416  1.0115 -0.1326  0.2014
  192POPC   O2222150   2.387   5.304   6.309 -0.3182 -0.3166 -0.8058
  192POPC   C2222151   2.273   5.227   6.516 -0.3034  0.0925 -0.0139
  192POPC   H2R22152   2.187   5.178   6.465  0.4504 -0.9098 -0.3501
  192POPC   H2S22153   2.250   5.268   6.617 -0.4203 -0.7041  0.2903
  192POPC    C322154   2.378   5.691   6.454 -0.1760 -0.3219  0.0146
  192POPC    HX22155   2.284   5.708   6.511  0.5826 -3.0728  2.3251
  192POPC    HY22156   2.395   5.781   6.391 -1.3592  1.0535  1.5455
  192POPC   O3122157   2.490   5.669   6.541  0.0160  0.4614 -0.0137
  192POPC   C3122158   2.509   5.752   6.637 -0.5645 -0.1284 -0.1622
  192POPC   O3222159   2.443   5.852   6.659 -0.1358  0.1181  0.0368
  192POPC   C3222160   2.642   5.718   6.711 -0.7221  0.3333  0.3309
  192POPC   H2X22161   2.726   5.758   6.652 -1.4846  1.9735  0.3197
  192POPC   H2Y22162   2.652   5.608   6.699  0.3964  0.4547  0.0650
  192POPC   C2322163   2.374   5.117   6.543  0.5716 -0.1488 -0.3010
  192POPC   H3R22164   2.480   5.147   6.558  1.2102 -1.4563 -1.9194
  192POPC   H3S22165   2.378   5.052   6.453 -0.0897  0.7143 -0.9670
  192POPC   C2422166   2.324   5.022   6.654 -0.1998 -0.1887  0.6392
  192POPC   H4R22167   2.223   4.989   6.620 -0.4350  0.8339  0.3170
  192POPC   H4S22168   2.304   5.074   6.750 -0.4815  0.8947  0.0047
  192POPC   C2522169   2.412   4.891   6.667 -0.6217 -0.3319  0.4618
  192POPC   H5R22170   2.518   4.914   6.687 -0.8732  0.4060  0.9819
  192POPC   H5S22171   2.397   4.822   6.581  0.1301 -1.9557  1.5848
  192POPC   C2622172   2.366   4.813   6.800 -0.0783  0.0538  0.3980
  192POPC   H6R22173   2.256   4.801   6.793  0.1354 -1.1780 -1.5603
  192POPC   H6S22174   2.378   4.874   6.892  0.2112  0.5044  0.0719
  192POPC   C2722175   2.450   4.690   6.822 -1.3932 -0.4864 -0.1587
  192POPC   H7R22176   2.559   4.711   6.821 -1.3741 -0.6176 -0.9902
  192POPC   H7S22177   2.437   4.612   6.744 -1.3705 -0.3193 -0.3300
  192POPC   C2822178   2.419   4.615   6.954 -0.8499 -0.1071  0.0124
  192POPC   H8R22179   2.476   4.664   7.037 -0.3317 -2.2194  0.9824
  192POPC   H8S22180   2.463   4.513   6.948  0.9956  0.6251  0.2257
  192POPC   C2922181   2.279   4.599   6.972  0.4405  0.4514  1.0570
  192POPC   H9122182   2.224   4.580   6.879  1.6993 -1.9683  0.7138
  192POPC  C21022183   2.203   4.623   7.080 -0.6942  0.1546 -0.1820
  192POPC  H10122184   2.094   4.628   7.078 -0.7047 -0.1085 -0.2707
  192POPC  C21122185   2.258   4.679   7.213  0.2966 -0.0331  0.4796
  192POPC  H11R22186   2.195   4.757   7.261  0.5901 -0.0560  0.9006
  192POPC  H11S22187   2.362   4.714   7.195  0.1244  0.5238  0.5193
  192POPC  C21222188   2.260   4.552   7.304 -0.7641  0.7185 -0.2654
  192POPC  H12R22189   2.332   4.481   7.258 -1.0717  0.0101  0.3085
  192POPC  H12S22190   2.160   4.503   7.300 -0.3251 -0.2684  0.3389
  192POPC  C21322191   2.312   4.590   7.446 -0.1655  0.0574  0.1922
  192POPC  H13R22192   2.322   4.700   7.439 -1.3546  0.2243  0.7065
  192POPC  H13S22193   2.408   4.544   7.475 -0.5305 -0.1966  1.0381
  192POPC  C21422194   2.206   4.560   7.552 -0.0751  0.1623 -0.3103
  192POPC  H14R22195   2.154   4.467   7.523  2.1516 -0.6129 -2.1215
  192POPC  H14S22196   2.132   4.643   7.557  0.9174  1.0082  0.8540
  192POPC  C21522197   2.275   4.546   7.691 -0.0113 -0.2654 -0.9580
  192POPC  H15R22198   2.313   4.645   7.723  0.4038 -0.3987 -1.0328
  192POPC  H15S22199   2.355   4.469   7.690  0.0458 -0.2248 -0.2493
  192POPC  C21622200   2.174   4.505   7.799  0.1544  0.5413 -0.2808
  192POPC  H16R22201   2.133   4.407   7.767 -1.8751  0.9295  0.9842
  192POPC  H16S22202   2.086   4.573   7.799  0.4254  1.0041 -2.9401
  192POPC  C21722203   2.236   4.491   7.947  0.9281 -0.0445  0.9947
  192POPC  H17R22204   2.334   4.441   7.936  0.8950  0.2551 -1.0375
  192POPC  H17S22205   2.169   4.420   8.001  0.1670 -1.0279 -1.1225
  192POPC  C21822206   2.254   4.625   8.023 -0.3454 -0.2751  0.4545
  192POPC  H18R22207   2.170   4.694   8.045 -0.0244  0.8661 -1.6746
  192POPC  H18S22208   2.332   4.684   7.970 -0.1484 -1.1653 -0.2664
  192POPC  H18T22209   2.298   4.590   8.119 -1.9690 -1.0924  0.9365
  192POPC   C3322210   2.660   5.775   6.855  0.4833  0.2251  0.2341
  192POPC   H3X22211   2.650   5.886   6.855 -0.5785  0.1542  0.8008
  192POPC   H3Y22212   2.766   5.766   6.886  0.5559 -0.5159 -0.2159
  192POPC   C3422213   2.573   5.701   6.958  0.3642 -0.2369  0.1914
  192POPC   H4X22214   2.592   5.592   6.946 -1.9226 -0.5758 -0.8627
  192POPC   H4Y22215   2.464   5.715   6.941  0.3517 -0.8203 -0.2605
  192POPC   C3522216   2.629   5.736   7.098  0.8482 -0.4438 -0.2962
  192POPC   H5X22217   2.620   5.845   7.117  1.4758 -0.1418 -1.5848
  192POPC   H5Y22218   2.736   5.706   7.097  0.8276 -0.5255 -0.0680
  192POPC   C3622219   2.545   5.656   7.192 -0.2483  0.0107 -0.7908
  192POPC   H6X22220   2.545   5.548   7.165  2.6284  0.2529 -2.1340
  192POPC   H6Y22221   2.440   5.692   7.187  0.1732  1.1811 -1.6058
  192POPC   C3722222   2.594   5.647   7.339  0.0883  0.3056  0.7662
  192POPC   H7X22223   2.596   5.756   7.363  3.0108  0.8364 -1.4296
  192POPC   H7Y22224   2.697   5.606   7.343  0.7874  2.0728  2.0678
  192POPC   C3822225   2.512   5.569   7.433 -0.8006  0.7637 -0.2257
  192POPC   H8X22226   2.511   5.460   7.416 -0.8641  0.5576  0.9715
  192POPC   H8Y22227   2.406   5.590   7.407 -1.1143  2.2347  1.9459
  192POPC   C3922228   2.532   5.588   7.585 -0.2721 -0.9983 -0.1787
  192POPC   H9X22229   2.467   5.673   7.613 -1.2169 -1.8913  0.4080
  192POPC   H9Y22230   2.638   5.608   7.610 -1.1963  1.5135  2.1870
  192POPC  C31022231   2.474   5.474   7.658 -0.5344 -0.0132 -0.5897
  192POPC  H10X22232   2.544   5.388   7.653  0.2816  0.6643 -1.1927
  192POPC  H10Y22233   2.388   5.439   7.596  1.5544 -2.6331 -2.2444
  192POPC  C31122234   2.425   5.506   7.805  0.3087 -0.2302  0.1147
  192POPC  H11X22235   2.368   5.413   7.821 -1.6941  0.4331 -2.5945
  192POPC  H11Y22236   2.372   5.604   7.806 -0.9156 -0.8702 -0.9289
  192POPC  C31222237   2.539   5.508   7.912 -0.7132 -0.0438 -0.1161
  192POPC  H12X22238   2.595   5.411   7.910  0.5086  0.6541 -0.9380
  192POPC  H12Y22239   2.487   5.495   8.009  0.0171  0.1097  0.3052
  192POPC  C31322240   2.625   5.626   7.922  0.0156 -0.5849 -0.2137
  192POPC  H13X22241   2.558   5.714   7.929  0.3769 -0.1280 -2.0087
  192POPC  H13Y22242   2.655   5.638   7.816 -0.5343  0.1884 -0.2873
  192POPC  C31422243   2.727   5.640   8.029  0.5606  0.1214  0.4540
  192POPC  H14X22244   2.773   5.540   8.045 -0.9901 -0.7839 -0.5291
  192POPC  H14Y22245   2.664   5.668   8.115  0.6262 -2.5857  1.4846
  192POPC  C31522246   2.834   5.741   7.997 -0.0824 -0.5770  0.1387
  192POPC  H15X22247   2.794   5.844   7.983  1.6638  0.2032  0.6221
  192POPC  H15Y22248   2.862   5.703   7.897  2.3311 -0.6709  0.7917
  192POPC  C31622249   2.957   5.752   8.097  0.0413 -0.0311  0.4201
  192POPC  H16X22250   3.018   5.837   8.062  0.9296 -0.6684  0.3970
  192POPC  H16Y22251   3.027   5.666   8.093 -0.9572 -0.8084 -3.0134
  192POPC  H16Z22252   2.915   5.765   8.200 -3.7822 -0.9396 -0.8657
  193SOD    SOD22253   3.893   1.291  12.543 -0.2472  0.1589  0.1180
  194SOD    SOD22254   1.653   5.469  14.068 -0.2780  0.0780  0.0364
  195SOD    SOD22255   5.695   2.885  12.265 -0.3892 -0.2116 -0.0137
  196SOD    SOD22256   3.189   2.524   5.716  0.7458 -0.1153  0.0102
  197SOD    SOD22257   5.986   5.784  11.508  0.4306 -0.0227  0.7371
  198SOD    SOD22258   1.235   6.134   4.668  0.0092  0.3032  0.1282
  199SOD    SOD22259   3.650   3.337   2.808 -0.0003  0.0260  0.1155
  200SOD    SOD22260   6.285   3.044   4.279  0.2431 -0.0498  0.8319
  201SOD    SOD22261   4.102   6.340   5.424  0.4114  0.1438  0.0660
  202SOD    SOD22262   5.226   1.377   1.982  0.3623  0.2263 -0.1013
  203SOD    SOD22263   1.485   3.185  10.492  0.3261  0.0652 -0.3560
  204SOD    SOD22264   0.433   4.051   0.502 -0.4496 -0.0610  0.3609
  205SOD    SOD22265   1.130   5.344  14.254  0.5677 -0.2106 -0.3198
  206SOD    SOD22266   3.026   1.710  11.749 -0.0338 -0.6244 -0.2937
  207SOD    SOD22267   6.780   1.943  16.629 -0.1411 -0.0203  0.2536
  208SOD    SOD22268   4.683   0.772   6.048 -0.1626 -0.2481  0.0951
  209SOD    SOD22269   1.959   6.042   6.098  0.1472  0.3505 -0.0421
  210SOD    SOD22270   2.871   5.391  12.485  0.1813  0.2262 -0.7284
  211SOD    SOD22271   0.772   5.231   6.186  0.4449  0.5466  0.3194
  212SOD    SOD22272   4.102   6.644   6.232 -0.1437 -0.1055  0.5281
  213SOD    SOD22273   5.508   4.185  16.548  0.4630  0.0740  0.4261
  214SOD    SOD22274   4.187   0.787  12.730 -0.1970  0.0682  0.2860
  215SOD    SOD22275   2.637   4.283  11.675 -0.1132 -0.3230 -0.4127
  216SOD    SOD22276   4.884   1.893  11.031  0.3130 -0.3719  0.4877
  217SOD    SOD22277   4.212   0.539   4.642  0.4802  0.8058 -0.0737
  218SOD    SOD22278   4.005   3.723   5.908  0.0053  0.2682  0.2804
  219SOD    SOD22279   2.948   3.068  13.272  0.0324 -0.1176  0.0104
  220SOD    SOD22280   2.759   1.829   6.510  0.2275  0.1477 -0.6583
  221SOD    SOD22281   0.533   3.239   6.468 -0.0370  0.0779  0.5271
  222SOD    SOD22282   0.312   1.446  14.247 -0.7241  0.3998 -0.1604
  223SOD    SOD22283   5.238   6.236  11.076  0.3007  0.3753 -0.0366
  224SOD    SOD22284   3.091   4.941   5.855  0.0501  0.2344 -1.3742
  225SOD    SOD22285   6.731   2.325   2.031  0.1384  0.0118  0.0148
  226SOD    SOD22286   1.825   3.895   3.949 -0.3057  0.5338 -0.1127
  227SOD    SOD22287   3.896   3.792  16.714  0.2378  0.3316  0.0251
  228SOD    SOD22288   5.731   6.340   0.620 -0.2553  0.3327 -0.2005
  229SOD    SOD22289   3.337   0.829  16.618  0.4821  0.0419 -0.0389
  230SOD    SOD22290   5.672   6.769   6.634 -0.2410  0.3280 -0.3190
  231SOD    SOD22291   5.200   2.901  16.009  0.0818  0.2129  0.5760
  232SOD    SOD22292   4.100   3.056   4.472  0.4478  0.3653 -0.0845
  233SOD    SOD22293   2.843   3.722   4.205 -0.4063  0.3247  0.3328
  234SOD    SOD22294   0.422   0.460   3.152  0.3268 -0.1456  0.1471
  235SOD    SOD22295   0.042   0.143  16.787 -0.2839 -0.3866 -0.4605
  236SOD    SOD22296   0.441   6.488   0.457  0.6744  0.3363 -0.3572
  237SOD    SOD22297   2.792   2.625  14.177 -0.4038  0.1138 -0.3033
  238SOD    SOD22298   3.050   0.422  11.817 -0.2660 -0.3105  0.0459
  239SOD    SOD22299   1.744   0.245  17.173 -0.2757 -0.3506 -0.1234
  240SOD    SOD22300   3.585   4.795  14.276 -0.4255 -0.3161  0.1630
  241SOD    SOD22301   1.518   5.550  12.822 -0.1431  0.2887  0.0197
  242SOD    SOD22302   3.621   0.923   1.317  0.4226  0.2358  0.1168
  243SOD    SOD22303   5.783   2.128  11.267  0.0528  0.3788 -0.1507
  244SOD    SOD22304   5.751   5.149   3.884 -0.3609 -0.0873  0.3399
  245SOD    SOD22305   2.193   3.167   3.192 -0.0339 -0.1713 -0.0136
  246SOD    SOD22306   4.329   6.497  12.474 -0.3212 -0.0435  0.6323
  247SOD    SOD22307   1.156   1.049   4.834  0.1213  0.0153 -0.1228
  248SOD    SOD22308   5.295   6.388   3.763  0.3582 -0.0972 -0.0797
  249SOD    SOD22309   4.881   4.503   5.751  0.0427 -0.0493  0.2535
  250SOD    SOD22310   1.513   0.614  16.796 -0.2698  0.0486 -0.0422
  251SOD    SOD22311   0.365   1.878   5.811 -0.8437  0.1420  0.0795
  252SOD    SOD22312   3.735   1.058   6.352  0.0863  0.5954 -0.2395
  253SOD    SOD22313   1.047   5.679  11.838  0.5128  0.2383  0.4073
  254SOD    SOD22314   2.382   0.761  14.728  0.4591  0.3809 -0.1922
  255SOD    SOD22315   4.880   0.208   3.249  0.1362  0.1495 -0.1016
  256SOD    SOD22316   1.462   0.785  12.024 -0.3122  0.1851  0.4873
  257SOD    SOD22317   2.913   1.466   1.829 -0.5021 -0.1436  0.2913
  258SOD    SOD22318   4.499   2.913   1.639 -0.1337 -0.1999  0.3239
  259SOD    SOD22319   3.484   3.151  12.232 -0.8988  0.1549 -0.1062
  260SOD    SOD22320   6.745   0.390  16.110 -0.3605 -0.4915  0.0710
  261SOD    SOD22321   2.030   5.783  11.505  0.5698  0.0406 -0.3462
  262SOD    SOD22322   6.102   3.117   5.166 -0.8361  0.3972  0.1253
  263SOD    SOD22323   5.138   1.391  12.703  0.1140 -0.1761  0.1859
  264SOD    SOD22324   3.243   3.101  14.107  0.1962 -0.3198 -0.2539
  265SOD    SOD22325   2.232   5.142   1.490  0.0207  0.6582  0.3174
  266SOD    SOD22326   2.719   5.662  15.916  0.0108  0.0682 -0.8510
  267SOD    SOD22327   3.120   5.905  16.960  0.0635 -0.5448 -0.6533
  268SOD    SOD22328   5.497   3.082   1.061  0.1756  0.3567 -0.0880
  269SOD    SOD22329   3.386   2.121   0.021 -0.0503  0.1674  0.1364
  270CLA    CLA22330   0.390   3.188   2.230 -0.1703  0.2121 -0.3276
  271CLA    CLA22331   4.261   0.392   4.231 -0.1163 -0.3366 -0.3143
  272CLA    CLA22332   0.031   3.089   3.450  0.1561 -0.0532 -0.5032
  273CLA    CLA22333   3.516   3.062   3.817 -0.0284  0.1273  0.3884
  274CLA    CLA22334   6.371   4.913   1.038 -0.0397 -0.6939  0.1499
  275CLA    CLA22335   2.899   4.826   2.649 -0.2842  0.0007  0.2100
  276CLA    CLA22336   1.687   2.810   1.522 -0.4235 -0.0192 -0.4687
  277CLA    CLA22337   6.628   0.611  16.011 -0.0982  0.2861  0.2747
  278CLA    CLA22338   4.159   0.687   1.921 -0.2133 -0.2337 -0.1982
  279CLA    CLA22339   1.359   5.713  13.294  0.2889  0.0199 -0.0619
  280CLA    CLA22340   5.125   3.356   0.458  0.0805  0.1606  0.0908
  281CLA    CLA22341   1.967   2.921   1.124  0.2089 -0.2711  0.2451
  282CLA    CLA22342   4.711   0.379   0.411 -0.2779 -0.2405  0.0693
  283CLA    CLA22343   0.129   0.713   0.864 -0.3806  0.1902  0.1142
  284CLA    CLA22344   2.970   4.695   0.000 -0.4497 -0.0314 -0.4147
  285CLA    CLA22345   2.496   4.610   5.383  0.2413  0.0355 -0.2999
  286CLA    CLA22346   1.699   1.135   0.197  0.1597 -0.5083 -0.2169
  287CLA    CLA22347   4.133   4.558   1.810 -0.0532  0.2590  0.0242
  288CLA    CLA22348   5.933   1.248   2.500 -0.1485  0.0642  0.0442
  289CLA    CLA22349   0.988   6.753  17.073  0.1447 -0.0575 -0.4437
  290CLA    CLA22350   4.036   3.762   5.406 -0.1529  0.0893 -0.1649
  291CLA    CLA22351   4.321   3.414   5.812 -0.2156 -0.0853  0.3713
  292CLA    CLA22352   3.517   5.145  14.642  0.8246  0.0983 -0.5665
  293CLA    CLA22353   5.748   2.594   0.255  0.1287 -0.1010  0.4790
  294CLA    CLA22354   5.633   1.574   4.587  0.2659 -0.1523 -0.5326
  295CLA    CLA22355   2.559   0.145  12.398 -0.2322 -0.1429 -0.0388
  296CLA    CLA22356   6.343   0.247   3.731 -0.1024 -0.0835 -0.2260
  297CLA    CLA22357   6.071   6.219  13.494 -0.0127  0.0618 -0.0849
  298CLA    CLA22358   2.194   4.583  16.858 -0.1184 -0.0152 -0.1804
  299CLA    CLA22359   2.807   1.398  12.901  0.1022  0.4033 -0.7191
  300CLA    CLA22360   6.249   1.233  16.551 -0.1319 -0.2550 -0.1928
  301CLA    CLA22361   6.277   6.313   4.148 -0.2246  0.2654  0.0370
  302CLA    CLA22362   3.335   4.618  12.308 -0.3014 -0.6614 -0.1489
  303CLA    CLA22363   2.217   4.826  13.476  0.2082  0.4406  0.4470
  304CLA    CLA22364   1.401   4.433  12.909 -0.1330  0.1767  0.4279
  305CLA    CLA22365   4.164   5.612   5.657 -0.3406 -0.0908  0.0746
  306CLA    CLA22366   2.866   6.428   0.196 -0.2680 -0.1247  0.1168
  307CLA    CLA22367   4.654   1.605  13.036  0.1194  0.1868  0.2288
  308CLA    CLA22368   3.664   2.021  13.391  0.3697  0.2251  0.3418
  309CLA    CLA22369   1.824   0.081  16.774  0.1282 -0.2892  0.0255
  310CLA    CLA22370   3.374   3.053   2.044 -0.6757  0.0625 -0.1619
  311CLA    CLA22371   4.997   2.752   0.525 -0.1418 -0.0102 -0.2175
  312CLA    CLA22372   3.868   3.019  17.195 -0.0714 -0.4148 -0.0322
  313CLA    CLA22373   1.195   4.446   5.030  0.2881 -0.4217 -0.0865
  314CLA    CLA22374   2.464   1.776  14.890  0.0955  0.0031  0.0035
  315CLA    CLA22375   2.074   6.615   1.286  0.1984  0.1580  0.3053
  316CLA    CLA22376   0.402   5.127  14.707 -0.0751 -0.2331 -0.2615
  317CLA    CLA22377   5.588   1.508  12.350 -0.2078 -0.0745  0.6585
  318CLA    CLA22378   1.703   3.064   3.363 -0.1115  0.1410  0.0436
  319CLA    CLA22379   3.629   3.066  15.357  0.0649  0.1791 -0.0130
  320CLA    CLA22380   5.918   3.400  12.428 -0.4428 -0.0690  0.0409
  321CLA    CLA22381   0.588   1.643  16.628  0.4074 -0.1818 -0.0639
  322CLA    CLA22382   4.602   3.978   5.113 -0.1800 -0.1555  0.2123
  323TIP3   OH222383   0.850   0.423   4.180  0.7465  0.7073  0.1688
  323TIP3    H122384   0.943   0.441   4.191  1.0756 -0.9108  0.1733
  323TIP3    H222385   0.838   0.334   4.213 -0.9322  1.1230  0.8120
  324TIP3   OH222386   3.594   0.444  16.778 -0.2755 -0.0659  0.2493
  324TIP3    H122387   3.540   0.367  16.793 -0.3076  0.2485  1.8745
  324TIP3    H222388   3.590   0.458  16.683 -2.9830 -0.1011  0.2790
  325TIP3   OH222389   2.705   2.316   1.290 -0.0012  0.0370  0.2147
  325TIP3    H122390   2.644   2.331   1.217  1.6355 -0.4575 -1.3170
  325TIP3    H222391   2.736   2.403   1.313 -0.1911  0.1582  0.0200
  326TIP3   OH222392   6.458   6.004  14.283  0.6826  0.0863 -0.7694
  326TIP3    H122393   6.516   5.928  14.290 -1.6781 -1.7978 -0.2521
  326TIP3    H222394   6.503   6.073  14.332  1.7034 -1.8016  1.1267
  327TIP3   OH222395   0.009   4.160  11.944  0.2380  0.2118  0.2185
  327TIP3    H122396   0.056   4.082  11.914 -0.6220  0.1723 -1.0915
  327TIP3    H222397   0.007   4.150  12.039 -1.1971 -2.1991  0.0222
  328TIP3   OH222398   0.456   0.129   2.919 -0.0338 -0.4289 -0.3031
  328TIP3    H122399   0.448   0.153   2.827  3.9028  2.7681 -0.0872
  328TIP3    H222400   0.529   0.066   2.922 -1.3268 -1.9758  0.5609
  329TIP3   OH222401   4.834   2.147  11.763  0.1002 -0.2034  0.1715
  329TIP3    H122402   4.852   2.118  11.674 -1.0506  2.3065 -0.9870
  329TIP3    H222403   4.745   2.180  11.760  0.4273  0.9940  1.9569
  330TIP3   OH222404   5.693   5.118   2.243 -0.2883 -0.2752  0.2517
  330TIP3    H122405   5.745   5.155   2.315  1.7048  0.5650 -1.5012
  330TIP3    H222406   5.693   5.187   2.177 -2.0727 -1.0214 -0.5758
  331TIP3   OH222407   2.743   3.307  16.295 -0.4287 -0.1119 -0.3399
  331TIP3    H122408   2.753   3.217  16.265  0.3031 -0.2389  0.2625
  331TIP3    H222409   2.654   3.312  16.329 -0.0853 -0.9608  0.7391
  332TIP3   OH222410   5.579   6.092  17.053 -0.1227  0.1448  0.1065
  332TIP3    H122411   5.645   6.104  16.985 -1.0567  0.9290 -0.7074
  332TIP3    H222412   5.513   6.158  17.034 -0.1042  0.8378  2.2057
  333TIP3   OH222413   4.654   3.573   5.446 -0.1006 -0.1960 -0.8555
  333TIP3    H122414   4.661   3.587   5.352  0.7554  1.2672 -0.6058
  333TIP3    H222415   4.597   3.497   5.455 -0.7253  0.0369 -2.5302
  334TIP3   OH222416   2.501   3.388   5.482  0.1443  0.3719  0.3373
  334TIP3    H122417   2.571   3.396   5.547  2.5192  0.1121 -2.0046
  334TIP3    H222418   2.475   3.478   5.464  1.2687  0.6205 -0.1327
  335TIP3   OH222419   3.675   4.111  14.789  0.2117  0.2458 -0.0284
  335TIP3    H122420   3.636   4.023  14.787  0.1493  0.2238  1.1839
  335TIP3    H222421   3.764   4.097  14.822  0.5062  0.5481 -0.6771
  336TIP3   OH222422   2.994   5.508   1.808  0.6160  0.4980 -0.2672
  336TIP3    H122423   3.027   5.426   1.771 -1.6204 -1.3093  1.3844
  336TIP3    H222424   2.972   5.562   1.733 -0.2739 -1.5025 -1.5357
  337TIP3   OH222425   5.354   4.724  15.100  0.1535  0.3416  0.2946
  337TIP3    H122426   5.262   4.700  15.086 -0.7626  1.6180  3.2727
  337TIP3    H222427   5.395   4.646  15.136 -0.4794  0.4974  1.3986
  338TIP3   OH222428   2.272   0.182   0.297 -0.1858 -0.3534  0.3452
  338TIP3    H122429   2.344   0.190   0.234 -0.1564 -2.3014  0.0691
  338TIP3    H222430   2.316   0.169   0.381 -0.2315  0.4988  0.5092
  339TIP3   OH222431   1.633   5.467  16.214  0.2577 -0.5262 -0.3767
  339TIP3    H122432   1.690   5.479  16.139  0.7456 -1.4800 -0.1779
  339TIP3    H222433   1.563   5.409  16.182  1.1667 -2.0170  0.2107
  340TIP3   OH222434   0.579   2.381  11.510  0.1454 -0.1755  0.2890
  340TIP3    H122435   0.657   2.379  11.454 -0.0353 -0.7267  0.0439
  340TIP3    H222436   0.589   2.459  11.564  0.3007  0.4028 -0.5556
  341TIP3   OH222437   0.038   6.332   0.964  0.1110  0.5255 -0.1358
  341TIP3    H122438   0.048   6.385   1.043  3.3645  1.4217 -1.0164
  341TIP3    H222439   0.099   6.259   0.976  0.6876  0.6926 -1.8177
  342TIP3   OH222440   3.432   3.588   3.393 -0.1348 -0.1045 -0.5639
  342TIP3    H122441   3.494   3.661   3.383  0.7443 -0.7512 -0.0091
  342TIP3    H222442   3.454   3.528   3.321  0.4194 -0.7012  0.0917
  343TIP3   OH222443   2.672   2.160  15.011 -0.1737 -0.3850  0.1969
  343TIP3    H122444   2.707   2.112  14.936 -2.0324 -1.4070 -0.0913
  343TIP3    H222445   2.623   2.233  14.972  1.8826  1.3069  0.6075
  344TIP3   OH222446   3.132   5.132   1.378  0.4432 -0.4748 -0.6251
  344TIP3    H122447   3.121   5.226   1.392  1.6892 -0.2947 -0.7799
  344TIP3    H222448   3.052   5.093   1.413 -0.1827  0.6572 -0.7658
  345TIP3   OH222449   4.497   2.738   3.301  0.1349  0.5109 -0.1306
  345TIP3    H122450   4.444   2.800   3.352  0.5626  0.8397 -0.0881
  345TIP3    H222451   4.558   2.701   3.365  1.5923  1.9175 -0.6470
  346TIP3   OH222452   1.238   1.132   3.603 -0.1159  0.4523  0.9209
  346TIP3    H122453   1.185   1.063   3.644 -0.5313  1.2354  1.7551
  346TIP3    H222454   1.272   1.092   3.523 -0.3502 -0.7134  1.3742
  347TIP3   OH222455   0.295   1.368   4.331  0.2613 -0.0681 -0.4108
  347TIP3    H122456   0.285   1.280   4.368  1.3162  0.3350  0.9049
  347TIP3    H222457   0.309   1.425   4.406  1.6595  0.9091 -1.3485
  348TIP3   OH222458   0.403   4.867  13.554  0.4047 -0.1180 -0.3132
  348TIP3    H122459   0.380   4.959  13.538  1.6141  0.9965  3.3178
  348TIP3    H222460   0.323   4.829  13.591  0.1544 -0.3101 -1.0417
  349TIP3   OH222461   5.481   2.004  13.336 -0.3651 -0.0036 -0.1625
  349TIP3    H122462   5.479   1.915  13.301 -2.2873 -0.2246  0.3517
  349TIP3    H222463   5.501   1.992  13.429  1.0643  0.2622 -0.4264
  350TIP3   OH222464   2.560   6.115   1.268  0.5084 -0.1466  0.0092
  350TIP3    H122465   2.618   6.070   1.208 -0.3278 -0.7863 -0.3274
  350TIP3    H222466   2.614   6.185   1.306  1.8276 -1.4284  0.5599
  351TIP3   OH222467   0.472   6.048   2.294  0.0458 -0.2442  0.1162
  351TIP3    H122468   0.497   5.971   2.344  0.4573  0.8785  1.7191
  351TIP3    H222469   0.554   6.085   2.264 -0.2025 -1.0188 -1.6592
  352TIP3   OH222470   2.916   1.572  14.823 -0.2805 -0.0795  0.2623
  352TIP3    H122471   2.999   1.524  14.826 -1.0528 -1.4932 -0.1573
  352TIP3    H222472   2.852   1.508  14.791 -1.8604  0.4870  2.0640
  353TIP3   OH222473   2.399   3.244   2.231 -0.4117  0.5264 -0.0213
  353TIP3    H122474   2.400   3.152   2.208 -0.5139  0.7808 -1.0618
  353TIP3    H222475   2.370   3.289   2.152 -0.7258  1.4223  0.5860
  354TIP3   OH222476   0.046   3.051   0.801 -0.4652 -0.4539 -0.2163
  354TIP3    H122477   0.040   2.996   0.879  1.8543 -2.1776 -1.1264
  354TIP3    H222478   0.140   3.062   0.787 -0.7452 -1.1429 -3.3621
  355TIP3   OH222479   1.847   1.199  15.930 -0.0304 -0.2798  1.2196
  355TIP3    H122480   1.908   1.269  15.952  1.0183  0.0277 -2.0403
  355TIP3    H222481   1.762   1.242  15.923  0.7965  1.1965 -2.0626
  356TIP3   OH222482   6.785   2.321   2.604 -0.0711 -0.2861 -0.2223
  356TIP3    H122483   6.820   2.316   2.693  0.2700  0.2436 -0.3241
  356TIP3    H222484   6.803   2.234   2.567 -2.1134 -1.2544  0.8902
  357TIP3   OH222485   5.673   4.576   1.828  0.2456  0.4622  0.2430
  357TIP3    H122486   5.734   4.508   1.801 -1.4913  0.0897 -3.3747
  357TIP3    H222487   5.628   4.540   1.905  2.0336 -0.7197  0.7920
  358TIP3   OH222488   1.691   3.806  14.157  0.2153  0.8590 -0.0369
  358TIP3    H122489   1.654   3.729  14.115  0.3248  0.2408  0.9879
  358TIP3    H222490   1.622   3.838  14.214  0.1941  1.4892 -0.4070
  359TIP3   OH222491   0.069   5.361  13.954 -0.4779  0.5840 -0.0111
  359TIP3    H122492   0.065   5.449  13.993 -1.0441  0.5736 -0.0372
  359TIP3    H222493  -0.014   5.351  13.909 -0.2207  0.2159 -0.4160
  360TIP3   OH222494   1.271   5.337   4.976 -0.4468 -0.0955 -0.4501
  360TIP3    H122495   1.253   5.246   4.953 -0.2880 -0.0992 -0.5621
  360TIP3    H222496   1.341   5.331   5.041 -0.5268 -0.0594 -0.3605
  361TIP3   OH222497   4.569   5.780  12.321  0.5162 -0.7755 -0.1665
  361TIP3    H122498   4.475   5.769  12.305  0.5925 -1.1411 -0.3686
  361TIP3    H222499   4.585   5.733  12.403  0.5016 -0.6212 -0.0756
  362TIP3   OH222500   4.786   1.514   2.150 -0.2478 -0.1720  0.4764
  362TIP3    H122501   4.845   1.444   2.178  0.2385  0.5984  1.4363
  362TIP3    H222502   4.699   1.485   2.176 -0.4419 -1.6294 -1.5374
  363TIP3   OH222503   4.169   5.732  13.996  0.1531 -0.1735  0.0130
  363TIP3    H122504   4.243   5.792  13.987 -0.4421  0.9025  1.8868
  363TIP3    H222505   4.155   5.725  14.090 -0.3511 -2.6168 -0.1924
  364TIP3   OH222506   5.538   3.983   0.674  0.0725  0.4158 -0.2417
  364TIP3    H122507   5.467   4.045   0.654 -0.1354  0.6739  1.2165
  364TIP3    H222508   5.493   3.899   0.684  0.0532  0.4582  0.0349
  365TIP3   OH222509   1.148   5.288   5.710 -0.0243  0.4793  0.0499
  365TIP3    H122510   1.210   5.354   5.677  0.5249 -0.0077  0.0869
  365TIP3    H222511   1.129   5.315   5.800  0.0838  0.6730  0.0146
  366TIP3   OH222512   6.246   2.015  13.000  0.0327  0.0352 -0.0051
  366TIP3    H122513   6.277   1.982  12.915 -1.1117 -1.1577 -0.0088
  366TIP3    H222514   6.301   2.091  13.018  0.4982  0.1527 -1.6830
  367TIP3   OH222515   1.000   1.937  15.429 -0.5492 -0.2663 -0.5521
  367TIP3    H122516   1.083   1.893  15.449 -0.7886 -0.5875 -0.2409
  367TIP3    H222517   1.019   1.992  15.353 -0.1844 -0.7351 -0.8042
  368TIP3   OH222518   1.549   3.343   3.279  0.1562  0.4454 -0.0944
  368TIP3    H122519   1.616   3.281   3.307  0.0599  0.4085  0.0564
  368TIP3    H222520   1.554   3.343   3.184  0.2529  0.3133 -0.0896
  369TIP3   OH222521   5.744   0.346  14.106 -0.2744  0.4921 -0.0643
  369TIP3    H122522   5.801   0.275  14.077 -0.6081 -0.2626  1.0739
  369TIP3    H222523   5.804   0.411  14.143 -0.0320  0.4696 -0.4051
  370TIP3   OH222524   5.302   5.807  14.054  0.1572  0.4987  0.3151
  370TIP3    H122525   5.395   5.794  14.036 -0.1902  0.1086 -1.4231
  370TIP3    H222526   5.298   5.891  14.100  1.4134  0.1677  1.0851
  371TIP3   OH222527   5.151   5.131  15.023  0.3401 -0.1145  0.3148
  371TIP3    H122528   5.193   5.201  15.073 -0.0970  1.0868 -0.9265
  371TIP3    H222529   5.214   5.111  14.953 -0.3880  0.4813 -0.5301
  372TIP3   OH222530   4.855   0.049   5.156  0.1600 -0.0418 -0.4334
  372TIP3    H122531   4.940   0.090   5.170  0.0854 -0.4611  1.4771
  372TIP3    H222532   4.840  -0.004   5.234 -2.7812  1.6342  0.3100
  373TIP3   OH222533   3.351   2.942   4.694 -0.0263 -0.8304  0.2990
  373TIP3    H122534   3.272   2.937   4.749  0.5291  1.5427  1.4224
  373TIP3    H222535   3.338   3.021   4.641  1.9168  0.1049  1.1250
  374TIP3   OH222536   1.600   1.095  12.133 -0.3945 -0.0051  0.4292
  374TIP3    H122537   1.537   1.160  12.100 -0.8940 -1.4483 -1.6423
  374TIP3    H222538   1.678   1.109  12.079 -0.4125 -0.9204  0.1576
  375TIP3   OH222539   4.346   4.809   5.404  0.4191  0.1184 -0.4764
  375TIP3    H122540   4.407   4.854   5.345  0.3943  1.4687  0.4596
  375TIP3    H222541   4.399   4.786   5.480 -0.0111  0.3987 -0.0844
  376TIP3   OH222542   2.518   4.636   0.851  0.2586 -0.0917  0.2895
  376TIP3    H122543   2.473   4.565   0.806 -1.2749  2.4057 -2.4342
  376TIP3    H222544   2.580   4.670   0.787  0.2420  1.6536  1.1280
  377TIP3   OH222545   6.418   0.269   0.413  0.2939  0.2777 -0.2763
  377TIP3    H122546   6.463   0.335   0.360 -0.5925  2.5138  1.5637
  377TIP3    H222547   6.382   0.319   0.487  0.9347 -2.5465  2.1003
  378TIP3   OH222548   2.097   4.186  10.618 -0.7550 -0.0353  0.2745
  378TIP3    H122549   2.168   4.124  10.635 -1.0064 -1.5839 -3.4173
  378TIP3    H222550   2.097   4.244  10.694  1.6760 -2.5166  2.3711
  379TIP3   OH222551   1.634   4.559  14.455  0.2114  1.1555  0.0383
  379TIP3    H122552   1.561   4.500  14.477 -0.4671  1.6606 -0.8112
  379TIP3    H222553   1.689   4.558  14.533 -1.2858  1.6262  1.1536
  380TIP3   OH222554   2.820   2.014   5.288  0.6862  0.3624  0.1652
  380TIP3    H122555   2.750   1.955   5.314  1.6546 -1.0021 -0.2446
  380TIP3    H222556   2.858   1.975   5.209  1.2937  1.5774 -0.1839
  381TIP3   OH222557   5.171   4.344  13.560  0.1139 -0.9057  0.0291
  381TIP3    H122558   5.175   4.255  13.595 -1.6603 -0.0115  2.8618
  381TIP3    H222559   5.233   4.394  13.614 -1.4013  0.1872  0.8436
  382TIP3   OH222560   3.939   1.647   2.543 -0.0127  0.6455 -0.1880
  382TIP3    H122561   3.888   1.654   2.624 -0.5314  0.2328 -0.4731
  382TIP3    H222562   4.029   1.632   2.572  0.1952  2.5865  0.3589
  383TIP3   OH222563   4.771   2.920   5.524  0.1133  0.1289  0.6165
  383TIP3    H122564   4.738   2.988   5.583 -0.3608 -1.2737  2.0727
  383TIP3    H222565   4.866   2.928   5.529  0.0853  1.8301 -0.6976
  384TIP3   OH222566   5.371   3.841  13.524 -0.1451 -0.4345 -0.2709
  384TIP3    H122567   5.434   3.894  13.475  0.9849 -1.4976 -0.0243
  384TIP3    H222568   5.421   3.808  13.599 -1.2646 -0.5642  0.4402
  385TIP3   OH222569   5.695   6.590   2.486 -0.6706 -0.8677 -0.4493
  385TIP3    H122570   5.712   6.678   2.452 -0.9720 -0.4014  0.5754
  385TIP3    H222571   5.748   6.532   2.430  0.4464  0.0696 -0.4028
  386TIP3   OH222572   1.668   3.883   0.492  0.0739 -0.0625  0.1792
  386TIP3    H122573   1.589   3.919   0.453  0.1222 -1.5005 -1.3555
  386TIP3    H222574   1.691   3.809   0.436  3.3901  1.2228 -0.3783
  387TIP3   OH222575   6.153   6.735   3.881 -0.0152  0.0611  0.3324
  387TIP3    H122576   6.152   6.659   3.939  3.0204 -0.1445  0.2837
  387TIP3    H222577   6.232   6.783   3.907  0.4648  0.9163 -2.4143
  388TIP3   OH222578   6.090   6.485   4.002  0.0283  0.1463 -0.3464
  388TIP3    H122579   6.093   6.446   3.915  0.1402  0.0330 -0.2914
  388TIP3    H222580   6.135   6.422   4.059  1.6150  1.0672 -0.5249
  389TIP3   OH222581   1.198   3.080   4.957  0.2024 -0.2952 -0.5195
  389TIP3    H122582   1.236   3.162   4.988  0.2422 -0.7378  0.6204
  389TIP3    H222583   1.108   3.081   4.991  0.1456 -0.6506 -0.6535
  390TIP3   OH222584   1.647   6.170   3.870 -0.3196  0.1595  0.0526
  390TIP3    H122585   1.725   6.210   3.831  0.5967  0.1148  1.7455
  390TIP3    H222586   1.679   6.128   3.950 -2.1295  0.3772  0.9421
  391TIP3   OH222587   0.816   4.110   5.096  0.1074  0.7796 -0.2749
  391TIP3    H122588   0.819   4.179   5.030  2.4180  0.8384 -0.2015
  391TIP3    H222589   0.896   4.060   5.081 -1.0146 -1.2980  0.3172
  392TIP3   OH222590   1.707   0.227   1.055 -0.0637 -0.0860 -0.2070
  392TIP3    H122591   1.739   0.315   1.079 -0.2075  0.3802 -1.6418
  392TIP3    H222592   1.764   0.167   1.103  1.9179  0.7584 -1.3917
  393TIP3   OH222593   2.360   0.534  15.551 -0.0294  0.6369  0.4876
  393TIP3    H122594   2.424   0.469  15.520 -0.8200  0.2966 -0.4941
  393TIP3    H222595   2.277   0.486  15.553 -0.3682  1.2262  1.2131
  394TIP3   OH222596   0.285   6.443   0.047 -0.0479 -0.0264  0.2189
  394TIP3    H122597   0.275   6.371  -0.016 -0.0500  0.1145  0.0563
  394TIP3    H222598   0.377   6.442   0.072 -0.0519 -0.0970  0.2297
  395TIP3   OH222599   2.767   2.745  16.944 -0.3494 -0.4583 -0.5136
  395TIP3    H122600   2.825   2.800  16.997 -1.3581 -0.4379  0.5943
  395TIP3    H222601   2.801   2.755  16.855  1.0310 -0.0418  0.0271
  396TIP3   OH222602   3.891   1.121   4.581  0.5990  0.4849  0.2493
  396TIP3    H122603   3.861   1.153   4.666 -0.1191  0.8519 -0.1265
  396TIP3    H222604   3.986   1.117   4.589  0.5260  0.3375  1.1268
  397TIP3   OH222605   4.695   5.098   1.248 -0.1761  0.0854 -0.4528
  397TIP3    H122606   4.699   5.190   1.223  1.8864  0.1637  0.0020
  397TIP3    H222607   4.745   5.052   1.180  1.0434 -0.3298  0.6697
  398TIP3   OH222608   1.538   1.003  11.452  0.1915 -0.3568  0.0637
  398TIP3    H122609   1.577   0.990  11.366  0.3542  1.3822 -0.1482
  398TIP3    H222610   1.612   1.002  11.513  0.4298  1.3253 -0.1608
  399TIP3   OH222611   0.953   0.182  15.787 -0.2319  0.0517  0.1930
  399TIP3    H122612   0.981   0.128  15.861  1.2464  0.3458 -0.1377
  399TIP3    H222613   1.019   0.167  15.719 -0.1912  1.7052 -0.1771
  400TIP3   OH222614   4.599   0.485  16.506  0.3491  0.3460  0.3749
  400TIP3    H122615   4.553   0.415  16.553  0.8006  0.1348  0.5175
  400TIP3    H222616   4.553   0.565  16.531  1.4509  0.4351  2.3859
  401TIP3   OH222617   6.459   3.044  11.977  0.4724  0.4210 -0.4305
  401TIP3    H122618   6.551   3.038  11.952  0.4707 -0.0110 -0.3253
  401TIP3    H222619   6.454   3.124  12.030  0.7594  0.5147 -0.5422
  402TIP3   OH222620   5.303   1.788   5.958 -0.0890  0.1563 -0.5639
  402TIP3    H122621   5.235   1.855   5.965 -1.6216 -1.3510 -0.3279
  402TIP3    H222622   5.356   1.800   6.037 -1.3628  0.0493  0.3399
  403TIP3   OH222623   5.612   6.636  12.473 -0.6190 -0.0125  0.1049
  403TIP3    H122624   5.620   6.607  12.563 -0.9208 -1.9604 -0.4483
  403TIP3    H222625   5.523   6.668  12.465 -0.9173 -0.7856  0.2654
  404TIP3   OH222626   5.267   6.153   2.147  0.1817 -0.3052  0.1110
  404TIP3    H122627   5.187   6.182   2.102  0.9947  0.9518 -0.5534
  404TIP3    H222628   5.246   6.161   2.240 -0.4170  0.1662 -0.0559
  405TIP3   OH222629   5.273   6.645   5.515 -0.6236  0.1077 -0.4665
  405TIP3    H122630   5.284   6.579   5.584  0.5408 -0.9934 -1.6630
  405TIP3    H222631   5.319   6.722   5.549  0.2907 -0.5458 -0.1648
  406TIP3   OH222632   4.300   0.215   1.005 -0.5873  0.1122 -0.0847
  406TIP3    H122633   4.377   0.255   1.047 -1.4134  2.7404 -0.8627
  406TIP3    H222634   4.226   0.247   1.056 -1.3559  0.3685 -1.3313
  407TIP3   OH222635   5.405   0.149   4.226 -0.1944  0.0452 -0.2610
  407TIP3    H122636   5.325   0.096   4.217 -0.1279 -0.2604  0.7782
  407TIP3    H222637   5.476   0.084   4.226 -0.0993  0.1334  0.8420
  408TIP3   OH222638   1.631   5.976   1.661 -0.1456 -0.0840 -0.3172
  408TIP3    H122639   1.650   6.067   1.683  0.3618 -0.6251  1.6865
  408TIP3    H222640   1.615   5.934   1.745 -3.7957 -1.1552 -1.3439
  409TIP3   OH222641   2.915   6.470  10.823 -0.2436 -0.1397  0.2135
  409TIP3    H122642   2.939   6.385  10.785 -0.2038  0.3369 -0.8735
  409TIP3    H222643   2.830   6.491  10.783  1.1120  1.7113 -1.9557
  410TIP3   OH222644   0.939   2.694  13.824  0.0981 -0.0920 -0.3934
  410TIP3    H122645   0.977   2.682  13.911 -1.5290 -0.5678  0.3091
  410TIP3    H222646   0.940   2.788  13.810 -2.1749  0.3018  1.4366
  411TIP3   OH222647   5.650   5.166  12.936 -0.7344  0.2814  0.4884
  411TIP3    H122648   5.585   5.114  12.887  0.4080  0.4419 -1.3149
  411TIP3    H222649   5.614   5.254  12.937  0.5096  1.0042 -2.8907
  412TIP3   OH222650   0.271   2.527  16.972  0.1752  0.0525 -0.2835
  412TIP3    H122651   0.228   2.468  16.910 -0.1044 -1.5505  1.3288
  412TIP3    H222652   0.317   2.590  16.918 -0.3149 -1.0857 -2.1087
  413TIP3   OH222653   2.038   0.254  12.068 -0.5299 -0.0695 -0.7127
  413TIP3    H122654   2.126   0.227  12.040 -0.1663  1.9004 -1.7269
  413TIP3    H222655   2.042   0.254  12.164  0.9315  0.8780 -0.7320
  414TIP3   OH222656   0.383   2.105  13.043 -0.1575  0.0039  0.0854
  414TIP3    H122657   0.332   2.115  12.962  1.1087  1.3179 -0.5908
  414TIP3    H222658   0.388   2.194  13.079 -1.0390 -0.6086  1.8744
  415TIP3   OH222659   1.049   1.501  11.315  0.4621  0.8552  0.5377
  415TIP3    H122660   1.101   1.449  11.254  1.9672  2.3076  0.4986
  415TIP3    H222661   0.998   1.437  11.364  0.6857 -0.4788 -0.8900
  416TIP3   OH222662   0.914   2.165  12.836  0.6288 -0.1275  0.1428
  416TIP3    H122663   0.972   2.224  12.884  1.2093 -0.0971 -0.5934
  416TIP3    H222664   0.863   2.122  12.904  1.6652 -0.3205  0.8199
  417TIP3   OH222665   0.813   0.005  15.096  0.4212  0.1672  0.5440
  417TIP3    H122666   0.882   0.033  15.036  0.6286  0.2035  0.7946
  417TIP3    H222667   0.857  -0.056  15.155 -0.1315 -1.0826 -0.2948
  418TIP3   OH222668   1.920   3.908   0.080 -0.2121  0.3567 -0.3992
  418TIP3    H122669   1.928   3.814   0.092 -0.9879  0.5202  1.7059
  418TIP3    H222670   1.842   3.919   0.025 -0.6041 -0.1996  0.0469
  419TIP3   OH222671   2.581   4.111   3.564 -0.5840  0.6902 -0.4509
  419TIP3    H122672   2.526   4.185   3.536 -1.6666 -0.2799 -0.9842
  419TIP3    H222673   2.647   4.104   3.496 -0.3144  1.3177 -0.2644
  420TIP3   OH222674   3.206   4.592   0.479 -0.3495 -0.3914 -0.0467
  420TIP3    H122675   3.210   4.532   0.553  0.2732 -2.2456 -1.5242
  420TIP3    H222676   3.293   4.631   0.475 -0.4074 -0.2305  0.2314
  421TIP3   OH222677   2.067   5.865  14.941 -0.3849  0.3595 -0.1916
  421TIP3    H122678   2.041   5.938  14.886  0.7466  0.6030 -0.4420
  421TIP3    H222679   2.128   5.904  15.004  1.5915 -0.6208 -1.3932
  422TIP3   OH222680   6.035   4.169  16.352  0.6119 -0.4900  0.0339
  422TIP3    H122681   6.041   4.123  16.269 -0.0806 -0.6976  0.0949
  422TIP3    H222682   5.972   4.239  16.337  1.9854  0.7639 -0.1891
  423TIP3   OH222683   2.231   4.001   3.459 -0.4530 -0.1374 -0.9540
  423TIP3    H122684   2.279   4.023   3.379 -0.6371 -1.2325 -1.3699
  423TIP3    H222685   2.249   4.075   3.518  0.5515  0.1671 -1.6165
  424TIP3   OH222686   4.640   2.258  11.104 -0.4971  0.2078 -0.4195
  424TIP3    H122687   4.643   2.173  11.061 -0.0692  0.7211 -1.4145
  424TIP3    H222688   4.681   2.243  11.190  0.6324 -0.3281 -1.0332
  425TIP3   OH222689   1.023   4.028  16.330  0.1284 -0.4069  0.3887
  425TIP3    H122690   1.086   4.070  16.272  0.1437 -0.3513  0.4447
  425TIP3    H222691   0.942   4.077  16.318  0.2875 -0.0268  0.8438
  426TIP3   OH222692   6.223   0.381  15.827  0.0432  0.4932  0.4086
  426TIP3    H122693   6.278   0.309  15.795  0.5117  1.0894 -0.1640
  426TIP3    H222694   6.211   0.362  15.920  1.0383  0.2254  0.5036
  427TIP3   OH222695   1.958   1.220   0.056 -0.1602 -0.7889  0.4171
  427TIP3    H122696   1.944   1.310   0.084  0.5842 -1.0393  1.6278
  427TIP3    H222697   1.883   1.172   0.090 -0.1068 -0.7928  0.5274
  428TIP3   OH222698   4.845   4.881   3.391 -0.0048 -0.4232  0.2724
  428TIP3    H122699   4.854   4.967   3.350 -0.7923 -1.0437 -1.3213
  428TIP3    H222700   4.904   4.883   3.465 -0.0477  1.5094  0.3061
  429TIP3   OH222701   0.943   5.704  12.907 -0.0691 -0.4999  0.0486
  429TIP3    H122702   0.880   5.634  12.921 -0.0753 -0.4907  0.0665
  429TIP3    H222703   0.900   5.782  12.942 -0.0876 -0.4751 -0.0307
  430TIP3   OH222704   2.232   0.707  13.483 -0.3897 -0.0343 -0.0595
  430TIP3    H122705   2.165   0.710  13.552 -1.3405  1.4899 -0.9835
  430TIP3    H222706   2.293   0.777  13.506 -0.4093  0.1203 -0.4825
  431TIP3   OH222707   5.408   0.161   4.927 -0.3037 -0.0960  0.1606
  431TIP3    H122708   5.323   0.203   4.936  0.2862  2.0533 -2.7734
  431TIP3    H222709   5.401   0.107   4.849  1.0497  0.2240 -0.2173
  432TIP3   OH222710   3.285   5.937  14.726  0.0978  0.1168  0.6347
  432TIP3    H122711   3.203   5.986  14.735  0.1691  0.0666  1.5932
  432TIP3    H222712   3.307   5.946  14.633 -1.3950 -0.5162  0.1785
  433TIP3   OH222713   5.214   1.223   4.867 -0.3234  0.8190 -0.2983
  433TIP3    H122714   5.281   1.290   4.858 -0.7019  1.0694 -1.3925
  433TIP3    H222715   5.165   1.226   4.785 -1.3254  0.2623  0.2516
  434TIP3   OH222716   6.398   2.448  12.271 -0.0142  0.4698  0.0584
  434TIP3    H122717   6.318   2.459  12.321  0.1061  1.6229  0.0400
  434TIP3    H222718   6.369   2.438  12.180 -0.2222 -1.4533  0.2915
  435TIP3   OH222719   6.565   0.231   4.548 -0.2018 -0.0547  0.0221
  435TIP3    H122720   6.583   0.236   4.642 -0.3882  2.9303 -0.0016
  435TIP3    H222721   6.470   0.239   4.542 -0.2348 -0.7298 -0.4157
  436TIP3   OH222722   2.452   3.083  14.912  0.8116  0.4740  0.3722
  436TIP3    H122723   2.530   3.049  14.957  1.8197  2.1636  0.0001
  436TIP3    H222724   2.429   3.162  14.960 -0.2107  0.4271 -0.0157
  437TIP3   OH222725   6.167   2.909  12.075 -0.3543  0.5326  0.4680
  437TIP3    H122726   6.243   2.958  12.046 -0.4945  1.8843  2.2291
  437TIP3    H222727   6.201   2.820  12.091  0.0595  0.1796 -2.0082
  438TIP3   OH222728   5.876   0.174  13.914  0.0010 -0.2279  0.1883
  438TIP3    H122729   5.936   0.244  13.885 -0.3886 -0.0244 -0.1333
  438TIP3    H222730   5.930   0.119  13.971  0.3382  0.2863  0.3746
  439TIP3   OH222731   2.376   3.090   2.587  0.5857 -0.3044  0.8354
  439TIP3    H122732   2.371   3.185   2.582 -1.9463 -0.4288 -2.3844
  439TIP3    H222733   2.412   3.064   2.502 -1.4651 -2.2579  0.4900
  440TIP3   OH222734   6.229   2.223   5.356  0.0187 -0.2561 -0.0967
  440TIP3    H122735   6.269   2.158   5.298 -1.9951 -0.8361 -0.9209
  440TIP3    H222736   6.256   2.307   5.321  2.5098 -0.5765  0.8625
  441TIP3   OH222737   0.012   0.122  13.971  0.5112  0.2503  0.2367
  441TIP3    H122738  -0.081   0.133  13.992  0.2913  1.6410 -1.2438
  441TIP3    H222739   0.029   0.188  13.903  2.2754 -0.8222 -0.4253
  442TIP3   OH222740   5.581   0.146  11.088 -0.1720  0.1610 -0.4409
  442TIP3    H122741   5.508   0.102  11.131 -0.1864  1.4287  0.9118
  442TIP3    H222742   5.549   0.234  11.070  0.8745  0.6139 -0.1776
  443TIP3   OH222743   5.509   1.786   4.407 -0.0911 -0.2658 -0.1126
  443TIP3    H122744   5.581   1.848   4.394  1.4569 -2.0917 -0.7033
  443TIP3    H222745   5.550   1.710   4.449 -1.7896 -1.1680  0.0103
  444TIP3   OH222746   2.301   2.198  12.197  0.0088  0.3795 -0.3942
  444TIP3    H122747   2.307   2.275  12.141  1.5026 -0.2819 -1.1944
  444TIP3    H222748   2.251   2.135  12.146 -0.4626  0.5096 -0.0979
  445TIP3   OH222749   6.417   5.313   1.523 -0.2102 -0.6150 -0.1573
  445TIP3    H122750   6.468   5.345   1.449 -0.7952 -2.2207 -1.3202
  445TIP3    H222751   6.405   5.390   1.579  1.5333  0.2965 -0.9618
  446TIP3   OH222752   6.709   0.741   0.200 -0.3828  0.0833  0.1267
  446TIP3    H122753   6.642   0.794   0.156 -1.6602 -0.2195  1.6200
  446TIP3    H222754   6.682   0.651   0.185 -0.5486 -0.0336  1.0533
  447TIP3   OH222755   1.007   6.644  13.133  0.0414 -0.0987  0.3882
  447TIP3    H122756   0.930   6.671  13.084 -0.8264 -3.0058 -0.0710
  447TIP3    H222757   0.972   6.602  13.212  1.2598  0.6243  1.3585
  448TIP3   OH222758   5.818   6.419  12.015 -0.1513  0.1739  0.0903
  448TIP3    H122759   5.860   6.338  12.044 -0.1234  0.9726  2.4601
  448TIP3    H222760   5.885   6.464  11.964  1.0209  0.2325  1.6317
  449TIP3   OH222761   5.883   3.704  13.248 -0.4177  0.0133  0.1929
  449TIP3    H122762   5.886   3.639  13.177  1.0499 -0.2703  0.4699
  449TIP3    H222763   5.974   3.730  13.260 -0.8866  1.5421  0.6492
  450TIP3   OH222764   2.856   2.021  11.998 -0.4399  0.0779  0.2969
  450TIP3    H122765   2.943   2.053  11.972 -0.0424 -0.7511  0.5731
  450TIP3    H222766   2.832   2.077  12.073  0.7894 -1.0229  1.5663
  451TIP3   OH222767   2.872   3.630   3.754 -0.0837 -0.3007 -0.0290
  451TIP3    H122768   2.955   3.582   3.759  0.8426  1.2446  0.0308
  451TIP3    H222769   2.876   3.692   3.827 -0.9136  0.3868 -0.5491
  452TIP3   OH222770   3.083   1.138  12.392 -0.7875  0.0047 -0.7676
  452TIP3    H122771   3.048   1.070  12.334 -1.7721  1.4194 -1.9141
  452TIP3    H222772   3.062   1.108  12.480  0.7157 -2.1844 -1.0766
  453TIP3   OH222773   0.267   2.497   2.515 -0.0001  0.1993  0.5807
  453TIP3    H122774   0.177   2.471   2.494 -0.2224 -0.6470  2.3728
  453TIP3    H222775   0.303   2.422   2.562  1.9661  0.1823 -0.8618
  454TIP3   OH222776   3.292   0.456  13.617 -0.0015  0.4682 -0.1567
  454TIP3    H122777   3.307   0.400  13.693 -0.1407  2.4144  1.3891
  454TIP3    H222778   3.345   0.534  13.633  1.2230  0.3028 -2.8620
  455TIP3   OH222779   4.411   1.306  14.446 -0.4090 -0.2937 -0.4765
  455TIP3    H122780   4.395   1.301  14.540  1.5815  1.0217 -0.0160
  455TIP3    H222781   4.341   1.362  14.412  0.2180  1.2395  0.6417
  456TIP3   OH222782   0.594   3.035   0.775  0.0215 -0.1283 -0.1881
  456TIP3    H122783   0.615   3.048   0.868  0.2452  0.1762 -0.2802
  456TIP3    H222784   0.672   3.066   0.728  0.2232 -0.9912 -0.4538
  457TIP3   OH222785   4.334   4.553  14.147 -0.0627  0.3908 -0.3880
  457TIP3    H122786   4.421   4.592  14.153  0.4711 -0.6506 -1.1823
  457TIP3    H222787   4.310   4.561  14.055 -0.2279 -0.5127 -0.4361
  458TIP3   OH222788   1.693   2.734   0.163  0.0316 -0.1702 -0.0290
  458TIP3    H122789   1.682   2.762   0.254  1.1309  0.5479 -0.0925
  458TIP3    H222790   1.610   2.693   0.140 -0.8449  1.0853  0.7832
  459TIP3   OH222791   4.016   2.547  12.484  0.0465  0.0676  0.1917
  459TIP3    H122792   4.048   2.509  12.566  1.1136  0.7841  0.1246
  459TIP3    H222793   3.929   2.508  12.472  0.0980 -0.4563  1.3804
  460TIP3   OH222794   5.957   6.652  11.283  0.2035  0.5590 -0.5296
  460TIP3    H122795   6.046   6.684  11.270 -0.4327  2.6275 -0.1468
  460TIP3    H222796   5.906   6.694  11.214 -0.6056  0.0068 -0.2764
  461TIP3   OH222797   4.814   0.707  17.140 -0.7268  0.0088 -0.4426
  461TIP3    H122798   4.892   0.748  17.102  0.1843 -1.2088  0.0199
  461TIP3    H222799   4.742   0.766  17.118 -0.4158 -0.8149 -4.5211
  462TIP3   OH222800   2.345   2.311  16.000  0.0301  0.0662 -0.1717
  462TIP3    H122801   2.339   2.296  16.094 -0.0263  1.0132 -0.0207
  462TIP3    H222802   2.375   2.227  15.965  1.5790  0.1349  0.8660
  463TIP3   OH222803   4.620   5.912   4.145  0.2938 -0.0729  0.4676
  463TIP3    H122804   4.654   5.870   4.224  1.6255  0.8572  0.4257
  463TIP3    H222805   4.698   5.945   4.100 -0.3803 -1.1219 -1.5780
  464TIP3   OH222806   5.875   3.412  16.915 -0.6298 -0.0840 -0.4443
  464TIP3    H122807   5.791   3.374  16.942  0.0673 -1.7860 -0.5302
  464TIP3    H222808   5.883   3.492  16.967 -1.1573 -1.2012  1.4690
  465TIP3   OH222809   5.376   5.750  15.133  0.1535 -0.5340  1.0268
  465TIP3    H122810   5.454   5.738  15.079 -0.1738  0.0154  0.4134
  465TIP3    H222811   5.314   5.685  15.099  0.7173 -1.7979  2.2933
  466TIP3   OH222812   0.548   5.633  15.399 -0.1948  0.1773  0.2786
  466TIP3    H122813   0.476   5.622  15.462  0.4715 -2.3307  0.7014
  466TIP3    H222814   0.580   5.544  15.383 -0.1508  0.6994 -3.4467
  467TIP3   OH222815   5.443   1.217   2.793  0.1370  0.3146 -0.3588
  467TIP3    H122816   5.523   1.227   2.740  1.0200  0.2100  0.9233
  467TIP3    H222817   5.377   1.266   2.745  1.2140  1.2490 -0.9371
  468TIP3   OH222818   1.077   1.933  13.726 -0.6230 -0.1017 -0.2421
  468TIP3    H122819   1.123   2.001  13.776  0.4974 -1.1476  0.2090
  468TIP3    H222820   1.035   1.980  13.654  1.1024  0.9373 -0.6418
  469TIP3   OH222821   4.712   5.505   5.151  0.4791 -0.0776  0.3680
  469TIP3    H122822   4.618   5.521   5.153  0.3584 -0.5077 -1.0068
  469TIP3    H222823   4.748   5.582   5.107  0.5357 -0.7861 -0.8789
  470TIP3   OH222824   1.564   5.582   5.245  0.3891  0.1429 -0.0393
  470TIP3    H122825   1.491   5.644   5.241  0.1458 -0.1827 -2.4302
  470TIP3    H222826   1.631   5.627   5.296 -1.2659  0.6539  1.8058
  471TIP3   OH222827   5.238   6.302   1.887  0.3118  0.1017 -0.1809
  471TIP3    H122828   5.187   6.325   1.965 -1.0231  0.8429 -1.2339
  471TIP3    H222829   5.238   6.206   1.885 -0.6683  0.0882  0.0834
  472TIP3   OH222830   6.273   0.613  16.585  0.6176  0.5408  0.2924
  472TIP3    H122831   6.329   0.642  16.656 -0.0879 -1.0512  1.5532
  472TIP3    H222832   6.232   0.693  16.553  2.9206  1.6402 -0.1389
  473TIP3   OH222833   4.743   2.044   0.644  0.2177  0.7158  0.4379
  473TIP3    H122834   4.768   2.076   0.730  0.5049  1.4021  0.1084
  473TIP3    H222835   4.660   1.998   0.658 -0.1294  1.4802  0.9609
  474TIP3   OH222836   0.904   5.006   2.498 -0.0488 -0.6176  0.5620
  474TIP3    H122837   0.923   5.095   2.528 -0.1765  0.3558 -1.9838
  474TIP3    H222838   0.810   5.007   2.480  0.3711 -0.4118 -1.8918
  475TIP3   OH222839   1.855   3.436  13.451 -0.5271  0.2256 -0.4099
  475TIP3    H122840   1.868   3.386  13.532 -1.9552 -0.8545 -0.8055
  475TIP3    H222841   1.780   3.493  13.469  1.1097  2.3589  0.0467
  476TIP3   OH222842   4.402   0.395  11.748  0.1633  0.6248 -0.5397
  476TIP3    H122843   4.471   0.336  11.780  2.0615  3.0315  0.1479
  476TIP3    H222844   4.327   0.376  11.803  1.1050 -0.3430  0.4643
  477TIP3   OH222845   0.138   0.369   1.804 -0.0284  0.1742 -0.0785
  477TIP3    H122846   0.167   0.345   1.892 -2.0738  0.5314  0.7650
  477TIP3    H222847   0.101   0.289   1.768  1.1694 -0.0736 -0.8106
  478TIP3   OH222848   3.890   1.219   1.860 -0.1566  0.2476  0.3405
  478TIP3    H122849   3.804   1.260   1.853 -0.5841 -0.4458  1.2343
  478TIP3    H222850   3.946   1.286   1.899 -0.3078  0.6769 -0.1743
  479TIP3   OH222851   3.713   6.618  12.893 -0.2049  0.0836 -0.3534
  479TIP3    H122852   3.693   6.706  12.924  0.5401 -0.2134  1.0329
  479TIP3    H222853   3.808   6.610  12.901 -0.2920 -0.9509 -0.1484
  480TIP3   OH222854   4.231   6.642  12.662 -0.0977 -0.4462  0.2069
  480TIP3    H122855   4.301   6.707  12.658 -0.5101  0.0171  0.4019
  480TIP3    H222856   4.152   6.693  12.681 -0.6976 -0.8133 -1.1671
  481TIP3   OH222857   4.025   4.408  12.887  0.1611 -0.4915 -0.2800
  481TIP3    H122858   4.070   4.334  12.928  0.6107  0.3832  0.8859
  481TIP3    H222859   4.072   4.485  12.920 -2.0235  0.4568  0.8158
  482TIP3   OH222860   5.793   4.957   3.388 -0.4681  0.1044 -0.0081
  482TIP3    H122861   5.887   4.972   3.389 -0.1588 -1.3958 -1.4200
  482TIP3    H222862   5.758   5.026   3.332  0.1155 -0.6072 -1.3057
  483TIP3   OH222863   0.986   4.688   3.923  0.2371 -0.1722  0.5331
  483TIP3    H122864   0.994   4.651   4.011  0.9707  0.0559  0.5689
  483TIP3    H222865   0.970   4.613   3.866 -0.8699 -0.2559  0.9347
  484TIP3   OH222866   4.032   5.560  16.728  0.1812 -0.0954  0.3290
  484TIP3    H122867   4.008   5.643  16.769 -0.5395  0.5333 -1.3007
  484TIP3    H222868   4.078   5.584  16.648 -0.4998 -1.2319 -0.4371
  485TIP3   OH222869   4.477   6.756   5.839 -0.0170  0.2831 -0.3931
  485TIP3    H122870   4.541   6.712   5.895 -0.1533  0.1844 -0.3143
  485TIP3    H222871   4.398   6.763   5.893 -0.8100 -1.6358 -1.2153
  486TIP3   OH222872   2.389   1.760   5.437  0.1852  0.1790 -0.2291
  486TIP3    H122873   2.442   1.756   5.517  0.9153 -2.4383 -0.7524
  486TIP3    H222874   2.425   1.835   5.389  1.1766  0.4815  0.9155
  487TIP3   OH222875   1.257   2.906  12.530  0.0307  0.5256  0.0952
  487TIP3    H122876   1.246   2.810  12.529 -0.7932  0.5924 -2.0074
  487TIP3    H222877   1.195   2.936  12.597  1.7901 -0.4777  2.3304
  488TIP3   OH222878   3.415   1.254   2.216 -0.1339 -0.3530  0.1607
  488TIP3    H122879   3.465   1.174   2.207 -2.6171 -1.9933 -0.0087
  488TIP3    H222880   3.407   1.288   2.127 -0.5126 -0.8649 -0.0033
  489TIP3   OH222881   0.515   6.183  14.792 -0.2435  0.2330 -0.1528
  489TIP3    H122882   0.588   6.134  14.754  0.3683  0.2610  0.9293
  489TIP3    H222883   0.455   6.116  14.824 -0.0580  0.1971  0.1229
  490TIP3   OH222884   4.483   1.291   2.905  0.3841  0.8544  0.3310
  490TIP3    H122885   4.461   1.256   2.819 -0.0209  1.2943  0.2507
  490TIP3    H222886   4.545   1.228   2.942 -1.6407 -0.8919  0.9141
  491TIP3   OH222887   0.998   6.171  11.737 -0.0947 -0.1244  0.0354
  491TIP3    H122888   0.990   6.250  11.791  3.0497  0.3820 -0.0759
  491TIP3    H222889   0.947   6.192  11.659 -2.4064  0.2358  1.5253
  492TIP3   OH222890   4.100   1.247   0.275  0.5862  0.0993  0.1549
  492TIP3    H122891   4.012   1.209   0.265  0.8750 -0.7104  0.5554
  492TIP3    H222892   4.149   1.214   0.199  0.7742 -0.1532  0.3819
  493TIP3   OH222893   3.707   4.884   4.966 -0.1770  0.5663 -0.0663
  493TIP3    H122894   3.679   4.900   5.056 -0.4470  3.5365 -0.5611
  493TIP3    H222895   3.789   4.836   4.975 -0.3408  0.5457  1.7535
  494TIP3   OH222896   2.759   6.185   2.254  0.2427  0.4009  0.0214
  494TIP3    H122897   2.727   6.113   2.309 -0.8231  0.0483 -1.0147
  494TIP3    H222898   2.750   6.152   2.165 -0.2486  1.8199 -0.4696
  495TIP3   OH222899   0.389   6.564  10.522 -0.7370 -1.0250  0.1647
  495TIP3    H122900   0.437   6.533  10.446 -1.8850 -0.2959 -0.9037
  495TIP3    H222901   0.372   6.657  10.503 -0.4292 -0.6414  1.6421
  496TIP3   OH222902   3.855   4.250   2.233  0.9492  0.1741  0.1888
  496TIP3    H122903   3.760   4.246   2.222  0.8606 -0.4082  1.0862
  496TIP3    H222904   3.886   4.295   2.154  0.1198 -1.4047 -1.0832
  497TIP3   OH222905   0.774   4.130  16.361 -0.0738 -0.5580 -0.8421
  497TIP3    H122906   0.710   4.078  16.313 -0.0120 -1.1021 -0.3582
  497TIP3    H222907   0.730   4.152  16.443 -1.7712  3.8924 -2.6631
  498TIP3   OH222908   1.053   2.541  15.232 -0.2815  0.4110  0.3061
  498TIP3    H122909   1.130   2.497  15.268  0.6781  0.7033 -1.2892
  498TIP3    H222910   1.086   2.627  15.203 -0.7755 -0.0941 -1.9295
  499TIP3   OH222911   2.749   3.459  13.005  0.1178 -0.0094  0.3509
  499TIP3    H122912   2.779   3.465  12.914  0.2815  1.9260  0.4786
  499TIP3    H222913   2.829   3.446  13.055 -0.0736 -2.1462  0.1862
  500TIP3   OH222914   6.656   2.081  13.235  0.0930  0.2107 -0.9514
  500TIP3    H122915   6.614   2.159  13.272  2.1808  1.2394 -0.6527
  500TIP3    H222916   6.700   2.113  13.156  0.9419 -0.6847 -0.8559
  501TIP3   OH222917   2.653   2.422   5.423 -0.4702 -0.0845  0.0734
  501TIP3    H122918   2.695   2.488   5.478 -1.2062  0.7656 -0.3604
  501TIP3    H222919   2.658   2.457   5.334  0.8794 -1.5298 -0.4635
  502TIP3   OH222920   1.931   1.417  14.868 -0.3323  0.1793  0.7423
  502TIP3    H122921   1.857   1.397  14.926  0.2804 -0.6774  1.2583
  502TIP3    H222922   2.006   1.376  14.912  0.1759 -0.3298 -0.5688
  503TIP3   OH222923   4.207   0.651   6.146  0.0652 -0.4250 -0.2077
  503TIP3    H122924   4.126   0.603   6.163 -0.3397  0.4885  0.5918
  503TIP3    H222925   4.276   0.585   6.150 -0.5604 -1.0727 -0.0112
  504TIP3   OH222926   4.448   2.953  17.055  0.3340  0.2680  0.2597
  504TIP3    H122927   4.486   2.950  17.142 -0.2996  1.1607  0.5840
  504TIP3    H222928   4.475   3.038  17.020 -2.4348  1.6011  1.0449
  505TIP3   OH222929   4.290   2.989   0.378  0.3794 -0.7014 -0.5836
  505TIP3    H122930   4.376   3.015   0.345  0.8652 -1.3640  0.1133
  505TIP3    H222931   4.230   3.055   0.344  1.5107  1.2362  0.9436
  506TIP3   OH222932   3.467   0.917  14.998  0.1380  0.0117  0.0245
  506TIP3    H122933   3.385   0.918  14.949  0.6898 -0.8577 -0.9715
  506TIP3    H222934   3.533   0.891  14.933  1.0474 -0.2654  1.0307
  507TIP3   OH222935   3.871   1.663   5.723  0.0616 -0.3935  0.9405
  507TIP3    H122936   3.837   1.612   5.650  0.1351  1.8711 -0.8033
  507TIP3    H222937   3.944   1.713   5.685  0.4868  0.4213  2.7278
  508TIP3   OH222938   5.320   5.496   1.871 -0.3187  0.3071 -0.0269
  508TIP3    H122939   5.339   5.426   1.808  0.8898  0.2773  0.3461
  508TIP3    H222940   5.255   5.550   1.827 -0.1050 -0.1722 -0.9771
  509TIP3   OH222941   3.744   1.015   0.542  0.0769  0.8040  0.0318
  509TIP3    H122942   3.784   0.997   0.456 -1.6138 -0.5310 -0.5400
  509TIP3    H222943   3.800   1.082   0.581  2.6158 -0.6570 -0.8531
  510TIP3   OH222944   5.144   1.660  17.125 -0.3988  0.5287 -0.3148
  510TIP3    H122945   5.108   1.610  17.198  2.7422 -1.3390  0.1526
  510TIP3    H222946   5.102   1.622  17.047  1.1708 -2.3710  0.1090
  511TIP3   OH222947   6.211   5.294  16.563 -0.7356  0.6073  0.7341
  511TIP3    H122948   6.122   5.261  16.546 -0.6845  0.1105  1.3725
  511TIP3    H222949   6.239   5.246  16.642  0.2445  0.4787  0.3199
  512TIP3   OH222950   6.641   1.782   4.747 -0.1034  0.5033 -0.1463
  512TIP3    H122951   6.628   1.757   4.655  0.7955  1.9563 -0.6996
  512TIP3    H222952   6.731   1.757   4.766 -0.4233 -0.1997  0.5026
  513TIP3   OH222953   6.080   5.871  13.492 -0.0677  0.0885 -0.2515
  513TIP3    H122954   6.032   5.953  13.479  0.5981  0.3251 -1.2861
  513TIP3    H222955   6.106   5.844  13.404 -1.0276 -1.7014 -0.0443
  514TIP3   OH222956   3.639   0.777  13.459 -0.5281  0.1583 -0.3071
  514TIP3    H122957   3.607   0.867  13.463 -1.4399 -0.1834  0.3149
  514TIP3    H222958   3.568   0.727  13.420 -0.5059 -0.4949  0.4458
  515TIP3   OH222959   4.029   0.018  15.579 -0.4241 -0.1238  0.0806
  515TIP3    H122960   3.988  -0.055  15.626  1.1359 -0.1909  1.4374
  515TIP3    H222961   3.956   0.074  15.552 -1.5085 -1.1552  0.7632
  516TIP3   OH222962   0.873   3.161  17.079 -0.7267  0.0240 -0.2888
  516TIP3    H122963   0.899   3.252  17.067 -0.2010 -0.3423 -2.2807
  516TIP3    H222964   0.937   3.111  17.028 -0.5813 -1.5366  1.3267
  517TIP3   OH222965   0.725   3.638  11.479  0.2676 -0.3786  0.9447
  517TIP3    H122966   0.773   3.719  11.495  0.2937 -0.2762  0.3728
  517TIP3    H222967   0.789   3.581  11.436  0.1559 -0.5856  1.0508
  518TIP3   OH222968   5.871   2.736  11.583  0.1157 -0.3791 -0.5685
  518TIP3    H122969   5.911   2.798  11.522 -0.5043  1.3098  0.6620
  518TIP3    H222970   5.916   2.752  11.666  0.5782 -2.2563 -0.4088
  519TIP3   OH222971   1.910   5.202  14.180 -0.1150 -0.9726 -0.0261
  519TIP3    H122972   1.978   5.152  14.226  0.1928  0.0354  0.6498
  519TIP3    H222973   1.828   5.159  14.204  0.0652 -0.6232  1.2816
  520TIP3   OH222974   0.511   3.311   5.332 -0.3492 -0.5846  0.2334
  520TIP3    H122975   0.473   3.397   5.349 -0.7045 -0.4606 -1.0605
  520TIP3    H222976   0.593   3.331   5.285 -0.3865 -0.9480  0.0122
  521TIP3   OH222977   5.110   4.715  14.961  0.0996 -0.5511 -0.1675
  521TIP3    H122978   5.161   4.706  14.881  1.3751 -0.2252  0.5729
  521TIP3    H222979   5.024   4.744  14.932  0.5498 -0.4248 -1.4168
  522TIP3   OH222980   6.584   1.394  16.845  0.6362 -0.0888 -0.5888
  522TIP3    H122981   6.601   1.367  16.755 -2.0314 -1.7366 -0.7064
  522TIP3    H222982   6.569   1.488  16.839  0.5270 -0.1672 -1.8846
  523TIP3   OH222983   1.361   0.722  15.623  0.0636 -0.1782 -0.2197
  523TIP3    H122984   1.303   0.661  15.577 -0.7531 -0.2409  0.8667
  523TIP3    H222985   1.433   0.668  15.655 -0.4235 -0.4910  0.3461
  524TIP3   OH222986   0.591   3.631   3.742  0.2892 -0.2883  0.1708
  524TIP3    H122987   0.552   3.717   3.728 -2.5083 -1.3567  0.8204
  524TIP3    H222988   0.631   3.609   3.658 -0.8365  0.7500 -0.6717
  525TIP3   OH222989   6.555   1.928   3.822  0.2243 -0.4919 -0.0126
  525TIP3    H122990   6.507   1.952   3.743 -2.3788  0.5826  1.7480
  525TIP3    H222991   6.628   1.990   3.827  0.7853 -0.9578 -1.8018
  526TIP3   OH222992   3.798   6.159  15.327  0.3253  0.5298 -0.0171
  526TIP3    H122993   3.876   6.142  15.274 -0.0761  0.5223 -0.6148
  526TIP3    H222994   3.777   6.075  15.367  0.3615  0.4260 -0.2149
  527TIP3   OH222995   2.023   3.904  16.451  0.0710 -0.1525 -0.2389
  527TIP3    H122996   2.037   3.861  16.366  1.2309 -0.4715  0.1030
  527TIP3    H222997   1.983   3.837  16.506  2.0187 -0.9124  0.3423
  528TIP3   OH222998   3.525   5.053  11.483 -0.0955  0.9382 -0.3451
  528TIP3    H122999   3.565   5.115  11.544 -0.3262  1.6947 -0.9456
  528TIP3    H223000   3.589   5.044  11.412 -0.3703  1.0481 -0.6089
  529TIP3   OH223001   2.730   1.704  12.881 -0.4697  0.4551 -0.2504
  529TIP3    H123002   2.655   1.699  12.821  0.1605 -0.1372 -1.0010
  529TIP3    H223003   2.775   1.620  12.871  0.6116  1.0119 -0.2332
  530TIP3   OH223004   1.787   6.194   6.442 -0.4658  0.0655  0.0226
  530TIP3    H123005   1.808   6.133   6.372  1.1523  1.4005 -0.7278
  530TIP3    H223006   1.807   6.148   6.523  1.0091 -0.3067 -0.5412
  531TIP3   OH223007   1.007   1.270   2.764  0.2029  0.1456 -0.5591
  531TIP3    H123008   0.927   1.288   2.714  2.4870  2.1963 -3.9252
  531TIP3    H223009   1.028   1.178   2.744  0.0323  0.3727 -1.8499
  532TIP3   OH223010   4.858   4.109   2.186 -0.3890 -0.2402 -0.2455
  532TIP3    H123011   4.772   4.079   2.156 -0.5187  0.9524 -1.1589
  532TIP3    H223012   4.902   4.138   2.106  0.3881  0.3392  0.3749
  533TIP3   OH223013   2.184   6.205   4.486 -0.1935 -0.0043 -0.1730
  533TIP3    H123014   2.200   6.293   4.521  1.2881  0.0599 -0.9196
  533TIP3    H223015   2.222   6.146   4.550  0.5922  0.0074 -0.6213
  534TIP3   OH223016   4.027   5.483   3.914  0.7230 -0.3188 -0.0893
  534TIP3    H123017   4.023   5.390   3.933  0.9067  0.2862  3.7535
  534TIP3    H223018   4.112   5.511   3.950  0.5965  1.3711 -0.9875
  535TIP3   OH223019   3.390   5.372   2.393 -0.3045  0.4882 -0.0694
  535TIP3    H123020   3.484   5.382   2.378  0.9095 -3.1274  3.1880
  535TIP3    H223021   3.373   5.425   2.471 -1.4030  2.1432 -1.3569
  536TIP3   OH223022   0.696   0.237   3.347 -0.2383 -0.0285 -0.4010
  536TIP3    H123023   0.736   0.160   3.389 -0.3867  0.9175  1.5840
  536TIP3    H223024   0.615   0.202   3.308  1.0113 -1.3783 -1.9316
  537TIP3   OH223025   4.698   6.017  11.514 -0.1513  0.2587  0.0857
  537TIP3    H123026   4.611   6.050  11.489 -0.3969  1.2657  2.0821
  537TIP3    H223027   4.701   5.928  11.477 -2.5344 -0.2711  0.9828
  538TIP3   OH223028   2.891   0.914   5.442  0.0309 -0.5357  0.0153
  538TIP3    H123029   2.956   0.983   5.456 -0.7286  0.1872  0.1208
  538TIP3    H223030   2.818   0.959   5.399 -0.7306 -1.1420  0.6444
  539TIP3   OH223031   0.165   3.158  17.082  0.0070  0.2201  0.1567
  539TIP3    H123032   0.227   3.088  17.103 -1.4020 -2.0198 -2.5050
  539TIP3    H223033   0.085   3.135  17.129 -0.0448  0.9027  0.4227
  540TIP3   OH223034   4.764   4.204   1.603  0.7192 -0.3279  0.6225
  540TIP3    H123035   4.837   4.144   1.619 -0.0434 -1.1175  1.2057
  540TIP3    H223036   4.805   4.291   1.604  1.6689 -0.7581  0.8203
  541TIP3   OH223037   3.683   3.691  15.185 -0.0741 -0.0945  0.1399
  541TIP3    H123038   3.705   3.655  15.099 -0.0278 -1.0973  0.5593
  541TIP3    H223039   3.642   3.619  15.232 -1.0238  0.7270  0.6251
  542TIP3   OH223040   5.854   5.721   3.552 -0.6189  0.0046 -0.1218
  542TIP3    H123041   5.898   5.681   3.478 -1.6223 -1.7713  0.1887
  542TIP3    H223042   5.761   5.703   3.537 -1.1781  2.4562 -0.0630
  543TIP3   OH223043   4.823   4.192  14.620 -0.2323 -0.7696 -0.2464
  543TIP3    H123044   4.858   4.232  14.541 -0.9625  0.9984  0.2770
  543TIP3    H223045   4.810   4.100  14.596  1.4032 -0.7157 -1.5295
  544TIP3   OH223046   1.533   2.962   0.357  0.3661  0.6258 -0.1748
  544TIP3    H123047   1.450   2.956   0.309 -0.1216 -0.5441  0.7635
  544TIP3    H223048   1.597   2.986   0.291  0.0309 -2.5138 -1.8255
  545TIP3   OH223049   1.560   0.362   0.841 -0.0511 -0.4989 -0.1044
  545TIP3    H123050   1.608   0.315   0.909 -1.6042 -1.6264  0.2391
  545TIP3    H223051   1.586   0.320   0.760  0.3069 -0.4233 -0.0342
  546TIP3   OH223052   2.834   5.506  15.075 -0.7780 -0.0049  0.3250
  546TIP3    H123053   2.819   5.472  15.164 -1.5777  0.3780  0.3450
  546TIP3    H223054   2.865   5.430  15.026  0.1666 -0.1107  1.0449
  547TIP3   OH223055   6.264   1.255   0.446  0.4361 -0.1527  0.3367
  547TIP3    H123056   6.326   1.269   0.375 -0.3155  0.4456 -0.2185
  547TIP3    H223057   6.263   1.338   0.494 -0.7599  0.2519 -0.3382
  548TIP3   OH223058   1.947   3.150  14.983 -0.4290 -0.5716  0.1745
  548TIP3    H123059   1.985   3.124  15.067  0.0504  1.5700  0.6870
  548TIP3    H223060   2.020   3.149  14.921  0.3146  2.2292  0.8595
  549TIP3   OH223061   6.787   1.785   2.573 -0.5579  0.1317 -0.4829
  549TIP3    H123062   6.816   1.826   2.655 -0.9545 -3.0372  1.4018
  549TIP3    H223063   6.867   1.747   2.536 -1.0614 -3.2402  1.4901
  550TIP3   OH223064   4.109   5.726  12.849 -0.0991 -0.0675 -0.1292
  550TIP3    H123065   4.030   5.780  12.853  0.0812  0.1533  0.5021
  550TIP3    H223066   4.124   5.698  12.939  0.2725 -0.5091 -0.3222
  551TIP3   OH223067   5.542   1.037  16.317 -0.0854  0.3895 -0.4352
  551TIP3    H123068   5.446   1.037  16.314 -0.0743  0.1085 -1.3379
  551TIP3    H223069   5.563   1.026  16.409 -0.9167  1.8395 -0.0385
  552TIP3   OH223070   0.525   2.680  15.894 -0.6224  0.5814 -0.3003
  552TIP3    H123071   0.581   2.757  15.906 -0.2793 -0.0302  3.4488
  552TIP3    H223072   0.555   2.640  15.813  0.7700  3.1089 -1.1273
  553TIP3   OH223073   2.840   0.810  12.692  0.1387 -0.0822 -0.0880
  553TIP3    H123074   2.752   0.845  12.711  0.0119 -0.2093 -0.4317
  553TIP3    H223075   2.854   0.744  12.760 -0.8456 -1.4511 -1.1425
  554TIP3   OH223076   4.408   1.572  15.726  0.1401 -0.4473 -0.0081
  554TIP3    H123077   4.488   1.624  15.737  0.3921 -0.5997 -0.9680
  554TIP3    H223078   4.430   1.486  15.763  0.7861 -0.8027 -1.1687
  555TIP3   OH223079   5.095   5.055  13.386 -0.7238  0.1321 -0.5347
  555TIP3    H123080   5.090   5.103  13.469 -0.8338  1.5284 -1.3147
  555TIP3    H223081   5.020   4.995  13.388  0.9322 -2.0277  1.6202
  556TIP3   OH223082   0.515   5.600  13.406  0.4178  0.2340 -0.2997
  556TIP3    H123083   0.452   5.530  13.426  0.6889 -0.0890 -0.5685
  556TIP3    H223084   0.587   5.585  13.467  1.3282 -0.8574 -1.5789
  557TIP3   OH223085   2.777   1.982  15.626 -0.3838  0.2805  0.3350
  557TIP3    H123086   2.788   1.994  15.532 -2.1255 -1.4496 -0.1707
  557TIP3    H223087   2.866   1.972  15.660  0.2445  0.3396 -1.2130
  558TIP3   OH223088   4.633   2.459  15.002 -0.2507  0.2202 -0.1030
  558TIP3    H123089   4.625   2.489  15.092 -1.4851  0.5352 -0.2969
  558TIP3    H223090   4.544   2.439  14.975  0.3447 -2.2105 -0.4826
  559TIP3   OH223091   4.333   1.495   1.764  0.7306 -0.0019 -0.2276
  559TIP3    H123092   4.317   1.408   1.728  1.9090  0.1699 -1.2311
  559TIP3    H223093   4.415   1.523   1.724  0.9589  1.1129  0.9582
  560TIP3   OH223094   4.280   5.084   2.865 -0.2986 -0.1040  0.2724
  560TIP3    H123095   4.354   5.071   2.805 -1.9161  0.1483 -1.9013
  560TIP3    H223096   4.258   4.996   2.895 -0.1814 -0.3692 -0.4136
  561TIP3   OH223097   2.848   4.413  11.726 -0.0442  0.2456 -0.1154
  561TIP3    H123098   2.916   4.393  11.663 -0.5759 -4.0121  0.3594
  561TIP3    H223099   2.895   4.437  11.806  0.6637  2.4408 -1.1091
  562TIP3   OH223100   5.957   3.886   5.701  0.1512 -0.1268  0.2630
  562TIP3    H123101   5.908   3.906   5.621  0.7724 -0.4381 -0.2086
  562TIP3    H223102   5.934   3.795   5.721 -0.5952  0.1877  0.8822
  563TIP3   OH223103   1.480   0.566  16.573  0.1243  0.0307  0.0830
  563TIP3    H123104   1.529   0.551  16.493 -0.7406 -0.7357 -0.3230
  563TIP3    H223105   1.402   0.615  16.545  0.4607  0.9436  0.6653
  564TIP3   OH223106   3.594   4.809  11.311 -0.2899  0.0723 -0.2965
  564TIP3    H123107   3.625   4.860  11.385 -1.9529 -1.1474  1.3370
  564TIP3    H223108   3.610   4.864  11.235  0.4064  1.8632  1.0873
  565TIP3   OH223109   5.068   2.115   1.724  0.0516 -0.1853  0.1359
  565TIP3    H123110   5.005   2.088   1.790 -0.5501  0.9463  0.0407
  565TIP3    H223111   5.020   2.174   1.666  0.7645 -0.5672 -0.8899
  566TIP3   OH223112   5.858   0.302   0.224 -0.7822  0.6469  0.0844
  566TIP3    H123113   5.821   0.262   0.303  1.4882 -0.9130  0.4542
  566TIP3    H223114   5.905   0.379   0.256  0.8268 -0.4416  0.4200
  567TIP3   OH223115   4.292   4.253   5.231  0.1347  0.0074  0.4645
  567TIP3    H123116   4.290   4.190   5.159  0.2540  0.9587 -0.3938
  567TIP3    H223117   4.265   4.203   5.308  0.7148 -1.2014 -0.0988
  568TIP3   OH223118   2.908   3.974   3.591 -0.6638  1.0581 -0.8007
  568TIP3    H123119   2.852   3.973   3.668 -0.9177  1.6128 -0.9712
  568TIP3    H223120   2.940   4.065   3.586  1.0107  0.5370 -0.1681
  569TIP3   OH223121   3.446   1.870   0.111  0.6539  0.1379 -0.4511
  569TIP3    H123122   3.524   1.874   0.056  1.2918 -0.7721  0.3530
  569TIP3    H223123   3.478   1.841   0.197 -0.4817  0.3617  0.0728
  570TIP3   OH223124   6.461   5.095   0.697  0.6391 -0.3603 -0.0776
  570TIP3    H123125   6.412   5.140   0.766 -1.1505  1.1507 -2.1787
  570TIP3    H223126   6.423   5.008   0.693  0.3576 -0.2661  0.4560
  571TIP3   OH223127   3.950   3.553  16.736 -0.3386  0.3795  0.3112
  571TIP3    H123128   4.036   3.559  16.778 -0.4056  0.3652  0.4504
  571TIP3    H223129   3.916   3.468  16.762 -0.3090  0.2995  0.0896
  572TIP3   OH223130   4.243   2.589   2.793  0.1656  0.4677  0.2882
  572TIP3    H123131   4.297   2.510   2.795 -0.0077  0.3588  0.9123
  572TIP3    H223132   4.252   2.627   2.880 -1.3759  0.0152  0.6917
  573TIP3   OH223133   6.273   1.503  15.177  0.1156  0.0899  0.1353
  573TIP3    H123134   6.192   1.527  15.221 -0.2131 -0.6542 -0.0563
  573TIP3    H223135   6.306   1.428  15.227  0.4441  0.0983 -0.0685
  574TIP3   OH223136   5.494   3.127   0.821  0.1415 -0.0151  0.6855
  574TIP3    H123137   5.562   3.067   0.791 -1.2232 -2.0617  1.4914
  574TIP3    H223138   5.416   3.103   0.771 -0.3474  1.4025  0.7109
  575TIP3   OH223139   1.234   3.007  13.944  0.1827  0.2311  0.6766
  575TIP3    H123140   1.289   2.964  13.878 -1.3197 -0.4429 -0.1962
  575TIP3    H223141   1.241   2.950  14.021  0.2347 -0.1824  0.3712
  576TIP3   OH223142   1.327   1.889   3.460  0.2477 -0.0912 -0.1786
  576TIP3    H123143   1.404   1.941   3.437 -0.0579  1.1045  1.2944
  576TIP3    H223144   1.268   1.899   3.385  0.6662  0.7667 -0.4185
  577TIP3   OH223145   1.515   3.868   4.615  0.1284 -0.6043 -0.1104
  577TIP3    H123146   1.500   3.950   4.661  1.5501 -1.0074  1.1351
  577TIP3    H223147   1.459   3.874   4.537 -1.9138  0.3541  1.3307
  578TIP3   OH223148   1.615   3.363  11.329 -0.3021 -0.1056 -0.0580
  578TIP3    H123149   1.684   3.429  11.321  0.1208 -0.5857 -0.4230
  578TIP3    H223150   1.599   3.335  11.239 -0.8094 -0.1641  0.0516
  579TIP3   OH223151   5.201   3.172   1.531  0.2699 -0.0220  0.3096
  579TIP3    H123152   5.111   3.201   1.546  0.2091  0.8529 -1.4414
  579TIP3    H223153   5.193   3.080   1.507 -0.1302 -0.0337  0.4752
  580TIP3   OH223154   0.621   2.659  14.673  0.2627 -0.1420  0.2755
  580TIP3    H123155   0.701   2.629  14.716  1.5252  2.5927  0.0367
  580TIP3    H223156   0.648   2.686  14.586 -1.0285  0.2561 -0.0355
  581TIP3   OH223157   2.814   3.509  16.865 -0.7492  0.9520  0.2784
  581TIP3    H123158   2.878   3.571  16.898 -1.1623  0.5994  1.8213
  581TIP3    H223159   2.767   3.557  16.797 -0.3534  1.9650  0.7038
  582TIP3   OH223160   1.647   0.875  17.093 -0.3239  0.5941 -0.3833
  582TIP3    H123161   1.587   0.925  17.149  0.7807  0.7952  0.6679
  582TIP3    H223162   1.721   0.855  17.150  0.2158 -0.3985 -1.4106
  583TIP3   OH223163   6.610   3.606  15.325 -1.1123  0.1659 -0.2887
  583TIP3    H123164   6.599   3.570  15.238 -2.0177 -1.0639  0.3103
  583TIP3    H223165   6.531   3.658  15.341 -0.2842  1.6333 -0.7437
  584TIP3   OH223166   2.607   1.885  11.765  0.9951  0.0856 -0.3701
  584TIP3    H123167   2.575   1.837  11.689 -0.9343  0.4445  0.1476
  584TIP3    H223168   2.596   1.977  11.741  0.3468  0.2005  0.3119
  585TIP3   OH223169   2.746   2.378  14.415  0.0254  0.5081 -0.7973
  585TIP3    H123170   2.650   2.380  14.424  0.1119  1.6276  0.0776
  585TIP3    H223171   2.767   2.286  14.400 -0.9190 -0.3453  2.3480
  586TIP3   OH223172   6.097   0.730   3.768  0.3732 -0.0315 -0.0017
  586TIP3    H123173   6.187   0.698   3.774  0.1278 -0.6217  0.7944
  586TIP3    H223174   6.102   0.805   3.708  0.9781 -1.5438 -1.9667
  587TIP3   OH223175   0.733   2.216   5.649  0.0877  0.4760 -0.0522
  587TIP3    H123176   0.748   2.284   5.583 -1.3601 -0.7728 -1.7649
  587TIP3    H223177   0.653   2.244   5.694 -0.3002  0.1107 -0.5066
  588TIP3   OH223178   2.823   5.805  12.960  0.4575  0.0290 -0.1673
  588TIP3    H123179   2.836   5.713  12.982 -0.8732 -0.3533 -0.9118
  588TIP3    H223180   2.883   5.822  12.888  0.1790 -0.4533 -0.5129
  589TIP3   OH223181   4.127   5.971  10.374  0.4349 -0.0761  0.5392
  589TIP3    H123182   4.195   5.978  10.442  1.5432 -1.1413 -0.4030
  589TIP3    H223183   4.059   5.916  10.415  0.8373 -0.2552  0.9842
  590TIP3   OH223184   3.061   4.069  14.089 -0.3412 -0.7024 -0.9578
  590TIP3    H123185   3.152   4.095  14.101 -0.2156 -1.0014 -1.2436
  590TIP3    H223186   3.010   4.149  14.105 -0.0215 -0.5035 -0.9401
  591TIP3   OH223187   1.431   0.011  12.346 -0.2499  0.0523 -0.2138
  591TIP3    H123188   1.342  -0.023  12.340  0.7963 -2.7685 -1.9138
  591TIP3    H223189   1.470  -0.035  12.420 -0.2452  1.5836  0.7901
  592TIP3   OH223190   5.663   2.215  15.432  0.5284  0.2692 -0.2348
  592TIP3    H123191   5.666   2.258  15.517 -3.4890  0.5213 -0.0345
  592TIP3    H223192   5.668   2.122  15.452 -1.0491  0.3028  0.3828
  593TIP3   OH223193   3.889   1.816   0.217  0.0824 -0.3801  0.5280
  593TIP3    H123194   3.862   1.854   0.133  0.0184  0.5461  0.9508
  593TIP3    H223195   3.813   1.825   0.274 -0.5354 -2.7622  0.1640
  594TIP3   OH223196   4.994   1.802  16.457  0.3648 -0.5322  0.0826
  594TIP3    H123197   4.973   1.875  16.398 -2.3928 -2.4492 -1.5396
  594TIP3    H223198   5.034   1.844  16.534  1.4755  2.3543 -1.9099
  595TIP3   OH223199   1.954   4.856  15.883 -0.0310  0.0862  0.1575
  595TIP3    H123200   1.892   4.816  15.944 -2.1497  2.6855 -0.0856
  595TIP3    H223201   1.905   4.861  15.800  1.0982  0.7802 -0.4822
  596TIP3   OH223202   5.157   6.700   1.370 -0.1745 -0.2790 -0.0007
  596TIP3    H123203   5.162   6.672   1.278  2.3653  0.4987 -0.1721
  596TIP3    H223204   5.226   6.652   1.414 -0.2717  0.5879  1.1597
  597TIP3   OH223205   6.680   4.989  14.946 -0.0832  0.1094  0.0591
  597TIP3    H123206   6.774   4.996  14.962  0.0037 -0.8339  0.0088
  597TIP3    H223207   6.661   5.058  14.882  0.6099  0.1908 -0.0612
  598TIP3   OH223208   3.728   5.757   1.145 -0.2876 -0.0988  0.1464
  598TIP3    H123209   3.692   5.699   1.078  0.2624 -0.4566  0.1623
  598TIP3    H223210   3.764   5.698   1.211  0.5694  0.2573  0.0020
  599TIP3   OH223211   0.128   1.442   0.106  0.0777  0.2016  0.1920
  599TIP3    H123212   0.123   1.521   0.159  0.0469  0.0181  0.4613
  599TIP3    H223213   0.172   1.378   0.161 -0.9608 -0.3380  0.4330
  600TIP3   OH223214   0.139   1.552  12.475 -0.0196 -0.3315  0.0712
  600TIP3    H123215   0.083   1.482  12.441 -1.7306  0.7522  0.5156
  600TIP3    H223216   0.127   1.624  12.413  1.1784 -0.1846 -0.0038
  601TIP3   OH223217   5.092   6.401  11.932  0.4005 -0.6253  0.4832
  601TIP3    H123218   5.036   6.345  11.986 -2.4627 -0.6951 -2.2376
  601TIP3    H223219   5.100   6.354  11.849  3.1970  0.2296  0.1510
  602TIP3   OH223220   2.182   2.098   2.846  0.1138 -1.0733 -0.4807
  602TIP3    H123221   2.146   2.052   2.922  0.2435  3.1472  2.5325
  602TIP3    H223222   2.119   2.167   2.828  2.5674  1.3420 -0.5585
  603TIP3   OH223223   6.777   1.892  16.383  0.3124 -0.3551 -0.3203
  603TIP3    H123224   6.758   1.802  16.353 -1.1875  0.8692 -3.5497
  603TIP3    H223225   6.826   1.931  16.311  0.4188  1.5889  0.7601
  604TIP3   OH223226   3.363   3.198   2.606 -0.1112 -0.1459  0.6931
  604TIP3    H123227   3.288   3.257   2.610 -2.1869 -2.5515  0.2968
  604TIP3    H223228   3.393   3.203   2.516 -0.4231  0.1343  0.6021
  605TIP3   OH223229   0.174   6.262   2.095  0.5018 -0.1278 -0.6065
  605TIP3    H123230   0.194   6.263   2.188  0.2961  0.9163 -0.5641
  605TIP3    H223231   0.216   6.183   2.062  0.8850 -0.3082  0.3041
  606TIP3   OH223232   1.131   5.993  11.341 -0.1811  0.3299 -0.0831
  606TIP3    H123233   1.179   6.071  11.314 -1.3315  0.3901 -2.0868
  606TIP3    H223234   1.042   6.007  11.308 -0.8459 -1.0789  1.0171
  607TIP3   OH223235   3.429   5.846  13.637  0.1927  0.1286  0.2314
  607TIP3    H123236   3.468   5.928  13.666 -0.5460  0.1062  1.3388
  607TIP3    H223237   3.435   5.788  13.713 -0.0372 -0.5805 -0.2764
  608TIP3   OH223238   3.339   1.920   0.794  0.2522  0.1925 -0.3050
  608TIP3    H123239   3.414   1.894   0.741  0.6415  0.4853  0.0926
  608TIP3    H223240   3.285   1.973   0.735  1.6991  2.2857  0.1105
  609TIP3   OH223241   2.856   3.801  11.804  0.0056 -0.0674  0.4350
  609TIP3    H123242   2.868   3.748  11.882  0.6838 -0.3621  0.1424
  609TIP3    H223243   2.768   3.781  11.774  0.6682 -1.9981 -0.3699
  610TIP3   OH223244   6.026   0.107   0.725  0.1817 -0.3082 -0.2769
  610TIP3    H123245   6.054   0.174   0.662  0.5243  0.1170  0.3128
  610TIP3    H223246   5.995   0.156   0.800  0.6439 -0.8108  0.2542
  611TIP3   OH223247   0.162   2.902  13.904  0.0041  0.4940 -0.2186
  611TIP3    H123248   0.191   2.943  13.822 -0.0055 -2.2020 -1.6857
  611TIP3    H223249   0.070   2.929  13.912 -0.6773 -0.9189 -2.3565
  612TIP3   OH223250   5.819   6.116   3.601  0.1869  0.2553  0.0574
  612TIP3    H123251   5.828   6.038   3.656  0.0889 -0.4026 -0.8481
  612TIP3    H223252   5.890   6.109   3.538 -0.7809  0.0602 -1.0386
  613TIP3   OH223253   4.247   1.468  12.805 -0.1645  0.3205  0.3776
  613TIP3    H123254   4.211   1.401  12.746  0.4364  2.0428 -2.1119
  613TIP3    H223255   4.335   1.438  12.825 -0.2353 -0.0923  0.0884
  614TIP3   OH223256   5.148   3.869  16.573  0.4597 -0.0515  0.0439
  614TIP3    H123257   5.216   3.936  16.580  0.2386  0.1165  0.6933
  614TIP3    H223258   5.066   3.919  16.564  0.2979 -0.2235  0.5054
  615TIP3   OH223259   6.371   0.588  14.646 -0.1225  0.1805 -0.0958
  615TIP3    H123260   6.332   0.536  14.717 -1.6033  0.7961 -0.4152
  615TIP3    H223261   6.395   0.523  14.580  2.3687 -0.5342  1.3808
  616TIP3   OH223262   2.220   1.926   2.155  0.2015 -0.1546  0.2740
  616TIP3    H123263   2.290   1.976   2.197  0.2509  0.4490 -0.5117
  616TIP3    H223264   2.266   1.867   2.095  0.0785 -0.3082  0.3310
  617TIP3   OH223265   6.667   1.378  15.344 -0.5159 -0.1422  0.6168
  617TIP3    H123266   6.704   1.291  15.329  1.2788  0.4799  1.2335
  617TIP3    H223267   6.686   1.427  15.263 -1.8091 -0.3834  0.1391
  618TIP3   OH223268   6.053   5.032   6.406  0.2351  0.4070 -0.2068
  618TIP3    H123269   6.073   4.962   6.343 -0.2462  1.5408 -1.6756
  618TIP3    H223270   6.048   4.987   6.491 -3.2741 -1.9848 -1.4460
  619TIP3   OH223271   2.223   1.330  11.175 -0.0976  0.1532 -0.1858
  619TIP3    H123272   2.194   1.379  11.099  2.3840  0.3565 -1.1047
  619TIP3    H223273   2.285   1.388  11.220 -0.7273 -0.3519  1.4186
  620TIP3   OH223274   6.468   4.876  12.740 -0.1622  0.3821 -0.0711
  620TIP3    H123275   6.468   4.944  12.808 -0.3725 -1.3311  1.7494
  620TIP3    H223276   6.558   4.871  12.711 -0.1589  1.4804 -0.2924
  621TIP3   OH223277   5.817   6.308   0.132  0.0005  0.5650  0.5389
  621TIP3    H123278   5.760   6.370   0.179 -2.3063 -2.7843  2.6168
  621TIP3    H223279   5.890   6.293   0.192  1.1203  1.9606 -0.4260
  622TIP3   OH223280   0.583   1.344  13.603  0.6150 -0.2904 -0.2704
  622TIP3    H123281   0.542   1.391  13.531  1.2713  0.6417 -0.0553
  622TIP3    H223282   0.615   1.263  13.564 -0.9305 -0.7902 -0.5488
  623TIP3   OH223283   1.055   3.055  16.906 -0.2111 -0.0474  0.0225
  623TIP3    H123284   1.147   3.042  16.882 -0.6023 -2.8857 -0.2313
  623TIP3    H223285   1.011   2.974  16.880 -2.7561  1.0751  0.4677
  624TIP3   OH223286   4.832   0.339  15.345  0.1307  0.0345  0.2378
  624TIP3    H123287   4.890   0.265  15.328  1.0371  0.1894  2.3054
  624TIP3    H223288   4.857   0.404  15.280 -0.9385 -1.5388 -1.8607
  625TIP3   OH223289   4.192   2.364   2.389  0.3466  0.0482  0.5466
  625TIP3    H123290   4.149   2.376   2.474 -1.0848  2.7009 -0.4237
  625TIP3    H223291   4.127   2.319   2.335  1.0769 -1.2196  0.6953
  626TIP3   OH223292   6.052   3.216  13.618  0.5367  0.0682 -0.1461
  626TIP3    H123293   5.963   3.207  13.584 -0.5889  1.2484  2.2446
  626TIP3    H223294   6.103   3.248  13.543 -0.6161 -2.2283 -2.0329
  627TIP3   OH223295   6.128   4.367  11.336  0.1697 -0.4561 -0.2953
  627TIP3    H123296   6.186   4.293  11.321  1.8756  0.2643  2.0025
  627TIP3    H223297   6.156   4.401  11.422 -1.5611  1.8864 -0.5771
  628TIP3   OH223298   2.756   3.929  16.954 -0.2469  0.4847  0.3554
  628TIP3    H123299   2.823   3.986  16.990  0.2501 -0.4973  1.0393
  628TIP3    H223300   2.748   3.956  16.863  1.9620 -0.1695 -0.0914
  629TIP3   OH223301   0.103   1.953   3.398  0.0524 -0.0410 -0.5726
  629TIP3    H123302   0.189   1.996   3.407  0.1274  0.4707 -3.0655
  629TIP3    H223303   0.041   2.026   3.394 -0.1788 -0.2815 -1.5073
  630TIP3   OH223304   1.589   6.092  10.862  0.0173  0.4262 -0.0214
  630TIP3    H123305   1.598   6.085  10.767 -0.1292 -0.4000  0.0173
  630TIP3    H223306   1.527   6.164  10.875 -0.1276  0.4050 -0.5610
  631TIP3   OH223307   3.782   2.428  13.651  0.7258  0.1113 -0.4700
  631TIP3    H123308   3.787   2.358  13.717 -0.9879  1.1724  0.8909
  631TIP3    H223309   3.873   2.447  13.629  1.2632 -2.1932 -0.5326
  632TIP3   OH223310   3.281   4.301   1.635 -0.0063  0.2816 -0.3418
  632TIP3    H123311   3.187   4.285   1.624 -0.5100  2.0792  0.8372
  632TIP3    H223312   3.310   4.235   1.697 -0.4982 -0.2757 -0.7031
  633TIP3   OH223313   4.719   6.057   1.841 -0.4813 -0.5032  0.2028
  633TIP3    H123314   4.640   6.099   1.873 -0.8807  0.5280 -1.9358
  633TIP3    H223315   4.724   6.083   1.749  2.3971 -0.4597  0.2845
  634TIP3   OH223316   3.468   3.443  12.466 -0.1115  0.0766  0.3221
  634TIP3    H123317   3.391   3.399  12.500  0.7582 -0.3072  1.9335
  634TIP3    H223318   3.529   3.445  12.541  1.6515 -0.1646 -1.0343
  635TIP3   OH223319   5.867   1.409  14.332  0.4077 -0.3287 -0.6695
  635TIP3    H123320   5.884   1.479  14.395  0.4500  0.5196 -1.6167
  635TIP3    H223321   5.778   1.380  14.353  1.0175 -1.2347  0.8756
  636TIP3   OH223322   6.722   4.649   3.287 -0.6391 -0.5516 -0.1750
  636TIP3    H123323   6.631   4.652   3.258 -1.5101 -2.7202  2.0060
  636TIP3    H223324   6.717   4.640   3.382  1.9643  2.3920  0.3967
  637TIP3   OH223325   1.635   0.953   2.258 -0.1400 -0.0476 -0.7147
  637TIP3    H123326   1.589   0.895   2.198  1.5667 -1.4340 -0.7804
  637TIP3    H223327   1.711   0.902   2.286  0.1716  1.3180  1.0724
  638TIP3   OH223328   3.523   6.692  11.521 -0.0711  0.3370  0.5063
  638TIP3    H123329   3.593   6.628  11.526 -1.2394 -1.2155 -1.6158
  638TIP3    H223330   3.443   6.641  11.516 -0.9438  1.7605 -3.2474
  639TIP3   OH223331   6.124   5.045  17.081  0.8451  0.1672  0.2664
  639TIP3    H123332   6.149   5.137  17.072 -1.6402  0.8453 -0.6637
  639TIP3    H223333   6.078   5.040  17.165  1.3170 -0.3332  0.5006
  640TIP3   OH223334   2.091   3.166   4.901  0.7392  0.1412 -0.2074
  640TIP3    H123335   2.038   3.206   4.970  1.0349  2.0166 -0.9986
  640TIP3    H223336   2.151   3.108   4.948  0.9126  1.3396  1.1340
  641TIP3   OH223337   4.990   2.845  11.537  0.3459  0.2335 -0.7201
  641TIP3    H123338   5.019   2.927  11.576  1.1345 -0.3428 -0.0560
  641TIP3    H223339   5.061   2.819  11.478 -0.3619  0.5469 -1.7517
  642TIP3   OH223340   0.472   6.567  14.336 -0.3143  0.0496 -0.4242
  642TIP3    H123341   0.424   6.646  14.360  0.2550  1.4393 -3.4106
  642TIP3    H223342   0.561   6.583  14.368 -0.5115 -0.0628  0.2129
  643TIP3   OH223343   6.188   5.282   3.023  0.0596 -0.3509 -0.1446
  643TIP3    H123344   6.158   5.346   2.958  0.7662  0.4708  0.3075
  643TIP3    H223345   6.206   5.203   2.973 -0.3064 -0.0228 -0.8059
  644TIP3   OH223346   1.906   1.836  11.501 -0.3697 -0.0231 -0.0746
  644TIP3    H123347   1.913   1.748  11.463 -0.5217  0.2725 -0.7950
  644TIP3    H223348   1.996   1.864  11.514 -0.2970  0.1117 -0.7953
  645TIP3   OH223349   5.795   0.400  13.428 -0.3609  0.8282 -0.0487
  645TIP3    H123350   5.818   0.409  13.520  0.3400  0.2524 -0.1598
  645TIP3    H223351   5.879   0.399  13.382 -0.7091  1.6274 -0.7526
  646TIP3   OH223352   1.515   3.164  13.123 -0.2023  0.2475 -0.5159
  646TIP3    H123353   1.558   3.205  13.198 -0.7959  0.9301 -0.5466
  646TIP3    H223354   1.439   3.218  13.106 -2.6250 -2.3618  1.1823
  647TIP3   OH223355   2.547   0.884   1.572 -0.3789 -0.5662  0.6172
  647TIP3    H123356   2.515   0.915   1.656  0.4855 -0.5603  0.9429
  647TIP3    H223357   2.533   0.789   1.574  0.9417 -0.7623  1.3440
  648TIP3   OH223358   5.198   2.059  16.490  0.1993  0.1623  0.2158
  648TIP3    H123359   5.256   2.135  16.490 -1.4784  1.4933  0.1621
  648TIP3    H223360   5.198   2.028  16.580  1.4532 -0.2562  0.0951
  649TIP3   OH223361   5.520   2.152  13.828  0.9525  0.4312 -0.0591
  649TIP3    H123362   5.605   2.114  13.854  1.1548  0.6743 -0.3612
  649TIP3    H223363   5.534   2.246  13.834  0.8039  0.4758 -0.4342
  650TIP3   OH223364   2.649   6.230   4.048 -0.0336  0.0189  0.0531
  650TIP3    H123365   2.598   6.157   4.013  1.8684  0.0868 -3.3033
  650TIP3    H223366   2.655   6.212   4.142 -2.4860 -2.2492 -0.0992
  651TIP3   OH223367   2.588   2.082  11.585 -0.0163 -0.1833  0.0504
  651TIP3    H123368   2.585   2.031  11.504  1.9117  0.2271 -0.3086
  651TIP3    H223369   2.530   2.156  11.568  0.0572 -0.3062 -0.7951
  652TIP3   OH223370   0.908   1.647  14.426  0.2306  0.0129  0.2569
  652TIP3    H123371   0.979   1.582  14.427  0.3032  0.0987  0.5963
  652TIP3    H223372   0.876   1.649  14.516  0.7462  1.0241  0.4261
  653TIP3   OH223373   6.455   3.551   3.013  0.1237 -0.0294  0.6291
  653TIP3    H123374   6.406   3.474   2.985 -0.2692  0.0093  1.1977
  653TIP3    H223375   6.404   3.587   3.085  1.0485 -0.0402  1.3067
  654TIP3   OH223376   1.998   5.594   4.097 -0.6737 -0.1238  0.0945
  654TIP3    H123377   1.965   5.513   4.135 -1.6488 -0.7369 -1.9561
  654TIP3    H223378   1.953   5.602   4.014  0.5450  1.7522 -0.4468
  655TIP3   OH223379   3.078   0.108  14.449  0.0443 -0.5058 -0.3674
  655TIP3    H123380   3.008   0.047  14.471 -1.5586  1.9317  2.1301
  655TIP3    H223381   3.047   0.154  14.371 -0.7748 -0.0719  0.1945
  656TIP3   OH223382   5.065   5.600   1.767 -0.1043  0.1270  0.5217
  656TIP3    H123383   4.980   5.575   1.730 -0.4762  2.4845 -0.4397
  656TIP3    H223384   5.112   5.638   1.693  1.2229  0.1970  1.3752
  657TIP3   OH223385   1.961   2.991  15.758  0.0005 -0.7252 -0.3244
  657TIP3    H123386   1.928   3.050  15.826 -0.8489 -3.2923  1.6352
  657TIP3    H223387   1.887   2.978  15.699 -0.8252 -2.1761  0.9792
  658TIP3   OH223388   5.063   4.608   0.344 -0.3240 -0.0531  0.3105
  658TIP3    H123389   5.013   4.553   0.404 -2.9997  0.1432 -1.5910
  658TIP3    H223390   5.051   4.697   0.379 -1.0399 -0.0502  0.0813
  659TIP3   OH223391   4.489   3.802   0.007  0.8413  0.0926  0.0492
  659TIP3    H123392   4.529   3.796  -0.080  1.5148  0.2112  0.3423
  659TIP3    H223393   4.395   3.807  -0.010  1.0464  2.2316 -0.7791
  660TIP3   OH223394   4.486   1.326   0.987  0.2030  0.4617  0.2283
  660TIP3    H123395   4.535   1.381   1.048  0.8360 -0.3322  0.4560
  660TIP3    H223396   4.394   1.337   1.014  0.3529  1.1198  0.4913
  661TIP3   OH223397   1.554   3.536   1.670  0.1433  0.3178  0.0263
  661TIP3    H123398   1.561   3.594   1.745  2.0908  0.9044 -0.5324
  661TIP3    H223399   1.503   3.585   1.606  0.1807  0.6446  0.2431
  662TIP3   OH223400   2.495   2.991   5.576 -0.1536  0.7883  0.5192
  662TIP3    H123401   2.586   3.006   5.552  0.1299  0.5056  1.3864
  662TIP3    H223402   2.467   2.917   5.521 -0.0511  1.2546 -0.1722
  663TIP3   OH223403   4.242   2.992  15.603 -0.0693  0.4077 -0.0018
  663TIP3    H123404   4.331   3.025  15.598 -1.0676  3.5449  0.9360
  663TIP3    H223405   4.201   3.021  15.521 -0.7833  0.7569  0.4779
  664TIP3   OH223406   5.852   2.727  14.704  0.0356  0.2769  0.2194
  664TIP3    H123407   5.814   2.715  14.791  0.9785  2.4456  0.9977
  664TIP3    H223408   5.918   2.658  14.697 -0.6233 -0.4410  0.8546
  665TIP3   OH223409   1.747   3.451   2.801  0.1822 -0.0975 -0.2674
  665TIP3    H123410   1.795   3.368   2.802 -0.5043 -0.5253  1.8891
  665TIP3    H223411   1.813   3.516   2.777  1.1223 -1.0377 -0.3417
  666TIP3   OH223412   2.017   3.390  11.381 -0.2794 -0.4589  0.4832
  666TIP3    H123413   1.955   3.328  11.342 -0.9416 -0.3734  1.3725
  666TIP3    H223414   2.033   3.454  11.312 -0.6481 -0.8716  0.0089
  667TIP3   OH223415   1.443   0.408   3.505 -0.5919  0.0857 -0.2469
  667TIP3    H123416   1.394   0.483   3.471  0.1352  0.1025 -1.2911
  667TIP3    H223417   1.377   0.355   3.549 -1.1714  1.1668  0.2376
  668TIP3   OH223418   1.153   4.790  11.945  0.3796  0.4993  0.2479
  668TIP3    H123419   1.072   4.826  11.910  0.4815 -0.1248 -0.6933
  668TIP3    H223420   1.202   4.762  11.867  0.7864 -0.5956  0.8713
  669TIP3   OH223421   2.426   2.240   2.940  0.3001  0.2039 -0.2889
  669TIP3    H123422   2.371   2.188   2.881  0.7020  0.2246 -0.6929
  669TIP3    H223423   2.505   2.187   2.951 -0.0451 -0.1103  0.7819
  670TIP3   OH223424   6.372   5.283   4.129 -0.5136 -0.5653 -0.8371
  670TIP3    H123425   6.369   5.309   4.037  1.2485 -0.6783 -0.9646
  670TIP3    H223426   6.297   5.224   4.140 -0.0680 -1.5123 -2.5183
  671TIP3   OH223427   5.390   0.064   2.382  0.2823 -0.0861 -0.0715
  671TIP3    H123428   5.427   0.049   2.295  1.5995  2.0166  0.0709
  671TIP3    H223429   5.367   0.157   2.383  1.0654  0.1375  2.0977
  672TIP3   OH223430   3.111   2.201   0.864 -0.1158 -0.0306 -0.1016
  672TIP3    H123431   3.194   2.247   0.856 -0.8078  1.0906 -1.2642
  672TIP3    H223432   3.112   2.135   0.795 -1.2807  1.8420 -2.0205
  673TIP3   OH223433   5.327   1.450  14.392  0.1181  0.0998  0.1272
  673TIP3    H123434   5.304   1.357  14.381  0.5264 -0.4247  3.0074
  673TIP3    H223435   5.261   1.484  14.452  1.6306  0.9056  1.4018
  674TIP3   OH223436   0.554   6.304  17.004 -0.6114  0.1821 -0.0581
  674TIP3    H123437   0.481   6.364  16.991 -1.1705 -0.5902 -0.5434
  674TIP3    H223438   0.603   6.340  17.078 -2.0115  0.1897  0.8846
  675TIP3   OH223439   6.659   5.234   3.948 -0.2312  0.1006  0.0706
  675TIP3    H123440   6.609   5.154   3.968 -2.2291  1.2086 -0.1951
  675TIP3    H223441   6.604   5.281   3.886  1.4433  1.1829 -0.6605
  676TIP3   OH223442   3.967   1.564  16.061  0.2396  0.0724  0.3104
  676TIP3    H123443   4.054   1.589  16.030  0.2044 -1.4140 -1.1661
  676TIP3    H223444   3.946   1.485  16.011 -0.8908 -1.0871  2.4700
  677TIP3   OH223445   4.883   2.135   0.851  0.0272  0.4976  0.1085
  677TIP3    H123446   4.964   2.094   0.823  0.3802  0.0345  1.7266
  677TIP3    H223447   4.866   2.100   0.938 -1.9371  0.5619 -0.1887
  678TIP3   OH223448   1.972   4.787   1.295  0.7323 -0.5722 -0.1698
  678TIP3    H123449   1.906   4.762   1.230  1.3031  0.3708 -1.1400
  678TIP3    H223450   2.018   4.705   1.314  0.6273 -0.8415 -1.0381
  679TIP3   OH223451   5.065   3.537   6.413 -0.2010 -0.3792 -0.1011
  679TIP3    H123452   5.084   3.561   6.322  1.0882 -0.4138  0.1445
  679TIP3    H223453   5.020   3.613   6.449  3.5950  1.7631  0.6020
  680TIP3   OH223454   2.335   0.645   5.682  0.2466 -1.1155  0.0960
  680TIP3    H123455   2.295   0.721   5.725  0.6441  0.8567 -2.7259
  680TIP3    H223456   2.262   0.587   5.662 -0.7642  0.5353 -1.3681
  681TIP3   OH223457   6.657   2.516   0.019  0.1215  0.4597 -0.0064
  681TIP3    H123458   6.697   2.452   0.077 -1.7847  0.8926  1.9279
  681TIP3    H223459   6.585   2.469  -0.023 -0.8070  1.0965  0.8375
  682TIP3   OH223460   2.092   3.808  16.208 -0.4472 -0.3093  0.0954
  682TIP3    H123461   2.101   3.878  16.143 -0.2430 -1.4602 -1.1658
  682TIP3    H223462   2.128   3.731  16.165 -1.3685 -1.3727  1.1557
  683TIP3   OH223463   5.678   1.551   3.958 -0.2968  0.2192 -0.2627
  683TIP3    H123464   5.771   1.528   3.947 -0.5339 -0.3072 -1.3281
  683TIP3    H223465   5.646   1.491   4.025 -0.1869 -0.5381 -0.8748
  684TIP3   OH223466   5.125   0.150  11.603 -0.7058  0.2447  0.6670
  684TIP3    H123467   5.098   0.146  11.694  0.7549  1.1147  1.1761
  684TIP3    H223468   5.164   0.065  11.585 -1.5155 -0.1282  0.6774
  685TIP3   OH223469   4.482   2.363   2.106 -0.4795 -0.2241  0.5560
  685TIP3    H123470   4.461   2.362   2.199 -0.2042 -2.5228  0.6445
  685TIP3    H223471   4.423   2.297   2.068  0.3497 -0.2840 -0.6719
  686TIP3   OH223472   2.424   4.723   6.339  0.3386  0.1993  0.0115
  686TIP3    H123473   2.345   4.672   6.317  0.2764  0.6170 -0.7364
  686TIP3    H223474   2.404   4.812   6.309  0.4434  0.6850  1.3194
  687TIP3   OH223475   3.118   4.166  14.529 -0.3595 -0.0064 -0.3862
  687TIP3    H123476   3.142   4.095  14.470  1.9676 -0.6314  1.1773
  687TIP3    H223477   3.113   4.243  14.473  1.1908 -0.6862 -1.5206
  688TIP3   OH223478   3.093   2.204  11.618  0.0937  0.0273 -0.1549
  688TIP3    H123479   3.156   2.252  11.564  1.2614 -1.1994  0.0574
  688TIP3    H223480   3.051   2.271  11.672  0.6538  0.9686 -0.8555
  689TIP3   OH223481   3.158   3.292  15.016  0.0121 -0.4357  0.3765
  689TIP3    H123482   3.105   3.372  15.022  1.5372  0.5290  2.1319
  689TIP3    H223483   3.106   3.225  15.058  0.1337  0.5033  2.1143
  690TIP3   OH223484   5.754   2.490  13.004 -0.4384  0.3146  0.6866
  690TIP3    H123485   5.774   2.483  12.911 -0.2669  0.6988  0.6934
  690TIP3    H223486   5.818   2.435  13.048  0.6954  1.6059  0.7176
  691TIP3   OH223487   0.169   1.447  11.632  0.8888 -0.1826 -0.4612
  691TIP3    H123488   0.203   1.361  11.608  0.5974 -0.6174  0.6160
  691TIP3    H223489   0.084   1.452  11.589  0.8098 -0.5282 -0.3449
  692TIP3   OH223490   3.264   3.652   1.806 -0.7501  0.2516  0.4717
  692TIP3    H123491   3.288   3.571   1.762  0.3703  1.3985 -1.1536
  692TIP3    H223492   3.238   3.625   1.894 -0.9515 -1.9037 -0.1994
  693TIP3   OH223493   2.513   2.018  11.061 -0.3909 -0.0592 -0.3788
  693TIP3    H123494   2.559   2.099  11.037 -2.6315  0.7126 -2.5568
  693TIP3    H223495   2.560   1.950  11.014  0.0505  0.3217 -0.5059
  694TIP3   OH223496   4.446   4.125   4.075 -0.3660 -0.5435 -0.1100
  694TIP3    H123497   4.420   4.215   4.055 -0.5962 -0.6601 -0.3353
  694TIP3    H223498   4.527   4.134   4.126 -0.8088 -0.1830  0.5418
  695TIP3   OH223499   6.370   4.543  13.311 -0.4534  0.2972  0.4893
  695TIP3    H123500   6.424   4.484  13.258 -0.4823  1.4550 -0.8794
  695TIP3    H223501   6.281   4.528  13.279 -0.7666 -0.4610  1.6516
  696TIP3   OH223502   6.131   1.380  14.619 -0.1221 -0.3445 -0.1364
  696TIP3    H123503   6.070   1.431  14.565 -0.8980 -0.7369  0.3397
  696TIP3    H223504   6.075   1.338  14.684  0.5234 -1.5521 -0.3278
  697TIP3   OH223505   5.035   3.404   2.770  0.2266  0.2635 -0.2673
  697TIP3    H123506   5.040   3.456   2.689 -2.6387 -1.3862 -1.6533
  697TIP3    H223507   4.964   3.445   2.819  1.0031  0.3654  0.7920
  698TIP3   OH223508   3.639   1.604  12.434 -0.1516  0.0434  0.3823
  698TIP3    H123509   3.585   1.599  12.356  1.7513  0.5303 -1.0588
  698TIP3    H223510   3.726   1.627  12.401  1.4114 -2.5086  2.3691
  699TIP3   OH223511   2.280   0.204  11.990  0.1406 -0.5001  0.3716
  699TIP3    H123512   2.351   0.157  12.034  0.5383 -0.2976 -0.0508
  699TIP3    H223513   2.308   0.295  11.987  0.4544 -0.6129 -0.9342
  700TIP3   OH223514   3.902   3.990   0.347 -0.4375  0.2110  0.1674
  700TIP3    H123515   3.878   3.897   0.339  0.2410  0.1584 -2.3627
  700TIP3    H223516   3.825   4.031   0.386 -1.8143 -1.0614 -1.0321
  701TIP3   OH223517   5.995   2.499  11.275 -0.4882 -0.0000  0.8117
  701TIP3    H123518   6.074   2.494  11.328  0.7811 -0.4245 -1.0202
  701TIP3    H223519   6.023   2.543  11.194 -2.4003  0.9052  0.5903
  702TIP3   OH223520   2.473   3.276  15.596  0.2089 -0.5803 -0.0562
  702TIP3    H123521   2.448   3.361  15.631 -0.3646  0.1447 -2.0660
  702TIP3    H223522   2.554   3.254  15.641  0.5011  1.1514  0.3379
  703TIP3   OH223523   1.769   3.390   1.243 -0.0386  0.1104 -0.0309
  703TIP3    H123524   1.799   3.364   1.156  0.0678 -0.2602  0.1154
  703TIP3    H223525   1.809   3.326   1.302 -1.2766 -0.5431  0.1511
  704TIP3   OH223526   1.077   6.600   5.952  0.0408 -0.1559 -0.5001
  704TIP3    H123527   1.023   6.678   5.946  1.4767  1.0602  1.2545
  704TIP3    H223528   1.056   6.562   6.037 -1.0267 -2.0619 -1.5299
  705TIP3   OH223529   3.185   4.274  12.928 -0.3045  0.3568 -0.0219
  705TIP3    H123530   3.252   4.334  12.961 -1.2326  1.6388 -0.3529
  705TIP3    H223531   3.149   4.320  12.851  1.4377 -2.2494 -2.6302
  706TIP3   OH223532   1.855   1.283   1.720  0.0117 -0.1039 -0.4489
  706TIP3    H123533   1.917   1.329   1.664 -1.1152  0.2227 -1.4732
  706TIP3    H223534   1.780   1.341   1.725 -1.0165 -1.3305 -0.8848
  707TIP3   OH223535   0.919   4.126  12.503 -0.0804 -0.1573  0.1920
  707TIP3    H123536   0.912   4.163  12.591  0.9712  0.2338  0.1316
  707TIP3    H223537   0.997   4.167  12.466  0.0825 -1.0882 -0.5476
  708TIP3   OH223538   5.329   6.087   3.497  0.4892 -0.1126  0.0933
  708TIP3    H123539   5.320   6.182   3.492  0.5908 -0.1551 -1.0279
  708TIP3    H223540   5.246   6.057   3.534 -0.9034  0.1816 -2.5496
  709TIP3   OH223541   5.001   3.386   3.111  0.0045 -0.3961  0.0911
  709TIP3    H123542   5.073   3.399   3.049  1.4302 -1.8810  1.3475
  709TIP3    H223543   5.014   3.452   3.178 -1.5832  1.2596 -1.1447
  710TIP3   OH223544   3.282   1.809  11.404  0.1083  0.3480 -0.3524
  710TIP3    H123545   3.214   1.876  11.410  0.1725  0.4312 -0.5613
  710TIP3    H223546   3.288   1.773  11.492 -0.4841  0.0751 -0.4167
  711TIP3   OH223547   4.553   1.225   3.982 -0.2211  0.5765 -0.4038
  711TIP3    H123548   4.636   1.200   4.022  0.5391 -1.1000 -2.7455
  711TIP3    H223549   4.486   1.199   4.045  0.8571 -2.5135 -0.3770
  712TIP3   OH223550   4.594   3.076   0.330 -0.1268 -0.0056  0.5732
  712TIP3    H123551   4.629   2.987   0.323 -0.6562 -0.1241 -0.9943
  712TIP3    H223552   4.625   3.120   0.250  0.8455  1.5002  1.7216
  713TIP3   OH223553   0.687   3.253  12.372  0.0048 -0.0265 -0.1343
  713TIP3    H123554   0.698   3.329  12.315 -0.7746 -0.5120 -0.9611
  713TIP3    H223555   0.775   3.216  12.381  0.0336 -0.3852 -1.6671
  714TIP3   OH223556   5.666   5.664   3.356  0.6549 -0.1731 -0.3065
  714TIP3    H123557   5.651   5.627   3.269  1.3312 -0.2267 -0.4035
  714TIP3    H223558   5.666   5.759   3.342 -2.3107 -0.0292  0.1344
  715TIP3   OH223559   5.230   3.724  11.557  0.0472 -0.1897  0.0028
  715TIP3    H123560   5.171   3.690  11.490 -0.1398  0.9217 -0.4150
  715TIP3    H223561   5.291   3.780  11.509 -0.0921  0.6267  0.7599
  716TIP3   OH223562   5.873   1.330   4.021 -0.0308  0.0439 -0.4277
  716TIP3    H123563   5.861   1.340   4.115 -1.4778  0.3152 -0.6219
  716TIP3    H223564   5.795   1.284   3.991  0.0419  0.6322 -1.5922
  717TIP3   OH223565   0.449   4.675  12.210  0.0242 -0.0962  0.1816
  717TIP3    H123566   0.437   4.768  12.190  1.0219  0.0551  0.2194
  717TIP3    H223567   0.531   4.652  12.166 -0.6142 -1.1620 -0.4742
  718TIP3   OH223568   1.417   2.109  16.901  0.1195  0.1303  0.0725
  718TIP3    H123569   1.466   2.189  16.878  0.3512 -0.3099 -0.9976
  718TIP3    H223570   1.330   2.123  16.864 -0.8798  1.2361  2.6032
  719TIP3   OH223571   2.868   4.825  13.262  0.4122 -0.1869 -0.2260
  719TIP3    H123572   2.921   4.778  13.199 -0.6975 -3.0849  0.8481
  719TIP3    H223573   2.779   4.819  13.227  0.2920  1.7503 -0.3632
  720TIP3   OH223574   3.943   4.134   0.097  0.2125 -0.0619  0.6401
  720TIP3    H123575   3.956   4.090   0.181  2.0825 -0.8218 -0.0051
  720TIP3    H223576   4.028   4.131   0.055 -0.4891  1.0555 -0.9487
  721TIP3   OH223577   4.503   2.290   4.851  0.1417 -0.2611  0.1217
  721TIP3    H123578   4.541   2.332   4.774 -0.3166  0.0610  0.0657
  721TIP3    H223579   4.534   2.343   4.925 -0.2212  0.0216  0.0731
  722TIP3   OH223580   5.559   0.305   5.575  0.0909 -0.0100 -0.2081
  722TIP3    H123581   5.553   0.393   5.538  1.8702 -0.0302 -0.6660
  722TIP3    H223582   5.651   0.280   5.563 -0.5665 -2.3239 -0.9629
  723TIP3   OH223583   0.560   1.428   4.218 -0.3497 -0.3833 -0.1530
  723TIP3    H123584   0.479   1.402   4.261  0.4837 -0.0337  1.7795
  723TIP3    H223585   0.572   1.520   4.242  0.8808 -0.5828  0.1001
  724TIP3   OH223586   0.164   2.396  12.842 -0.2230 -0.1913 -0.8556
  724TIP3    H123587   0.090   2.449  12.811  0.6509  1.7447  0.1726
  724TIP3    H223588   0.225   2.460  12.879 -0.3828 -2.0730  3.2315
  725TIP3   OH223589   2.277   4.751  16.550 -0.4725 -0.1122  0.2278
  725TIP3    H123590   2.263   4.703  16.468  0.9964 -1.4394  0.6962
  725TIP3    H223591   2.201   4.729  16.604 -0.0857 -1.5258  0.2316
  726TIP3   OH223592   4.317   4.535  11.029 -0.1238  0.4684  0.3441
  726TIP3    H123593   4.281   4.613  10.986  0.1388 -0.4537 -1.6716
  726TIP3    H223594   4.369   4.493  10.961 -1.0962 -2.0244  1.0452
  727TIP3   OH223595   0.605   3.929   1.878  0.1269 -0.2481  0.6870
  727TIP3    H123596   0.610   3.889   1.965 -2.2244  0.5929  1.2590
  727TIP3    H223597   0.557   4.010   1.891  2.8887  1.8218 -0.8194
  728TIP3   OH223598   1.270   2.079  17.133  0.0778  0.1932 -0.2649
  728TIP3    H123599   1.337   2.104  17.070 -1.0111 -0.5803 -1.7829
  728TIP3    H223600   1.314   2.085  17.218  1.5510  1.3667 -1.0612
  729TIP3   OH223601   4.556   6.076   1.302  0.5520  0.2010  0.6336
  729TIP3    H123602   4.532   6.162   1.338 -0.7372  0.3537 -0.5080
  729TIP3    H223603   4.637   6.092   1.254  1.0194  0.4854  1.4906
  730TIP3   OH223604   5.411   2.770   3.346  0.0305 -0.4209 -0.3585
  730TIP3    H123605   5.421   2.838   3.278 -1.2168  0.2041  0.0521
  730TIP3    H223606   5.431   2.816   3.427 -2.4023 -0.0470  0.1086
  731TIP3   OH223607   4.006   2.411   5.126  0.2535 -0.6395  0.2244
  731TIP3    H123608   4.059   2.352   5.073 -0.3389 -1.3097  0.3667
  731TIP3    H223609   4.069   2.455   5.183  0.7737 -0.6596 -0.3224
  732TIP3   OH223610   1.111   0.615   4.001 -0.1014 -0.6169 -0.5966
  732TIP3    H123611   1.147   0.699   4.029  0.6051 -1.0103 -0.2825
  732TIP3    H223612   1.108   0.563   4.081 -3.9855  0.2537 -0.0014
  733TIP3   OH223613   4.857   5.939   3.527 -0.4507  0.1220 -0.2810
  733TIP3    H123614   4.938   5.965   3.482  0.8205 -1.4860  0.9273
  733TIP3    H223615   4.821   5.869   3.473  0.4653 -1.0253  0.5440
  734TIP3   OH223616   6.062   0.540  11.890 -0.1562  0.2965  0.6234
  734TIP3    H123617   6.009   0.589  11.952  0.2679  0.7866  0.6013
  734TIP3    H223618   6.151   0.571  11.904 -0.2341  1.5224 -1.2658
  735TIP3   OH223619   4.467   4.471  15.942  0.6013  0.2957 -0.0130
  735TIP3    H123620   4.394   4.454  16.001  1.4907 -0.8010  0.8336
  735TIP3    H223621   4.428   4.510  15.864 -0.8955 -0.4184  0.3589
  736TIP3   OH223622   3.658   1.842  15.926 -0.2846 -0.1488  0.1668
  736TIP3    H123623   3.660   1.922  15.872 -2.1841  0.2071  0.5722
  736TIP3    H223624   3.713   1.863  16.001 -0.4564  0.6528  0.0824
  737TIP3   OH223625   4.859   2.072  13.221 -0.1718  0.4406 -0.7498
  737TIP3    H123626   4.814   2.075  13.137 -3.1995 -3.3808  0.4249
  737TIP3    H223627   4.789   2.075  13.286  1.4690 -2.1476  1.3629
  738TIP3   OH223628   5.712   2.106  17.276 -0.0955  0.2725  0.3185
  738TIP3    H123629   5.667   2.170  17.332 -0.1063  1.6649 -1.2235
  738TIP3    H223630   5.695   2.135  17.187 -0.2694 -2.0331 -0.4607
  739TIP3   OH223631   5.295   4.459   0.508  0.0155  0.2790 -0.1997
  739TIP3    H123632   5.295   4.463   0.412 -1.7235  2.4981 -0.1852
  739TIP3    H223633   5.251   4.540   0.536 -0.2418 -0.6716  2.4658
  740TIP3   OH223634   0.295   0.022  10.453  0.1034  0.0942 -0.6248
  740TIP3    H123635   0.300   0.108  10.496  0.2366  0.7979 -1.9836
  740TIP3    H223636   0.203   0.013  10.429 -0.0893 -0.5747  0.3266
  741TIP3   OH223637   2.038   2.401  11.141 -0.4240  0.5738  0.3773
  741TIP3    H123638   1.958   2.364  11.104 -1.4013  3.6113 -0.8370
  741TIP3    H223639   2.105   2.384  11.075  0.1372 -2.1667  1.4891
  742TIP3   OH223640   6.731   5.941   3.123  0.1089  0.3517  0.6154
  742TIP3    H123641   6.826   5.941   3.110  0.4085 -1.9299  2.2011
  742TIP3    H223642   6.709   6.033   3.140  2.1072  0.8393  0.8002
  743TIP3   OH223643   2.747   0.762  16.215 -0.6137  0.0860 -0.4099
  743TIP3    H123644   2.668   0.798  16.175 -1.8555 -0.3309  1.5577
  743TIP3    H223645   2.757   0.676  16.174 -1.7378 -0.2459 -0.0282
  744TIP3   OH223646   1.618   2.214   3.112  0.2624  0.2540  0.2369
  744TIP3    H123647   1.574   2.163   3.180  1.6406  0.1941  1.1148
  744TIP3    H223648   1.562   2.291   3.100 -0.6758 -0.3734  0.4771
  745TIP3   OH223649   4.241   6.063   1.945 -0.1371 -0.1735  0.2223
  745TIP3    H123650   4.157   6.083   1.988 -0.0705  1.5090 -0.3719
  745TIP3    H223651   4.235   6.105   1.859  1.2586 -0.1280  0.1204
  746TIP3   OH223652   0.749   5.804   2.171  0.1157  0.7394 -0.3190
  746TIP3    H123653   0.661   5.767   2.170 -0.2025  1.2628  2.0147
  746TIP3    H223654   0.808   5.728   2.171 -0.4864  0.1700  2.3818
  747TIP3   OH223655   5.027   4.395   5.901  0.3628 -0.3198 -0.0628
  747TIP3    H123656   5.029   4.311   5.855  0.1055 -0.0513 -0.5755
  747TIP3    H223657   5.065   4.377   5.987  0.3477 -0.9487 -0.1877
  748TIP3   OH223658   0.709   1.575  12.358  0.3399  0.3722 -0.1640
  748TIP3    H123659   0.627   1.576  12.407  1.6660 -0.8975  2.2441
  748TIP3    H223660   0.685   1.542  12.271 -1.5731 -0.9031  0.7798
  749TIP3   OH223661   4.598   5.082   4.645  0.4026 -0.3197 -0.0719
  749TIP3    H123662   4.638   5.114   4.726  0.2340  0.1211 -0.1589
  749TIP3    H223663   4.504   5.091   4.659  0.3886  1.7578 -1.0775
  750TIP3   OH223664   1.856   6.666  17.202 -0.5731 -0.1461  0.5315
  750TIP3    H123665   1.841   6.695  17.291 -0.5746 -2.9187  1.5302
  750TIP3    H223666   1.786   6.706  17.151 -0.6095  1.4138  1.7581
  751TIP3   OH223667   0.168   6.134  14.978  0.3606 -0.0237 -0.1381
  751TIP3    H123668   0.077   6.145  14.953  0.4845 -0.8359 -0.9799
  751TIP3    H223669   0.207   6.083  14.907  1.6488  0.9316 -0.1437
  752TIP3   OH223670   5.550   3.177   2.533 -0.1539 -0.9596  0.0578
  752TIP3    H123671   5.500   3.113   2.583  0.0736 -0.9756  0.2626
  752TIP3    H223672   5.587   3.127   2.460  2.7916 -1.8602  1.9658
  753TIP3   OH223673   4.845   0.234   0.013 -0.3077 -0.4055 -0.3318
  753TIP3    H123674   4.817   0.298   0.078 -0.8990  0.1595 -1.1242
  753TIP3    H223675   4.872   0.158   0.064 -1.3318 -0.1963  0.5469
  754TIP3   OH223676   1.407   6.049   3.900 -0.5908 -0.4665  0.5038
  754TIP3    H123677   1.497   6.079   3.899 -0.6797 -0.1856  0.7858
  754TIP3    H223678   1.368   6.085   3.821 -0.3190 -1.0169  0.1153
  755TIP3   OH223679   4.381   4.312   1.432 -0.2929  0.0312 -0.1296
  755TIP3    H123680   4.343   4.283   1.515 -1.7012 -1.5194 -1.2510
  755TIP3    H223681   4.444   4.244   1.409 -1.0528 -0.4072 -1.0458
  756TIP3   OH223682   4.842   5.630  10.445  0.6427 -0.2514  0.3714
  756TIP3    H123683   4.874   5.541  10.457 -1.4173 -1.0917 -0.0055
  756TIP3    H223684   4.875   5.657  10.359  0.5720 -0.9870  0.1105
  757TIP3   OH223685   4.201   0.594  16.420  0.0645  0.4961  0.4296
  757TIP3    H123686   4.268   0.632  16.478 -0.0087  1.7757 -0.2997
  757TIP3    H223687   4.131   0.567  16.479 -0.0645  1.9007  0.9577
  758TIP3   OH223688   6.413   5.539  13.206 -0.4155  0.2756 -0.8869
  758TIP3    H123689   6.339   5.482  13.182  0.5626 -1.0736 -0.8167
  758TIP3    H223690   6.416   5.535  13.301  1.1208 -1.5511 -0.9629
  759TIP3   OH223691   0.273   0.030   1.569  0.1383 -0.0137 -0.1076
  759TIP3    H123692   0.328   0.107   1.553  1.0279 -0.5057  0.4536
  759TIP3    H223693   0.320  -0.042   1.527 -0.5438 -0.3037 -0.3876
  760TIP3   OH223694   4.219   2.854   5.317  0.1143 -0.0332  0.1229
  760TIP3    H123695   4.232   2.858   5.222  0.1297 -2.0211 -0.0181
  760TIP3    H223696   4.302   2.883   5.354  0.7851 -1.0199 -0.5431
  761TIP3   OH223697   6.544   3.473   0.733 -0.8313  0.0860 -0.4838
  761TIP3    H123698   6.455   3.472   0.769 -0.4263 -1.7398  0.5916
  761TIP3    H223699   6.582   3.390   0.762  2.0520  1.8215  1.1292
  762TIP3   OH223700   4.418   5.142   0.033  0.1011 -0.5240  0.4513
  762TIP3    H123701   4.454   5.066   0.077  0.8253  0.1561  1.0519
  762TIP3    H223702   4.480   5.161  -0.037  0.8125  0.4867  1.3222
  763TIP3   OH223703   0.525   2.827   5.700 -0.0088  0.2393  0.5235
  763TIP3    H123704   0.518   2.848   5.793  0.6314 -0.8654  0.8541
  763TIP3    H223705   0.577   2.746   5.698 -1.1963 -0.5473 -0.7057
  764TIP3   OH223706   4.526   1.992  12.705 -0.1650 -0.0620  0.2266
  764TIP3    H123707   4.536   1.984  12.610 -2.1438  1.4181 -0.1709
  764TIP3    H223708   4.548   1.905  12.739  1.9693 -0.2423 -1.4102
  765TIP3   OH223709   0.768   0.696   5.544 -0.4746  0.7654 -0.5943
  765TIP3    H123710   0.754   0.787   5.571 -2.0378  0.6055 -0.7661
  765TIP3    H223711   0.703   0.646   5.593  0.9538 -0.4161  0.1786
  766TIP3   OH223712   0.560   2.059   1.595  0.2427  0.2381  0.1289
  766TIP3    H123713   0.614   1.982   1.611 -0.1650  0.0814  0.7991
  766TIP3    H223714   0.475   2.023   1.569 -0.1960  0.4332  1.2354
  767TIP3   OH223715   5.986   3.646   0.714  0.2191 -0.5838  0.1921
  767TIP3    H123716   5.968   3.694   0.795  1.2536 -1.9131  1.2578
  767TIP3    H223717   5.900   3.633   0.675 -0.3025  0.1167  1.0428
  768TIP3   OH223718   4.799   5.107   3.204 -0.1562  0.0177 -0.4548
  768TIP3    H123719   4.825   5.124   3.113  0.2290 -1.2541 -0.6030
  768TIP3    H223720   4.720   5.160   3.216  0.5990  1.3398 -1.0561
  769TIP3   OH223721   2.283   1.457  13.840 -0.0783  0.3581  0.1395
  769TIP3    H123722   2.313   1.548  13.847  1.7020 -0.0695 -1.2486
  769TIP3    H223723   2.201   1.462  13.791  0.8047  1.1239 -1.3206
  770TIP3   OH223724   1.445   2.189   6.182 -0.6280 -0.0992 -0.6968
  770TIP3    H123725   1.377   2.128   6.210 -0.0984 -0.1543  0.5461
  770TIP3    H223726   1.527   2.139   6.188 -0.5050 -0.2835 -2.9272
  771TIP3   OH223727   5.264   0.979  15.153  0.0977  0.5473  0.1400
  771TIP3    H123728   5.227   0.896  15.121  1.4071  0.3607 -1.0272
  771TIP3    H223729   5.189   1.034  15.171 -0.9110 -1.3956  2.5012
  772TIP3   OH223730   6.686   0.229  14.983 -0.6595 -0.6387  0.1282
  772TIP3    H123731   6.759   0.289  14.998  1.3260 -2.5853 -1.0410
  772TIP3    H223732   6.614   0.285  14.954  0.2342  1.3972  1.6470
  773TIP3   OH223733   1.635   0.928  12.837 -0.3825 -0.3031  0.6086
  773TIP3    H123734   1.579   0.988  12.789 -1.4452 -0.7230  1.2953
  773TIP3    H223735   1.655   0.973  12.919  0.7683  0.0753  0.1466
  774TIP3   OH223736   2.251   3.545   5.706 -0.2786 -0.8766 -0.1994
  774TIP3    H123737   2.344   3.546   5.682 -0.7356 -2.7993 -2.4179
  774TIP3    H223738   2.208   3.590   5.632 -1.1761 -0.4845  0.5468
  775TIP3   OH223739   6.275   3.185  14.850 -0.0076 -0.1550 -0.4003
  775TIP3    H123740   6.322   3.124  14.793 -1.4829 -1.4387 -0.3240
  775TIP3    H223741   6.330   3.193  14.928 -0.2741 -2.3580  0.0999
  776TIP3   OH223742   4.755   5.674  17.059  0.3105 -0.1813 -0.0977
  776TIP3    H123743   4.805   5.676  16.977 -0.9318 -3.2851 -1.0867
  776TIP3    H223744   4.796   5.604  17.110 -1.5757 -1.2667  0.0129
  777TIP3   OH223745   2.388   1.900  15.833 -0.1487  0.4884 -0.0243
  777TIP3    H123746   2.479   1.870  15.828 -0.4685 -1.1155  2.2918
  777TIP3    H223747   2.338   1.833  15.786 -0.2704  0.7035 -0.2038
  778TIP3   OH223748   0.974   5.951   2.714 -0.0404 -0.1185  0.7006
  778TIP3    H123749   1.037   5.888   2.677 -0.2275 -0.1615  0.4522
  778TIP3    H223750   0.917   5.898   2.769 -0.9901 -0.3976 -0.4943
  779TIP3   OH223751   3.165   0.764   3.587  1.0957  0.6448  0.1861
  779TIP3    H123752   3.172   0.668   3.589 -0.1901  0.5340  0.8018
  779TIP3    H223753   3.085   0.781   3.537  1.1559  1.3765  0.3291
  780TIP3   OH223754   6.119   6.166  11.209 -0.0171 -0.4755  0.1304
  780TIP3    H123755   6.166   6.084  11.197  0.9129 -0.7213  3.9928
  780TIP3    H223756   6.176   6.217  11.267 -1.5565  2.0299 -0.4254
  781TIP3   OH223757   0.292   6.623  16.256  0.3361  0.1789 -0.6059
  781TIP3    H123758   0.370   6.568  16.254  1.3663  1.4921  1.4171
  781TIP3    H223759   0.245   6.596  16.335 -0.5686  0.3744 -1.0538
  782TIP3   OH223760   3.375   1.618  16.610 -0.0675  0.2712  0.6756
  782TIP3    H123761   3.364   1.711  16.589 -2.2219  0.3005  1.6924
  782TIP3    H223762   3.446   1.617  16.675 -1.0026  1.4027  1.7611
  783TIP3   OH223763   4.520   6.449  12.615  0.2269  0.1751  0.2571
  783TIP3    H123764   4.517   6.416  12.705  1.5345 -1.0084 -0.0838
  783TIP3    H223765   4.603   6.416  12.581 -0.4225  0.2722 -1.5191
  784TIP3   OH223766   1.296   5.178  13.473 -0.1325  0.1344  0.2009
  784TIP3    H123767   1.344   5.261  13.472 -1.1518  0.7481 -0.0875
  784TIP3    H223768   1.216   5.196  13.424 -1.0468 -0.5994  1.3452
  785TIP3   OH223769   5.312   5.277  15.170  0.2965  0.1844 -0.5601
  785TIP3    H123770   5.354   5.332  15.237  1.8254 -3.1155  1.4139
  785TIP3    H223771   5.371   5.284  15.094  0.9295  0.5811 -0.0505
  786TIP3   OH223772   6.216   2.962   0.611 -0.0754  0.9756 -0.2608
  786TIP3    H123773   6.267   3.032   0.650  0.0213  2.6624 -3.1440
  786TIP3    H223774   6.281   2.907   0.566 -0.3902  0.6145 -0.2783
  787TIP3   OH223775   5.569   5.510  11.486  0.5353 -0.6657 -0.4265
  787TIP3    H123776   5.575   5.547  11.574  0.0927  3.5212 -1.9362
  787TIP3    H223777   5.478   5.481  11.478  0.6700 -1.4037  0.5664
  788TIP3   OH223778   4.134   5.315  13.637  0.9044  0.9232 -0.1028
  788TIP3    H123779   4.086   5.301  13.555  1.9450  0.6528 -0.6901
  788TIP3    H223780   4.100   5.248  13.696  1.7673 -0.4196 -1.0640
  789TIP3   OH223781   2.402   4.192  11.628  0.8668 -0.4004 -0.3805
  789TIP3    H123782   2.364   4.145  11.554 -0.2427 -0.0002 -0.0814
  789TIP3    H223783   2.426   4.124  11.691  2.9591 -0.8566 -1.5662
  790TIP3   OH223784   6.717   6.625   0.879 -0.4803 -0.5096 -0.3700
  790TIP3    H123785   6.759   6.688   0.938 -0.8382  0.4928 -1.1584
  790TIP3    H223786   6.639   6.597   0.927 -0.7635  0.2878 -0.3517
  791TIP3   OH223787   0.707   6.641   4.762  0.5279  0.1436  0.2102
  791TIP3    H123788   0.795   6.649   4.798 -0.0307  0.2303  1.5975
  791TIP3    H223789   0.654   6.604   4.833 -0.8236  1.2664 -0.1526
  792TIP3   OH223790   2.472   2.635   1.169 -0.1815  0.5920  0.4138
  792TIP3    H123791   2.522   2.713   1.144  1.3935 -1.1482 -2.3617
  792TIP3    H223792   2.383   2.653   1.140 -0.2218  1.9209  1.2478
  793TIP3   OH223793   3.259   0.251  15.693 -0.1628  0.3273 -0.9247
  793TIP3    H123794   3.200   0.179  15.713  0.0222  0.4317  0.0049
  793TIP3    H223795   3.207   0.311  15.640 -0.8422  0.3388 -0.2519
  794TIP3   OH223796   1.533   6.704   2.793 -0.0846 -0.1651  0.2262
  794TIP3    H123797   1.460   6.754   2.756  0.1848  0.2018  0.1884
  794TIP3    H223798   1.540   6.626   2.738 -1.1309 -0.7345  0.8615
  795TIP3   OH223799   2.824   3.947   4.583 -0.2609 -0.4811  0.0326
  795TIP3    H123800   2.741   3.989   4.605  0.0527 -0.6334  1.6062
  795TIP3    H223801   2.865   3.928   4.667  2.0936  0.9870 -0.6941
  796TIP3   OH223802   0.356   4.839   0.973 -0.0227  0.1527  0.3235
  796TIP3    H123803   0.266   4.862   0.995 -0.6519 -0.2082 -1.7444
  796TIP3    H223804   0.359   4.838   0.878  1.6257 -1.9605  0.3140
  797TIP3   OH223805   5.249   4.834   4.438 -0.0922 -0.4274  0.3592
  797TIP3    H123806   5.214   4.819   4.526  0.0983 -0.8426  0.3666
  797TIP3    H223807   5.297   4.754   4.418  0.1613 -0.1914  0.0185
  798TIP3   OH223808   1.598   3.944  14.707 -0.7524 -0.0119 -0.6103
  798TIP3    H123809   1.642   3.999  14.772 -2.4108  0.6660  0.0095
  798TIP3    H223810   1.628   3.976  14.623 -0.8893  1.1518 -0.2265
  799TIP3   OH223811   4.094   1.916   2.617 -0.4062  0.0088  0.0879
  799TIP3    H123812   4.011   1.957   2.593 -0.2346  0.3156  0.0117
  799TIP3    H223813   4.160   1.985   2.602 -0.2741  0.1638  1.3190
  800TIP3   OH223814   2.007   3.590   4.035 -0.3980 -0.3495 -0.1421
  800TIP3    H123815   2.073   3.601   3.967  0.2444 -0.2371  0.4871
  800TIP3    H223816   1.923   3.600   3.989  0.0351  1.2009 -0.6645
  801TIP3   OH223817   0.679   3.045   0.399 -0.1392  0.2621  0.5894
  801TIP3    H123818   0.680   3.126   0.449  2.0344  0.1573  0.8122
  801TIP3    H223819   0.771   3.031   0.374 -0.5635 -1.7523 -0.0294
  802TIP3   OH223820   2.576   2.113   0.112 -0.5030  0.1479  0.1137
  802TIP3    H123821   2.537   2.026   0.119 -0.5216  0.2635  1.8924
  802TIP3    H223822   2.522   2.168   0.169 -0.1748  1.2252 -0.5759
  803TIP3   OH223823   2.075   4.589  17.170  0.1944 -0.4139 -0.6733
  803TIP3    H123824   2.059   4.683  17.171 -3.2109 -0.8697 -0.2676
  803TIP3    H223825   2.068   4.564  17.078 -3.0751 -0.6975 -0.4733
  804TIP3   OH223826   6.324   5.616   4.383 -0.3187  0.5699 -0.5159
  804TIP3    H123827   6.266   5.620   4.307 -0.7756  0.1540 -0.1973
  804TIP3    H223828   6.275   5.565   4.448  0.8263 -0.6928 -0.6026
  805TIP3   OH223829   2.982   0.150  13.396 -0.5531 -0.0582  0.5654
  805TIP3    H123830   2.969   0.155  13.491 -0.8279 -0.9916  0.5852
  805TIP3    H223831   2.894   0.133  13.361 -0.5108  0.6346  0.1149
  806TIP3   OH223832   2.753   2.330   6.182 -0.8438 -0.1586 -0.2772
  806TIP3    H123833   2.817   2.388   6.143 -0.5546 -0.7883 -0.7575
  806TIP3    H223834   2.669   2.361   6.149 -0.6652 -0.1896 -0.7659
  807TIP3   OH223835   4.775   3.701  11.860 -0.2162  0.2948  0.0355
  807TIP3    H123836   4.783   3.797  11.862 -0.9423  0.3439  0.9638
  807TIP3    H223837   4.821   3.676  11.780 -0.6236  1.4826 -0.6082
  808TIP3   OH223838   1.821   4.076   6.080 -0.2534 -0.3776  0.1190
  808TIP3    H123839   1.894   4.016   6.095 -0.5744 -0.4189  1.7091
  808TIP3    H223840   1.743   4.025   6.103 -0.7975 -0.2917 -1.4304
  809TIP3   OH223841   1.314   3.707   2.810 -0.1812  0.2904  0.0464
  809TIP3    H123842   1.403   3.720   2.778  0.0646  1.3933  1.1001
  809TIP3    H223843   1.312   3.754   2.894 -1.9569  0.8853 -0.2901
  810TIP3   OH223844   0.268   3.599   1.462  0.3098  0.3325 -0.4216
  810TIP3    H123845   0.295   3.561   1.545  0.5677  0.8231 -0.2784
  810TIP3    H223846   0.296   3.690   1.467 -0.7571  0.6761 -0.5619
  811TIP3   OH223847   1.189   3.677  12.351  0.4591 -0.3276 -0.4152
  811TIP3    H123848   1.141   3.757  12.372 -1.3551 -1.1016 -1.3389
  811TIP3    H223849   1.134   3.633  12.286  2.0488 -1.6963 -0.8904
  812TIP3   OH223850   5.111   2.387   1.484 -0.4187 -0.4942 -0.2537
  812TIP3    H123851   5.137   2.367   1.394 -0.1213 -1.7764  0.0972
  812TIP3    H223852   5.042   2.323   1.503 -1.4907  0.6875 -0.0317
  813TIP3   OH223853   2.006   3.922   3.275  0.0172  0.4647  0.2424
  813TIP3    H123854   2.044   3.913   3.362 -0.2920 -3.2380  0.1646
  813TIP3    H223855   2.040   3.847   3.226  0.0638  2.3219 -2.8424
  814TIP3   OH223856   0.684   3.915   5.493 -0.3689  0.5053 -0.2292
  814TIP3    H123857   0.719   3.870   5.570 -1.0319  0.0767 -0.1719
  814TIP3    H223858   0.611   3.966   5.526 -0.1537  0.9556 -0.4421
  815TIP3   OH223859   0.101   0.095   4.684  0.1755  0.0847 -0.4400
  815TIP3    H123860   0.028   0.154   4.701  0.1050  0.1591 -0.9693
  815TIP3    H223861   0.080   0.015   4.732 -0.6797 -0.2080 -1.2744
  816TIP3   OH223862   1.133   2.161  14.664 -0.0599  0.3451  0.6784
  816TIP3    H123863   1.083   2.137  14.742  0.4038 -2.1629  0.2961
  816TIP3    H223864   1.134   2.081  14.611 -2.6458  2.5756 -3.2614
  817TIP3   OH223865   3.986   2.335   0.968  0.4980  0.1894  0.7588
  817TIP3    H123866   4.022   2.414   0.928 -0.0623  0.7721  1.3555
  817TIP3    H223867   4.005   2.345   1.062  0.4425 -0.3927  0.8354
  818TIP3   OH223868   5.855   2.753  15.743  0.2143  0.8811  0.1936
  818TIP3    H123869   5.851   2.658  15.754  0.1920  0.9264  0.6028
  818TIP3    H223870   5.924   2.781  15.804 -0.1723  1.1882  0.4909
  819TIP3   OH223871   2.914   4.064  13.749  0.5480  0.1182 -0.1379
  819TIP3    H123872   2.928   3.994  13.685 -0.1720 -1.5924  1.4865
  819TIP3    H223873   2.993   4.063  13.803  0.2834  0.1498  0.2548
  820TIP3   OH223874   0.141   6.111  16.868 -0.1875 -0.1618  0.1166
  820TIP3    H123875   0.077   6.171  16.832 -1.0878 -0.4754  1.1502
  820TIP3    H223876   0.215   6.114  16.806 -0.7192  1.0551 -0.4787
  821TIP3   OH223877   4.545   2.976   0.013  0.4556  0.3225 -0.4470
  821TIP3    H123878   4.637   2.953   0.022  0.9854  2.3279 -0.2262
  821TIP3    H223879   4.540   3.068   0.039 -1.4859  0.4818 -1.1637
  822TIP3   OH223880   2.435   5.888   5.764  0.3363 -0.3573  0.0177
  822TIP3    H123881   2.374   5.843   5.823 -0.0722  1.8349  1.3736
  822TIP3    H223882   2.496   5.820   5.736  0.4668 -1.5537  2.8967
  823TIP3   OH223883   0.800   3.679  13.111 -0.4549  0.1033  0.1008
  823TIP3    H123884   0.723   3.648  13.158  0.8598 -2.0996  0.9546
  823TIP3    H223885   0.778   3.667  13.018 -0.4700 -2.3834  0.3783
  824TIP3   OH223886   4.897   0.192  14.140  0.5935  0.5200 -0.2158
  824TIP3    H123887   4.901   0.141  14.221 -0.0720 -0.0938 -0.5506
  824TIP3    H223888   4.842   0.139  14.082  0.0450  1.5321 -0.6448
  825TIP3   OH223889   0.993   3.414   2.956 -0.1694 -0.3015 -0.1425
  825TIP3    H123890   1.012   3.493   2.906 -0.8617 -0.8459 -1.3014
  825TIP3    H223891   1.077   3.390   2.996  0.9493 -0.9718 -2.6902
  826TIP3   OH223892   2.526   4.969   2.253 -0.6811 -0.6044  0.3878
  826TIP3    H123893   2.484   5.005   2.331 -1.9952 -2.4582  0.6015
  826TIP3    H223894   2.465   4.987   2.182  0.8534  1.7581 -0.4573
  827TIP3   OH223895   1.122   2.692  12.894 -0.3213 -0.0961  0.8547
  827TIP3    H123896   1.180   2.751  12.847  0.5780 -1.3344  0.3448
  827TIP3    H223897   1.148   2.604  12.865 -2.3461 -0.7198  0.7294
  828TIP3   OH223898   2.820   6.053  11.177 -0.1142  0.5095 -0.3022
  828TIP3    H123899   2.881   6.081  11.110  0.6216  2.3783  1.0492
  828TIP3    H223900   2.740   6.103  11.160 -0.0247  0.7689  0.0180
  829TIP3   OH223901   1.133   4.250  10.833 -0.4528 -0.1795  0.3922
  829TIP3    H123902   1.121   4.344  10.818  0.1622 -0.1613 -0.0277
  829TIP3    H223903   1.060   4.209  10.788  0.2479  0.0044 -0.9707
  830TIP3   OH223904   6.099   2.863   0.097  0.0672  0.4778 -0.2442
  830TIP3    H123905   6.122   2.930   0.161  2.8472 -0.1531 -0.4614
  830TIP3    H223906   6.092   2.910   0.014 -1.4850  0.9715  0.1277
  831TIP3   OH223907   2.562   3.430   3.309 -0.3541  0.4778  0.6816
  831TIP3    H123908   2.494   3.479   3.355 -0.8293  1.4440 -0.9635
  831TIP3    H223909   2.641   3.482   3.319 -0.4915  0.7647  0.2982
  832TIP3   OH223910   1.206   4.991  12.715  0.0029  0.6340  0.0757
  832TIP3    H123911   1.114   5.006  12.695  0.2059  1.4382 -0.2824
  832TIP3    H223912   1.245   4.970  12.630  0.5858  2.6067 -0.1974
  833TIP3   OH223913   0.409   5.103  15.731 -0.1029 -0.2650  0.3296
  833TIP3    H123914   0.414   5.047  15.654  1.3150 -1.2862  1.1240
  833TIP3    H223915   0.321   5.139  15.728 -0.4010 -1.0223 -1.2468
  834TIP3   OH223916   3.235   1.128  16.229  0.0751  0.9883  0.9614
  834TIP3    H123917   3.237   1.076  16.149 -2.9155  1.5648  0.4010
  834TIP3    H223918   3.292   1.203  16.211 -3.7889  3.5028 -2.5519
  835TIP3   OH223919   5.569   0.104   3.801 -0.1160  0.4516 -0.3763
  835TIP3    H123920   5.650   0.065   3.769 -0.6984  0.4797 -1.9723
  835TIP3    H223921   5.568   0.193   3.763 -1.4646  0.0170 -1.4662
  836TIP3   OH223922   5.926   2.852  11.103  0.1428 -0.6981  0.0392
  836TIP3    H123923   5.891   2.856  11.015  1.4123 -1.2893 -0.5190
  836TIP3    H223924   5.996   2.787  11.098  0.9874  0.0765  1.2162
  837TIP3   OH223925   1.207   2.785   1.638  0.1845  0.4264  0.4890
  837TIP3    H123926   1.265   2.766   1.712 -0.9134 -1.3458  0.9499
  837TIP3    H223927   1.266   2.814   1.569  1.6266 -1.0591  1.0241
  838TIP3   OH223928   4.650   6.710  14.248 -0.0870 -0.3680  0.2715
  838TIP3    H123929   4.604   6.641  14.200  0.5356 -2.1680  2.1182
  838TIP3    H223930   4.586   6.740  14.313  0.3390 -0.7569  0.8798
  839TIP3   OH223931   6.090   6.070  10.771 -0.2178  0.0549 -0.0308
  839TIP3    H123932   6.138   5.989  10.754 -0.5282  0.3495 -2.8052
  839TIP3    H223933   6.155   6.129  10.807  0.7482 -0.5588 -0.7013
  840TIP3   OH223934   3.657   5.665   3.935 -0.2814  0.3586 -0.1751
  840TIP3    H123935   3.750   5.684   3.937 -0.3880  0.8706  0.2433
  840TIP3    H223936   3.617   5.736   3.985 -0.7494 -0.7578  1.0772
  841TIP3   OH223937   2.565   5.545  15.161 -0.2180  0.1177 -0.0808
  841TIP3    H123938   2.607   5.608  15.219 -1.7045  0.0518  1.1130
  841TIP3    H223939   2.632   5.526  15.095  1.2459  0.7710  1.1481
  842TIP3   OH223940   2.782   6.517  14.404  0.3746 -0.2492 -0.7950
  842TIP3    H123941   2.718   6.480  14.343  0.7637 -3.0957  0.3891
  842TIP3    H223942   2.866   6.484  14.374  0.9134  0.7180 -0.3788
  843TIP3   OH223943   2.035   4.687   6.439  0.2812 -0.4367  0.3390
  843TIP3    H123944   1.950   4.731   6.435  0.4510  0.3464  3.3518
  843TIP3    H223945   2.098   4.756   6.420  0.3996 -0.0030  2.1688
  844TIP3   OH223946   1.925   4.247   0.252  0.3393  0.1994 -0.0073
  844TIP3    H123947   2.018   4.269   0.255  0.3827  0.0551 -0.2795
  844TIP3    H223948   1.907   4.209   0.338  1.1286 -2.1301 -0.7785
  845TIP3   OH223949   5.784   0.645  14.385  0.0943 -0.3205 -0.2021
  845TIP3    H123950   5.746   0.702  14.318  0.3462 -0.0593 -0.1279
  845TIP3    H223951   5.865   0.612  14.346 -0.1695 -0.8183 -0.3337
  846TIP3   OH223952   1.251   4.549  12.654 -0.3152  0.2111 -0.7150
  846TIP3    H123953   1.306   4.538  12.732 -2.4281 -1.1953  0.6756
  846TIP3    H223954   1.201   4.629  12.671 -0.0795  0.4449 -1.1063
  847TIP3   OH223955   0.291   6.112  14.142 -0.2485 -0.2588 -0.2707
  847TIP3    H123956   0.262   6.089  14.054 -0.3871  1.7959 -0.8222
  847TIP3    H223957   0.291   6.208  14.142  2.8322 -0.1508  0.9501
  848TIP3   OH223958   5.927   1.815   1.413  0.0325 -0.0271  0.1810
  848TIP3    H123959   5.943   1.880   1.481  0.7292 -0.3911  0.3749
  848TIP3    H223960   6.012   1.775   1.398 -0.5970 -1.7565  0.9470
  849TIP3   OH223961   3.088   4.262   3.601  0.3797  0.1672 -0.1064
  849TIP3    H123962   3.116   4.339   3.650  0.7202 -0.5358  0.8407
  849TIP3    H223963   3.168   4.226   3.564  0.3636 -0.2496  0.2450
  850TIP3   OH223964   5.969   4.644   5.046  0.6554  0.1769 -0.3001
  850TIP3    H123965   6.064   4.640   5.045  0.6403 -0.1159 -1.5270
  850TIP3    H223966   5.943   4.645   4.954 -0.5094  0.8250  0.0024
  851TIP3   OH223967   5.773   4.238   1.188 -0.2283  0.3837  0.4202
  851TIP3    H123968   5.806   4.201   1.106 -1.3720 -0.1685  0.1873
  851TIP3    H223969   5.708   4.175   1.218 -0.7239  1.2032  1.1098
  852TIP3   OH223970   1.679   6.708   3.519 -0.4014 -0.7814  0.0865
  852TIP3    H123971   1.666   6.620   3.555  0.4204 -0.4749  1.2006
  852TIP3    H223972   1.771   6.727   3.535 -0.5650  0.2869 -0.1428
  853TIP3   OH223973   2.213   5.835   4.108 -0.3226  0.6432 -0.1233
  853TIP3    H123974   2.181   5.758   4.155 -0.2008  1.6219  1.6749
  853TIP3    H223975   2.160   5.839   4.029  0.0747 -1.5956 -0.5866
  854TIP3   OH223976   5.588   3.257   1.226  0.2248  0.3287 -0.1978
  854TIP3    H123977   5.653   3.325   1.242  1.1795 -0.4013 -0.9071
  854TIP3    H223978   5.544   3.247   1.311  0.8983  0.9553  0.2438
  855TIP3   OH223979   4.336   0.262   2.275 -0.6851  0.3206 -0.3048
  855TIP3    H123980   4.244   0.266   2.298 -0.7391 -1.5415 -0.0388
  855TIP3    H223981   4.340   0.200   2.202  0.5053 -0.9220  0.7420
  856TIP3   OH223982   0.555   5.922  16.901 -0.1066  0.9197  0.7077
  856TIP3    H123983   0.612   5.858  16.858 -1.6241 -0.6679  0.9572
  856TIP3    H223984   0.546   5.890  16.991 -0.0045  2.1177  1.1638
  857TIP3   OH223985   0.985   4.138  11.556  0.2020  0.1009 -0.1563
  857TIP3    H123986   1.054   4.162  11.493 -0.3064 -0.3660 -0.9034
  857TIP3    H223987   0.962   4.221  11.598 -1.2744  0.9636 -2.4502
  858TIP3   OH223988   4.270   3.555  13.437 -0.0098 -0.1446 -0.5017
  858TIP3    H123989   4.269   3.612  13.514  0.7067 -2.7236  1.5797
  858TIP3    H223990   4.358   3.566  13.401  0.5219 -0.7592  0.5740
  859TIP3   OH223991   1.140   0.029  14.451  0.0954 -0.1981  0.1064
  859TIP3    H123992   1.093   0.035  14.534  1.9551  0.1380  1.1783
  859TIP3    H223993   1.193  -0.050  14.460  2.7291  1.5007  0.6153
  860TIP3   OH223994   2.132   5.182   1.719 -0.3221  0.5234 -0.3552
  860TIP3    H123995   2.161   5.219   1.802  1.3471 -0.1293 -0.6038
  860TIP3    H223996   2.042   5.154   1.734 -0.2508  0.9988  1.0233
  861TIP3   OH223997   0.559   6.180   5.082  0.4705  0.2913  0.5761
  861TIP3    H123998   0.609   6.249   5.039 -0.2648  1.1470  1.0627
  861TIP3    H223999   0.469   6.193   5.052  0.1406  0.2103  1.4961
  862TIP3   OH224000   5.717   2.598   0.682  0.7818  0.0888 -0.1848
  862TIP3    H124001   5.637   2.639   0.713  1.3659 -0.2358  1.9156
  862TIP3    H224002   5.726   2.518   0.734  2.0319 -0.3127 -0.9550
  863TIP3   OH224003   0.717   5.935  11.051 -0.4977  0.8135 -0.0613
  863TIP3    H124004   0.703   5.860  10.994 -0.3847  0.6260  0.1561
  863TIP3    H224005   0.658   5.919  11.125 -1.9766  1.9279 -0.9387
  864TIP3   OH224006   2.087   6.604  12.065 -0.0490  0.3842  0.1772
  864TIP3    H124007   2.093   6.579  11.973 -1.8915  0.1033  0.1075
  864TIP3    H224008   2.075   6.699  12.064  0.5607  0.4693  0.1783
  865TIP3   OH224009   0.280   0.016   0.909 -0.4559 -0.0474  0.1455
  865TIP3    H124010   0.315  -0.070   0.887  3.8734  2.1926 -3.2559
  865TIP3    H224011   0.350   0.060   0.957 -1.6164  2.3230 -0.1585
  866TIP3   OH224012   1.210   4.584  17.080  0.0885 -0.2629 -0.5866
  866TIP3    H124013   1.123   4.580  17.039  0.0179 -1.7848 -0.3469
  866TIP3    H224014   1.262   4.636  17.019 -0.6022 -0.6146 -1.5065
  867TIP3   OH224015   4.038   0.656   4.765  0.3143 -0.4591 -0.1069
  867TIP3    H124016   4.023   0.663   4.859 -2.9110 -0.4423 -0.5327
  867TIP3    H224017   4.031   0.745   4.732  1.9809 -0.3800 -0.3784
  868TIP3   OH224018   6.126   5.726   4.776  0.8220 -0.2496  0.4819
  868TIP3    H124019   6.042   5.734   4.731  0.9589 -1.5590 -0.0602
  868TIP3    H224020   6.173   5.806   4.754  0.1769 -0.0507 -0.2005
  869TIP3   OH224021   1.631   6.448   4.840 -0.3405  0.5091  0.3731
  869TIP3    H124022   1.624   6.544   4.846 -1.8983  0.4175  0.4639
  869TIP3    H224023   1.605   6.417   4.927 -0.7478 -0.0220  0.0641
  870TIP3   OH224024   4.372   5.393  14.857  0.1791 -0.0965 -0.2500
  870TIP3    H124025   4.321   5.322  14.818 -0.1805  0.0926 -0.1285
  870TIP3    H224026   4.462   5.378  14.826  0.1427 -0.7083 -0.0719
  871TIP3   OH224027   2.134   0.990  16.318  0.4404 -0.4609 -0.2198
  871TIP3    H124028   2.163   1.078  16.293 -2.2323  0.0200 -2.0795
  871TIP3    H224029   2.054   1.005  16.367  0.0811 -1.8424 -0.3505
  872TIP3   OH224030   4.978   0.818   0.601 -0.2780 -0.5530 -0.2969
  872TIP3    H124031   4.915   0.751   0.574  0.6574 -1.0648 -1.2615
  872TIP3    H224032   5.057   0.798   0.552  1.1393 -0.7777  1.9265
  873TIP3   OH224033   5.132   2.110  15.660  0.1290 -0.0730  0.0600
  873TIP3    H124034   5.225   2.127  15.675 -0.1312  1.0117  0.5181
  873TIP3    H224035   5.131   2.031  15.606  1.2461 -1.1970  1.6080
  874TIP3   OH224036   4.233   6.788  13.278  0.5518 -0.3236  0.2169
  874TIP3    H124037   4.295   6.861  13.265  1.3779 -1.0485 -0.0080
  874TIP3    H224038   4.232   6.774  13.373  0.2934  0.0603  0.2729
  875TIP3   OH224039   2.683   4.170  11.445 -0.0864  0.1160  0.5664
  875TIP3    H124040   2.752   4.206  11.389 -0.2618  0.6943  0.7095
  875TIP3    H224041   2.688   4.076  11.432 -1.0411  0.3066 -1.5184
  876TIP3   OH224042   0.336   1.269  16.661  0.0845  0.0436  0.1061
  876TIP3    H124043   0.379   1.209  16.722  0.5674  1.2206  0.9726
  876TIP3    H224044   0.242   1.258  16.678  0.2091  0.2464  0.9509
  877TIP3   OH224045   4.688   6.566  16.788  0.4544 -0.3584 -0.5547
  877TIP3    H124046   4.652   6.591  16.704 -0.8916 -1.2471 -0.2625
  877TIP3    H224047   4.745   6.491  16.769 -0.4846 -1.0756 -0.5747
  878TIP3   OH224048   3.358   4.921  14.777  0.0261  0.0681 -0.1908
  878TIP3    H124049   3.373   5.007  14.738  0.6113  1.9045  3.5718
  878TIP3    H224050   3.446   4.888  14.797 -0.2169  0.4413  1.7476
  879TIP3   OH224051   4.748   0.399   3.150  0.0797 -0.8021 -0.1236
  879TIP3    H124052   4.717   0.478   3.194 -0.2440 -1.8449  1.6245
  879TIP3    H224053   4.667   0.353   3.126  0.2492 -1.2867  0.2091
  880TIP3   OH224054   0.629   4.582   3.388 -0.1424  0.0419 -0.1655
  880TIP3    H124055   0.627   4.613   3.297  1.3069  0.5577 -0.0444
  880TIP3    H224056   0.719   4.551   3.401 -0.6509 -1.1098  0.7499
  881TIP3   OH224057   1.498   0.162  11.633 -0.1053  0.1758  0.3874
  881TIP3    H124058   1.468   0.077  11.664 -0.6298  0.9478  2.1174
  881TIP3    H224059   1.422   0.200  11.589  0.1228 -0.2230 -0.3657
  882TIP3   OH224060   6.703   5.693  14.785 -0.2835  0.4000 -0.3942
  882TIP3    H124061   6.790   5.656  14.801 -0.7072 -0.1084  0.8654
  882TIP3    H224062   6.717   5.758  14.717  0.7405 -1.0907 -1.6840
  883TIP3   OH224063   1.077   5.996   5.760 -0.5629 -0.1533  0.3032
  883TIP3    H124064   0.994   5.978   5.715 -0.6986  0.0497  0.4696
  883TIP3    H224065   1.142   5.995   5.690 -0.6610 -0.6126  0.2112
  884TIP3   OH224066   5.255   2.094   4.881  0.0043  0.3933  0.4580
  884TIP3    H124067   5.270   2.121   4.790  0.1431 -0.9686  0.0548
  884TIP3    H224068   5.172   2.045   4.878  0.7724 -0.9819  0.7603
  885TIP3   OH224069   6.513   0.840  13.003 -0.0976  0.7096  0.1059
  885TIP3    H124070   6.582   0.872  13.061  1.4020  2.9494 -2.6056
  885TIP3    H224071   6.445   0.907  13.007 -0.3721  0.4469 -0.0703
  886TIP3   OH224072   3.555   3.389   2.370  0.1675 -0.3007  0.2396
  886TIP3    H124073   3.528   3.304   2.336  1.2189 -0.5985  0.0893
  886TIP3    H224074   3.631   3.413   2.317 -0.1103  0.7412  0.2799
  887TIP3   OH224075   0.582   4.270  14.541  0.1048 -0.2714  0.0839
  887TIP3    H124076   0.549   4.325  14.613  1.6762  2.4054 -1.0898
  887TIP3    H224077   0.666   4.237  14.573  1.0134  1.2765 -0.5975
  888TIP3   OH224078   5.913   1.840   1.911  0.4913 -0.3141  0.4159
  888TIP3    H124079   5.852   1.767   1.908 -0.0475  0.1433  0.0010
  888TIP3    H224080   6.000   1.799   1.911  0.2065 -0.9350 -0.4755
  889TIP3   OH224081   5.324   6.728  13.698  0.2920 -0.0324 -0.6202
  889TIP3    H124082   5.277   6.713  13.616  0.0246 -0.6129 -0.3622
  889TIP3    H224083   5.332   6.824  13.703  1.0085 -0.0219 -1.7056
  890TIP3   OH224084   0.570   4.013  13.248  0.2106  0.6214 -0.6691
  890TIP3    H124085   0.635   4.059  13.301  1.2673 -0.9402 -0.5203
  890TIP3    H224086   0.588   3.920  13.264 -0.7069  0.1254 -2.2752
  891TIP3   OH224087   3.909   4.422   4.452 -0.2803  0.1579 -0.4223
  891TIP3    H124088   3.924   4.510   4.418 -2.3527  0.5394 -0.4773
  891TIP3    H224089   3.854   4.435   4.529 -0.2628 -1.0725 -0.1761
  892TIP3   OH224090   1.346   5.304   4.303  0.1293 -0.4355  0.4633
  892TIP3    H124091   1.333   5.210   4.312 -1.6357 -0.1912  0.7559
  892TIP3    H224092   1.432   5.320   4.343  1.0507 -2.0597 -0.7462
  893TIP3   OH224093   5.641   1.276   0.681 -0.0078  0.5832 -0.2850
  893TIP3    H124094   5.560   1.322   0.704  0.7854  1.2535  1.3399
  893TIP3    H224095   5.613   1.206   0.621 -1.6365  1.3763 -0.5055
  894TIP3   OH224096   0.376   0.874  16.336  0.0214 -0.0060  0.3170
  894TIP3    H124097   0.383   0.866  16.431 -0.9241 -1.4898  0.3016
  894TIP3    H224098   0.391   0.785  16.303 -0.5416  0.3034 -0.8533
  895TIP3   OH224099   6.568   5.104   5.548  0.1925  0.2309 -0.1088
  895TIP3    H124100   6.499   5.165   5.521 -0.7314 -0.8984 -0.3468
  895TIP3    H224101   6.603   5.070   5.466  3.5972  3.4046 -0.2560
  896TIP3   OH224102   2.340   0.027   5.128  0.4014 -0.4839  0.4863
  896TIP3    H124103   2.326   0.109   5.176  0.7499  0.7916 -1.4519
  896TIP3    H224104   2.422   0.042   5.081 -0.9886 -0.7745 -2.1671
  897TIP3   OH224105   1.899   4.816   5.014  0.0246 -0.5485  0.0657
  897TIP3    H124106   1.841   4.887   5.039  0.6090 -0.5207  1.4097
  897TIP3    H224107   1.952   4.852   4.943 -1.5694 -0.5832 -1.2114
  898TIP3   OH224108   5.241   2.211   0.329 -0.1910  0.2120  0.1367
  898TIP3    H124109   5.244   2.116   0.322 -0.4919  0.3120 -1.6653
  898TIP3    H224110   5.165   2.229   0.383 -0.7352 -0.5481 -0.3655
  899TIP3   OH224111   4.593   2.305  13.122 -0.2591 -0.0895  0.2251
  899TIP3    H124112   4.628   2.288  13.209  1.5882 -2.0539 -0.8170
  899TIP3    H224113   4.522   2.241  13.112  1.1854 -1.6393 -0.5809
  900TIP3   OH224114   2.771   4.161   2.970 -0.1065 -0.7048 -0.9763
  900TIP3    H124115   2.759   4.245   3.014 -0.5521 -0.5500 -1.3779
  900TIP3    H224116   2.682   4.129   2.956  0.0663 -1.2984 -0.7247
  901TIP3   OH224117   6.082   0.704   3.192  0.0670  0.1303  0.6439
  901TIP3    H124118   6.120   0.740   3.112 -0.0083 -0.0622  0.5206
  901TIP3    H224119   6.124   0.619   3.203 -0.4349 -0.1539  0.4196
  902TIP3   OH224120   4.309   2.457  13.168 -0.1772  1.0708 -0.5224
  902TIP3    H124121   4.365   2.462  13.091 -0.3152  0.4825 -0.6617
  902TIP3    H224122   4.299   2.364  13.185 -0.9753  1.1719 -0.4005
  903TIP3   OH224123   4.261   2.265  16.495  0.6055 -0.2889 -0.9407
  903TIP3    H124124   4.281   2.257  16.588 -0.0369  1.7185 -0.5841
  903TIP3    H224125   4.183   2.211  16.482  1.1286 -1.1726 -0.4918
  904TIP3   OH224126   2.123   6.446  16.677 -0.1573  0.2829 -0.1245
  904TIP3    H124127   2.037   6.487  16.666 -1.4098 -1.6943  1.5629
  904TIP3    H224128   2.169   6.504  16.738 -1.4649 -0.1215  1.3195
  905TIP3   OH224129   1.693   2.713   5.528 -0.2709 -0.1350  0.1985
  905TIP3    H124130   1.620   2.703   5.467  0.0371  1.3387 -0.4512
  905TIP3    H224131   1.745   2.784   5.492 -0.0486  0.7655  2.1765
  906TIP3   OH224132   1.905   3.149   4.407 -0.1341  0.3518  0.4227
  906TIP3    H124133   1.812   3.130   4.422 -0.6409  2.2817 -0.0672
  906TIP3    H224134   1.913   3.153   4.312 -0.0511  2.3327  0.4815
  907TIP3   OH224135   5.105   0.149  16.056 -0.3984 -0.0958  0.9445
  907TIP3    H124136   5.124   0.082  15.991 -0.9177 -1.2387  1.9258
  907TIP3    H224137   5.191   0.184  16.081 -0.1722  0.1008 -0.0547
  908TIP3   OH224138   1.925   6.733  14.135  0.0517  0.1440  0.2791
  908TIP3    H124139   1.981   6.708  14.208  1.0907 -1.7210 -1.0722
  908TIP3    H224140   1.841   6.754  14.175  1.6235  3.1037  2.3881
  909TIP3   OH224141   3.136   5.701   6.145  0.0014  0.3107 -0.2133
  909TIP3    H124142   3.063   5.664   6.195 -0.1212  2.6549  1.5107
  909TIP3    H224143   3.144   5.791   6.178  2.0937  0.9045 -2.1247
  910TIP3   OH224144   2.013   3.999   2.172  0.4603 -0.5390  0.6492
  910TIP3    H124145   1.951   4.016   2.102 -0.2561  0.5868  1.5094
  910TIP3    H224146   1.976   3.926   2.222 -1.6113  1.7134  2.6670
  911TIP3   OH224147   0.160   3.902  13.856  0.0962 -0.4686 -0.2209
  911TIP3    H124148   0.135   3.834  13.919  0.9910 -0.6934 -0.1075
  911TIP3    H224149   0.118   3.875  13.775 -0.7104 -0.4057  0.1583
  912TIP3   OH224150   5.009   2.693   1.202  0.2646  0.3591 -0.5633
  912TIP3    H124151   4.960   2.732   1.130 -0.8789  1.4943  0.7905
  912TIP3    H224152   4.973   2.605   1.211  0.3868  0.2230 -1.3257
  913TIP3   OH224153   4.926   2.258  15.359  0.3092 -0.4231  0.1330
  913TIP3    H124154   4.941   2.330  15.298  2.8367 -1.0153 -0.0305
  913TIP3    H224155   4.903   2.183  15.303 -0.3943 -0.2440  0.1678
  914TIP3   OH224156   5.352   6.785   5.958 -0.1167 -0.0160 -0.3067
  914TIP3    H124157   5.360   6.860   5.899 -1.1619 -0.8251 -1.5153
  914TIP3    H224158   5.344   6.824   6.045  0.3990  1.2305 -0.7888
  915TIP3   OH224159   1.261   1.964   4.171 -0.3288  0.5593 -0.2960
  915TIP3    H124160   1.309   1.946   4.252  0.1329  1.4670 -0.3553
  915TIP3    H224161   1.318   1.931   4.102 -0.4985  0.2314 -0.2798
  916TIP3   OH224162   2.169   5.058  11.259  0.2062  0.2201 -0.3442
  916TIP3    H124163   2.077   5.054  11.233 -0.1679  2.6551  0.3032
  916TIP3    H224164   2.214   5.091  11.181 -0.1789  2.9169  0.4597
  917TIP3   OH224165   0.946   4.933  14.298 -0.3959 -0.2570  0.2580
  917TIP3    H124166   1.026   4.911  14.250 -0.7815  0.8225 -0.9333
  917TIP3    H224167   0.970   4.921  14.390  0.7973 -1.0005 -0.1222
  918TIP3   OH224168   2.845   2.898   0.210  0.6526 -0.3909 -0.7454
  918TIP3    H124169   2.792   2.833   0.164 -0.5833 -0.0325  0.1067
  918TIP3    H224170   2.817   2.982   0.173 -0.2800 -0.1058  0.5180
  919TIP3   OH224171   2.089   0.836   2.647 -0.1584 -0.0114 -0.6200
  919TIP3    H124172   2.072   0.851   2.740  0.6608  0.1043 -0.4847
  919TIP3    H224173   2.116   0.922   2.614 -1.1267  0.1195 -1.1325
  920TIP3   OH224174   3.218   3.657   2.074 -0.1399  0.5687  0.1634
  920TIP3    H124175   3.223   3.574   2.121  0.2310 -0.2038 -1.1826
  920TIP3    H224176   3.283   3.713   2.117  0.2757 -0.1606  0.4987
  921TIP3   OH224177   1.714   5.708  13.910 -0.4174  0.0626 -0.2567
  921TIP3    H124178   1.730   5.741  13.821 -0.0320 -0.6350 -0.4477
  921TIP3    H224179   1.798   5.719  13.955 -0.6595  0.5868  0.0903
  922TIP3   OH224180   5.717   3.949  14.055  0.3711 -0.2060 -0.0679
  922TIP3    H124181   5.674   3.997  14.126  0.8027 -0.4042  0.3366
  922TIP3    H224182   5.724   4.013  13.984 -1.9788 -0.5981 -0.7341
  923TIP3   OH224183   5.268   4.163  12.980 -1.0683  0.6820  0.1179
  923TIP3    H124184   5.359   4.138  12.960 -2.0395 -1.8867 -1.5491
  923TIP3    H224185   5.262   4.153  13.075  0.3272  0.7512  0.2451
  924TIP3   OH224186   1.681   1.987   4.764  0.3959  0.2142  0.1479
  924TIP3    H124187   1.650   2.076   4.749  2.6000  0.8338 -1.1718
  924TIP3    H224188   1.767   1.998   4.805  1.4840 -1.2025 -1.5883
  925TIP3   OH224189   4.323   0.558  11.548 -0.0235  1.3251 -0.5617
  925TIP3    H124190   4.404   0.607  11.535  1.0280 -0.7950 -2.8022
  925TIP3    H224191   4.345   0.491  11.613  0.3564  0.1712 -1.8375
  926TIP3   OH224192   1.037   4.336  14.891  0.5832  0.2289  0.0448
  926TIP3    H124193   1.003   4.265  14.838 -0.6403  0.9718 -0.2118
  926TIP3    H224194   1.130   4.338  14.872  0.5656 -1.0374 -0.2412
  927TIP3   OH224195   0.273   1.795  15.099 -0.9098 -0.1857  0.5544
  927TIP3    H124196   0.237   1.781  15.187  0.9760 -1.8865  1.1234
  927TIP3    H224197   0.308   1.710  15.073 -1.2346  0.3327 -1.7876
  928TIP3   OH224198   5.927   2.017  13.448  0.3257  0.7947 -0.3753
  928TIP3    H124199   5.959   2.069  13.521  0.8093  2.0101 -1.4260
  928TIP3    H224200   5.911   1.930  13.486  1.6527  1.0770  0.9103
  929TIP3   OH224201   1.692   2.438   1.964  0.3824  0.0818 -0.4739
  929TIP3    H124202   1.688   2.533   1.973 -0.0018 -0.0876  1.7557
  929TIP3    H224203   1.784   2.416   1.977  0.3401  0.1021 -0.1184
  930TIP3   OH224204   5.427   3.806  17.181 -0.0408 -0.4988  0.0147
  930TIP3    H124205   5.343   3.850  17.189 -0.2729 -0.9415  0.0806
  930TIP3    H224206   5.440   3.764  17.267  1.1579  1.1265  0.6836
  931TIP3   OH224207   3.958   6.190   0.182  0.7186  0.0920  0.0094
  931TIP3    H124208   3.935   6.151   0.266  0.7359  0.5394  0.2253
  931TIP3    H224209   3.874   6.220   0.146  0.9244  1.6431  0.7554
  932TIP3   OH224210   6.745   3.257  15.003  0.3481  0.2886  0.7305
  932TIP3    H124211   6.772   3.294  14.919  0.2020 -1.4529 -0.1279
  932TIP3    H224212   6.827   3.230  15.045  0.2604 -2.0598 -0.4597
  933TIP3   OH224213   6.507   1.219   5.673  0.1675  0.1175 -0.6838
  933TIP3    H124214   6.484   1.217   5.580  0.3562 -2.1734 -0.7353
  933TIP3    H224215   6.603   1.211   5.675  0.0926 -0.8330 -0.2989
  934TIP3   OH224216   4.962   4.541  12.214  0.1908  0.0403  0.7744
  934TIP3    H124217   4.943   4.625  12.255 -0.9008  0.3591 -0.3181
  934TIP3    H224218   4.883   4.488  12.228  0.3326 -0.3127  0.2684
  935TIP3   OH224219   0.045   4.632   5.108  0.5041  0.1760 -0.4564
  935TIP3    H124220   0.106   4.682   5.054 -0.4767  1.1382 -0.7163
  935TIP3    H224221   0.061   4.541   5.084  0.8272  0.5109 -1.5858
  936TIP3   OH224222   1.099   3.122   5.665 -0.4988  0.4530  0.0963
  936TIP3    H124223   1.010   3.139   5.697  0.0498  0.4910  1.7100
  936TIP3    H224224   1.098   3.153   5.574 -1.7844  1.6540  0.4783
  937TIP3   OH224225   3.854   0.556   5.348  0.6104  0.1450  0.5795
  937TIP3    H124226   3.799   0.634   5.355  0.6777  0.1835  0.6750
  937TIP3    H224227   3.936   0.580   5.392  0.8100  0.1860  0.1940
  938TIP3   OH224228   3.803   5.254  15.382  0.3540  0.2609  0.2765
  938TIP3    H124229   3.813   5.249  15.477 -0.9938 -0.5179  0.4025
  938TIP3    H224230   3.846   5.337  15.358  1.9609 -0.2025  1.3580
  939TIP3   OH224231   6.021   6.371  14.472 -0.3831 -0.0328  0.0755
  939TIP3    H124232   6.003   6.461  14.502  0.8089 -0.0142  0.7905
  939TIP3    H224233   6.072   6.383  14.393 -0.5945 -0.0864 -0.0696
  940TIP3   OH224234   5.797   5.636  14.479 -0.0765  0.0893  0.4106
  940TIP3    H124235   5.830   5.634  14.389  1.0625 -1.6728  0.8230
  940TIP3    H224236   5.706   5.665  14.470 -0.6733 -2.0888 -1.5849
  941TIP3   OH224237   1.184   3.784   0.942 -1.2600  0.0551  0.2388
  941TIP3    H124238   1.159   3.709   0.887 -0.9391 -0.6074  0.9748
  941TIP3    H224239   1.278   3.796   0.924 -1.1483 -0.1798  0.6484
  942TIP3   OH224240   5.512   3.503  11.621 -0.2956  0.4448  0.3837
  942TIP3    H124241   5.566   3.424  11.621 -1.9363 -0.7255  1.1402
  942TIP3    H224242   5.475   3.506  11.532  0.0267  0.5484  0.2525
  943TIP3   OH224243   4.648   2.405   6.154  0.0238 -0.0762  0.2549
  943TIP3    H124244   4.707   2.414   6.229  0.1699  1.8436 -0.0528
  943TIP3    H224245   4.573   2.460   6.175  0.1740  0.6838 -1.0937
  944TIP3   OH224246   0.715   1.498  11.520 -0.3236 -0.1709  1.4524
  944TIP3    H124247   0.787   1.448  11.482 -0.0271  1.4340 -0.1898
  944TIP3    H224248   0.753   1.583  11.540 -1.3555  0.1358  2.1732
  945TIP3   OH224249   2.008   4.588   1.933 -0.4803  0.1001  0.3291
  945TIP3    H124250   2.013   4.683   1.922 -2.7698  0.2362  0.1369
  945TIP3    H224251   2.027   4.553   1.845  0.8759  0.3049  0.5076
  946TIP3   OH224252   4.771   5.447  12.857  0.7597  0.3804 -0.4458
  946TIP3    H124253   4.776   5.497  12.775 -1.0599 -0.3074 -1.0180
  946TIP3    H224254   4.708   5.378  12.839  0.2251  0.2895  1.5998
  947TIP3   OH224255   3.377   5.621   1.187  0.0122  0.1472 -0.3134
  947TIP3    H124256   3.305   5.676   1.157 -0.0018  0.0898 -0.3831
  947TIP3    H224257   3.405   5.661   1.270 -0.4018 -0.0978 -0.0522
  948TIP3   OH224258   3.770   6.456  16.383  0.3213 -0.2225 -0.2681
  948TIP3    H124259   3.682   6.494  16.379 -0.5272 -2.1611 -3.8676
  948TIP3    H224260   3.765   6.392  16.454 -0.7239  0.6206  0.4539
  949TIP3   OH224261   0.426   3.947   0.136 -0.3664  0.4321 -0.4377
  949TIP3    H124262   0.414   4.004   0.212  0.7598 -0.6436  0.5959
  949TIP3    H224263   0.374   3.988   0.067  0.3928  2.6852  0.2459
  950TIP3   OH224264   2.548   6.769   1.354 -0.4597  0.0456 -0.1683
  950TIP3    H124265   2.627   6.784   1.302 -1.4476  0.6384 -1.5524
  950TIP3    H224266   2.485   6.731   1.293 -2.0125  1.7259  0.2908
  951TIP3   OH224267   5.579   4.920   3.523  0.0447 -0.0300 -0.1684
  951TIP3    H124268   5.668   4.908   3.489  0.2148 -0.4125  0.3989
  951TIP3    H224269   5.546   4.996   3.476  0.4361 -0.2731 -0.8587
  952TIP3   OH224270   3.802   5.358   3.750  0.0748  0.0547  0.3776
  952TIP3    H124271   3.884   5.396   3.782  0.6837 -1.1136  0.2859
  952TIP3    H224272   3.755   5.333   3.830 -0.0838  0.5084  0.4265
  953TIP3   OH224273   4.171   6.372   4.231 -0.3143 -0.0070 -0.3121
  953TIP3    H124274   4.226   6.335   4.162  0.1219  0.0750 -0.0132
  953TIP3    H224275   4.194   6.465   4.233  0.6222 -0.2303  0.7934
  954TIP3   OH224276   6.760   6.648   1.994 -0.0656  0.8344  0.1580
  954TIP3    H124277   6.675   6.649   2.038  0.4359  1.3245  1.1486
  954TIP3    H224278   6.739   6.666   1.902 -1.3395 -2.2035 -0.2644
  955TIP3   OH224279   5.880   5.531  14.745  0.4869  0.4305 -0.3846
  955TIP3    H124280   5.797   5.484  14.752  0.2723  0.8849  0.1938
  955TIP3    H224281   5.867   5.590  14.670 -0.0956  1.2428  0.3427
  956TIP3   OH224282   4.159   0.866   1.280 -0.1666 -0.3952  0.1080
  956TIP3    H124283   4.132   0.916   1.357  0.7916 -0.8118  0.7413
  956TIP3    H224284   4.240   0.823   1.307 -0.6970 -1.8974 -0.5766
  957TIP3   OH224285   5.730   6.680   5.745  0.0423 -0.2351  0.1312
  957TIP3    H124286   5.659   6.739   5.720 -1.3646 -0.3060  3.4190
  957TIP3    H224287   5.809   6.720   5.709 -1.3811  1.1535 -1.6035
  958TIP3   OH224288   0.303   0.279  10.583 -0.6771  0.4530 -0.1869
  958TIP3    H124289   0.214   0.312  10.582 -0.1682  1.9002 -1.5264
  958TIP3    H224290   0.358   0.357  10.594  0.4706 -0.2549 -0.6197
  959TIP3   OH224291   3.377   1.942  11.979  0.5363  0.3274 -0.3750
  959TIP3    H124292   3.391   1.849  11.995 -0.7392  0.0743 -0.6435
  959TIP3    H224293   3.365   1.949  11.884 -0.9822  0.5197 -0.1868
  960TIP3   OH224294   0.723   4.877   2.916  0.0667  0.3216 -0.5936
  960TIP3    H124295   0.705   4.806   2.855  0.3896 -0.5717  0.3240
  960TIP3    H224296   0.818   4.884   2.916  0.3696 -1.9310  2.1946
  961TIP3   OH224297   4.401   0.006  17.079  0.4877 -0.1618  0.0391
  961TIP3    H124298   4.477  -0.001  17.020  0.2272 -0.3903 -0.2714
  961TIP3    H224299   4.410  -0.068  17.139  0.4469 -0.2557 -0.0706
  962TIP3   OH224300   6.018   1.722  16.285  0.0115  0.2263 -0.8365
  962TIP3    H124301   6.003   1.816  16.274 -0.8907  0.3491  1.0840
  962TIP3    H224302   6.097   1.716  16.338 -1.3299  0.0715  1.3093
  963TIP3   OH224303   2.515   6.139   4.408 -0.6701 -0.3675 -0.0353
  963TIP3    H124304   2.494   6.051   4.438  2.0298 -0.6275  1.3554
  963TIP3    H224305   2.496   6.195   4.483  2.4010 -0.5036  0.9568
  964TIP3   OH224306   3.371   3.821   2.239  0.2015 -0.0331 -0.1546
  964TIP3    H124307   3.345   3.904   2.198 -0.2726 -0.7826 -1.4373
  964TIP3    H224308   3.319   3.816   2.319 -1.7419 -0.2955 -1.3858
  965TIP3   OH224309   5.773   5.672  14.193 -0.0120  0.0630 -0.0477
  965TIP3    H124310   5.843   5.696  14.131 -0.4012  0.0669 -0.4975
  965TIP3    H224311   5.695   5.713  14.157 -0.9538 -2.6855 -1.4549
  966TIP3   OH224312   3.413   5.690  12.583  0.2759  0.1299  0.4228
  966TIP3    H124313   3.477   5.683  12.654  0.5255  1.2203  0.3237
  966TIP3    H224314   3.380   5.601  12.571 -2.1321  0.3093  4.0610
  967TIP3   OH224315   6.675   1.617  15.687 -0.6781 -0.3944 -0.0681
  967TIP3    H124316   6.743   1.580  15.630  0.4573  0.2642  0.8256
  967TIP3    H224317   6.593   1.596  15.642  0.1069 -1.1339 -1.2213
  968TIP3   OH224318   2.865   1.471  15.376  0.6167  0.2896 -0.4664
  968TIP3    H124319   2.943   1.466  15.432  0.3139 -1.7671 -0.1366
  968TIP3    H224320   2.816   1.392  15.398 -1.0811  1.0476 -1.3961
  969TIP3   OH224321   6.340   1.284  16.888  0.3682 -0.0013 -0.1187
  969TIP3    H124322   6.344   1.199  16.844  0.1714  0.6698 -1.4913
  969TIP3    H224323   6.429   1.319  16.880  0.2143  0.3276 -0.4216
  970TIP3   OH224324   2.923   3.585   3.493 -0.6810  0.5763 -0.6581
  970TIP3    H124325   2.879   3.609   3.575 -1.9981  1.0409 -1.4811
  970TIP3    H224326   3.011   3.559   3.521 -1.2161  0.3596  0.9471
  971TIP3   OH224327   0.588   4.081   3.644 -0.2419 -0.6372 -0.3599
  971TIP3    H124328   0.529   4.091   3.718  0.7202  1.2056  0.1994
  971TIP3    H224329   0.669   4.046   3.681 -0.3350 -1.4138 -0.8459
  972TIP3   OH224330   3.136   3.206  12.807 -0.0560 -0.2492  0.0043
  972TIP3    H124331   3.186   3.179  12.885 -0.5879 -0.2993  0.3283
  972TIP3    H224332   3.045   3.204  12.835 -0.1321  1.8902  0.0477
  973TIP3   OH224333   0.287   4.919   5.278  0.5754  0.1335 -0.7425
  973TIP3    H124334   0.369   4.931   5.230  1.3665 -1.1839  0.2126
  973TIP3    H224335   0.281   4.996   5.335  0.8206  0.5535 -1.2795
  974TIP3   OH224336   2.986   0.398   2.285  0.3039  0.1860 -0.2485
  974TIP3    H124337   2.921   0.446   2.335 -0.2277 -1.4430  0.7176
  974TIP3    H224338   3.054   0.376   2.349  0.7548  0.0336 -0.7676
  975TIP3   OH224339   5.014   0.352   3.058  0.1350 -0.0494  0.0607
  975TIP3    H124340   5.027   0.364   2.964  0.1584 -2.1455 -0.2399
  975TIP3    H224341   4.925   0.383   3.074 -0.4307 -1.0973 -0.9514
  976TIP3   OH224342   6.744   2.026  17.224 -0.5689  0.1767  0.0626
  976TIP3    H124343   6.795   2.098  17.186  0.6159 -0.9766 -0.6049
  976TIP3    H224344   6.794   1.998  17.300 -1.3849  0.4925  0.7268
  977TIP3   OH224345   1.749   2.156  12.990 -0.0236 -0.2427 -0.3530
  977TIP3    H124346   1.745   2.149  13.085 -1.3801  1.2583 -0.2646
  977TIP3    H224347   1.691   2.086  12.959  1.8104 -1.9199 -0.1894
  978TIP3   OH224348   2.583   5.366  10.935  0.0262  0.0187 -0.1756
  978TIP3    H124349   2.621   5.281  10.956  1.1843  0.3117 -0.9771
  978TIP3    H224350   2.595   5.374  10.840 -0.6460  0.8018 -0.1976
  979TIP3   OH224351   6.358   6.429  15.717  0.0787  0.1970 -0.0252
  979TIP3    H124352   6.349   6.499  15.782 -2.1327  1.0030 -1.1012
  979TIP3    H224353   6.274   6.382  15.721 -0.6604  1.0363 -3.0736
  980TIP3   OH224354   1.941   3.357  10.348  0.4292 -0.0671 -0.2546
  980TIP3    H124355   1.940   3.322  10.438  1.6733 -0.4167 -0.3550
  980TIP3    H224356   2.028   3.333  10.315  1.4431  3.1997 -0.3129
  981TIP3   OH224357   5.893   5.627   0.365  1.2063 -0.4725  0.0795
  981TIP3    H124358   5.910   5.692   0.296 -0.7628  0.0157 -0.0053
  981TIP3    H224359   5.884   5.544   0.319  2.5246 -0.6380  0.0660
  982TIP3   OH224360   2.051   3.644   1.032 -0.1547  0.5675  0.3102
  982TIP3    H124361   2.003   3.574   0.986  2.1995 -2.0808  1.6084
  982TIP3    H224362   2.087   3.698   0.962 -1.5632  0.1979 -0.7516
  983TIP3   OH224363   1.170   5.010  16.107  0.4802 -0.2879  0.4014
  983TIP3    H124364   1.126   4.946  16.163  0.9345 -0.7534  0.2388
  983TIP3    H224365   1.099   5.052  16.058  0.3135 -3.3840 -2.3851
  984TIP3   OH224366   5.874   0.130  11.426  0.0851 -0.0301  0.1476
  984TIP3    H124367   5.837   0.212  11.393 -0.8379  0.3922  2.0841
  984TIP3    H224368   5.938   0.104  11.360 -1.3219  0.9645 -1.7026
  985TIP3   OH224369   2.658   3.605   5.999  0.6599 -0.4739  0.1174
  985TIP3    H124370   2.610   3.607   6.082 -0.1049 -0.9686 -0.3141
  985TIP3    H224371   2.593   3.582   5.933  1.3509 -0.4979 -0.5696
  986TIP3   OH224372   3.317   3.365   1.997  0.1371  0.0533  0.6824
  986TIP3    H124373   3.326   3.415   2.078 -1.9775  0.9525  0.4356
  986TIP3    H224374   3.311   3.274   2.026 -0.1526  0.3253  1.5240
  987TIP3   OH224375   0.943   0.395   5.252 -0.2324 -0.4574  0.1963
  987TIP3    H124376   0.887   0.472   5.259  1.4823  0.9182 -0.5073
  987TIP3    H224377   1.006   0.406   5.323  1.3526 -0.0266 -1.2245
  988TIP3   OH224378   4.449   1.593   5.053  0.2721 -0.2473  0.1989
  988TIP3    H124379   4.512   1.524   5.072  0.9778  0.6954  1.3756
  988TIP3    H224380   4.364   1.548   5.054  0.8100 -1.3280 -0.3487
  989TIP3   OH224381   3.460   4.826  12.757  0.0010 -0.7068  0.1629
  989TIP3    H124382   3.400   4.782  12.817 -0.6032  1.2837  1.0952
  989TIP3    H224383   3.409   4.839  12.677  0.0326 -1.2643  0.0494
  990TIP3   OH224384   4.377   5.421  17.062  0.2554 -0.3278  0.3561
  990TIP3    H124385   4.374   5.516  17.065 -1.5233 -0.3480  0.1262
  990TIP3    H224386   4.471   5.400  17.060  0.6779  1.4351 -0.5496
  991TIP3   OH224387   6.234   5.271  15.260  0.6928 -0.1525 -0.3740
  991TIP3    H124388   6.295   5.226  15.201  0.0078 -0.7268 -0.6668
  991TIP3    H224389   6.253   5.236  15.347  0.8685 -0.2356 -0.4461
  992TIP3   OH224390   2.505   1.386  16.534  0.5643 -0.5218 -0.3659
  992TIP3    H124391   2.589   1.361  16.571  0.2590  1.0987  1.6044
  992TIP3    H224392   2.490   1.475  16.566 -1.3733 -0.3200 -1.6348
  993TIP3   OH224393   2.517   1.258   2.024  0.4671 -0.5328  0.4319
  993TIP3    H124394   2.558   1.221   1.946 -2.0564 -1.2206 -0.6888
  993TIP3    H224395   2.533   1.194   2.093  1.7083 -0.4959  0.1857
  994TIP3   OH224396   6.290   0.108   3.446 -0.7236 -0.1544 -0.4665
  994TIP3    H124397   6.302   0.153   3.530 -1.5555  3.2041 -1.9740
  994TIP3    H224398   6.262   0.020   3.470 -2.2973  1.0723  2.7864
  995TIP3   OH224399   5.737   0.310   2.743 -0.4121  0.5088  0.7009
  995TIP3    H124400   5.716   0.246   2.675  0.7880  1.0716 -0.2515
  995TIP3    H224401   5.831   0.297   2.759 -0.6905  0.2947  2.3757
  996TIP3   OH224402   1.800   1.009  11.544 -0.1216 -0.4453  0.0308
  996TIP3    H124403   1.857   0.984  11.472  0.0410 -0.1573  0.0576
  996TIP3    H224404   1.859   1.025  11.617 -0.0594  1.4403 -0.3682
  997TIP3   OH224405   0.612   0.192  12.770 -0.0238  0.3077 -0.0083
  997TIP3    H124406   0.532   0.224  12.728  1.2879  3.1415 -0.5746
  997TIP3    H224407   0.670   0.168  12.697 -0.0907 -1.2057  0.3893
  998TIP3   OH224408   0.834   3.594   1.745 -0.1138  0.0767 -0.5299
  998TIP3    H124409   0.865   3.684   1.755  0.1855 -0.1869  1.2846
  998TIP3    H224410   0.746   3.603   1.709  0.1680  1.0517 -1.0224
  999TIP3   OH224411   6.516   4.382   4.365 -1.0816 -0.1091  0.6107
  999TIP3    H124412   6.496   4.403   4.457  1.2337  1.8802  0.7573
  999TIP3    H224413   6.582   4.313   4.370  0.3449  1.2052  0.5610
 1000TIP3   OH224414   4.871   0.896   6.150  0.6901  0.3448  0.0352
 1000TIP3    H124415   4.930   0.869   6.220 -1.7429  0.9466  2.4992
 1000TIP3    H224416   4.884   0.990   6.142  2.4677 -0.0177 -1.8997
 1001TIP3   OH224417   1.470   3.112  16.460  0.4411  0.5960  0.5427
 1001TIP3    H124418   1.509   3.072  16.382  1.3627 -0.7547  1.6392
 1001TIP3    H224419   1.539   3.169  16.494  0.1728  0.9056  0.5648
 1002TIP3   OH224420   1.884   0.600  17.021  0.0037  0.5957 -0.1071
 1002TIP3    H124421   1.913   0.510  17.033 -2.3536 -0.2619 -0.2545
 1002TIP3    H224422   1.926   0.628  16.939  0.0387 -0.7070 -0.5580
 1003TIP3   OH224423   3.748   3.050   2.232 -0.4402 -0.1673  0.2815
 1003TIP3    H124424   3.711   3.030   2.318 -0.6978  1.1486  0.4835
 1003TIP3    H224425   3.805   2.975   2.213  0.0700 -0.2023  1.8417
 1004TIP3   OH224426   2.794   1.560   3.980 -0.0755  0.0183  0.1976
 1004TIP3    H124427   2.786   1.631   3.917  0.2341  0.2055  0.3676
 1004TIP3    H224428   2.744   1.588   4.056 -0.6445 -0.3104 -0.0527
 1005TIP3   OH224429   4.628   6.258   0.557 -0.0365 -0.8021  0.1287
 1005TIP3    H124430   4.611   6.253   0.651  1.7512 -2.1847  0.4540
 1005TIP3    H224431   4.578   6.185   0.520 -1.0005 -0.0614 -0.0738
 1006TIP3   OH224432   6.701   6.183   1.309  0.0175  0.5013 -0.1337
 1006TIP3    H124433   6.631   6.231   1.265  0.2075  0.2312 -0.7273
 1006TIP3    H224434   6.668   6.094   1.320  1.0745 -0.2315 -2.3848
 1007TIP3   OH224435   3.421   1.699  14.885 -0.1491  0.3607 -0.2113
 1007TIP3    H124436   3.512   1.681  14.861  0.1483  1.5535 -0.0268
 1007TIP3    H224437   3.370   1.672  14.808  0.3106 -0.7284 -0.1444
 1008TIP3   OH224438   4.499   4.430  11.574  0.0270  0.2041  0.4184
 1008TIP3    H124439   4.422   4.392  11.617 -0.3074  0.1693 -0.2101
 1008TIP3    H224440   4.464   4.471  11.495  0.7750 -0.5465 -0.3156
 1009TIP3   OH224441   4.442   1.576  12.098 -0.7618 -0.3619  0.3160
 1009TIP3    H124442   4.356   1.618  12.095 -2.1672 -2.9557  0.6585
 1009TIP3    H224443   4.440   1.513  12.025  0.6138 -0.8857  0.7029
 1010TIP3   OH224444   4.975   5.610   5.546 -0.0753 -0.1190 -0.3576
 1010TIP3    H124445   4.881   5.594   5.540 -0.1977  0.5491 -0.3199
 1010TIP3    H224446   4.983   5.675   5.616  0.4181 -0.2209 -0.3204
 1011TIP3   OH224447   4.514   2.247   1.347  0.0959  0.9227 -0.3149
 1011TIP3    H124448   4.542   2.299   1.421 -0.6098  0.4316  0.3195
 1011TIP3    H224449   4.444   2.191   1.382 -0.0818  0.5088 -1.2854
 1012TIP3   OH224450   5.449   0.430   3.891  0.4460 -0.4052  0.0098
 1012TIP3    H124451   5.513   0.426   3.962  0.7815 -1.5311 -0.3423
 1012TIP3    H224452   5.502   0.423   3.811 -0.0406 -0.4099 -0.3139
 1013TIP3   OH224453   6.306   3.742   2.847 -0.0705  0.0137 -0.4383
 1013TIP3    H124454   6.281   3.811   2.909  1.0645  0.5590 -0.5676
 1013TIP3    H224455   6.357   3.680   2.900 -0.5396 -0.3961 -0.4635
 1014TIP3   OH224456   0.107   6.221   2.951  0.7247  0.4644 -0.1598
 1014TIP3    H124457   0.040   6.204   3.018  0.8648  0.1217 -0.1069
 1014TIP3    H224458   0.170   6.278   2.995  0.7882  0.2845 -0.0171
 1015TIP3   OH224459   1.291   1.322   0.300  0.0354 -0.2766 -0.1525
 1015TIP3    H124460   1.230   1.268   0.249 -0.6584 -0.6662  1.0548
 1015TIP3    H224461   1.247   1.407   0.305  0.5717  0.0635 -1.0359
 1016TIP3   OH224462   4.264   4.938  15.149  0.3323  0.0838 -0.4214
 1016TIP3    H124463   4.250   4.935  15.054  2.5891 -1.6198 -0.7736
 1016TIP3    H224464   4.222   5.020  15.176 -0.6879  0.4389 -2.8063
 1017TIP3   OH224465   1.006   3.014  15.436  0.0176  0.2193 -0.1644
 1017TIP3    H124466   1.012   3.076  15.363 -0.6639  1.5522  0.8572
 1017TIP3    H224467   1.090   3.023  15.481  0.1575 -0.0645 -0.3673
 1018TIP3   OH224468   6.020   4.499  12.749  0.1139  0.2180  0.0900
 1018TIP3    H124469   5.951   4.511  12.815 -1.6376  1.2018 -1.7942
 1018TIP3    H224470   5.977   4.449  12.679  2.0265 -1.1319 -0.1808
 1019TIP3   OH224471   0.322   4.613   0.448  0.3737  0.1858 -0.1202
 1019TIP3    H124472   0.243   4.592   0.499  0.4888 -0.0253 -0.0278
 1019TIP3    H224473   0.311   4.563   0.367  0.8055 -0.5132  0.2357
 1020TIP3   OH224474   2.765   4.516   1.741 -0.1148  0.1835 -0.5580
 1020TIP3    H124475   2.808   4.450   1.795 -2.6359 -0.5908  0.6806
 1020TIP3    H224476   2.836   4.574   1.712  1.6830 -0.8664  1.4540
 1021TIP3   OH224477   0.748   0.915  13.176 -0.3299  0.3485  0.1440
 1021TIP3    H124478   0.842   0.933  13.173 -0.6946  2.5192 -0.8187
 1021TIP3    H224479   0.732   0.859  13.100  0.3104 -0.9833  0.9523
 1022TIP3   OH224480   2.278   1.199   4.982  0.2000  0.0183  0.3118
 1022TIP3    H124481   2.350   1.181   4.921  1.1776  2.4328  0.6383
 1022TIP3    H224482   2.224   1.264   4.937 -1.3256 -1.1265  0.4317
 1023TIP3   OH224483   6.314   5.812   3.883 -0.6849  0.2318  0.3354
 1023TIP3    H124484   6.359   5.741   3.928  2.2255  1.2028 -0.7706
 1023TIP3    H224485   6.308   5.882   3.949 -3.6521 -0.9245  1.4575
 1024TIP3   OH224486   1.349   4.963  12.955  0.0082  0.0891  0.0906
 1024TIP3    H124487   1.334   4.999  12.867  0.1918 -0.2241 -0.0715
 1024TIP3    H224488   1.315   4.873  12.950 -1.6474  0.6381  0.8758
 1025TIP3   OH224489   6.623   0.182  14.482 -0.3536  1.0960 -0.2540
 1025TIP3    H124490   6.571   0.116  14.529 -0.6088  1.4187 -0.0741
 1025TIP3    H224491   6.584   0.186  14.395 -1.6114  2.3851  0.3169
 1026TIP3   OH224492   2.801   2.979  16.713 -0.6687 -0.6432  0.3147
 1026TIP3    H124493   2.869   3.008  16.652 -1.9087  1.0265 -0.3706
 1026TIP3    H224494   2.830   3.012  16.798 -0.7479  0.3737 -0.0288
 1027TIP3   OH224495   6.215   1.458  11.810 -0.0367  0.4535 -0.1475
 1027TIP3    H124496   6.262   1.379  11.784  0.5046  0.5663  0.4550
 1027TIP3    H224497   6.160   1.479  11.735  2.1761  1.3306 -1.6546
 1028TIP3   OH224498   3.082   2.530   1.388 -0.0936  0.1742 -0.0661
 1028TIP3    H124499   3.072   2.625   1.397  0.4138  0.1140  1.6927
 1028TIP3    H224500   3.075   2.513   1.295  0.3514  2.0186 -0.4761
 1029TIP3   OH224501   1.926   5.084  10.642 -0.9236 -0.2320 -0.2449
 1029TIP3    H124502   1.995   5.105  10.578 -1.5799  0.3632 -0.7833
 1029TIP3    H224503   1.909   5.167  10.687 -1.0239 -0.4632  0.1486
 1030TIP3   OH224504   3.141   1.175   3.314 -0.0278 -0.2059 -0.7730
 1030TIP3    H124505   3.055   1.194   3.275 -0.1618 -1.7050 -1.2750
 1030TIP3    H224506   3.194   1.251   3.292 -0.8493  0.1453 -1.6352
 1031TIP3   OH224507   3.919   3.270   3.180 -0.2401  0.1712  0.2797
 1031TIP3    H124508   3.888   3.258   3.270  0.9378 -0.2746  0.6382
 1031TIP3    H224509   3.958   3.357   3.179 -0.6646  0.3649  0.0641
 1032TIP3   OH224510   2.473   1.044  16.988 -0.1904  0.4406  0.4804
 1032TIP3    H124511   2.386   1.026  16.953  0.2860  1.7593 -1.5626
 1032TIP3    H224512   2.530   0.982  16.944  0.3581  1.8477 -0.8901
 1033TIP3   OH224513   2.653   2.677  13.774 -0.3344 -0.3657 -0.0407
 1033TIP3    H124514   2.644   2.584  13.796 -0.4222 -0.4455 -0.3970
 1033TIP3    H224515   2.574   2.718  13.808  1.1303  0.1853  3.0723
 1034TIP3   OH224516   6.259   6.499   4.700  0.0640 -0.6382  0.1292
 1034TIP3    H124517   6.182   6.455   4.663 -1.3180  1.2934  0.5181
 1034TIP3    H224518   6.307   6.529   4.623  0.1295 -1.3547 -0.1192
 1035TIP3   OH224519   5.607   6.752   5.322  0.3041 -0.3714 -0.3625
 1035TIP3    H124520   5.689   6.705   5.334  1.0167  0.7882 -0.5303
 1035TIP3    H224521   5.580   6.730   5.233 -0.9621 -2.8041  0.5155
 1036TIP3   OH224522   3.711   4.857  12.887  0.5122 -0.4134 -0.0767
 1036TIP3    H124523   3.750   4.773  12.864 -1.0598 -0.7150 -1.8168
 1036TIP3    H224524   3.618   4.847  12.870  0.2149  1.5390  0.1212
 1037TIP3   OH224525   3.333   0.685  14.113 -0.8454 -0.2404 -0.2752
 1037TIP3    H124526   3.269   0.638  14.060 -0.6830 -1.0102  0.1954
 1037TIP3    H224527   3.291   0.692  14.199 -0.8198  0.3820 -0.3078
 1038TIP3   OH224528   1.203   3.932  12.934 -0.3413  0.0355 -0.1585
 1038TIP3    H124529   1.213   4.027  12.942  0.1298 -0.0656  0.5098
 1038TIP3    H224530   1.108   3.917  12.937 -0.4806  0.5678 -1.3646
 1039TIP3   OH224531   1.693   5.962  11.936 -0.0783 -0.2265  0.4691
 1039TIP3    H124532   1.674   5.929  11.848 -1.5227 -0.5918  0.8897
 1039TIP3    H224533   1.737   5.889  11.980  0.0810 -0.2651  0.2456
 1040TIP3   OH224534   1.055   1.238   2.239  0.3230  0.0086  0.2522
 1040TIP3    H124535   1.041   1.333   2.237 -0.3422 -0.0602  1.0109
 1040TIP3    H224536   1.147   1.228   2.263  1.4360  0.4709 -3.2722
 1041TIP3   OH224537   4.151   5.208  15.507  0.0463 -0.3005 -0.5756
 1041TIP3    H124538   4.132   5.205  15.413 -0.0799  0.6670 -0.5964
 1041TIP3    H224539   4.222   5.271  15.515  1.9905 -2.4095 -0.2812
 1042TIP3   OH224540   0.382   3.626  15.796 -0.3180  0.4818 -0.5587
 1042TIP3    H124541   0.402   3.649  15.706 -1.3078  0.2491 -0.8470
 1042TIP3    H224542   0.378   3.530  15.796  0.7313  0.4194 -0.0279
 1043TIP3   OH224543   2.775   5.886  13.511 -0.3797 -0.3699 -0.1457
 1043TIP3    H124544   2.758   5.908  13.420 -0.1202  0.9589  0.1137
 1043TIP3    H224545   2.823   5.961  13.546  0.0521 -1.1216  0.9289
 1044TIP3   OH224546   2.563   5.753  12.031 -0.7282  0.0932 -0.0400
 1044TIP3    H124547   2.632   5.766  12.096 -1.0046  0.6218  0.1493
 1044TIP3    H224548   2.563   5.658  12.016  0.3070  0.1282 -0.3501
 1045TIP3   OH224549   5.314   1.721   1.142  0.0150 -0.2742  0.5561
 1045TIP3    H124550   5.257   1.795   1.119 -0.5659 -0.3748  1.6398
 1045TIP3    H224551   5.360   1.750   1.220 -0.6141 -1.2522  1.3148
 1046TIP3   OH224552   6.454   6.579   1.244 -0.0608 -0.1615  0.8181
 1046TIP3    H124553   6.365   6.602   1.216  0.6467  0.3154 -1.2208
 1046TIP3    H224554   6.489   6.660   1.282  0.5960  0.7335 -1.4846
 1047TIP3   OH224555   4.457   2.703   4.127 -0.4338  0.4603  0.3321
 1047TIP3    H124556   4.457   2.731   4.219  1.1779  2.7114 -0.2539
 1047TIP3    H224557   4.529   2.752   4.088 -1.3428 -0.1358 -2.2459
 1048TIP3   OH224558   5.809   2.794   1.313  0.2025 -0.2575  0.2988
 1048TIP3    H124559   5.726   2.756   1.284  0.5889 -1.3247  0.5370
 1048TIP3    H224560   5.796   2.889   1.305 -0.1863 -0.4486 -2.0086
 1049TIP3   OH224561   3.865   3.623  13.072 -0.1796 -0.1005  0.2290
 1049TIP3    H124562   3.800   3.553  13.071 -0.5385  0.2292 -0.6608
 1049TIP3    H224563   3.945   3.582  13.105 -0.1648 -1.1356 -1.0441
 1050TIP3   OH224564   1.032   1.116   1.972 -0.6942 -0.2767 -0.3944
 1050TIP3    H124565   1.058   1.161   2.053 -2.8825  1.8007 -0.7349
 1050TIP3    H224566   0.997   1.032   2.001 -1.1326  0.2984  0.8137
 1051TIP3   OH224567   1.540   4.280   6.261  0.3543 -0.7366 -0.2096
 1051TIP3    H124568   1.465   4.264   6.204  1.1822 -1.5187 -1.1104
 1051TIP3    H224569   1.570   4.193   6.286  0.1086 -0.4172  1.3376
 1052TIP3   OH224570   1.243   6.259   5.999  0.0916  0.3440 -0.6208
 1052TIP3    H124571   1.330   6.292   6.022  0.4723 -0.7762 -0.3676
 1052TIP3    H224572   1.257   6.209   5.919 -0.0623 -0.8795  0.0907
 1053TIP3   OH224573   6.185   5.792  12.301 -0.1027  0.2699 -0.4632
 1053TIP3    H124574   6.158   5.700  12.291  0.8415 -0.2543  1.3128
 1053TIP3    H224575   6.210   5.799  12.393  3.0432  1.4586 -1.2982
 1054TIP3   OH224576   2.062   5.507  15.970  0.4683 -0.4212 -0.5734
 1054TIP3    H124577   2.086   5.415  15.980  0.0365 -0.5891 -1.0816
 1054TIP3    H224578   1.987   5.507  15.911  0.0002  0.2006 -0.0001
 1055TIP3   OH224579   5.039   0.332  12.076 -0.0934 -0.1195  0.3860
 1055TIP3    H124580   5.127   0.366  12.057 -0.5943  1.0614  0.0512
 1055TIP3    H224581   5.040   0.311  12.169  0.7213 -0.6988  0.2568
 1056TIP3   OH224582   4.049   0.751   3.884  0.0628  0.0828  0.5425
 1056TIP3    H124583   4.115   0.730   3.819 -0.7801 -2.0252  0.3027
 1056TIP3    H224584   4.049   0.676   3.944 -1.9293  0.1265  0.6563
 1057TIP3   OH224585   1.949   4.473  12.918  0.1389 -0.0196  0.3225
 1057TIP3    H124586   1.962   4.414  12.993  1.4723  1.7161  1.5444
 1057TIP3    H224587   1.854   4.481  12.910 -0.0477 -1.0782  1.1460
 1058TIP3   OH224588   0.716   1.702  14.257  0.3968  0.0778  0.5898
 1058TIP3    H124589   0.742   1.680  14.168 -1.4474 -1.3469  0.3333
 1058TIP3    H224590   0.786   1.667  14.312  0.0930 -1.8609 -0.1614
 1059TIP3   OH224591   4.916   4.971   1.075  0.0738 -0.1511  0.3543
 1059TIP3    H124592   4.880   4.884   1.057  0.6554 -0.0498 -1.6083
 1059TIP3    H224593   5.000   4.972   1.027 -0.0070  1.5304  0.1878
 1060TIP3   OH224594   5.063   5.655  12.089  0.0206 -0.4285 -0.3037
 1060TIP3    H124595   5.116   5.651  12.168 -1.0533  0.0128  0.4563
 1060TIP3    H224596   5.125   5.676  12.019  0.5779  2.3242  0.8840
 1061TIP3   OH224597   0.260   2.118   0.283 -0.3153 -0.2770  1.0171
 1061TIP3    H124598   0.274   2.178   0.356  0.1188  0.1987  0.5526
 1061TIP3    H224599   0.168   2.131   0.259 -0.3256 -0.0734  1.1629
 1062TIP3   OH224600   0.169   5.543  14.802 -0.0477 -0.1318 -0.0051
 1062TIP3    H124601   0.104   5.485  14.842  0.0955 -0.2025  0.1214
 1062TIP3    H224602   0.246   5.488  14.788  1.2966  0.7002  3.0722
 1063TIP3   OH224603   2.332   5.341   2.205  0.2621  0.4918 -0.4604
 1063TIP3    H124604   2.329   5.422   2.256  1.4862 -0.8429  1.8720
 1063TIP3    H224605   2.415   5.346   2.159  1.0261 -0.0429  0.8184
 1064TIP3   OH224606   5.324   1.995  12.398  0.3343 -0.0462  0.8904
 1064TIP3    H124607   5.254   1.940  12.363 -0.4839  1.1788  0.4931
 1064TIP3    H224608   5.334   2.065  12.333  2.2932 -0.4597  0.7088
 1065TIP3   OH224609   4.190   3.150   6.180 -0.3736  0.3132  0.7255
 1065TIP3    H124610   4.248   3.135   6.255 -0.6463 -0.5261  0.7776
 1065TIP3    H224611   4.209   3.240   6.153 -1.1532  1.0847  2.5798
 1066TIP3   OH224612   5.862   2.125   1.888  0.7348  0.2780 -0.3885
 1066TIP3    H124613   5.790   2.127   1.952  0.8701  3.2854 -0.1853
 1066TIP3    H224614   5.885   2.033   1.881 -0.8129 -0.4158  2.1973
 1067TIP3   OH224615   3.112   5.601  15.131 -0.2958  0.1360 -0.4292
 1067TIP3    H124616   3.170   5.528  15.109 -0.1313 -1.1953  3.6539
 1067TIP3    H224617   3.024   5.565  15.121 -0.3312  0.4931 -1.5653
 1068TIP3   OH224618   3.039   0.749  15.416 -0.0973 -0.5077  0.1195
 1068TIP3    H124619   3.077   0.789  15.338  0.2333  2.0820  1.5052
 1068TIP3    H224620   3.115   0.715  15.465 -0.0456  0.0678  0.4498
 1069TIP3   OH224621   4.320   3.039  16.276 -0.1321 -0.7254 -0.8279
 1069TIP3    H124622   4.255   3.034  16.347 -0.4327 -1.1858 -1.1328
 1069TIP3    H224623   4.379   2.965  16.293  1.0144  0.3445  0.1140
 1070TIP3   OH224624   3.728   0.336   1.731  0.1466 -0.0280  0.1422
 1070TIP3    H124625   3.754   0.422   1.762 -0.2260  0.1863 -0.1395
 1070TIP3    H224626   3.696   0.291   1.809 -0.0276  0.2245  0.2139
 1071TIP3   OH224627   0.618   4.817  13.397 -0.1456  0.5235  0.2026
 1071TIP3    H124628   0.560   4.825  13.472  1.2986  1.3147  1.2647
 1071TIP3    H224629   0.559   4.812  13.322 -1.5912  1.6498  1.2097
 1072TIP3   OH224630   2.362   2.191   3.794  0.0634 -0.2018  0.0548
 1072TIP3    H124631   2.364   2.279   3.756 -0.2372 -0.5674 -0.8390
 1072TIP3    H224632   2.269   2.171   3.803  0.0935  0.2685  1.9990
 1073TIP3   OH224633   0.748   3.144  13.525  0.2451 -0.0100  0.2292
 1073TIP3    H124634   0.676   3.206  13.540 -1.2319 -2.2587  3.4799
 1073TIP3    H224635   0.724   3.099  13.444 -0.2707  1.4476 -0.4668
 1074TIP3   OH224636   1.989   5.023  15.504  0.1126  0.6012  0.1524
 1074TIP3    H124637   2.059   5.032  15.569  0.5802 -0.3570 -0.1934
 1074TIP3    H224638   2.031   5.038  15.420  0.5570 -2.5026 -0.2928
 1075TIP3   OH224639   5.699   4.514  15.722  0.0621  0.0106  0.0071
 1075TIP3    H124640   5.639   4.474  15.659 -0.0757 -0.5166  0.4612
 1075TIP3    H224641   5.671   4.605  15.727  0.3002  0.1535 -0.9571
 1076TIP3   OH224642   4.561   3.597   2.341 -0.1571 -0.1686 -0.2988
 1076TIP3    H124643   4.512   3.529   2.295 -2.2878  1.9688 -1.4160
 1076TIP3    H224644   4.566   3.670   2.278  0.5173  1.3540  1.4183
 1077TIP3   OH224645   5.252   2.347  13.753 -0.2636 -0.6483 -0.2162
 1077TIP3    H124646   5.305   2.279  13.711  0.2512 -0.7650  0.6168
 1077TIP3    H224647   5.172   2.351  13.700  0.0376 -1.3489 -0.7343
 1078TIP3   OH224648   1.010   4.580  15.966  0.6104 -0.8673  0.7339
 1078TIP3    H124649   1.087   4.569  16.022  0.1431 -0.3149  1.5004
 1078TIP3    H224650   0.969   4.660  15.997  1.8800  1.1391 -2.2210
 1079TIP3   OH224651   2.578   5.989  10.751 -0.3939  0.1084  0.3497
 1079TIP3    H124652   2.644   6.003  10.683 -0.1872  1.6304  0.8269
 1079TIP3    H224653   2.562   5.895  10.750  0.5446 -0.0624 -0.9251
 1080TIP3   OH224654   2.202   2.591  13.822  0.0123  0.5152 -0.4170
 1080TIP3    H124655   2.112   2.568  13.798  0.4033  0.0560 -1.5074
 1080TIP3    H224656   2.245   2.506  13.837 -0.2871  0.7603  2.3923
 1081TIP3   OH224657   2.330   4.168   5.075 -0.3849 -0.3793  0.0644
 1081TIP3    H124658   2.396   4.123   5.127  2.6445 -0.2806 -3.2887
 1081TIP3    H224659   2.355   4.260   5.079  0.0093 -0.3870 -1.5536
 1082TIP3   OH224660   6.648   0.305   0.810  0.0823 -0.4614  0.4653
 1082TIP3    H124661   6.624   0.396   0.831 -0.0465 -0.2416 -0.5948
 1082TIP3    H224662   6.581   0.252   0.853 -1.8029  0.1042 -1.6124
 1083TIP3   OH224663   0.162   2.320   2.003 -0.2202 -0.0630  0.0558
 1083TIP3    H124664   0.224   2.277   2.061  0.2991 -0.3328 -0.6820
 1083TIP3    H224665   0.175   2.277   1.918 -0.3885  0.8684 -0.4561
 1084TIP3   OH224666   2.211   2.136   1.124 -0.0846  0.0670 -0.1261
 1084TIP3    H124667   2.229   2.230   1.115  1.6431 -0.3295 -1.2351
 1084TIP3    H224668   2.281   2.103   1.180 -0.3013 -0.6605 -0.2753
 1085TIP3   OH224669   5.835   1.064   5.659 -0.1687 -0.1289 -0.3859
 1085TIP3    H124670   5.909   1.106   5.703  0.6258 -0.3417 -1.4801
 1085TIP3    H224671   5.813   0.990   5.716 -0.2006  0.5032  0.4550
 1086TIP3   OH224672   6.201   0.113   4.267 -0.2951  0.0038  0.8008
 1086TIP3    H124673   6.228   0.169   4.195 -0.6136 -0.0204  0.6618
 1086TIP3    H224674   6.221   0.024   4.237  1.6501  0.1060  1.6255
 1087TIP3   OH224675   0.277   3.926  10.767 -0.3216 -0.5310  0.8224
 1087TIP3    H124676   0.239   3.863  10.706  1.8349  0.0184 -1.2222
 1087TIP3    H224677   0.341   3.875  10.817  1.2157 -0.1141 -0.6333
 1088TIP3   OH224678   4.140   1.541  11.506 -0.1644  0.4087  0.1376
 1088TIP3    H124679   4.133   1.552  11.411 -0.2527 -0.8008 -0.0028
 1088TIP3    H224680   4.061   1.493  11.530  0.8330 -1.1120  0.5189
 1089TIP3   OH224681   6.005   6.021   4.737  0.2994 -0.5760 -0.2611
 1089TIP3    H124682   5.967   6.026   4.649 -0.5523  0.9662  0.1652
 1089TIP3    H224683   5.983   6.104   4.778  0.6876 -1.2585  1.4309
 1090TIP3   OH224684   5.539   2.370   3.606  0.4948 -0.0112 -0.5628
 1090TIP3    H124685   5.490   2.427   3.667  0.2838 -1.7262  0.9625
 1090TIP3    H224686   5.526   2.411   3.520 -0.1513  1.8836  0.3658
 1091TIP3   OH224687   3.722   2.954  11.723 -0.0889 -0.4331 -0.2037
 1091TIP3    H124688   3.702   2.886  11.660  0.7659 -1.6790  0.8103
 1091TIP3    H224689   3.788   3.008  11.680  0.5963 -1.3535 -0.3366
 1092TIP3   OH224690   6.049   3.895   3.087  0.0429  0.6443 -0.2054
 1092TIP3    H124691   6.134   3.909   3.129 -0.4708  0.4711  0.9246
 1092TIP3    H224692   5.985   3.919   3.154 -0.8183 -1.5003 -0.2118
 1093TIP3   OH224693   1.731   0.735   5.111  0.3248  0.3290 -0.4020
 1093TIP3    H124694   1.805   0.710   5.056 -0.1271 -1.7877 -0.1336
 1093TIP3    H224695   1.771   0.756   5.196  0.6840 -0.2304 -0.4249
 1094TIP3   OH224696   1.673   2.222   1.805 -0.5686 -0.0892  0.2050
 1094TIP3    H124697   1.722   2.155   1.854  0.3840 -0.3859 -1.0901
 1094TIP3    H224698   1.667   2.296   1.866  2.6987  0.4698  0.0591
 1095TIP3   OH224699   3.799   3.563  14.519 -0.4478 -0.4467  0.3382
 1095TIP3    H124700   3.780   3.485  14.572  1.8081 -0.5276  1.1757
 1095TIP3    H224701   3.717   3.583  14.474 -2.0256 -1.3825  2.5888
 1096TIP3   OH224702   4.447   2.792  15.379 -0.3088  0.0607 -0.3962
 1096TIP3    H124703   4.372   2.851  15.375  0.5208  1.2100  0.4600
 1096TIP3    H224704   4.521   2.845  15.350  0.3497 -0.7650 -0.2720
 1097TIP3   OH224705   0.442   3.751  13.061  0.0360 -0.1905 -0.1652
 1097TIP3    H124706   0.461   3.698  12.983 -0.4784 -0.9400  0.2066
 1097TIP3    H224707   0.472   3.839  13.038  1.3768 -0.7385 -0.6058
 1098TIP3   OH224708   2.885   5.127  13.258 -0.1806  0.3014 -0.4134
 1098TIP3    H124709   2.817   5.124  13.191  1.7958 -0.6182 -2.5081
 1098TIP3    H224710   2.898   5.036  13.283  0.0291  0.5114  0.2679
 1099TIP3   OH224711   0.040   3.625   2.544  0.0338  0.6743  0.0431
 1099TIP3    H124712  -0.032   3.566   2.565  0.3248  1.3712  3.6213
 1099TIP3    H224713  -0.000   3.698   2.497 -1.2033  0.1305  0.2371
 1100TIP3   OH224714   6.399   2.791   6.503 -0.5452 -0.1722  0.4269
 1100TIP3    H124715   6.451   2.831   6.572  0.4392  0.2410 -0.5264
 1100TIP3    H224716   6.442   2.708   6.485 -0.7398 -0.2313  0.2322
 1101TIP3   OH224717   3.048   4.773  16.425 -0.5529  0.1036  0.2113
 1101TIP3    H124718   3.044   4.732  16.512  1.2186 -0.1444  0.2165
 1101TIP3    H224719   3.043   4.867  16.443 -1.8691  0.0010  0.4310
 1102TIP3   OH224720   5.482   6.308  11.587  0.2287 -0.1994 -0.0152
 1102TIP3    H124721   5.451   6.230  11.633 -0.1466 -0.2521 -0.3505
 1102TIP3    H224722   5.524   6.274  11.508 -1.5844 -0.0013 -1.1256
 1103TIP3   OH224723   1.957   6.389  12.342 -0.3395 -0.5435 -0.4908
 1103TIP3    H124724   2.052   6.377  12.348  0.1684  2.0189 -1.9009
 1103TIP3    H224725   1.936   6.363  12.252 -0.1977  2.6879 -1.5625
 1104TIP3   OH224726   2.416   2.960  11.492  0.0757 -0.8421  0.2754
 1104TIP3    H124727   2.355   2.990  11.425 -0.8891 -0.3415  1.3440
 1104TIP3    H224728   2.412   2.864  11.486 -2.1449 -0.8920  1.4173
 1105TIP3   OH224729   3.626   6.734   4.808  0.0091 -0.0082  0.2560
 1105TIP3    H124730   3.712   6.713   4.769  0.2415 -0.0414  0.7850
 1105TIP3    H224731   3.564   6.716   4.738  0.3861 -0.5192  0.0423
 1106TIP3   OH224732   5.627   3.607   1.045  0.2601  0.4622 -0.6975
 1106TIP3    H124733   5.685   3.541   1.006  0.8814  2.3444 -3.2561
 1106TIP3    H224734   5.687   3.677   1.073 -0.3954  0.1219  1.7329
 1107TIP3   OH224735   0.994   4.137   5.784  0.2988  0.2107 -0.1116
 1107TIP3    H124736   1.058   4.205   5.762  0.9206 -0.7178 -1.2167
 1107TIP3    H224737   0.943   4.125   5.704 -0.2691 -0.1316  0.2959
 1108TIP3   OH224738   5.472   2.867  14.057  0.2992  0.3345 -0.2031
 1108TIP3    H124739   5.471   2.820  13.974 -1.3579 -0.5398  0.2627
 1108TIP3    H224740   5.533   2.818  14.111 -0.7515 -0.8167 -0.0137
 1109TIP3   OH224741   0.172   3.957   1.739  0.2196 -0.1409 -0.3082
 1109TIP3    H124742   0.132   4.007   1.668  0.7353  0.7668  0.0353
 1109TIP3    H224743   0.207   3.879   1.696 -0.6003 -0.2362 -0.8437
 1110TIP3   OH224744   0.314   2.765   1.197 -0.0058 -0.4891 -0.1243
 1110TIP3    H124745   0.268   2.776   1.281  0.6714 -1.4189  0.3918
 1110TIP3    H224746   0.254   2.714   1.144 -0.1575 -0.4939  0.0498
 1111TIP3   OH224747   3.880   0.204  10.988  0.4295  0.0016 -0.2229
 1111TIP3    H124748   3.938   0.193  11.064  0.3481 -1.0163 -0.3020
 1111TIP3    H224749   3.939   0.199  10.913  0.4252  0.3929 -0.2546
 1112TIP3   OH224750   1.757   0.898   5.603  0.2749  0.1557 -0.2324
 1112TIP3    H124751   1.680   0.841   5.605 -0.4820  1.1067  2.3902
 1112TIP3    H224752   1.785   0.903   5.695  1.7737  2.0655 -0.7296
 1113TIP3   OH224753   5.605   0.524  12.612 -0.4162  0.1953 -0.3834
 1113TIP3    H124754   5.669   0.484  12.554 -0.0060  0.6245 -0.2376
 1113TIP3    H224755   5.646   0.605  12.641 -0.8565  0.2736  0.0447
 1114TIP3   OH224756   6.742   6.091  13.776 -0.3216 -0.4901  0.0549
 1114TIP3    H124757   6.691   6.012  13.758  2.4589 -2.0693 -1.6873
 1114TIP3    H224758   6.689   6.163  13.741 -0.9527 -2.1223 -2.5570
 1115TIP3   OH224759   3.467   3.248   0.990  0.2611  0.4167 -0.0093
 1115TIP3    H124760   3.431   3.332   1.020  0.7305  0.3531  0.7730
 1115TIP3    H224761   3.460   3.191   1.066  0.4920 -0.0783 -0.3576
 1116TIP3   OH224762   2.884   1.575  14.286 -0.9605 -0.0356 -0.3888
 1116TIP3    H124763   2.851   1.601  14.372 -3.5233 -1.1551 -0.9266
 1116TIP3    H224764   2.862   1.649  14.229 -1.5782 -0.3218 -0.5327
 1117TIP3   OH224765   4.344   0.935  12.817  0.4860 -0.2089  0.0555
 1117TIP3    H124766   4.324   1.007  12.876 -0.7190 -1.8995  1.8175
 1117TIP3    H224767   4.419   0.891  12.858 -1.1340 -2.1289  1.1132
 1118TIP3   OH224768   5.387   0.505  11.787  0.2001  0.0805  0.1707
 1118TIP3    H124769   5.477   0.524  11.810  0.5147 -1.8390  0.6990
 1118TIP3    H224770   5.349   0.468  11.867 -1.0383  0.7367 -0.0772
 1119TIP3   OH224771   2.653   1.223   0.160 -0.0181 -0.1580 -0.0396
 1119TIP3    H124772   2.613   1.248   0.077 -1.6633 -1.3286  0.3431
 1119TIP3    H224773   2.611   1.279   0.225  0.3562 -0.0945  0.1492
 1120TIP3   OH224774   2.883   0.168  11.439  0.3837  0.0031 -0.6504
 1120TIP3    H124775   2.879   0.226  11.364 -0.1446  1.1215  0.2099
 1120TIP3    H224776   2.801   0.119  11.437  0.1488  0.3887 -0.5334
 1121TIP3   OH224777   1.806   0.326  16.587 -0.4597  0.1794  0.4574
 1121TIP3    H124778   1.762   0.390  16.643 -0.1210  0.8332 -0.0223
 1121TIP3    H224779   1.813   0.248  16.642  0.9334  1.1675  1.7522
 1122TIP3   OH224780   4.311   4.573   1.546 -0.0323  0.0810  0.0562
 1122TIP3    H124781   4.334   4.482   1.523  2.3215  0.3025  1.2372
 1122TIP3    H224782   4.272   4.566   1.633 -0.4720  0.1409 -0.1362
 1123TIP3   OH224783   0.115   3.547   2.805  0.2684 -0.6233 -1.1053
 1123TIP3    H124784   0.071   3.551   2.720 -1.8576  2.4398 -0.0353
 1123TIP3    H224785   0.049   3.512   2.865  0.1832  1.2317 -0.0100
 1124TIP3   OH224786   2.705   6.196  13.337 -0.3976 -0.0112 -0.6123
 1124TIP3    H124787   2.683   6.153  13.420 -1.0503  1.0897 -0.1929
 1124TIP3    H224788   2.685   6.131  13.270 -0.8204 -0.5621  0.0320
 1125TIP3   OH224789   3.264   4.259   2.481 -0.0984  0.1978  0.4851
 1125TIP3    H124790   3.223   4.215   2.406  0.7986 -0.7646  0.5442
 1125TIP3    H224791   3.274   4.190   2.547  0.8888  0.6017  0.7672
 1126TIP3   OH224792   1.996   0.518  16.517 -0.2412 -0.1598 -0.6472
 1126TIP3    H124793   2.063   0.461  16.553  0.0073 -0.7427 -1.9776
 1126TIP3    H224794   1.918   0.462  16.511 -0.0463 -0.3235 -1.7891
 1127TIP3   OH224795   0.347   5.522   0.565  0.1579  0.1853 -0.4402
 1127TIP3    H124796   0.409   5.469   0.515 -1.0841 -1.9612  0.1905
 1127TIP3    H224797   0.281   5.549   0.502 -0.7350 -1.4780 -0.2777
 1128TIP3   OH224798   0.810   6.723  15.590  0.6006 -0.2602 -0.0619
 1128TIP3    H124799   0.880   6.661  15.610  0.8950 -0.2121 -0.9130
 1128TIP3    H224800   0.753   6.677  15.529  1.2385  0.5605 -1.3056
 1129TIP3   OH224801   6.104   3.468   4.776  0.2038  0.5309 -0.0465
 1129TIP3    H124802   6.118   3.422   4.693  0.2109  2.0945 -0.9571
 1129TIP3    H224803   6.182   3.523   4.786  0.8507 -0.6623  1.7269
 1130TIP3   OH224804   0.797   5.358  17.148 -0.3692 -0.3586 -0.1524
 1130TIP3    H124805   0.707   5.372  17.178 -0.2806 -0.0837 -0.0132
 1130TIP3    H224806   0.817   5.436  17.096 -0.7448 -1.1161 -1.4745
 1131TIP3   OH224807   2.451   6.771  15.154  0.7941  0.0180  0.2797
 1131TIP3    H124808   2.420   6.683  15.175 -1.4409  0.6817  0.0388
 1131TIP3    H224809   2.449   6.777  15.059  1.2719  0.2393  0.2748
 1132TIP3   OH224810   1.909   1.151  12.942  0.4721  0.0352  0.1920
 1132TIP3    H124811   1.956   1.233  12.956  0.2037  0.3499 -0.6954
 1132TIP3    H224812   1.934   1.123  12.854 -0.1044 -0.3918  0.1549
 1133TIP3   OH224813   1.831   6.017  14.687 -0.5995  0.0573  0.2585
 1133TIP3    H124814   1.751   6.022  14.740 -1.3831  2.1394 -1.0111
 1133TIP3    H224815   1.799   6.012  14.597  0.6716  1.7572 -0.3239
 1134TIP3   OH224816   0.702   6.461  11.811 -0.9660 -0.2648 -0.0025
 1134TIP3    H124817   0.709   6.556  11.806  0.7493 -0.3930 -0.5360
 1134TIP3    H224818   0.647   6.437  11.736 -2.2634  0.3493  0.7142
 1135TIP3   OH224819   3.425   4.946  15.081  0.1300 -0.0713  0.5668
 1135TIP3    H124820   3.514   4.961  15.048 -0.4995  0.0515 -1.1725
 1135TIP3    H224821   3.413   5.015  15.147  1.2478  0.0412  0.6808
 1136TIP3   OH224822   1.432   3.283   4.948 -0.4185 -0.3071  0.2483
 1136TIP3    H124823   1.402   3.252   4.862  0.4937 -0.3505 -0.0655
 1136TIP3    H224824   1.473   3.368   4.930 -1.4205  0.3224  0.8550
 1137TIP3   OH224825   3.576   0.456  13.987  0.4489  0.3574 -0.0054
 1137TIP3    H124826   3.647   0.512  14.019 -0.6999  1.8472  0.0357
 1137TIP3    H224827   3.575   0.381  14.047  0.7245  1.2714  1.1715
 1138TIP3   OH224828   0.102   0.935  12.425  0.3321  0.0219 -0.9100
 1138TIP3    H124829   0.121   0.841  12.430 -1.6558 -0.3784  0.0114
 1138TIP3    H224830   0.096   0.963  12.517 -0.9875  0.6152 -1.1594
 1139TIP3   OH224831   0.212   0.925   4.651 -0.1260  0.5086  0.0916
 1139TIP3    H124832   0.156   0.928   4.728  0.3649 -1.4533  0.5806
 1139TIP3    H224833   0.269   0.850   4.665 -0.4981 -0.3734 -2.5043
 1140TIP3   OH224834   3.921   5.933  12.873 -0.1906  0.8113 -0.2978
 1140TIP3    H124835   3.859   5.967  12.809 -0.8546 -0.7653 -0.5264
 1140TIP3    H224836   3.879   5.951  12.958 -0.4630  0.6791 -0.4052
 1141TIP3   OH224837   6.330   6.526  14.779 -0.2795  0.3229  0.7233
 1141TIP3    H124838   6.365   6.588  14.843  0.4525  0.1073  0.5426
 1141TIP3    H224839   6.249   6.495  14.818 -1.2072  2.1702  0.3322
 1142TIP3   OH224840   0.010   3.004   0.538  0.2356  0.1173  0.3415
 1142TIP3    H124841  -0.012   2.911   0.529 -1.5739  0.5395  0.0312
 1142TIP3    H224842   0.020   3.017   0.632 -0.2036 -0.2399  0.4408
 1143TIP3   OH224843   1.955   0.767  14.465  0.0106  0.1385 -0.2630
 1143TIP3    H124844   1.898   0.771  14.542 -1.2922  1.7962 -1.2590
 1143TIP3    H224845   1.922   0.693  14.415  1.1575 -1.2501  0.9213
 1144TIP3   OH224846   2.331   6.127  11.599  0.0718  0.1615  0.3966
 1144TIP3    H124847   2.426   6.133  11.606  0.1423 -1.0069  0.5715
 1144TIP3    H224848   2.315   6.043  11.556 -0.9128 -0.1462  1.3210
 1145TIP3   OH224849   2.284   6.650  14.732  0.2906  0.2117 -0.5892
 1145TIP3    H124850   2.208   6.618  14.684  0.2798  1.2334 -1.2857
 1145TIP3    H224851   2.359   6.614  14.685  0.2650  0.6756 -0.9963
 1146TIP3   OH224852   4.708   4.081   3.712 -0.3152  0.2346 -0.1644
 1146TIP3    H124853   4.782   4.097   3.654  0.1977  0.5701  0.5610
 1146TIP3    H224854   4.692   3.987   3.706  0.7752 -0.0047  0.3624
 1147TIP3   OH224855   0.444   1.012   0.040 -0.5731  0.3252 -0.0042
 1147TIP3    H124856   0.420   1.024   0.133  0.2350 -0.0429  0.2543
 1147TIP3    H224857   0.538   0.995   0.041 -0.4826  0.7211 -0.9328
 1148TIP3   OH224858   2.521   5.262  15.295 -0.0920 -0.4168  0.1014
 1148TIP3    H124859   2.556   5.343  15.257  1.0207 -0.7754  0.3228
 1148TIP3    H224860   2.484   5.289  15.379 -0.2200 -0.0427 -0.0739
 1149TIP3   OH224861   2.160   1.687  14.968 -0.0887  0.0279 -0.1267
 1149TIP3    H124862   2.255   1.697  14.963  0.1218 -1.8625 -0.8768
 1149TIP3    H224863   2.136   1.731  15.050  1.6209 -0.6763  0.8252
 1150TIP3   OH224864   1.749   5.462   1.921  0.0224  0.1480 -0.7610
 1150TIP3    H124865   1.780   5.464   1.830  1.2406  0.0930 -0.3705
 1150TIP3    H224866   1.822   5.423   1.970 -0.8164 -0.3090  0.1701
 1151TIP3   OH224867   3.990   4.159  15.507  0.5148 -0.3848  0.1352
 1151TIP3    H124868   3.990   4.068  15.536 -1.9006 -0.2080  0.8938
 1151TIP3    H224869   3.908   4.195  15.541  0.2232  1.4159 -2.2207
 1152TIP3   OH224870   1.319   1.695  14.471  0.5510  0.0461  0.2178
 1152TIP3    H124871   1.396   1.664  14.519 -0.0618 -1.4818  0.2799
 1152TIP3    H224872   1.245   1.678  14.530  0.0067  0.0962 -0.4317
 1153TIP3   OH224873   5.726   0.163   3.028 -0.1938 -0.3711  0.4227
 1153TIP3    H124874   5.723   0.258   3.029  0.3034 -0.3430 -0.3605
 1153TIP3    H224875   5.793   0.140   3.093  1.1683 -0.1035 -0.8512
 1154TIP3   OH224876   3.972   5.826  10.532  0.3130  0.6430  0.2433
 1154TIP3    H124877   3.877   5.817  10.540  0.1456  2.1079  0.1966
 1154TIP3    H224878   4.006   5.789  10.613 -0.0111 -3.1549 -1.1837
 1155TIP3   OH224879   0.487   4.495   3.673 -0.3915  0.1432  0.0800
 1155TIP3    H124880   0.526   4.562   3.729 -0.1534 -0.9467  1.2312
 1155TIP3    H224881   0.399   4.529   3.654  0.3032  1.5741 -0.7586
 1156TIP3   OH224882   6.526   0.899   0.093 -0.0264  0.2152 -0.0388
 1156TIP3    H124883   6.460   0.848   0.141 -0.0376  1.9455  1.9293
 1156TIP3    H224884   6.478   0.942   0.023 -0.4878 -0.4541 -0.1468
 1157TIP3   OH224885   3.191   0.581  16.225  0.1596 -0.2925 -0.0456
 1157TIP3    H124886   3.196   0.635  16.304  1.1235 -0.1875 -0.1586
 1157TIP3    H224887   3.100   0.553  16.221 -0.0481  0.2101  0.7625
 1158TIP3   OH224888   5.349   5.878   2.475 -0.7834  0.1546 -0.1773
 1158TIP3    H124889   5.344   5.867   2.570 -2.1138 -1.5368 -0.3885
 1158TIP3    H224890   5.320   5.968   2.460 -3.1816 -0.3551  0.8979
 1159TIP3   OH224891   4.228   1.461  12.511 -0.3905  0.1734 -0.3070
 1159TIP3    H124892   4.271   1.436  12.430  1.3731 -0.1330  0.6711
 1159TIP3    H224893   4.298   1.500  12.564 -1.3638 -0.1634  1.2837
 1160TIP3   OH224894   1.953   6.027   1.671  0.0267 -0.2535 -0.2194
 1160TIP3    H124895   1.864   6.000   1.650  0.4213  0.0540 -2.5100
 1160TIP3    H224896   1.951   6.122   1.670  0.4390 -0.2471 -0.5220
 1161TIP3   OH224897   0.092   3.289  13.853 -0.1115 -0.1611 -0.0676
 1161TIP3    H124898   0.113   3.308  13.944 -1.8350 -0.2637  0.3894
 1161TIP3    H224899   0.065   3.373  13.816 -0.1940 -0.2624 -0.2419
 1162TIP3   OH224900   3.586   5.064  17.193 -0.4642  0.5810 -0.4987
 1162TIP3    H124901   3.553   4.997  17.134 -0.1425  0.1889 -0.2321
 1162TIP3    H224902   3.671   5.089  17.156  0.6805 -1.1041  0.8932
 1163TIP3   OH224903   4.162   0.296   0.510 -0.0045 -0.3644 -0.1479
 1163TIP3    H124904   4.087   0.240   0.531  0.8468 -1.9621 -1.1717
 1163TIP3    H224905   4.207   0.310   0.593 -1.2630  0.3982  0.4322
 1164TIP3   OH224906   0.246   4.957   6.127 -0.7624 -0.3191  0.4416
 1164TIP3    H124907   0.275   5.017   6.059 -0.3785 -1.2671 -0.2474
 1164TIP3    H224908   0.179   5.006   6.175  0.4166  1.1118  0.6942
 1165TIP3   OH224909   1.779   2.353  13.373 -0.4302  0.5959  0.2689
 1165TIP3    H124910   1.848   2.349  13.307 -0.1779  1.4276  0.4765
 1165TIP3    H224911   1.783   2.443  13.406  0.9513 -0.3566  3.0015
 1166TIP3   OH224912   4.573   2.452   1.518 -0.0594 -0.0024 -0.2584
 1166TIP3    H124913   4.611   2.424   1.601  0.6449 -1.6492 -1.0661
 1166TIP3    H224914   4.597   2.544   1.509 -1.3612  0.6214  1.9699
 1167TIP3   OH224915   3.616   1.834   5.295 -0.4287 -0.0067  0.1119
 1167TIP3    H124916   3.583   1.924   5.297  1.8784  0.8962  1.5892
 1167TIP3    H224917   3.589   1.797   5.379  2.8322  1.0837  1.8220
 1168TIP3   OH224918   5.156   3.043  16.194 -0.5468 -0.3722  0.5386
 1168TIP3    H124919   5.141   3.136  16.175 -0.2217 -0.5525 -0.6737
 1168TIP3    H224920   5.174   3.041  16.288 -1.2633  0.6969  0.7205
 1169TIP3   OH224921   1.881   3.649   0.072 -0.1085  0.2168  0.6950
 1169TIP3    H124922   1.864   3.556   0.055  1.0477  0.2115 -0.5438
 1169TIP3    H224923   1.812   3.695   0.025  0.4802  0.0433 -0.3559
 1170TIP3   OH224924   0.465   5.978  12.656 -0.4852 -0.1941  0.2454
 1170TIP3    H124925   0.439   5.887  12.664  0.8270 -0.6660 -0.5939
 1170TIP3    H224926   0.437   6.003  12.568 -0.0178 -0.0794  0.1249
 1171TIP3   OH224927   2.589   1.568   6.100  0.4078 -0.4831  0.0313
 1171TIP3    H124928   2.651   1.596   6.033  0.4813 -1.1167 -0.1758
 1171TIP3    H224929   2.639   1.508   6.156  1.3082  2.4559  2.6347
 1172TIP3   OH224930   4.735   3.273   2.634 -0.2446 -0.8816  0.5587
 1172TIP3    H124931   4.799   3.258   2.704  1.1292 -1.1743 -0.7011
 1172TIP3    H224932   4.716   3.367   2.640  2.5555 -0.1175 -0.7958
 1173TIP3   OH224933   4.481   3.830   2.649  0.2014  0.5105  0.3409
 1173TIP3    H124934   4.513   3.839   2.559  0.0680 -0.6928  0.1560
 1173TIP3    H224935   4.517   3.906   2.695 -2.3847  3.0573 -1.4266
 1174TIP3   OH224936   4.019   4.180  11.477  0.4094  0.2240  0.5358
 1174TIP3    H124937   4.050   4.120  11.545 -0.6356  0.3407  1.1266
 1174TIP3    H224938   4.006   4.125  11.400  1.2172  0.0229  0.5351
 1175TIP3   OH224939   3.580   6.121  16.815  0.1269  0.7156  0.3383
 1175TIP3    H124940   3.613   6.046  16.765 -2.7420 -0.7514  0.4067
 1175TIP3    H224941   3.658   6.166  16.846  2.0121 -2.2983  0.3725
 1176TIP3   OH224942   1.705   4.665   0.047  0.4548  0.7175 -0.0237
 1176TIP3    H124943   1.650   4.603   0.095 -0.0842  0.4910 -0.9112
 1176TIP3    H224944   1.743   4.613  -0.024  1.4285  0.9946  0.2773
 1177TIP3   OH224945   3.728   6.729   0.251  0.3766 -0.2636  0.0793
 1177TIP3    H124946   3.727   6.781   0.331  1.4940  0.0175 -0.0704
 1177TIP3    H224947   3.697   6.643   0.278 -0.8264  0.2756  0.4716
 1178TIP3   OH224948   1.115   4.554   2.701  0.1834 -0.1858 -0.3024
 1178TIP3    H124949   1.073   4.517   2.778  0.3356 -0.8822 -0.5519
 1178TIP3    H224950   1.181   4.490   2.676  1.1149  0.6988 -0.1647
 1179TIP3   OH224951   2.517   6.081  14.334  0.0811 -0.1016  0.7893
 1179TIP3    H124952   2.537   5.989  14.353 -0.3421 -0.1323  1.0834
 1179TIP3    H224953   2.424   6.081  14.313  0.2054  0.1724  0.2195
 1180TIP3   OH224954   0.654   0.023   4.096  0.1154  0.5852 -0.2791
 1180TIP3    H124955   0.702   0.045   4.016  0.6377  0.3585 -0.0345
 1180TIP3    H224956   0.577   0.079   4.094 -0.8676 -0.7137 -1.8989
 1181TIP3   OH224957   3.063   1.360   1.043 -0.6099 -0.1110 -0.5518
 1181TIP3    H124958   3.042   1.339   0.953  2.1373 -0.2921 -1.2277
 1181TIP3    H224959   3.069   1.275   1.087 -0.1467 -0.1388 -0.6621
 1182TIP3   OH224960   5.755   1.061   1.883 -0.2020 -0.2742 -0.3041
 1182TIP3    H124961   5.738   1.095   1.970  0.3761  1.3338 -0.7891
 1182TIP3    H224962   5.671   1.024   1.855 -0.4082 -0.7455  0.8836
 1183TIP3   OH224963   4.425   5.521   5.141  0.1864 -0.7714  0.5292
 1183TIP3    H124964   4.350   5.503   5.198  0.5182  0.1146  1.2634
 1183TIP3    H224965   4.388   5.522   5.052 -0.7256 -0.0637  0.9038
 1184TIP3   OH224966   5.784   5.269  16.841 -0.4068  0.5264  0.6347
 1184TIP3    H124967   5.735   5.330  16.897 -0.1324  0.4315  0.9812
 1184TIP3    H224968   5.871   5.309  16.833 -0.0454 -0.0848  1.3240
 1185TIP3   OH224969   5.068   4.437   0.843 -0.0408 -0.7182  0.1407
 1185TIP3    H124970   5.066   4.342   0.832  1.3837 -0.9161  1.3403
 1185TIP3    H224971   5.042   4.451   0.934  2.7657 -0.2160  0.9403
 1186TIP3   OH224972   6.467   6.433  16.966 -0.8963  0.2424 -0.2480
 1186TIP3    H124973   6.555   6.398  16.958 -0.8940 -0.2321  1.3916
 1186TIP3    H224974   6.421   6.402  16.888  0.0318 -0.5819 -0.4841
 1187TIP3   OH224975   1.705   6.444  15.407 -0.1014  0.0718  0.7467
 1187TIP3    H124976   1.719   6.365  15.356 -0.2221  0.0511  0.7449
 1187TIP3    H224977   1.699   6.414  15.497 -2.4117 -0.2132  0.5666
 1188TIP3   OH224978   6.029   4.702  16.177  0.1312 -0.2233  0.1333
 1188TIP3    H124979   6.070   4.616  16.171  0.5677  0.0791 -2.2810
 1188TIP3    H224980   6.045   4.730  16.267  1.8480 -1.7636  0.3664
 1189TIP3   OH224981   2.758   5.599  12.515 -0.0846 -0.3125 -0.6495
 1189TIP3    H124982   2.689   5.606  12.448  1.5321  0.2804 -2.3266
 1189TIP3    H224983   2.801   5.684  12.515  0.0419 -0.3343  1.1114
 1190TIP3   OH224984   4.012   4.505  16.036 -0.2423 -0.1603  0.1697
 1190TIP3    H124985   4.026   4.447  15.960  0.3899 -1.8320  1.4941
 1190TIP3    H224986   4.031   4.592  16.003  1.7435 -1.0296 -1.1866
 1191TIP3   OH224987   4.902   3.698  11.584 -0.0114 -0.1641  0.2429
 1191TIP3    H124988   4.940   3.626  11.533 -1.1770 -1.8237  1.5600
 1191TIP3    H224989   4.808   3.695  11.562 -0.2565  0.1660  1.2073
 1192TIP3   OH224990   6.406   1.606  12.433 -0.5589 -0.3638 -0.6129
 1192TIP3    H124991   6.421   1.541  12.364 -0.5117  0.9853 -1.9226
 1192TIP3    H224992   6.327   1.652  12.406  0.2700  1.1629 -0.5614
 1193TIP3   OH224993   0.858   0.355  12.955 -0.1178  0.1827  0.2375
 1193TIP3    H124994   0.905   0.298  12.894  0.3902  0.7721  0.0683
 1193TIP3    H224995   0.898   0.336  13.040 -1.1129 -0.9490  0.4843
 1194TIP3   OH224996   3.606   1.087   2.151  0.1362 -0.1709  0.0894
 1194TIP3    H124997   3.654   1.063   2.071 -0.4934 -1.3121  0.0329
 1194TIP3    H224998   3.649   1.037   2.220  0.6452  0.7758  0.4797
 1195TIP3   OH224999   5.895   0.889   5.446  0.2801 -0.0259 -0.2719
 1195TIP3    H125000   5.881   0.979   5.475 -2.9032 -0.7281  0.6923
 1195TIP3    H225001   5.966   0.857   5.502  1.2271  1.7362 -0.3939
 1196TIP3   OH225002   1.484   1.184   1.988  0.4110  0.2619  0.4911
 1196TIP3    H125003   1.561   1.239   1.975 -0.1613  1.3580  1.5170
 1196TIP3    H225004   1.501   1.105   1.937  1.8052  0.8723 -0.0162
 1197TIP3   OH225005   2.147   2.762   3.748 -0.7439 -0.2753 -0.5370
 1197TIP3    H125006   2.195   2.752   3.830 -0.2275  0.6760 -0.7159
 1197TIP3    H225007   2.059   2.731   3.769 -0.3942 -0.8595  0.1315
 1198TIP3   OH225008   3.659   5.621   0.923  0.0534 -0.6089 -0.3049
 1198TIP3    H125009   3.607   5.542   0.906 -1.3099  0.2568 -0.2823
 1198TIP3    H225010   3.657   5.670   0.841  0.4878 -0.3665 -0.1755
 1199TIP3   OH225011   5.828   0.356   6.009  0.2969 -0.1769 -0.2366
 1199TIP3    H125012   5.796   0.280   5.961 -0.0217 -2.0358  2.6737
 1199TIP3    H225013   5.771   0.362   6.086  1.0501  2.3146  0.2253
 1200TIP3   OH225014   0.280   1.609   1.571 -0.3231  0.2849 -0.2598
 1200TIP3    H125015   0.304   1.524   1.607 -0.7151  0.3451  0.1648
 1200TIP3    H225016   0.273   1.595   1.477 -0.3755 -0.1505 -0.1921
 1201TIP3   OH225017   1.574   2.572   4.806 -0.1905 -0.3216  0.3507
 1201TIP3    H125018   1.562   2.572   4.901  1.2909 -1.2054  0.5635
 1201TIP3    H225019   1.630   2.496   4.789 -1.1950 -0.7254 -1.3423
 1202TIP3   OH225020   2.594   3.306  10.312  0.6091  0.4045 -0.0699
 1202TIP3    H125021   2.630   3.223  10.343  3.0527  1.1903 -0.5686
 1202TIP3    H225022   2.650   3.372  10.352 -0.6062  1.7870 -0.5605
 1203TIP3   OH225023   3.751   1.297   6.963  0.1254  0.3473 -0.0547
 1203TIP3    H125024   3.758   1.389   6.990  1.9833  0.3112 -0.2414
 1203TIP3    H225025   3.842   1.270   6.951 -0.3262 -1.8550  1.0957
 1204TIP3   OH225026   3.281   2.633  13.491 -0.5104  0.8489  0.0732
 1204TIP3    H125027   3.245   2.569  13.430 -0.5388  0.7606  0.1833
 1204TIP3    H225028   3.306   2.582  13.568 -0.8556  1.0185  0.3000
 1205TIP3   OH225029   4.598   6.460  12.125  0.3810 -0.1378  0.1412
 1205TIP3    H125030   4.632   6.377  12.092 -0.5219 -0.3225 -0.3675
 1205TIP3    H225031   4.667   6.523  12.104  0.3907 -0.4818 -0.9658
 1206TIP3   OH225032   0.735   5.054  13.032  0.1199 -0.2118 -0.4896
 1206TIP3    H125033   0.660   5.051  12.972 -0.9183 -3.1839  0.8113
 1206TIP3    H225034   0.707   5.114  13.101 -0.7556 -0.7082 -0.3975
 1207TIP3   OH225035   1.831   4.248  17.234  0.0130 -0.4338 -0.0529
 1207TIP3    H125036   1.880   4.285  17.307  2.1731  0.2015 -1.7021
 1207TIP3    H225037   1.785   4.323  17.196 -0.4316 -0.6032  0.1475
 1208TIP3   OH225038   1.635   5.452  10.794 -0.0065 -0.1104  0.3450
 1208TIP3    H125039   1.700   5.502  10.843  0.0754 -1.4440  1.6443
 1208TIP3    H225040   1.552   5.473  10.836 -0.8195  2.9133 -2.3345
 1209TIP3   OH225041   2.535   2.389   5.150 -0.5386  0.4076 -0.0650
 1209TIP3    H125042   2.597   2.377   5.077 -1.7029 -0.7375 -0.9077
 1209TIP3    H225043   2.520   2.301   5.183 -1.1040  0.7702  0.6629
 1210TIP3   OH225044   5.844   4.356  16.316  0.0350 -0.2138  0.8883
 1210TIP3    H125045   5.767   4.326  16.366  0.0515 -2.2621 -0.2408
 1210TIP3    H225046   5.828   4.326  16.227  2.5024 -1.3868  0.7784
 1211TIP3   OH225047   2.514   0.078  14.547  0.0653  0.6184 -0.1178
 1211TIP3    H125048   2.432   0.110  14.586  0.9292  0.8332  1.5967
 1211TIP3    H225049   2.486   0.010  14.486 -1.5155  1.9091 -0.9218
 1212TIP3   OH225050   2.151   5.572  11.997 -0.3544 -0.2529  0.5056
 1212TIP3    H125051   2.061   5.589  12.024 -0.8651 -1.9753  0.0249
 1212TIP3    H225052   2.159   5.476  12.000 -0.1639 -0.6418 -4.2517
 1213TIP3   OH225053   2.465   1.547  15.234 -0.0995  0.2016  0.1064
 1213TIP3    H125054   2.511   1.481  15.286 -0.0034 -0.3280 -0.6214
 1213TIP3    H225055   2.508   1.629  15.256  1.1672 -0.2635 -0.4686
 1214TIP3   OH225056   2.102   5.306   4.577 -0.0306 -0.0263  0.0458
 1214TIP3    H125057   2.125   5.398   4.562 -0.0489 -0.0482 -0.1154
 1214TIP3    H225058   2.185   5.264   4.599 -0.1337  0.1794  0.8755
 1215TIP3   OH225059   0.614   0.656   4.917 -1.0086  0.6195 -0.0383
 1215TIP3    H125060   0.653   0.718   4.979  1.1628 -1.7957  1.2211
 1215TIP3    H225061   0.569   0.592   4.972  0.8300 -1.4899 -0.8107
 1216TIP3   OH225062   5.019   5.796   2.647  0.0493  0.1096  0.1210
 1216TIP3    H125063   4.934   5.761   2.617  0.0200  0.5575 -0.3125
 1216TIP3    H225064   4.999   5.834   2.733  0.4598 -2.6452  1.5524
 1217TIP3   OH225065   6.589   5.569   3.125  0.0503  0.3454  0.0980
 1217TIP3    H125066   6.605   5.640   3.187 -2.7758  1.4435 -0.2593
 1217TIP3    H225067   6.552   5.613   3.048 -2.0981 -1.4768 -0.0046
 1218TIP3   OH225068   5.284   3.053  14.075 -0.0350  0.0174  0.2122
 1218TIP3    H125069   5.298   3.102  14.156  1.3339  1.0812 -0.6158
 1218TIP3    H225070   5.365   3.004  14.063  0.3913  1.0136 -1.2379
 1219TIP3   OH225071   1.836   1.724   6.060  0.4644  0.4289  0.3773
 1219TIP3    H125072   1.837   1.814   6.028  1.5670  0.0973 -0.6156
 1219TIP3    H225073   1.748   1.712   6.095  0.1703  1.7615  0.1501
 1220TIP3   OH225074   6.230   1.422  11.435 -0.0313  0.4791  0.2690
 1220TIP3    H125075   6.269   1.403  11.349 -0.4941  1.1167 -0.0852
 1220TIP3    H225076   6.306   1.434  11.493  0.2876 -0.3138  0.0458
 1221TIP3   OH225077   3.478   1.046  11.614  0.0145 -0.0795 -0.0389
 1221TIP3    H125078   3.531   1.076  11.540 -1.2458  0.2372 -0.8495
 1221TIP3    H225079   3.528   1.072  11.692  0.1493  1.9632 -0.7415
 1222TIP3   OH225080   4.407   3.075  14.501 -0.1510 -0.5451 -0.4603
 1222TIP3    H125081   4.442   3.088  14.589  0.8662 -2.0130 -0.6155
 1222TIP3    H225082   4.332   3.135  14.496 -1.2164 -1.5517  1.9481
 1223TIP3   OH225083   1.116   5.815  15.825 -0.1323  0.3965  0.7583
 1223TIP3    H125084   1.128   5.785  15.915  0.5739 -1.2325  0.1547
 1223TIP3    H225085   1.191   5.872  15.808  0.2233 -0.0262  0.9088
 1224TIP3   OH225086   6.065   0.660   6.189 -0.1656  0.0542 -0.1101
 1224TIP3    H125087   6.080   0.751   6.212  2.0580  0.0585 -1.2264
 1224TIP3    H225088   6.038   0.618   6.270 -0.4987  1.5494  0.5829
 1225TIP3   OH225089   2.793   1.973   5.692  0.6896  0.5095 -0.3565
 1225TIP3    H125090   2.840   2.009   5.767  3.1668  0.3092 -1.7085
 1225TIP3    H225091   2.846   1.898   5.664  1.5051  2.1781 -3.9321
 1226TIP3   OH225092   2.829   4.916  15.749  0.2767 -0.5565  0.2113
 1226TIP3    H125093   2.831   5.009  15.771  1.8527 -0.7417  0.9912
 1226TIP3    H225094   2.839   4.872  15.834  1.1388 -1.4000 -0.3129
 1227TIP3   OH225095   3.309   1.076  13.501 -0.3280  0.3533  0.0218
 1227TIP3    H125096   3.313   0.981  13.495 -1.0087  0.0294  3.0460
 1227TIP3    H225097   3.396   1.106  13.476  0.3263 -1.1882  0.3545
 1228TIP3   OH225098   5.274   3.265  13.907  0.1640  0.1223  0.3130
 1228TIP3    H125099   5.333   3.251  13.833  0.0439  0.6785  0.1045
 1228TIP3    H225100   5.284   3.187  13.961  0.2342 -0.3004 -0.3014
 1229TIP3   OH225101   6.302   2.236   4.467  0.4021  0.1452 -0.1420
 1229TIP3    H125102   6.396   2.248   4.473  0.6095 -1.1403 -0.5772
 1229TIP3    H225103   6.267   2.285   4.542  1.4980 -0.2354  0.6470
 1230TIP3   OH225104   2.336   2.736  12.167 -0.7006  0.2247  0.1118
 1230TIP3    H125105   2.413   2.711  12.219  0.2798  0.8931 -0.9719
 1230TIP3    H225106   2.315   2.658  12.116  0.4047  0.5923 -0.9354
 1231TIP3   OH225107   2.695   2.834   1.102 -0.1922 -0.1329  0.2219
 1231TIP3    H125108   2.651   2.902   1.153  1.6743  2.7863 -1.7529
 1231TIP3    H225109   2.754   2.792   1.164 -0.5618  0.8389  1.2751
 1232TIP3   OH225110   3.721   0.110  12.958  0.1289 -0.3281 -0.1438
 1232TIP3    H125111   3.659   0.161  12.906 -0.7310 -0.4298  0.7573
 1232TIP3    H225112   3.752   0.171  13.024 -0.9658 -0.9572  0.9938
 1233TIP3   OH225113   3.082   1.152   0.776 -0.2446  0.1896 -0.1453
 1233TIP3    H125114   3.005   1.101   0.754 -0.6427  1.1358 -0.9919
 1233TIP3    H225115   3.129   1.162   0.694  0.2293  0.5306  0.1591
 1234TIP3   OH225116   0.438   1.342  12.368  0.5650  0.0285 -0.3260
 1234TIP3    H125117   0.374   1.312  12.303  0.2695  1.5023 -0.7753
 1234TIP3    H225118   0.515   1.288  12.353 -1.0290 -2.9477  1.3268
 1235TIP3   OH225119   2.439   5.850   1.586 -0.3153  0.3752  0.0451
 1235TIP3    H125120   2.402   5.779   1.534 -0.4837  0.1449  0.4783
 1235TIP3    H225121   2.376   5.863   1.657 -0.7655  1.5904 -0.5488
 1236TIP3   OH225122   2.715   1.697  15.608  0.2129  0.4109  0.7795
 1236TIP3    H125123   2.660   1.773  15.627 -2.2099 -1.0945  0.1771
 1236TIP3    H225124   2.805   1.731  15.615 -0.7224  2.9645  1.9044
 1237TIP3   OH225125   6.468   3.704  12.812 -0.3231  0.4278  0.2085
 1237TIP3    H125126   6.528   3.678  12.743 -0.1833 -2.1553  1.2105
 1237TIP3    H225127   6.512   3.776  12.857  1.1523 -0.1648 -0.2485
 1238TIP3   OH225128   2.705   2.072   0.773 -0.0984  0.0098  0.3146
 1238TIP3    H125129   2.788   2.047   0.815  0.6103  1.2437 -0.2918
 1238TIP3    H225130   2.728   2.148   0.719 -1.6167  0.3145  0.0629
 1239TIP3   OH225131   3.291   5.406   1.859  0.1973 -0.4155  0.4044
 1239TIP3    H125132   3.241   5.326   1.842 -1.2084  0.7404 -1.2438
 1239TIP3    H225133   3.323   5.434   1.773 -0.0812  1.2450  0.8011
 1240TIP3   OH225134   5.417   1.527   3.616  0.0832  0.2565  0.1684
 1240TIP3    H125135   5.445   1.438   3.638  1.8234  0.4653 -0.9537
 1240TIP3    H225136   5.335   1.515   3.568  0.1274 -0.7233  0.3170
 1241TIP3   OH225137   5.989   1.322   0.729  0.1118 -0.1010 -0.6728
 1241TIP3    H125138   5.901   1.285   0.732  0.4804 -0.9875 -0.4837
 1241TIP3    H225139   6.022   1.300   0.642 -0.4869  1.7807 -1.4270
 1242TIP3   OH225140   6.376   1.940   1.050  0.2370 -0.4173 -0.3835
 1242TIP3    H125141   6.361   1.926   0.956  0.4913  0.0565 -0.4980
 1242TIP3    H225142   6.289   1.933   1.090 -0.0646  0.6129 -0.8159
 1243TIP3   OH225143   5.947   0.839  16.575 -0.3753  0.8091 -0.0790
 1243TIP3    H125144   5.880   0.789  16.529 -1.4894  0.9603  1.3118
 1243TIP3    H225145   5.987   0.894  16.507  0.3077 -1.2899 -1.4828
 1244TIP3   OH225146   5.393   5.693   5.542 -0.5785 -0.2166  0.3478
 1244TIP3    H125147   5.475   5.687   5.494 -1.5892 -1.3818 -1.3420
 1244TIP3    H225148   5.349   5.770   5.507 -0.4649  0.0899  0.8627
 1245TIP3   OH225149   2.824   2.285   3.935 -0.2846  0.2945  0.3817
 1245TIP3    H125150   2.917   2.263   3.944  0.3309  1.1972 -2.6784
 1245TIP3    H225151   2.796   2.240   3.855 -2.8576 -0.8415  1.7910
 1246TIP3   OH225152   2.250   2.399   1.138  0.3495  0.1246 -0.5809
 1246TIP3    H125153   2.220   2.448   1.061  0.7525  0.3268 -0.6112
 1246TIP3    H225154   2.201   2.438   1.211  0.7094  0.6137 -0.5979
 1247TIP3   OH225155   6.115   5.291   6.356 -0.1245  0.0764 -0.0479
 1247TIP3    H125156   6.134   5.303   6.449  1.6823  0.6604 -0.4467
 1247TIP3    H225157   6.113   5.196   6.344  0.5541 -0.0059  0.4380
 1248TIP3   OH225158   1.731   2.339   2.667  0.0612  0.7967 -0.1247
 1248TIP3    H125159   1.674   2.391   2.609 -0.2827  1.3026  0.6567
 1248TIP3    H225160   1.676   2.320   2.743 -0.2007 -1.6605 -0.8325
 1249TIP3   OH225161   3.975   3.332  17.155 -0.2832  0.2341 -0.4162
 1249TIP3    H125162   4.067   3.336  17.128 -0.8952 -0.2326 -2.7336
 1249TIP3    H225163   3.962   3.242  17.183 -0.3298 -0.0243 -1.2557
 1250TIP3   OH225164   5.243   1.742  13.780  0.5178  0.2780 -0.9054
 1250TIP3    H125165   5.283   1.788  13.854 -1.0068  1.8985 -1.0144
 1250TIP3    H225166   5.217   1.657  13.816  0.4826  0.7477  0.2210
 1251TIP3   OH225167   0.202   0.564  13.593 -0.2320 -0.2340 -0.6430
 1251TIP3    H125168   0.113   0.593  13.576 -0.1783  0.5153  0.3213
 1251TIP3    H225169   0.254   0.644  13.599  0.5289 -0.6579 -1.2466
 1252TIP3   OH225170   4.725   1.106  11.223  0.1492 -0.4054  0.4699
 1252TIP3    H125171   4.698   1.022  11.259  0.7285 -1.0710 -0.6360
 1252TIP3    H225172   4.732   1.092  11.129 -0.7322  1.1525  0.1317
 1253TIP3   OH225173   6.654   1.860   2.239 -0.8225  0.1668 -0.2235
 1253TIP3    H125174   6.706   1.784   2.211  1.4877  1.5375  0.0496
 1253TIP3    H225175   6.666   1.923   2.168 -0.4997  1.2170  0.7405
 1254TIP3   OH225176   5.343   4.323   2.173  0.0034 -0.4556 -0.3597
 1254TIP3    H125177   5.325   4.347   2.264  1.1014 -0.6273 -0.0870
 1254TIP3    H225178   5.259   4.335   2.128 -0.1283  1.4494  0.2805
 1255TIP3   OH225179   6.596   1.557   1.392 -0.2016 -0.0219  0.2431
 1255TIP3    H125180   6.506   1.561   1.424 -0.0946 -1.0180  0.7003
 1255TIP3    H225181   6.587   1.538   1.298 -0.4710  1.0282  0.0341
 1256TIP3   OH225182   6.689   2.958   1.237 -0.1632 -0.1284  0.5150
 1256TIP3    H125183   6.686   2.864   1.254 -1.1566 -0.2534 -0.2329
 1256TIP3    H225184   6.739   2.995   1.310  0.3276 -1.2435  0.7582
 1257TIP3   OH225185   1.449   5.907  14.930  0.1644 -0.1679 -0.3573
 1257TIP3    H125186   1.368   5.870  14.895  0.5307 -1.0880 -0.2465
 1257TIP3    H225187   1.496   5.832  14.967  1.3157  0.2603 -0.9060
 1258TIP3   OH225188   5.176   5.207  15.367  0.1798  1.3797 -0.3628
 1258TIP3    H125189   5.258   5.209  15.318 -0.0254 -0.0462 -0.8114
 1258TIP3    H225190   5.110   5.237  15.305  0.1076  0.8154 -0.5612
 1259TIP3   OH225191   2.987   5.173  12.493 -0.0396  0.0911 -0.0180
 1259TIP3    H125192   2.967   5.091  12.448 -1.3678 -1.0668  2.4940
 1259TIP3    H225193   3.049   5.148  12.562  0.6750  1.5063 -0.1123
 1260TIP3   OH225194   4.942   4.189  14.873 -0.1215 -0.0439  0.2020
 1260TIP3    H125195   5.029   4.206  14.837 -0.3575 -1.0063 -0.8817
 1260TIP3    H225196   4.883   4.201  14.799 -0.5980 -2.3368  0.1458
 1261TIP3   OH225197   4.110   2.014   2.324 -1.1020 -0.0816  0.4739
 1261TIP3    H125198   4.017   2.008   2.304 -0.8861 -2.0996 -0.1039
 1261TIP3    H225199   4.114   2.071   2.401 -2.9676 -1.3038  1.5550
 1262TIP3   OH225200   3.976   1.366  12.991 -0.2171  0.3033  0.0576
 1262TIP3    H125201   3.897   1.420  12.985 -1.2785 -1.0491  1.1818
 1262TIP3    H225202   4.043   1.424  13.027 -1.3861  0.8245  1.4393
 1263TIP3   OH225203   2.200   0.330   5.942  0.0394 -0.6615 -0.3291
 1263TIP3    H125204   2.104   0.326   5.946  0.0744 -0.4513  1.3690
 1263TIP3    H225205   2.221   0.423   5.949  0.3699 -0.7027 -0.7540
 1264TIP3   OH225206   3.768   0.238   0.385 -0.2457 -0.3760  0.6086
 1264TIP3    H125207   3.784   0.326   0.352  0.3700 -0.5424  0.4478
 1264TIP3    H225208   3.684   0.244   0.430  0.0356  0.4139  1.0540
 1265TIP3   OH225209   5.968   1.511   0.119 -0.1463  0.0449 -0.2586
 1265TIP3    H125210   5.957   1.431   0.069 -0.0338 -1.0066  1.3253
 1265TIP3    H225211   5.881   1.532   0.152  0.2868 -1.3004  1.9866
 1266TIP3   OH225212   3.296   4.717   3.031  0.2972 -0.1366 -0.1530
 1266TIP3    H125213   3.371   4.696   2.975  0.3636 -0.1723 -0.0508
 1266TIP3    H225214   3.222   4.725   2.971 -0.2767 -3.0868  0.0021
 1267TIP3   OH225215   6.492   3.531  13.231 -0.0329  0.0852 -0.0063
 1267TIP3    H125216   6.556   3.599  13.212 -0.9923  1.4576  1.4064
 1267TIP3    H225217   6.428   3.574  13.288 -0.9629 -1.8673  0.4976
 1268TIP3   OH225218   5.919   0.337  11.817 -0.1031 -0.4378  0.5723
 1268TIP3    H125219   5.965   0.416  11.845 -1.0868 -0.3025  1.9408
 1268TIP3    H225220   5.837   0.369  11.781  0.5426 -0.7172 -1.2468
 1269TIP3   OH225221   4.067   5.564   6.431 -0.3666 -0.5223  0.1274
 1269TIP3    H125222   4.146   5.613   6.453 -1.0958  1.3693 -1.1995
 1269TIP3    H225223   4.099   5.484   6.391  0.8937 -0.0572  0.1530
 1270TIP3   OH225224   3.820   2.265  17.076 -0.3751  0.4717 -0.0168
 1270TIP3    H125225   3.776   2.262  17.162  0.4207  0.1732  0.3886
 1270TIP3    H225226   3.910   2.239  17.094 -0.8266 -2.4113 -1.3554
 1271TIP3   OH225227   2.895   4.878  11.802 -0.0497 -0.2066  0.1208
 1271TIP3    H125228   2.982   4.867  11.838 -0.0818 -0.6164  0.0685
 1271TIP3    H225229   2.879   4.800  11.749 -0.2851  0.0540 -0.2060
 1272TIP3   OH225230   5.012   4.184  11.625 -0.0136  0.4696  0.4764
 1272TIP3    H125231   5.060   4.126  11.567  1.4783  1.7414  0.3626
 1272TIP3    H225232   5.020   4.144  11.712 -0.2901 -0.2523  0.1717
 1273TIP3   OH225233   1.126   3.802  10.636  0.9021  0.6021 -0.3832
 1273TIP3    H125234   1.052   3.776  10.582  2.9561 -0.2632 -2.9737
 1273TIP3    H225235   1.169   3.719  10.660  0.7549  1.0421  1.6296
 1274TIP3   OH225236   3.044   3.830   5.684  0.3058 -0.0122  0.0290
 1274TIP3    H125237   3.119   3.875   5.721  0.8057 -1.1209  0.4285
 1274TIP3    H225238   3.033   3.752   5.740 -1.2954  0.2509  0.1519
 1275TIP3   OH225239   0.492   5.882  13.494  0.3735 -0.1395 -0.1024
 1275TIP3    H125240   0.495   5.794  13.457 -0.5329  0.3994 -1.5628
 1275TIP3    H225241   0.583   5.912  13.494  0.4252 -0.1240 -2.1200
 1276TIP3   OH225242   2.776   3.321   3.436 -0.3846  0.3107 -0.0601
 1276TIP3    H125243   2.684   3.318   3.409 -0.0804 -1.2905 -1.0655
 1276TIP3    H225244   2.789   3.411   3.466 -2.9178 -0.0380  2.4856
 1277TIP3   OH225245   3.650   5.900  14.006  0.3550  0.4297  0.4614
 1277TIP3    H125246   3.596   5.853  14.070  1.1746 -1.1074  0.0830
 1277TIP3    H225247   3.739   5.872  14.026  1.0611  2.8315  1.0084
 1278TIP3   OH225248   4.829   2.395  14.018 -0.1935  0.1145 -0.1597
 1278TIP3    H125249   4.917   2.430  14.029 -0.5945  1.7789 -1.6235
 1278TIP3    H225250   4.811   2.348  14.099  2.4592 -1.3456 -0.2884
 1279TIP3   OH225251   0.472   6.482   2.618 -0.2119 -0.2176 -0.1498
 1279TIP3    H125252   0.490   6.439   2.534 -0.4583 -0.5886 -0.0167
 1279TIP3    H225253   0.488   6.575   2.601 -0.0999 -0.3065 -0.5629
 1280TIP3   OH225254   3.503   1.443   4.470 -0.3385 -0.4328  0.6056
 1280TIP3    H125255   3.567   1.375   4.449 -1.1728 -1.6449  1.8860
 1280TIP3    H225256   3.556   1.524   4.472  0.3707 -0.6746 -2.6077
 1281TIP3   OH225257   2.660   6.605   5.361  0.2014  0.2367  0.2993
 1281TIP3    H125258   2.612   6.592   5.279 -0.8667  0.1429  0.9299
 1281TIP3    H225259   2.662   6.700   5.372  2.4598  0.4307 -1.0354
 1282TIP3   OH225260   1.191   4.294  16.853 -0.0723 -0.1360  0.0779
 1282TIP3    H125261   1.284   4.317  16.845 -0.4389  1.5005  0.1280
 1282TIP3    H225262   1.155   4.310  16.766 -0.5933  0.7225  0.4414
 1283TIP3   OH225263   2.624   5.284   6.186  0.2882 -0.4849 -0.1319
 1283TIP3    H125264   2.535   5.311   6.210 -0.8325 -2.2396 -1.9947
 1283TIP3    H225265   2.630   5.193   6.214  1.3878 -0.4965 -0.3576
 1284TIP3   OH225266   2.081   6.617   1.987  0.2282  0.0519  0.6896
 1284TIP3    H125267   1.986   6.612   1.989  0.1574  1.0132  2.8526
 1284TIP3    H225268   2.110   6.551   2.050  1.1248 -1.3392 -1.0814
 1285TIP3   OH225269   2.518   5.725  10.733  0.3631 -0.2501  0.0179
 1285TIP3    H125270   2.557   5.691  10.653  0.6487 -0.8673  0.4132
 1285TIP3    H225271   2.438   5.673  10.745  0.3104 -0.1470  0.1200
 1286TIP3   OH225272   4.004   3.350   4.791 -0.4444 -0.5542  0.2306
 1286TIP3    H125273   4.047   3.341   4.876  0.8004 -0.2728 -0.3535
 1286TIP3    H225274   3.917   3.310   4.804 -0.1053 -0.9317  1.4910
 1287TIP3   OH225275   0.309   4.252  11.980  0.0949  0.7876  0.5210
 1287TIP3    H125276   0.222   4.257  12.019 -1.0207 -0.5312 -1.5810
 1287TIP3    H225277   0.295   4.275  11.888  2.0430  0.8940  0.2124
 1288TIP3   OH225278   6.680   3.014   2.148  0.5986 -0.0746  0.2293
 1288TIP3    H125279   6.652   2.935   2.194 -0.3097  0.4668  0.6320
 1288TIP3    H225280   6.619   3.082   2.177  0.4776  0.4572 -1.1723
 1289TIP3   OH225281   4.553   4.418  15.384  0.4079  0.0946  0.1285
 1289TIP3    H125282   4.469   4.431  15.428  0.5748 -1.8944  1.1502
 1289TIP3    H225283   4.614   4.395  15.455  1.3935 -0.2628 -0.8128
 1290TIP3   OH225284   6.212   6.402   0.884 -0.0316  0.2586  0.0746
 1290TIP3    H125285   6.213   6.322   0.832 -1.0574 -1.6602  2.7799
 1290TIP3    H225286   6.146   6.457   0.842 -0.7999 -1.1968 -0.7046
 1291TIP3   OH225287   4.490   1.007   3.526  0.4817  0.0568 -0.1976
 1291TIP3    H125288   4.528   0.949   3.592  1.8250  1.3322  0.1943
 1291TIP3    H225289   4.423   1.056   3.574  2.0831  1.6373  0.4983
 1292TIP3   OH225290   4.840   2.905   0.070 -0.2217  0.4193  0.2735
 1292TIP3    H125291   4.835   2.811   0.054  0.8270  0.3089  0.5040
 1292TIP3    H225292   4.864   2.912   0.162 -0.4961  0.9215  0.3077
 1293TIP3   OH225293   0.785   2.388   5.446 -1.0650  0.2087 -0.6588
 1293TIP3    H125294   0.737   2.461   5.406  1.6998  2.7173  0.2269
 1293TIP3    H225295   0.839   2.353   5.375  0.5719  1.7493 -0.2249
 1294TIP3   OH225296   2.947   3.991  16.703  0.5572  0.2105  0.5182
 1294TIP3    H125297   3.030   4.000  16.751  2.0990 -0.6597 -1.8130
 1294TIP3    H225298   2.973   3.980  16.612 -2.0558 -1.8729 -0.1098
 1295TIP3   OH225299   0.615   2.378   4.564 -0.2830  0.2938  0.1767
 1295TIP3    H125300   0.587   2.351   4.651 -2.2510  0.1123 -0.4550
 1295TIP3    H225301   0.710   2.387   4.570 -0.2404 -0.9750  1.9774
 1296TIP3   OH225302   2.487   3.997   5.634  0.3357 -0.2866  0.5469
 1296TIP3    H125303   2.558   4.060   5.643 -0.7440  0.7563  2.3924
 1296TIP3    H225304   2.422   4.025   5.699 -1.2978 -1.8123 -0.3555
 1297TIP3   OH225305   2.140   2.769   6.334  0.0598  0.5131 -0.6517
 1297TIP3    H125306   2.122   2.863   6.339  0.5921  0.6543 -1.2681
 1297TIP3    H225307   2.093   2.740   6.256 -1.1221  0.0114  0.2068
 1298TIP3   OH225308   0.049   3.612   3.433 -0.8201  0.1432 -0.0024
 1298TIP3    H125309   0.066   3.644   3.344  2.9396 -2.1127 -0.3401
 1298TIP3    H225310  -0.000   3.531   3.421 -0.5073 -0.0423 -0.0646
 1299TIP3   OH225311   4.011   3.014   5.356 -0.3455  0.4783  0.1693
 1299TIP3    H125312   4.070   3.077   5.399 -1.1301  0.5114  1.2420
 1299TIP3    H225313   4.068   2.941   5.332  0.6909  1.7778 -1.5840
 1300TIP3   OH225314   1.546   2.816  16.433 -0.2066  0.1497  0.2341
 1300TIP3    H125315   1.590   2.734  16.457 -0.5245 -0.3264 -0.7494
 1300TIP3    H225316   1.605   2.857  16.370 -0.3056  0.4117  0.3113
 1301TIP3   OH225317   2.318   2.656   4.293  0.2008 -0.3907  0.7018
 1301TIP3    H125318   2.284   2.745   4.303 -2.4093 -1.0282 -1.2400
 1301TIP3    H225319   2.261   2.602   4.348  0.5987 -1.0765  0.4596
 1302TIP3   OH225320   1.338   6.719  12.626  0.5454 -0.0779 -0.2377
 1302TIP3    H125321   1.298   6.806  12.625  1.1462  0.2123 -1.5274
 1302TIP3    H225322   1.278   6.665  12.574  0.1446 -0.4621  0.6060
 1303TIP3   OH225323   1.110   3.506  13.855 -0.5206 -0.2935  0.2276
 1303TIP3    H125324   1.139   3.432  13.801 -1.3476  0.7483 -1.7323
 1303TIP3    H225325   1.021   3.483  13.882 -0.3957 -0.4609  0.5053
 1304TIP3   OH225326   6.170   3.022   4.906 -0.0867  0.0688 -0.3546
 1304TIP3    H125327   6.258   3.059   4.910 -0.7902  1.9462 -0.7325
 1304TIP3    H225328   6.167   2.973   4.824  0.3760  0.6747 -0.7368
 1305TIP3   OH225329   2.849   2.333  16.132  0.1066  0.1348 -0.6189
 1305TIP3    H125330   2.896   2.407  16.170 -1.1447  1.2487 -1.1800
 1305TIP3    H225331   2.770   2.371  16.094 -0.9383 -1.6017 -0.2767
 1306TIP3   OH225332   3.844   5.445   4.868  0.3244  0.1468  0.1380
 1306TIP3    H125333   3.769   5.504   4.858  0.1677 -0.0927 -0.1242
 1306TIP3    H225334   3.889   5.449   4.784  1.2109  1.0993  0.6446
 1307TIP3   OH225335   2.652   2.395  12.592  0.0183 -0.3799 -0.0681
 1307TIP3    H125336   2.747   2.390  12.584  0.1739 -1.6238  1.8058
 1307TIP3    H225337   2.618   2.344  12.519  0.6677  1.7032 -1.9349
 1308TIP3   OH225338   6.757   5.275  11.899 -0.1452 -0.1987 -0.1004
 1308TIP3    H125339   6.739   5.320  11.982  2.7770  0.1149  0.4667
 1308TIP3    H225340   6.817   5.333  11.854 -0.8032 -0.9150 -1.9869
 1309TIP3   OH225341   3.520   4.294   1.157 -0.1192 -0.1990 -0.2036
 1309TIP3    H125342   3.605   4.280   1.199 -0.6380 -1.0554  0.5783
 1309TIP3    H225343   3.455   4.274   1.225 -0.9566  0.9898 -0.6163
 1310TIP3   OH225344   1.990   3.072  13.458 -0.5859 -0.2707 -0.2818
 1310TIP3    H125345   1.971   3.090  13.366  1.7173 -0.0803 -0.7921
 1310TIP3    H225346   1.908   3.039  13.494 -2.3832  2.3263 -1.6731
 1311TIP3   OH225347   1.214   6.611  12.945  0.1203 -0.0923 -0.4213
 1311TIP3    H125348   1.184   6.647  12.862 -2.1027  1.6654  1.0087
 1311TIP3    H225349   1.144   6.633  13.007  2.2180 -0.2396  2.1761
 1312TIP3   OH225350   6.606   0.091   2.227 -0.9913 -0.6506 -0.5898
 1312TIP3    H125351   6.686   0.102   2.279 -0.9486 -1.3468 -0.4987
 1312TIP3    H225352   6.601  -0.003   2.211 -0.0040 -0.3262 -3.4170
 1313TIP3   OH225353   0.611   2.283   0.803 -0.1638  0.5129 -0.4648
 1313TIP3    H125354   0.531   2.321   0.841  0.7375  2.1934 -0.1643
 1313TIP3    H225355   0.668   2.358   0.788  0.8764 -0.5183 -1.8904
 1314TIP3   OH225356   4.263   5.822  11.610 -0.4692 -0.0708 -0.3717
 1314TIP3    H125357   4.229   5.767  11.539 -0.7173 -1.0790  0.5041
 1314TIP3    H225358   4.293   5.760  11.676  1.2941  0.8206 -0.2713
 1315TIP3   OH225359   2.203   0.837  11.530  0.0994  0.5395  0.2172
 1315TIP3    H125360   2.131   0.785  11.493 -0.1478  0.5932  0.6158
 1315TIP3    H225361   2.183   0.927  11.504  1.0007  0.3591 -1.2465
 1316TIP3   OH225362   1.574   5.916  14.013  0.5804 -0.3058 -0.8123
 1316TIP3    H125363   1.641   5.850  13.995  1.4267  0.8130 -1.9757
 1316TIP3    H225364   1.618   5.999  13.999 -0.5245  0.5201  0.3980
 1317TIP3   OH225365   5.841   0.929  15.342 -0.1382 -0.4674  0.0516
 1317TIP3    H125366   5.771   0.878  15.302 -1.2403  0.7026  0.4358
 1317TIP3    H225367   5.896   0.864  15.386 -2.8584 -1.2260  2.6359
 1318TIP3   OH225368   2.579   5.709  11.286 -0.2408  0.1003  0.2490
 1318TIP3    H125369   2.534   5.726  11.203 -3.6516 -1.5261  1.5805
 1318TIP3    H225370   2.671   5.699  11.261 -1.1078 -0.4200 -3.3593
 1319TIP3   OH225371   2.372   4.151  12.114  0.3911 -0.0998 -0.0321
 1319TIP3    H125372   2.337   4.215  12.177 -0.1104 -0.5057  0.1128
 1319TIP3    H225373   2.328   4.069  12.137 -1.9060  0.2662 -2.6072
 1320TIP3   OH225374   1.746   1.356  11.555 -0.1044 -0.2554  0.4602
 1320TIP3    H125375   1.701   1.339  11.472  1.4345  2.2430 -0.9982
 1320TIP3    H225376   1.826   1.304  11.549  0.6144  0.8784 -0.2653
 1321TIP3   OH225377   4.926   1.439   3.421  0.4712  0.2151 -0.0239
 1321TIP3    H125378   4.985   1.373   3.459 -0.5012 -0.6601  0.0036
 1321TIP3    H225379   4.945   1.438   3.328 -0.5100 -1.1523 -0.2403
 1322TIP3   OH225380   0.775   3.736   0.172 -0.6480 -0.2729 -0.1745
 1322TIP3    H125381   0.765   3.751   0.266 -0.4449 -2.7708  0.3156
 1322TIP3    H225382   0.725   3.655   0.156 -0.1021 -0.2673 -2.0810
 1323TIP3   OH225383   5.479   2.493  14.938  0.5313  0.3695 -0.1768
 1323TIP3    H125384   5.401   2.475  14.884  0.5958  1.0247 -0.4981
 1323TIP3    H225385   5.445   2.540  15.014  0.5566  0.2673 -0.1030
 1324TIP3   OH225386   2.882   3.481  14.017  0.0052  0.3410 -0.2719
 1324TIP3    H125387   2.834   3.430  13.952 -0.1139  0.8444 -0.5755
 1324TIP3    H225388   2.842   3.567  14.016  2.2728  1.4743 -2.0825
 1325TIP3   OH225389   4.298   3.715  14.412  0.5342  0.7890 -0.4441
 1325TIP3    H125390   4.341   3.749  14.491 -1.8125  0.6664  0.9715
 1325TIP3    H225391   4.242   3.786  14.383 -2.3053 -0.7195  0.9175
 1326TIP3   OH225392   2.717   0.462   3.987  0.0236 -0.6262 -0.3847
 1326TIP3    H125393   2.629   0.431   3.968  0.3535 -0.8741 -1.6351
 1326TIP3    H225394   2.747   0.409   4.061 -0.1419 -1.9709 -1.2491
 1327TIP3   OH225395   5.335   1.329   0.568 -0.6017  0.1597 -0.1102
 1327TIP3    H125396   5.306   1.406   0.618 -1.4955 -0.0798 -0.2356
 1327TIP3    H225397   5.260   1.269   0.572 -0.1272 -0.4643 -0.5031
 1328TIP3   OH225398   1.126   0.702  12.695 -0.1229  0.2478  0.0428
 1328TIP3    H125399   1.043   0.748  12.706 -0.7445 -1.0063  0.8640
 1328TIP3    H225400   1.191   0.760  12.734 -1.0575 -0.0928  2.2418
 1329TIP3   OH225401   2.591   2.069   2.708 -0.2161 -0.5189 -0.0455
 1329TIP3    H125402   2.669   2.079   2.653  0.4721 -0.3383  0.9253
 1329TIP3    H225403   2.616   2.110   2.791 -0.2056 -3.1780  1.3684
 1330TIP3   OH225404   3.664   5.986   3.079 -0.5349 -0.1922 -0.0739
 1330TIP3    H125405   3.661   5.906   3.026  1.1212  0.0857 -0.6414
 1330TIP3    H225406   3.682   5.955   3.168  0.1819 -0.4611 -0.3026
 1331TIP3   OH225407   3.862   2.772  16.101  0.1613 -0.1999  0.9384
 1331TIP3    H125408   3.797   2.812  16.043  0.5545  0.0815  0.6824
 1331TIP3    H225409   3.812   2.713  16.156 -0.1108 -1.1582 -0.2865
 1332TIP3   OH225410   0.741   0.936   4.700 -0.0615 -0.2497 -0.4346
 1332TIP3    H125411   0.693   1.017   4.716 -1.6183 -1.3221  0.5185
 1332TIP3    H225412   0.715   0.910   4.612 -2.1224 -1.3538  0.4390
 1333TIP3   OH225413   3.741   5.643   5.601  0.1931 -0.5950  0.0937
 1333TIP3    H125414   3.701   5.658   5.687  0.8072 -2.5021  0.7766
 1333TIP3    H225415   3.830   5.612   5.622  0.3183 -1.1813 -1.2157
 1334TIP3   OH225416   3.614   3.363  15.725 -0.5377  0.4158 -0.2394
 1334TIP3    H125417   3.665   3.444  15.720 -2.3801  1.6089 -0.4452
 1334TIP3    H225418   3.597   3.339  15.634  2.6097 -2.0418 -0.3658
 1335TIP3   OH225419   4.733   0.615  16.172 -0.5028  0.1058 -0.3018
 1335TIP3    H125420   4.821   0.599  16.205 -0.5701  0.0799 -0.1378
 1335TIP3    H225421   4.735   0.583  16.082  0.1497  1.6085 -0.8634
 1336TIP3   OH225422   5.734   2.991   0.743  0.0160  0.4906 -0.1764
 1336TIP3    H125423   5.818   2.964   0.705 -1.1756 -3.0859 -0.6551
 1336TIP3    H225424   5.669   2.941   0.695 -2.0393 -0.0874  2.9154
 1337TIP3   OH225425   2.804   4.694   2.347  0.0267  0.3271  0.6840
 1337TIP3    H125426   2.867   4.642   2.297 -1.7565  0.3916 -1.7762
 1337TIP3    H225427   2.855   4.768   2.380  2.1733 -1.8242  2.6040
 1338TIP3   OH225428   6.130   4.911   4.695 -0.9022 -0.2672 -0.3125
 1338TIP3    H125429   6.165   4.861   4.621 -1.7159  0.3333 -1.1394
 1338TIP3    H225430   6.049   4.866   4.718 -0.3463 -0.8020  0.6231
 1339TIP3   OH225431   2.570   6.588   3.005 -0.4034  0.2411  0.0692
 1339TIP3    H125432   2.608   6.611   2.920 -0.7171  0.7415  0.0617
 1339TIP3    H225433   2.628   6.520   3.040 -0.3117 -0.0221 -0.5780
 1340TIP3   OH225434   3.661   4.465   4.581  0.0381  0.6686  0.1073
 1340TIP3    H125435   3.640   4.371   4.584 -0.1904  0.7526  1.3709
 1340TIP3    H225436   3.589   4.504   4.532 -0.1426  0.2617  0.0419
 1341TIP3   OH225437   5.450   6.567  14.649  0.2375  0.6587  0.2628
 1341TIP3    H125438   5.395   6.645  14.648 -3.4846 -1.7088 -1.2785
 1341TIP3    H225439   5.494   6.567  14.564 -2.3931 -0.4607 -1.1931
 1342TIP3   OH225440   3.750   2.262   5.165 -0.4897 -0.4531 -0.4216
 1342TIP3    H125441   3.839   2.266   5.130 -0.2868  1.6376  0.1844
 1342TIP3    H225442   3.693   2.280   5.090 -0.1544  1.9432 -0.1903
 1343TIP3   OH225443   3.263   6.757   2.818 -0.1292 -0.5056  0.6361
 1343TIP3    H125444   3.307   6.842   2.819  0.0360 -0.5908  0.6642
 1343TIP3    H225445   3.203   6.760   2.893 -0.3129 -0.3153  0.4847
 1344TIP3   OH225446   5.831   6.291  15.860  0.1019 -0.4131 -0.6043
 1344TIP3    H125447   5.790   6.259  15.941  3.0159  1.6196  1.9167
 1344TIP3    H225448   5.787   6.374  15.843 -0.1818 -0.6159 -0.8940
 1345TIP3   OH225449   3.910   5.779  13.961  0.0405  0.2055  0.2076
 1345TIP3    H125450   3.898   5.862  13.915 -0.1033 -0.1160 -0.3501
 1345TIP3    H225451   3.995   5.747  13.931 -0.0590 -0.0107  0.1537
 1346TIP3   OH225452   2.286   5.806  16.414  0.6806  0.0917  0.1797
 1346TIP3    H125453   2.257   5.829  16.502  2.7213  1.6070  0.5372
 1346TIP3    H225454   2.274   5.886  16.362  0.9694 -0.3026 -0.5152
 1347TIP3   OH225455   3.633   4.999   5.235  0.2613 -0.0131  0.4804
 1347TIP3    H125456   3.562   5.052   5.199  1.2766 -0.2565 -2.1111
 1347TIP3    H225457   3.706   5.061   5.242  0.7663 -0.5107 -0.2717
 1348TIP3   OH225458   6.283   2.931  10.983  0.1574  0.0925  0.2005
 1348TIP3    H125459   6.261   3.023  10.990  0.5705  0.2488 -0.4619
 1348TIP3    H225460   6.236   2.901  10.905  0.5986 -0.0816 -0.0000
 1349TIP3   OH225461   1.876   1.190   0.977  0.3400 -0.2270  0.3360
 1349TIP3    H125462   1.834   1.120   0.927  0.4608 -2.4852  3.1535
 1349TIP3    H225463   1.825   1.268   0.956 -0.7968 -1.4390 -1.7390
 1350TIP3   OH225464   0.586   3.613   2.143 -0.4642 -0.2591 -0.0563
 1350TIP3    H125465   0.550   3.701   2.152 -0.6178 -0.4524  1.4413
 1350TIP3    H225466   0.543   3.562   2.212 -0.6575 -1.6060 -1.1406
 1351TIP3   OH225467   3.093   4.360   0.730 -0.3894 -0.4566 -0.0120
 1351TIP3    H125468   3.102   4.272   0.694 -0.5128  0.2490 -1.8889
 1351TIP3    H225469   3.027   4.402   0.675 -0.4683  0.7623  0.9618
 1352TIP3   OH225470   4.039   0.530  16.969  0.4412  0.1180  0.0891
 1352TIP3    H125471   4.073   0.446  16.938  2.5243  0.4414  1.3372
 1352TIP3    H225472   4.003   0.511  17.055  0.4667  0.4052  0.1651
 1353TIP3   OH225473   1.740   3.017  13.607 -0.0101  0.0073 -0.2841
 1353TIP3    H125474   1.671   3.083  13.602 -0.2534 -0.0936  1.3104
 1353TIP3    H225475   1.779   3.029  13.693  0.5998 -1.2869 -0.3564
 1354TIP3   OH225476   3.677   5.029  15.619  0.0536  0.3854 -0.2312
 1354TIP3    H125477   3.605   5.005  15.677  1.8715 -0.0592  2.0068
 1354TIP3    H225478   3.713   5.110  15.657  1.1988  0.1836 -0.8191
 1355TIP3   OH225479   1.888   5.050  14.415 -0.1319 -0.2361 -0.4080
 1355TIP3    H125480   1.841   4.967  14.406  1.0041 -0.7657 -1.8488
 1355TIP3    H225481   1.967   5.028  14.463  0.1889 -0.0106 -0.8228
 1356TIP3   OH225482   5.421   2.356  13.472  0.2450  0.5977  0.1175
 1356TIP3    H125483   5.499   2.348  13.527  0.3493  1.9604  0.2001
 1356TIP3    H225484   5.452   2.402  13.393 -0.2316  0.0661 -0.3876
 1357TIP3   OH225485   5.605   3.929  15.902 -0.2121 -0.5136 -0.3640
 1357TIP3    H125486   5.555   3.961  15.827  0.2370 -0.8358 -0.8035
 1357TIP3    H225487   5.676   3.878  15.864  0.8883  0.5349  0.2231
 1358TIP3   OH225488   1.539   5.277  14.138  0.1852 -0.0940  0.2466
 1358TIP3    H125489   1.545   5.193  14.092  0.0142 -1.3140  2.3405
 1358TIP3    H225490   1.471   5.263  14.204 -0.7094  2.1021 -0.1381
 1359TIP3   OH225491   5.782   2.582  15.155  0.1195 -0.0200  0.0180
 1359TIP3    H125492   5.746   2.516  15.215  2.0449  0.1227  1.4135
 1359TIP3    H225493   5.764   2.665  15.199  0.1860  0.1985 -0.3688
 1360TIP3   OH225494   3.147   1.533   1.412  0.0842  0.2274  0.3883
 1360TIP3    H125495   3.082   1.518   1.344  1.9045 -0.9654 -1.2025
 1360TIP3    H225496   3.211   1.463   1.400  0.9735  0.5248  2.7591
 1361TIP3   OH225497   5.432   5.101   3.356 -0.3740  0.1420  0.7161
 1361TIP3    H125498   5.341   5.103   3.328  0.0169  3.4565 -0.8989
 1361TIP3    H225499   5.481   5.083   3.275  0.4491  1.3211  0.9153
 1362TIP3   OH225500   5.588   3.797   3.659 -0.2127 -0.2253  0.0167
 1362TIP3    H125501   5.594   3.717   3.607  1.6486  0.7196 -1.3890
 1362TIP3    H225502   5.506   3.837   3.631 -0.3819 -0.8774 -0.4499
 1363TIP3   OH225503   2.258   1.015   2.520 -0.2593  0.8312  0.0036
 1363TIP3    H125504   2.340   1.062   2.535 -0.4084  1.2813 -0.5573
 1363TIP3    H225505   2.224   1.051   2.438  0.3627 -1.2892 -1.2784
 1364TIP3   OH225506   1.369   4.717   2.670  0.4304  0.0345 -0.0313
 1364TIP3    H125507   1.292   4.663   2.653  0.6363 -0.8330  1.5217
 1364TIP3    H225508   1.430   4.696   2.599 -0.5923  0.4274 -1.0499
 1365TIP3   OH225509   5.959   3.223   3.095  0.2006 -0.0859 -0.5081
 1365TIP3    H125510   5.901   3.285   3.139 -0.5639 -0.1604 -1.3623
 1365TIP3    H225511   5.949   3.244   3.002  3.7349  1.8108 -0.6296
 1366TIP3   OH225512   6.447   3.487   1.099 -0.3676  0.0504 -0.3379
 1366TIP3    H125513   6.477   3.554   1.160 -0.1425  1.3059 -1.7533
 1366TIP3    H225514   6.528   3.446   1.067 -0.2232  1.5662 -2.0996
 1367TIP3   OH225515   1.702   4.946  15.332  0.2566  0.0563  0.4462
 1367TIP3    H125516   1.623   4.901  15.362 -0.7789  0.1501 -1.9315
 1367TIP3    H225517   1.690   5.037  15.361 -2.0449  0.7935 -2.3337
 1368TIP3   OH225518   6.390   3.475  16.186  0.5689  0.8504  0.0133
 1368TIP3    H125519   6.324   3.507  16.124  1.1950  1.2672 -0.4556
 1368TIP3    H225520   6.343   3.465  16.269 -0.1389  0.8817 -0.3761
 1369TIP3   OH225521   2.378   2.356  15.519 -0.5103 -0.3320  0.1017
 1369TIP3    H125522   2.407   2.297  15.588 -0.3461  0.1611  0.4606
 1369TIP3    H225523   2.301   2.399  15.555 -0.9808 -0.7531 -0.3854
 1370TIP3   OH225524   1.477   2.591  13.836  0.6232 -0.2804  0.2909
 1370TIP3    H125525   1.478   2.512  13.782  3.4088 -1.0741  1.3077
 1370TIP3    H225526   1.496   2.559  13.924 -2.6873  1.0938  1.6673
 1371TIP3   OH225527   4.226   0.893   0.390 -0.1077 -0.1686 -0.4554
 1371TIP3    H125528   4.210   0.816   0.444  1.5824  0.1960  0.6574
 1371TIP3    H225529   4.284   0.948   0.443  0.9685  0.5936 -2.3064
 1372TIP3   OH225530   5.886   1.872   4.132  0.5550  0.5554  0.4779
 1372TIP3    H125531   5.901   1.819   4.054  1.5236 -0.6079  1.4384
 1372TIP3    H225532   5.819   1.824   4.181  0.3909  0.9663  0.6599
 1373TIP3   OH225533   0.772   5.919   4.458  0.0179  0.0637 -0.4772
 1373TIP3    H125534   0.767   5.966   4.541  0.4333  1.2145 -1.0835
 1373TIP3    H225535   0.711   5.846   4.468 -0.8567  0.8898  0.3979
 1374TIP3   OH225536   2.837   4.701  11.610 -0.3295  0.3168  0.0989
 1374TIP3    H125537   2.912   4.709  11.551  0.3456  1.0468  1.0096
 1374TIP3    H225538   2.815   4.608  11.609 -1.0231  0.4551 -2.0917
 1375TIP3   OH225539   3.880   5.388   4.596  0.0575  0.5277 -0.8555
 1375TIP3    H125540   3.796   5.404   4.555  0.0026  0.5100 -0.7510
 1375TIP3    H225541   3.937   5.361   4.525 -0.1684  0.0169 -0.8463
 1376TIP3   OH225542   4.937   3.768  16.988 -0.3304 -0.4456 -0.6029
 1376TIP3    H125543   4.923   3.698  17.052 -0.9025 -0.1502 -0.4002
 1376TIP3    H225544   4.977   3.724  16.913  2.2432 -0.4886  0.6972
 1377TIP3   OH225545   5.827   2.127  12.490 -0.7889  0.0831  0.4776
 1377TIP3    H125546   5.785   2.051  12.528  1.5126 -1.6968 -0.2948
 1377TIP3    H225547   5.904   2.142  12.545  0.5953 -0.2711 -1.2732
 1378TIP3   OH225548   0.132   3.627  13.064 -0.2180 -0.4272 -0.2660
 1378TIP3    H125549   0.211   3.658  13.021 -0.1747  0.2279  0.2748
 1378TIP3    H225550   0.139   3.659  13.154 -0.4366 -1.5347  0.1633
 1379TIP3   OH225551   6.313   6.580  11.497  0.3781 -0.6743  0.3791
 1379TIP3    H125552   6.219   6.565  11.512 -0.1773  0.7244 -1.3494
 1379TIP3    H225553   6.342   6.628  11.574 -0.0817 -1.9022  1.3584
 1380TIP3   OH225554   3.554   5.459  13.016  0.0609 -0.0590  0.6062
 1380TIP3    H125555   3.610   5.532  12.989  1.3011 -0.5096  1.8543
 1380TIP3    H225556   3.466   5.497  13.017  0.8083  1.8126  2.3732
 1381TIP3   OH225557   4.728   3.765  15.316  0.6441 -0.2483 -0.1661
 1381TIP3    H125558   4.633   3.758  15.311  0.5578 -0.5035  1.4489
 1381TIP3    H225559   4.745   3.856  15.340  0.6061 -0.8919  2.6431
 1382TIP3   OH225560   3.537   1.532   1.199 -0.2445  0.4136  0.2059
 1382TIP3    H125561   3.576   1.477   1.268 -0.2738  0.6079  0.3791
 1382TIP3    H225562   3.530   1.619   1.239 -0.5608  0.4525  0.0667
 1383TIP3   OH225563   5.492   3.196  12.948  0.5903 -0.6711 -0.2236
 1383TIP3    H125564   5.533   3.115  12.977 -0.4193 -0.4676  1.9915
 1383TIP3    H225565   5.550   3.229  12.879  2.9262 -1.4998  1.2116
 1384TIP3   OH225566   2.109   0.984   4.260 -0.2005 -0.0544 -0.7985
 1384TIP3    H125567   2.023   1.011   4.228 -1.4221 -0.4856  1.8785
 1384TIP3    H225568   2.115   0.891   4.239 -0.4082 -0.0419 -0.9144
 1385TIP3   OH225569   5.626   1.653   2.830 -0.2541 -0.2896 -0.1939
 1385TIP3    H125570   5.676   1.575   2.807  0.3181  0.2581 -0.8424
 1385TIP3    H225571   5.629   1.708   2.752  1.7257  1.6384  1.1202
 1386TIP3   OH225572   4.073   0.206  14.696  0.8158 -0.1795  0.3368
 1386TIP3    H125573   3.984   0.211  14.731 -0.1419 -2.1610 -1.5495
 1386TIP3    H225574   4.119   0.148  14.757  0.2455 -0.6653  0.3112
 1387TIP3   OH225575   6.385   4.066   0.935 -0.2783 -0.5764  0.3787
 1387TIP3    H125576   6.301   4.022   0.950 -0.5650  0.5947  2.7041
 1387TIP3    H225577   6.367   4.158   0.954  1.4166 -0.2254  0.4327
 1388TIP3   OH225578   6.564   5.007   1.973  0.3577  0.1026 -0.0250
 1388TIP3    H125579   6.554   4.942   1.904 -0.3482  0.4084 -0.2196
 1388TIP3    H225580   6.482   5.056   1.972  0.2850  0.0284  1.1112
 1389TIP3   OH225581   0.482   2.827  12.838 -0.4510 -0.7533 -0.4363
 1389TIP3    H125582   0.534   2.865  12.910  1.1651 -1.1421 -1.3548
 1389TIP3    H225583   0.428   2.900  12.807 -0.7889 -0.4410  0.8082
 1390TIP3   OH225584   4.414   4.537  13.612 -0.1704 -0.3283  0.7028
 1390TIP3    H125585   4.461   4.517  13.693 -0.8505 -0.7355  1.0087
 1390TIP3    H225586   4.411   4.633  13.608 -1.0221 -0.2913  1.7060
 1391TIP3   OH225587   0.024   4.681   2.278 -0.3623  0.1977  0.7255
 1391TIP3    H125588   0.014   4.591   2.309 -2.1994  0.6836  1.7044
 1391TIP3    H225589  -0.031   4.686   2.200  1.3640 -0.0316 -0.5674
 1392TIP3   OH225590   4.711   6.677   5.956  0.2222 -0.4223 -0.0073
 1392TIP3    H125591   4.749   6.611   6.014 -0.2625 -0.1409  0.6545
 1392TIP3    H225592   4.773   6.749   5.956  0.1757 -0.3825  0.2492
 1393TIP3   OH225593   3.443   6.296  11.288 -0.5520 -0.0733 -0.5003
 1393TIP3    H125594   3.393   6.226  11.247 -0.0631  0.9186 -2.9408
 1393TIP3    H225595   3.527   6.256  11.310 -1.9577 -1.5783  3.0564
 1394TIP3   OH225596   1.501   5.715  13.017  0.9079 -0.1170  0.2612
 1394TIP3    H125597   1.429   5.700  13.079  0.6874  0.2920  0.1112
 1394TIP3    H225598   1.554   5.782  13.059 -0.6811  2.1369 -1.1229
 1395TIP3   OH225599   6.135   6.284  15.691  0.3903  0.1210  0.1525
 1395TIP3    H125600   6.100   6.332  15.615  0.3008  1.7782  1.1882
 1395TIP3    H225601   6.164   6.200  15.655 -1.9404 -0.1581 -1.2828
 1396TIP3   OH225602   0.256   1.750   2.451 -0.3081 -0.2255 -0.3566
 1396TIP3    H125603   0.268   1.840   2.482  1.2296  0.0419 -1.5720
 1396TIP3    H225604   0.319   1.742   2.378 -0.9508 -2.0475 -0.7474
 1397TIP3   OH225605   4.750   2.966   3.617  0.4565 -0.2830 -0.2932
 1397TIP3    H125606   4.774   2.981   3.526 -0.7495  2.3206 -0.2877
 1397TIP3    H225607   4.655   2.950   3.615 -0.0663  2.2175  0.6017
 1398TIP3   OH225608   0.394   1.827   6.438  0.2842 -0.1832 -0.1448
 1398TIP3    H125609   0.418   1.913   6.405 -2.0528  1.0192  1.0011
 1398TIP3    H225610   0.306   1.812   6.403 -0.4519 -0.8502  1.8404
 1399TIP3   OH225611   3.320   6.006   5.164  0.0890  0.9017 -0.1847
 1399TIP3    H125612   3.274   6.059   5.099 -0.8886 -0.1367 -0.3687
 1399TIP3    H225613   3.256   5.995   5.235 -0.0701 -0.7253 -0.5328
 1400TIP3   OH225614   2.777   2.660   3.126 -0.0844  0.6528 -0.3910
 1400TIP3    H125615   2.764   2.712   3.206 -0.2777  2.1207 -1.3400
 1400TIP3    H225616   2.749   2.572   3.151  1.9773  0.5048  1.8107
 1401TIP3   OH225617   4.155   4.027  13.001  0.0064 -0.1215  0.0306
 1401TIP3    H125618   4.205   4.108  13.011 -0.5876  0.2187  0.3160
 1401TIP3    H225619   4.090   4.031  13.071  0.5384 -1.2717  0.6240
 1402TIP3   OH225620   1.521   6.606  13.591 -0.0873  0.0581  0.1299
 1402TIP3    H125621   1.556   6.561  13.514  0.6361 -0.3070  0.6587
 1402TIP3    H225622   1.514   6.698  13.563 -0.6489 -0.2071 -0.6383
 1403TIP3   OH225623   5.306   1.178  11.323  0.1285 -0.4754 -0.2919
 1403TIP3    H125624   5.366   1.219  11.385 -1.7564  0.5157  0.9548
 1403TIP3    H225625   5.326   1.085  11.328  1.4637 -0.1756  0.1658
 1404TIP3   OH225626   1.914   5.564  13.077 -0.2704 -0.4342 -0.7651
 1404TIP3    H125627   1.901   5.493  13.140 -2.3548 -1.4133 -2.1609
 1404TIP3    H225628   1.871   5.534  12.997 -0.1347  1.8909 -1.8192
 1405TIP3   OH225629   4.710   1.622  15.595  0.0011 -0.1828 -0.0925
 1405TIP3    H125630   4.682   1.673  15.671  2.8395  2.0084 -0.3723
 1405TIP3    H225631   4.702   1.683  15.521  1.7343 -0.7052 -0.7515
 1406TIP3   OH225632   4.215   0.551   2.250 -0.4564  0.4431  0.8575
 1406TIP3    H125633   4.287   0.489   2.260 -0.1054  0.5218 -0.9311
 1406TIP3    H225634   4.187   0.542   2.159  1.3941  4.7743 -0.3798
 1407TIP3   OH225635   3.294   1.638  15.608 -0.0167  0.1392 -0.0775
 1407TIP3    H125636   3.360   1.572  15.630 -2.0850 -1.9247  0.3699
 1407TIP3    H225637   3.299   1.702  15.679  1.6797  0.2397 -0.2378
 1408TIP3   OH225638   4.863   1.669   4.364  0.0203 -0.6979 -0.3189
 1408TIP3    H125639   4.907   1.679   4.279 -0.3754  1.3260 -0.3302
 1408TIP3    H225640   4.885   1.749   4.411  0.8187 -2.0953  1.7989
 1409TIP3   OH225641   2.761   4.108   3.343 -0.0980  0.0154 -0.3597
 1409TIP3    H125642   2.853   4.135   3.354 -0.3202  0.9148 -0.6211
 1409TIP3    H225643   2.719   4.183   3.300 -1.3829  0.3998  1.4675
 1410TIP3   OH225644   5.486   2.666   0.076 -0.1821 -0.2432  0.1521
 1410TIP3    H125645   5.490   2.760   0.097  3.9071  0.2604 -1.8944
 1410TIP3    H225646   5.559   2.628   0.124  1.1060 -1.4170 -2.5253
 1411TIP3   OH225647   3.664   5.043  12.298 -0.4547 -0.1402 -0.4335
 1411TIP3    H125648   3.625   4.959  12.319 -0.9156  0.4771  1.4322
 1411TIP3    H225649   3.755   5.036  12.328 -0.7415  0.2889  0.6074
 1412TIP3   OH225650   2.773   5.792  12.203  0.3614  0.4375 -0.4618
 1412TIP3    H125651   2.800   5.819  12.290  0.8104  1.1654 -0.8170
 1412TIP3    H225652   2.804   5.862  12.145 -2.3272  1.3472 -0.9103
 1413TIP3   OH225653   5.612   4.437  11.955  0.1211 -0.2843 -0.5955
 1413TIP3    H125654   5.670   4.504  11.918  0.2192  0.8060  1.3896
 1413TIP3    H225655   5.532   4.444  11.903 -0.3982  2.4090  0.3679
 1414TIP3   OH225656   0.552   1.264  15.939  0.3394 -0.0709 -0.0730
 1414TIP3    H125657   0.469   1.243  15.897  1.6127 -1.4478 -2.0868
 1414TIP3    H225658   0.573   1.186  15.991  0.8332 -0.1684 -0.4061
 1415TIP3   OH225659   0.283   1.139   1.167  0.0415  0.2181  0.1187
 1415TIP3    H125660   0.306   1.057   1.212 -2.4376  0.0122  1.2105
 1415TIP3    H225661   0.272   1.203   1.238 -0.3088  0.8672 -0.5132
 1416TIP3   OH225662   6.288   4.956  12.496 -0.0186 -0.0882 -0.3178
 1416TIP3    H125663   6.333   4.949  12.580  1.0293  1.4558 -0.7164
 1416TIP3    H225664   6.228   4.881  12.494  0.9135 -0.9014  1.2014
 1417TIP3   OH225665   3.812   0.094   5.191 -0.2302  0.1263 -0.5439
 1417TIP3    H125666   3.778   0.152   5.259  1.1281 -0.3038  0.5561
 1417TIP3    H225667   3.848   0.020   5.239  1.0867 -0.0258 -1.6902
 1418TIP3   OH225668   0.215   2.119  16.251 -0.2897  1.0237 -0.2297
 1418TIP3    H125669   0.304   2.101  16.221  0.2677  0.4237  1.6236
 1418TIP3    H225670   0.190   2.199  16.206  1.4782  1.6035 -0.2638
 1419TIP3   OH225671   2.478   3.204   1.365  0.5026 -0.3026 -0.1268
 1419TIP3    H125672   2.404   3.217   1.306  0.1153  0.9695  0.5986
 1419TIP3    H225673   2.481   3.284   1.418  1.5701 -0.9047  0.7678
 1420TIP3   OH225674   2.392   4.944   6.175 -0.5409  0.0618 -0.0989
 1420TIP3    H125675   2.476   4.982   6.203  0.7232 -2.8836  0.4172
 1420TIP3    H225676   2.387   4.964   6.081  1.2503 -0.5415 -0.3606
 1421TIP3   OH225677   3.460   5.682   2.736 -0.0177  0.1151 -0.0940
 1421TIP3    H125678   3.546   5.688   2.694  1.0936  0.4863  2.0471
 1421TIP3    H225679   3.437   5.590   2.730 -1.2814  0.5106 -3.8575
 1422TIP3   OH225680   5.197   0.431  15.952  0.5551  0.1757 -0.2260
 1422TIP3    H125681   5.113   0.390  15.975  0.5886  0.8819  1.2153
 1422TIP3    H225682   5.258   0.400  16.018  0.6556  2.2271  0.7340
 1423TIP3   OH225683   5.564   2.959  16.468  0.4478  0.4241  0.0275
 1423TIP3    H125684   5.471   2.945  16.484  1.3289 -3.6710  3.5438
 1423TIP3    H225685   5.577   2.936  16.376 -1.7179 -1.6562  0.1561
 1424TIP3   OH225686   0.820   0.364  16.416 -0.2092  0.2521 -0.6688
 1424TIP3    H125687   0.869   0.439  16.382  0.5191  0.3219  0.4922
 1424TIP3    H225688   0.875   0.288  16.396 -0.6935  0.0697 -1.3580
 1425TIP3   OH225689   0.533   6.152   1.208  0.1164 -0.1852 -0.3346
 1425TIP3    H125690   0.456   6.098   1.188 -0.4845  0.7784 -0.6779
 1425TIP3    H225691   0.514   6.191   1.293  0.8987 -1.1092  0.2829
 1426TIP3   OH225692   4.387   4.697  16.210 -0.4240  0.0787 -0.2788
 1426TIP3    H125693   4.365   4.789  16.197  0.9378  0.3051 -1.2897
 1426TIP3    H225694   4.472   4.687  16.166 -0.0099 -1.4012  0.7892
 1427TIP3   OH225695   2.497   6.003  17.100  0.3335 -0.3154 -0.0128
 1427TIP3    H125696   2.572   6.036  17.149  0.3362 -2.6566  1.7310
 1427TIP3    H225697   2.439   5.967  17.166 -3.6597  3.4357 -0.9501
 1428TIP3   OH225698   0.558   5.509   5.244 -0.3781 -0.1097 -0.5687
 1428TIP3    H125699   0.525   5.427   5.283 -2.8263  1.1827  0.3340
 1428TIP3    H225700   0.483   5.569   5.249  0.8212  1.7052 -2.7245
 1429TIP3   OH225701   3.100   2.971  15.831  0.2503  0.6545  0.3231
 1429TIP3    H125702   3.170   2.909  15.812  0.1265  0.4080  0.6363
 1429TIP3    H225703   3.029   2.946  15.771 -0.2114 -0.2461  1.2088
 1430TIP3   OH225704   4.980   3.269   3.795 -0.2662  0.2191 -0.0660
 1430TIP3    H125705   4.995   3.280   3.889  0.5304  2.1622 -0.3580
 1430TIP3    H225706   4.885   3.277   3.784 -0.2745  0.9628  0.4811
 1431TIP3   OH225707   2.891   5.850  12.452 -0.2686  0.4437 -0.5815
 1431TIP3    H125708   2.868   5.932  12.495 -0.2569  0.4693 -0.6228
 1431TIP3    H225709   2.982   5.835  12.476 -0.6257 -0.1992  0.4357
 1432TIP3   OH225710   5.198   2.447  16.044  0.2239  0.2653 -0.3124
 1432TIP3    H125711   5.269   2.400  16.001 -0.6010 -1.5007  0.1750
 1432TIP3    H225712   5.134   2.464  15.974 -0.9456 -2.2732  0.0369
 1433TIP3   OH225713   4.339   1.818   1.617 -0.2402 -0.0741 -0.4626
 1433TIP3    H125714   4.250   1.849   1.601 -1.3219 -2.8030 -0.2624
 1433TIP3    H225715   4.345   1.811   1.712  0.4150  0.6277 -0.4430
 1434TIP3   OH225716   1.628   6.668  11.915 -0.2357  0.2952  0.3057
 1434TIP3    H125717   1.605   6.629  12.000  0.5266 -0.4747  0.1773
 1434TIP3    H225718   1.684   6.743  11.938  1.1224 -0.7366  0.4582
 1435TIP3   OH225719   3.682   0.291   0.982 -0.1112 -0.3835 -0.1638
 1435TIP3    H125720   3.600   0.317   1.023 -0.3756 -0.7525 -0.4559
 1435TIP3    H225721   3.704   0.208   1.023  1.0205  0.5212  1.1744
 1436TIP3   OH225722   2.721   2.166   2.274 -0.3365 -0.2546  0.1478
 1436TIP3    H125723   2.692   2.080   2.301 -0.7670  0.2880  1.4818
 1436TIP3    H225724   2.672   2.184   2.193 -0.6115 -1.0402  0.1323
 1437TIP3   OH225725   6.396   0.894   0.919 -0.2568 -0.4331  0.4588
 1437TIP3    H125726   6.397   0.849   1.003 -1.6143 -3.3766 -0.9599
 1437TIP3    H225727   6.484   0.880   0.884  0.8287  2.1417  1.9329
 1438TIP3   OH225728   0.747   6.581  14.774 -0.3208  0.2673  0.4585
 1438TIP3    H125729   0.665   6.620  14.744  0.0549  0.5790 -0.1799
 1438TIP3    H225730   0.721   6.498  14.813 -1.1576  1.2092  1.9885
 1439TIP3   OH225731   0.636   5.045   2.646  0.1126  0.0863 -0.6050
 1439TIP3    H125732   0.652   4.996   2.727 -1.9610 -0.3157 -0.3717
 1439TIP3    H225733   0.643   5.137   2.672  2.1067 -0.0313 -0.6070
 1440TIP3   OH225734   1.628   1.001  16.820  1.2649 -0.4020  0.3343
 1440TIP3    H125735   1.586   0.966  16.898 -0.9887  2.6720  0.6897
 1440TIP3    H225736   1.560   0.999  16.753  2.0291  0.2644 -0.4946
 1441TIP3   OH225737   3.179   3.888   2.423  0.1445 -0.0914  0.5035
 1441TIP3    H125738   3.097   3.934   2.409  1.2524  1.7008 -0.4321
 1441TIP3    H225739   3.217   3.929   2.501  2.1500  2.2527 -1.5532
 1442TIP3   OH225740   0.220   0.070  15.483 -0.1323 -0.8937  0.4549
 1442TIP3    H125741   0.223   0.098  15.392  0.4014 -3.0472 -0.2649
 1442TIP3    H225742   0.308   0.088  15.516 -0.3213 -0.1255  0.5562
 1443TIP3   OH225743   3.788   0.003   6.028 -0.3596 -0.2734  0.2647
 1443TIP3    H125744   3.787   0.081   6.083 -0.6474 -0.4535  0.5191
 1443TIP3    H225745   3.836  -0.062   6.080 -0.4764 -0.3895  0.2291
 1444TIP3   OH225746   3.577   5.075   3.088  0.0590  0.0217 -0.6770
 1444TIP3    H125747   3.585   5.001   3.028  0.6632  0.0925 -0.6929
 1444TIP3    H225748   3.485   5.076   3.113  0.3418 -1.8240  0.7065
 1445TIP3   OH225749   1.570   1.274  15.944 -0.1546 -1.0514 -0.0722
 1445TIP3    H125750   1.545   1.351  15.994 -0.0652 -0.5989 -0.7056
 1445TIP3    H225751   1.518   1.203  15.981  0.0365 -0.7643  0.7637
 1446TIP3   OH225752   1.183   1.695  15.577 -0.0422  0.3861 -0.0747
 1446TIP3    H125753   1.229   1.618  15.544 -1.0635  0.7297 -2.5167
 1446TIP3    H225754   1.251   1.762  15.583  0.2062  0.3249 -1.6707
 1447TIP3   OH225755   1.148   5.537   1.133 -0.0230  0.0324 -0.0315
 1447TIP3    H125756   1.154   5.586   1.215  0.7821  0.4435 -0.3241
 1447TIP3    H225757   1.070   5.572   1.089 -0.9890 -0.8120  0.9350
 1448TIP3   OH225758   3.417   2.314  16.937  0.8051 -0.5649  0.1784
 1448TIP3    H125759   3.332   2.288  16.973  0.8491 -0.5740  0.2743
 1448TIP3    H225760   3.395   2.372  16.864  0.7285  0.1477  0.7476
 1449TIP3   OH225761   1.046   6.029   1.142 -0.0375 -0.1047  0.2133
 1449TIP3    H125762   0.958   6.033   1.105  0.0718 -0.8674 -0.1467
 1449TIP3    H225763   1.034   5.992   1.229 -0.2690  1.4808  0.8855
 1450TIP3   OH225764   6.654   3.732  13.126 -0.1982  0.2650 -0.2171
 1450TIP3    H125765   6.590   3.796  13.092  0.8993  1.9284  0.7588
 1450TIP3    H225766   6.724   3.732  13.061 -1.4764 -2.2504 -1.7774
 1451TIP3   OH225767   4.297   5.475   0.812 -0.0401 -0.3158 -0.0104
 1451TIP3    H125768   4.206   5.450   0.798 -0.4996  0.8469  0.7386
 1451TIP3    H225769   4.292   5.560   0.854  1.4524  1.2000 -2.6457
 1452TIP3   OH225770   3.855   5.025   5.463  0.0295 -0.6488  0.4607
 1452TIP3    H125771   3.829   5.011   5.554  1.4680  0.6484  1.1279
 1452TIP3    H225772   3.946   4.996   5.460 -0.3400 -1.7825 -0.8870
 1453TIP3   OH225773   4.199   6.543  17.005  0.3741 -0.2465 -0.3434
 1453TIP3    H125774   4.261   6.589  16.948  0.9145 -1.4468 -0.7571
 1453TIP3    H225775   4.139   6.611  17.035  1.1268  0.7176 -0.9580
 1454TIP3   OH225776   0.341   3.306  14.842  0.4033  0.0547  0.0714
 1454TIP3    H125777   0.347   3.227  14.789  1.1209  0.1215  0.0524
 1454TIP3    H225778   0.307   3.276  14.926 -0.5887 -0.0772 -0.3587
 1455TIP3   OH225779   3.947   2.707   0.364 -0.4835  0.1762 -0.7792
 1455TIP3    H125780   3.991   2.662   0.292  0.1782  0.6147 -0.6590
 1455TIP3    H225781   3.907   2.784   0.323 -1.4236 -0.3996 -0.9461
 1456TIP3   OH225782   0.529   4.547  11.522 -0.2626  0.1722  0.0740
 1456TIP3    H125783   0.583   4.623  11.499  2.0499 -1.2963  0.2722
 1456TIP3    H225784   0.547   4.534  11.615  0.0193 -1.0740 -0.1437
 1457TIP3   OH225785   1.209   4.988   5.729  0.1809 -0.6512  0.2120
 1457TIP3    H125786   1.159   4.968   5.650  2.2791 -1.0902 -1.0947
 1457TIP3    H225787   1.201   5.083   5.739  0.7328 -0.4294 -1.1850
 1458TIP3   OH225788   1.965   1.582  11.761 -0.1266  0.1446 -0.0280
 1458TIP3    H125789   1.963   1.586  11.857  0.2955 -1.4192  0.0727
 1458TIP3    H225790   2.056   1.559  11.740 -0.4618 -0.5926 -0.7288
 1459TIP3   OH225791   3.206   0.238  11.101 -0.4957 -0.5199  0.3480
 1459TIP3    H125792   3.260   0.193  11.165  1.0502  0.1222 -0.4577
 1459TIP3    H225793   3.144   0.171  11.071 -0.7385 -1.0372  1.8921
 1460TIP3   OH225794   1.023   3.889  12.373  0.5920 -0.1409 -0.0996
 1460TIP3    H125795   1.000   3.967  12.423  0.6981  0.3925 -0.8603
 1460TIP3    H225796   1.034   3.921  12.283  1.0460 -0.9591 -0.3438
 1461TIP3   OH225797   2.727   1.583   0.966  0.7376 -0.0357 -0.5606
 1461TIP3    H125798   2.762   1.654   1.020  0.3778  2.1675 -3.0025
 1461TIP3    H225799   2.803   1.530   0.944  1.2236  0.2602  0.3430
 1462TIP3   OH225800   2.203   1.989   0.367  0.0248 -0.9252 -0.0497
 1462TIP3    H125801   2.177   1.957   0.453 -0.7790 -0.3121 -0.0488
 1462TIP3    H225802   2.123   2.027   0.331  0.4633 -0.7715 -0.8809
 1463TIP3   OH225803   1.106   1.612   5.206 -0.3093  0.5498 -0.5296
 1463TIP3    H125804   1.124   1.663   5.127  0.0116  1.8951  0.3637
 1463TIP3    H225805   1.082   1.678   5.272  1.1984 -0.3040  0.9896
 1464TIP3   OH225806   1.847   2.328   3.214  0.0786  0.0140 -0.0546
 1464TIP3    H125807   1.779   2.286   3.160  0.1833 -0.5647  0.2511
 1464TIP3    H225808   1.906   2.256   3.236 -0.0440  0.2209  0.9605
 1465TIP3   OH225809   3.675   6.499  12.118 -0.2833 -0.5455 -0.2164
 1465TIP3    H125810   3.701   6.489  12.026  0.4101 -1.0061  0.0173
 1465TIP3    H225811   3.629   6.583  12.121  1.0956  0.2599 -0.6862
 1466TIP3   OH225812   3.567   4.629  14.099  0.7208 -0.6246  0.3274
 1466TIP3    H125813   3.521   4.621  14.015 -1.1546  0.1786  1.2257
 1466TIP3    H225814   3.608   4.544  14.112  0.5049 -0.9820 -1.0873
 1467TIP3   OH225815   3.416   4.176  12.443 -0.0160  0.3888  0.5113
 1467TIP3    H125816   3.324   4.181  12.416 -0.4926 -2.0891  1.4430
 1467TIP3    H225817   3.457   4.119  12.378  0.2512 -0.5640  1.4900
 1468TIP3   OH225818   1.832   5.447  15.840  0.0398 -0.1088 -0.3747
 1468TIP3    H125819   1.781   5.393  15.902 -1.1412  2.0623  0.6595
 1468TIP3    H225820   1.807   5.413  15.754 -0.1390 -1.6297  0.2334
 1469TIP3   OH225821   3.379   5.345   4.255 -0.0069 -0.4281 -0.0162
 1469TIP3    H125822   3.352   5.331   4.164  0.4212 -1.1596 -0.0468
 1469TIP3    H225823   3.306   5.389   4.296  0.2492  0.9783 -1.0086
 1470TIP3   OH225824   2.330   6.154   3.033  0.2291 -0.2905  0.1558
 1470TIP3    H125825   2.249   6.139   3.082  0.9490 -0.2050  1.4047
 1470TIP3    H225826   2.331   6.249   3.016  0.8325 -0.0288  1.5527
 1471TIP3   OH225827   3.739   0.073  16.772 -0.1195  0.2547  0.1694
 1471TIP3    H125828   3.753   0.073  16.677 -1.0487 -1.3196 -0.0060
 1471TIP3    H225829   3.812   0.022  16.807 -0.4777 -0.2882  0.1467
 1472TIP3   OH225830   2.233   5.788   3.015 -0.4523 -0.2134 -0.4782
 1472TIP3    H125831   2.164   5.822   3.073  0.8689  1.2793  0.2826
 1472TIP3    H225832   2.265   5.865   2.968  2.6060 -0.2732  1.2496
 1473TIP3   OH225833   4.059   2.229   3.989  0.0203 -0.1949 -0.1200
 1473TIP3    H125834   4.109   2.238   4.070  0.0473 -0.2490 -0.1308
 1473TIP3    H225835   4.124   2.206   3.923  0.1383  0.8027 -0.3531
 1474TIP3   OH225836   3.073   4.634  15.758 -0.1851  0.4503 -0.4606
 1474TIP3    H125837   3.087   4.624  15.852 -1.0779  0.5986 -0.3082
 1474TIP3    H225838   3.024   4.556  15.732  0.7174  0.0325 -0.9554
 1475TIP3   OH225839   1.477   3.665  13.311 -0.4745  0.5431 -0.3374
 1475TIP3    H125840   1.405   3.714  13.271 -2.6639 -0.6288  1.8870
 1475TIP3    H225841   1.536   3.646  13.239 -2.2060  1.8694 -2.2178
 1476TIP3   OH225842   6.689   5.290   0.981  0.1226 -0.5269  0.1804
 1476TIP3    H125843   6.778   5.303   1.014  0.4684 -2.9694  0.4335
 1476TIP3    H225844   6.701   5.236   0.903 -1.0280  1.0797 -1.1633
 1477TIP3   OH225845   5.000   3.453  15.017  0.3673  0.3482  0.4446
 1477TIP3    H125846   4.970   3.386  15.079  1.2346  2.3155  3.1953
 1477TIP3    H225847   4.941   3.527  15.033  1.6761  1.4744  0.1470
 1478TIP3   OH225848   2.359   0.703  15.301 -0.6842  0.1044  0.1977
 1478TIP3    H125849   2.346   0.633  15.237  2.1070 -0.5253  0.1886
 1478TIP3    H225850   2.331   0.666  15.384 -1.1644 -0.2677 -0.1217
 1479TIP3   OH225851   3.831   2.766  12.643  0.0467 -0.0827  0.1083
 1479TIP3    H125852   3.881   2.831  12.593  0.6966 -0.1787  0.6222
 1479TIP3    H225853   3.889   2.690  12.648  0.5368  0.3582  2.0688
 1480TIP3   OH225854   5.931   6.152   2.851 -0.7202 -0.2076 -0.3943
 1480TIP3    H125855   5.911   6.101   2.773 -0.8011  0.0322 -0.5291
 1480TIP3    H225856   5.983   6.225   2.819  0.5181 -0.9062 -0.0330
 1481TIP3   OH225857   4.999   5.474  14.997 -0.3643  0.2948  0.6118
 1481TIP3    H125858   4.979   5.403  14.936  0.4936  0.3287  0.2822
 1481TIP3    H225859   5.083   5.508  14.968  0.2792  0.0306  2.0917
 1482TIP3   OH225860   4.395   1.178  12.651 -0.2966 -0.1778 -0.7127
 1482TIP3    H125861   4.433   1.113  12.592  0.8933 -0.5802  0.4548
 1482TIP3    H225862   4.363   1.126  12.725 -0.4087  0.4569 -0.3117
 1483TIP3   OH225863   0.227   0.327   3.222 -0.1450  0.3504 -0.3848
 1483TIP3    H125864   0.184   0.400   3.266 -0.4023  0.3138 -0.5757
 1483TIP3    H225865   0.160   0.259   3.216 -0.1345  0.3836 -0.9036
 1484TIP3   OH225866   3.139   1.440  14.324  0.2996 -0.0792 -0.3353
 1484TIP3    H125867   3.160   1.499  14.397 -0.3416  1.0241 -1.0156
 1484TIP3    H225868   3.046   1.453  14.309 -0.3486 -2.7485  0.7413
 1485TIP3   OH225869   2.462   5.899  14.034  0.1207 -0.3322  0.2720
 1485TIP3    H125870   2.480   5.886  13.941 -3.4459 -1.9938 -0.3654
 1485TIP3    H225871   2.467   5.994  14.046 -1.2185  0.1389 -2.1710
 1486TIP3   OH225872   0.573   0.779   5.980  0.0686  0.2102  0.1815
 1486TIP3    H125873   0.656   0.818   5.951  0.4873 -0.5680  0.2958
 1486TIP3    H225874   0.575   0.786   6.075 -1.0466  2.2456  0.1116
 1487TIP3   OH225875   1.051   4.117  14.150  0.3969  0.0851 -0.6873
 1487TIP3    H125876   1.061   4.028  14.184  1.2304  0.1769 -0.6761
 1487TIP3    H225877   0.958   4.137  14.163  0.5116 -0.1818  0.7990
 1488TIP3   OH225878   5.366   6.233  15.064  0.4368 -0.0960  0.0019
 1488TIP3    H125879   5.300   6.184  15.014 -0.0845 -2.0229  2.3727
 1488TIP3    H225880   5.316   6.302  15.108  0.3832 -0.2389  0.1631
 1489TIP3   OH225881   6.536   2.889   4.956 -0.0589  0.0371 -0.2289
 1489TIP3    H125882   6.525   2.851   5.043  0.2085  1.0427  0.2515
 1489TIP3    H225883   6.630   2.882   4.939 -0.0200  0.4035 -0.1702
 1490TIP3   OH225884   2.532   5.652   2.336 -1.0524 -0.1228 -0.3662
 1490TIP3    H125885   2.485   5.622   2.258 -0.9607 -1.7949  0.1787
 1490TIP3    H225886   2.581   5.575   2.365  1.2226  1.2768 -0.2955
 1491TIP3   OH225887   3.954   6.648  17.112  0.4363 -0.2817  0.6598
 1491TIP3    H125888   3.958   6.726  17.167  0.3012 -1.3319  2.2375
 1491TIP3    H225889   3.866   6.648  17.077  0.8534  0.9690 -0.4655
 1492TIP3   OH225890   6.269   4.227   3.478 -0.3480 -0.5219  0.2525
 1492TIP3    H125891   6.227   4.300   3.433 -1.5154 -1.5422 -0.3438
 1492TIP3    H225892   6.331   4.269   3.538 -0.3191  0.9217 -0.7451
 1493TIP3   OH225893   3.549   0.835  15.978  0.1086 -1.0813  0.5701
 1493TIP3    H125894   3.514   0.847  15.890  0.2656 -1.7378  0.4165
 1493TIP3    H225895   3.608   0.760  15.971 -0.5411 -1.6887  1.4127
 1494TIP3   OH225896   1.443   5.721   3.158  0.1833 -0.1910  0.0457
 1494TIP3    H125897   1.356   5.744   3.190  0.2156 -0.6497  0.4846
 1494TIP3    H225898   1.442   5.744   3.065 -0.0196  0.8769  0.3021
 1495TIP3   OH225899   0.077   1.427  11.933 -0.1161  0.6381  0.2874
 1495TIP3    H125900   0.113   1.342  11.961 -1.3754  0.3383  1.0867
 1495TIP3    H225901   0.074   1.421  11.837 -0.9493 -0.5812  0.3580
 1496TIP3   OH225902   5.521   5.545  14.068 -0.1344  0.7463  0.3765
 1496TIP3    H125903   5.494   5.520  13.980 -3.0478  0.1623  1.3326
 1496TIP3    H225904   5.544   5.637  14.061 -1.4169  1.0104 -0.8034
 1497TIP3   OH225905   3.461   1.432  11.823 -0.7670  0.7562 -0.3958
 1497TIP3    H125906   3.480   1.351  11.871 -0.0817  0.6464 -0.8276
 1497TIP3    H225907   3.479   1.410  11.731 -1.1921  1.2189 -0.5962
 1498TIP3   OH225908   3.325   0.350   1.598  0.0526  0.0684 -0.0714
 1498TIP3    H125909   3.372   0.372   1.679 -0.4547 -1.0300  0.5506
 1498TIP3    H225910   3.385   0.293   1.551 -0.0873 -0.1892  0.0592
 1499TIP3   OH225911   6.286   2.082   1.357 -0.3975  0.2620 -0.6098
 1499TIP3    H125912   6.242   2.045   1.280  2.1826 -2.7253 -0.8332
 1499TIP3    H225913   6.258   2.026   1.430  3.1324 -2.1689 -0.8549
 1500TIP3   OH225914   4.302   5.519   3.694 -0.2562 -0.5776  0.0399
 1500TIP3    H125915   4.312   5.518   3.789 -0.5448 -1.5085  0.0729
 1500TIP3    H225916   4.376   5.571   3.662  0.3480 -0.9971  0.7191
 1501TIP3   OH225917   0.777   2.798  16.066  0.0094  0.5052 -0.4309
 1501TIP3    H125918   0.825   2.745  16.003 -1.1611 -0.1520 -0.7922
 1501TIP3    H225919   0.717   2.737  16.109 -1.1123  1.4609 -0.6035
 1502TIP3   OH225920   2.133   2.981  13.038  0.2756  0.0189  0.2677
 1502TIP3    H125921   2.201   3.048  13.040  2.1007 -1.7222  1.7754
 1502TIP3    H225922   2.182   2.898  13.042 -1.8899 -1.3952 -0.9245
 1503TIP3   OH225923   5.386   2.125   1.010  0.3949  0.1214 -0.0860
 1503TIP3    H125924   5.414   2.217   1.013  1.4267 -0.1843  0.2161
 1503TIP3    H225925   5.394   2.094   1.100  0.1456 -0.2910 -0.2018
 1504TIP3   OH225926   5.841   6.049   6.639 -0.3024  0.3473 -0.2374
 1504TIP3    H125927   5.869   5.957   6.639  0.9955  0.7118  0.8604
 1504TIP3    H225928   5.915   6.096   6.677 -1.6652  1.6296  0.9293
 1505TIP3   OH225929   5.966   2.438  14.306  0.1072 -0.4800  1.1592
 1505TIP3    H125930   6.054   2.427  14.270 -0.8732  0.0470 -1.6375
 1505TIP3    H225931   5.910   2.387  14.247 -1.7473  1.1964  1.3808
 1506TIP3   OH225932   1.146   1.533  13.448 -0.3942 -0.2026 -0.0021
 1506TIP3    H125933   1.078   1.590  13.412 -0.6448  1.0124  2.2459
 1506TIP3    H225934   1.158   1.562  13.538  0.3795 -2.9094  0.8863
 1507TIP3   OH225935   2.787   3.832   3.945 -0.1472 -0.8368  0.0282
 1507TIP3    H125936   2.741   3.905   3.903  1.4398  1.0683  1.3592
 1507TIP3    H225937   2.865   3.873   3.984  2.0582 -3.6614 -1.0857
 1508TIP3   OH225938   3.044   2.033   0.628 -0.3293  0.4837 -0.8146
 1508TIP3    H125939   3.122   2.087   0.614  0.8474 -1.4001 -2.1312
 1508TIP3    H225940   2.978   2.069   0.569 -0.3248  1.7890 -0.0569
 1509TIP3   OH225941   1.196   6.429  15.780 -0.3610 -0.0460 -0.0597
 1509TIP3    H125942   1.245   6.466  15.854 -2.1867  1.4616  0.4725
 1509TIP3    H225943   1.249   6.449  15.703  1.8962 -2.1843  0.8065
 1510TIP3   OH225944   4.386   2.115  16.210  0.2400 -0.2815 -0.0259
 1510TIP3    H125945   4.431   2.032  16.223 -0.1592 -0.2826  1.5720
 1510TIP3    H225946   4.446   2.181  16.245 -0.5530 -0.2013  1.2839
 1511TIP3   OH225947   5.198   1.186  13.219 -0.4632 -0.3141  0.1049
 1511TIP3    H125948   5.289   1.215  13.224 -0.5056 -0.1617 -0.0032
 1511TIP3    H225949   5.147   1.259  13.255 -0.2803 -1.8767  4.0228
 1512TIP3   OH225950   2.151   2.507  10.740  0.0993 -0.1760 -0.2242
 1512TIP3    H125951   2.199   2.541  10.664 -0.1362  1.6754  0.4282
 1512TIP3    H225952   2.122   2.584  10.787 -0.7355 -1.2967  1.1677
 1513TIP3   OH225953   3.558   3.339  16.877 -0.2877 -0.1908 -0.0780
 1513TIP3    H125954   3.501   3.415  16.890 -1.0610 -0.9945  1.3710
 1513TIP3    H225955   3.499   3.266  16.863  0.4628 -0.4378 -2.3550
 1514TIP3   OH225956   4.770   6.686  15.804 -0.2754  0.7923 -0.5499
 1514TIP3    H125957   4.821   6.635  15.741  0.4613 -0.3617  0.9106
 1514TIP3    H225958   4.727   6.753  15.752  0.5300  0.0563 -2.2275
 1515TIP3   OH225959   2.464   0.580  16.331  0.2296 -0.2152 -0.7066
 1515TIP3    H125960   2.433   0.632  16.405  1.0884 -1.6527  0.7286
 1515TIP3    H225961   2.483   0.644  16.262 -1.7280  1.0527 -0.1315
 1516TIP3   OH225962   1.963   4.367   4.761  0.0206  0.7471  0.4101
 1516TIP3    H125963   1.942   4.460   4.775  2.6269  1.3689  0.6638
 1516TIP3    H225964   2.040   4.351   4.816  0.2688 -1.3016 -0.4501
 1517TIP3   OH225965   5.925   4.945  14.217  0.1752 -0.3127  0.2304
 1517TIP3    H125966   5.883   4.934  14.302 -0.2949  0.4239  0.1019
 1517TIP3    H225967   5.876   4.887  14.159  1.1527 -1.6130  0.6557
 1518TIP3   OH225968   0.268   3.584  10.726  0.1733  0.2442  0.1325
 1518TIP3    H125969   0.209   3.549  10.792 -0.3755  0.3950 -0.2742
 1518TIP3    H225970   0.347   3.609  10.775 -0.1661  0.2044  0.7024
 1519TIP3   OH225971   6.570   6.171  11.506  0.3379 -0.1961  0.4842
 1519TIP3    H125972   6.489   6.205  11.467  0.9660 -0.5974 -1.2259
 1519TIP3    H225973   6.608   6.115  11.439  2.1359  0.1010  1.1949
 1520TIP3   OH225974   1.994   6.087   2.975  0.0261  0.3474  0.1316
 1520TIP3    H125975   1.925   6.089   2.910 -0.6051  0.9504  0.8036
 1520TIP3    H225976   1.989   5.999   3.014 -1.6091  0.9656  1.4596
 1521TIP3   OH225977   3.577   5.513   3.284 -0.9040  0.3280 -0.4947
 1521TIP3    H125978   3.494   5.558   3.300 -1.1827 -0.2084 -0.3792
 1521TIP3    H225979   3.603   5.541   3.196 -0.8950  0.9674 -0.2921
 1522TIP3   OH225980   0.971   1.814   1.679  0.6530 -0.1299 -0.5908
 1522TIP3    H125981   1.012   1.878   1.738  1.3192 -1.0000 -0.0919
 1522TIP3    H225982   1.033   1.805   1.607  0.4363 -0.0320 -0.7927
 1523TIP3   OH225983   4.777   5.595  13.180 -0.1639  0.0187 -0.0960
 1523TIP3    H125984   4.690   5.605  13.219  0.0939 -1.1661  0.8339
 1523TIP3    H225985   4.763   5.540  13.103 -0.5278  1.5815 -1.2052
 1524TIP3   OH225986   1.698   0.438   0.051 -0.1456 -1.0416  0.5816
 1524TIP3    H125987   1.760   0.466   0.118  3.4701  1.8131 -3.3433
 1524TIP3    H225988   1.631   0.507   0.050  0.9845  0.1103  0.0415
 1525TIP3   OH225989   0.603   5.733  13.194 -0.3584 -0.1994 -0.1265
 1525TIP3    H125990   0.529   5.755  13.137 -0.4267  1.7978  0.6680
 1525TIP3    H225991   0.562   5.695  13.272 -0.3171 -2.0655 -0.9669
 1526TIP3   OH225992   1.971   4.895   1.856  0.0409 -0.0173  0.4002
 1526TIP3    H125993   2.056   4.938   1.842 -1.1036  2.6688  1.1819
 1526TIP3    H225994   1.935   4.886   1.768  0.9136 -0.7891  0.0994
 1527TIP3   OH225995   4.447   2.595   6.197 -0.2807 -0.0460  0.2805
 1527TIP3    H125996   4.445   2.652   6.274 -1.8877  0.0311  0.2103
 1527TIP3    H225997   4.445   2.655   6.122  0.6164 -0.1411  0.1663
 1528TIP3   OH225998   2.514   1.233  17.179  0.2191 -0.0434 -0.1258
 1528TIP3    H125999   2.500   1.163  17.115 -0.3546  0.6719 -0.7934
 1528TIP3    H226000   2.426   1.255  17.211  0.4910 -0.3415  0.8653
 1529TIP3   OH226001   4.123   3.868   0.181  0.6355  0.4487 -0.3795
 1529TIP3    H126002   4.098   3.778   0.160  0.5590  0.3823 -0.0006
 1529TIP3    H226003   4.057   3.897   0.244  2.5887 -0.3798  2.2099
 1530TIP3   OH226004   3.888   4.817   0.368  0.2338  0.2844  0.0717
 1530TIP3    H126005   3.878   4.782   0.456 -1.0719 -0.9609 -0.5349
 1530TIP3    H226006   3.895   4.912   0.380  1.7116  0.0362  1.6009
 1531TIP3   OH226007   2.942   4.438  15.627 -0.0300  0.6987 -0.9935
 1531TIP3    H126008   2.913   4.349  15.650  1.3682 -0.2067 -2.4852
 1531TIP3    H226009   2.862   4.488  15.617 -0.8247  0.1844  1.8721
 1532TIP3   OH226010   3.103   3.767   3.051 -0.4129  0.0869 -0.2926
 1532TIP3    H126011   3.197   3.779   3.062 -0.5589  1.3844 -0.3503
 1532TIP3    H226012   3.064   3.820   3.120 -1.1234 -0.1421 -0.5094
 1533TIP3   OH226013   4.183   4.020  15.033 -0.1627  0.4549 -0.5931
 1533TIP3    H126014   4.174   4.056  15.121 -1.0589  1.8656 -1.2272
 1533TIP3    H226015   4.273   4.041  15.007  0.0005  0.3150 -0.1392
 1534TIP3   OH226016   2.226   2.211  11.321 -0.0923  0.3785  0.4033
 1534TIP3    H126017   2.202   2.203  11.229 -2.7682 -0.9088  1.1179
 1534TIP3    H226018   2.321   2.226  11.320  0.1850 -0.9262 -2.5053
 1535TIP3   OH226019   1.856   6.750  12.853  0.8414  0.2833  0.1537
 1535TIP3    H126020   1.770   6.764  12.814  0.0766  1.5461  2.0959
 1535TIP3    H226021   1.907   6.827  12.826 -0.2157  2.0490  2.7950
 1536TIP3   OH226022   6.215   5.324  11.685 -0.0621 -0.3628 -0.4073
 1536TIP3    H126023   6.289   5.383  11.676  0.2943 -0.3533  2.0712
 1536TIP3    H226024   6.239   5.265  11.756 -1.2316 -2.2598 -1.4841
 1537TIP3   OH226025   4.865   3.363  11.681 -0.3279 -0.2273 -0.5409
 1537TIP3    H126026   4.943   3.405  11.718 -0.0169 -0.7590 -0.5753
 1537TIP3    H226027   4.799   3.372  11.749  0.4389 -1.8010  0.4683
 1538TIP3   OH226028   1.938   0.628  10.836  0.1804 -0.1433 -0.2592
 1538TIP3    H126029   1.943   0.719  10.867  0.4556 -0.8477  1.9146
 1538TIP3    H226030   2.026   0.610  10.802  0.6971 -0.1347  1.0151
 1539TIP3   OH226031   0.429   5.639   5.467 -0.6009 -0.3047  0.0767
 1539TIP3    H126032   0.381   5.568   5.509 -1.3231 -0.2500 -0.6199
 1539TIP3    H226033   0.368   5.713   5.467  0.7402  0.9410  2.4075
 1540TIP3   OH226034   4.208   0.300   5.104 -0.6045 -0.3292  0.2056
 1540TIP3    H126035   4.209   0.338   5.192 -1.1719  0.5295 -0.1418
 1540TIP3    H226036   4.149   0.225   5.111 -2.3873  0.9851  0.1046
 1541TIP3   OH226037   5.294   2.079   0.618  0.9445 -0.0752 -0.0564
 1541TIP3    H126038   5.319   2.022   0.545  1.4840  0.1909 -0.0843
 1541TIP3    H226039   5.352   2.155   0.610  1.6568 -0.4646  1.1935
 1542TIP3   OH226040   4.627   1.336  16.660  0.3104 -0.0238  0.3820
 1542TIP3    H126041   4.639   1.324  16.754  4.0216 -5.1155 -0.3040
 1542TIP3    H226042   4.551   1.281  16.639  0.2117  0.1702  0.2291
 1543TIP3   OH226043   1.205   1.269  15.657  0.0632  0.0062 -0.2641
 1543TIP3    H126044   1.292   1.263  15.695 -0.0290  0.2915 -0.0046
 1543TIP3    H226045   1.151   1.306  15.727 -0.6926 -1.9433  0.2678
 1544TIP3   OH226046   4.192   5.668  15.931 -0.3178  0.6040  0.0110
 1544TIP3    H126047   4.103   5.703  15.923  0.4614  2.3894 -1.9492
 1544TIP3    H226048   4.188   5.582  15.891 -1.0440  0.9431 -0.6810
 1545TIP3   OH226049   1.637   5.590  16.456  0.0276  0.4482 -0.2664
 1545TIP3    H126050   1.592   5.517  16.500  0.9130 -0.5562 -0.9950
 1545TIP3    H226051   1.645   5.562  16.365  0.7690  1.2773 -0.4678
 1546TIP3   OH226052   5.107   1.981   0.807 -0.3948 -0.0090 -0.4216
 1546TIP3    H126053   5.104   1.887   0.791 -0.4818 -0.2092  0.7160
 1546TIP3    H226054   5.166   2.015   0.739  1.8710 -1.2549  0.8064
 1547TIP3   OH226055   0.678   0.823  16.680 -0.2617  0.3477  0.4048
 1547TIP3    H126056   0.729   0.848  16.602  1.0014 -0.7580  0.8463
 1547TIP3    H226057   0.601   0.779  16.645 -1.0765  2.1953 -0.2788
 1548TIP3   OH226058   1.232   2.044   0.884  0.2268  0.0987 -0.3845
 1548TIP3    H126059   1.159   2.085   0.838 -1.0372 -1.9880 -0.3253
 1548TIP3    H226060   1.299   2.032   0.816 -0.8820 -1.2170 -1.2805
 1549TIP3   OH226061   2.757   1.695   6.309  0.2755 -0.4886  0.0842
 1549TIP3    H126062   2.737   1.702   6.216 -1.6528  2.9155  0.5713
 1549TIP3    H226063   2.681   1.652   6.347  0.7196 -1.1941  0.1755
 1550TIP3   OH226064   3.258   5.892  17.141  0.6508 -0.1271 -0.7101
 1550TIP3    H126065   3.344   5.852  17.138  0.5084 -0.6309  0.8350
 1550TIP3    H226066   3.256   5.937  17.226  0.8595  3.3311 -2.3714
 1551TIP3   OH226067   6.253   5.773   0.323 -0.6808  0.5953 -0.1447
 1551TIP3    H126068   6.195   5.697   0.334 -0.4384  0.2411 -1.2450
 1551TIP3    H226069   6.305   5.752   0.246  1.0218  0.8591  0.8840
 1552TIP3   OH226070   5.069   0.749   3.587 -0.2299  0.3311  0.3919
 1552TIP3    H126071   5.130   0.791   3.526  0.1778  0.5727  0.9594
 1552TIP3    H226072   5.115   0.672   3.618 -0.3255  0.3587  0.6047
 1553TIP3   OH226073   3.665   1.661  17.021 -0.4397 -0.2468 -0.4948
 1553TIP3    H126074   3.572   1.676  17.040  0.2154  2.2320  1.0732
 1553TIP3    H226075   3.704   1.637  17.105  0.5255 -0.3081 -0.9462
 1554TIP3   OH226076   6.107   2.540   1.574  0.4127  0.1818 -0.1828
 1554TIP3    H126077   6.182   2.507   1.525  1.2514  0.1881  1.0423
 1554TIP3    H226078   6.139   2.550   1.664 -0.3528  2.5060 -0.1008
 1555TIP3   OH226079   5.206   4.128  10.668  0.2062 -0.4281  0.2621
 1555TIP3    H126080   5.200   4.170  10.582 -0.1847  0.5994  0.7709
 1555TIP3    H226081   5.286   4.164  10.706  1.0052 -1.7423 -0.0885
 1556TIP3   OH226082   4.644   5.229   3.988  0.1770  0.2186 -0.1761
 1556TIP3    H126083   4.727   5.276   3.986  0.4803 -0.2971  0.0005
 1556TIP3    H226084   4.650   5.167   3.916 -0.2924  0.5692 -0.5197
 1557TIP3   OH226085   4.949   3.568  13.939 -0.5442  0.2734  0.3770
 1557TIP3    H126086   4.917   3.530  13.858 -0.8343  0.0511  0.5926
 1557TIP3    H226087   5.041   3.586  13.922  0.1930 -2.4477  0.9125
 1558TIP3   OH226088   2.367   4.793  12.452  0.1817  0.3542  0.1312
 1558TIP3    H126089   2.391   4.875  12.408 -1.3417  1.4439  1.2127
 1558TIP3    H226090   2.432   4.730  12.422  1.0997  1.8264 -1.1480
 1559TIP3   OH226091   2.591   5.104  13.530  0.2960  0.1507 -0.1612
 1559TIP3    H126092   2.596   5.009  13.516  0.1431  0.1390 -0.1379
 1559TIP3    H226093   2.641   5.118  13.610 -0.0049  0.0381  0.0517
 1560TIP3   OH226094   1.845   4.296  12.580  0.1999  0.3288 -0.0391
 1560TIP3    H126095   1.760   4.276  12.618  0.6130  0.2348  0.8740
 1560TIP3    H226096   1.853   4.391  12.587  0.3877  0.2843  0.3593
 1561TIP3   OH226097   3.641   5.827  11.247 -0.1345 -0.2318 -0.2818
 1561TIP3    H126098   3.633   5.896  11.181 -1.7732  0.6265  0.7541
 1561TIP3    H226099   3.734   5.806  11.249  0.0360  0.1601 -2.4023
 1562TIP3   OH226100   1.957   0.995  12.725 -0.5099 -0.0258  0.3846
 1562TIP3    H126101   2.044   0.979  12.761 -0.3335  0.2220  0.0647
 1562TIP3    H226102   1.955   0.944  12.644 -0.7410 -0.2087  0.5055
 1563TIP3   OH226103   0.671   2.663   3.322  0.6329 -0.2137  1.0170
 1563TIP3    H126104   0.767   2.667   3.324  0.7034  0.5591 -1.1750
 1563TIP3    H226105   0.652   2.579   3.280  0.3974  0.2863  0.1108
 1564TIP3   OH226106   3.733   3.747   6.436  0.6388  0.5381  0.3194
 1564TIP3    H126107   3.673   3.685   6.393  1.6164 -0.8733  0.9355
 1564TIP3    H226108   3.814   3.698   6.447  1.3834  1.8864  1.0084
 1565TIP3   OH226109   2.949   4.352   5.726  0.0011  0.0069  0.0640
 1565TIP3    H126110   3.024   4.402   5.757  1.2682 -1.1707 -0.9911
 1565TIP3    H226111   2.873   4.409   5.745  1.0963  1.1097  1.3738
 1566TIP3   OH226112   5.811   5.938   1.519  0.0488  0.5666  0.4923
 1566TIP3    H126113   5.851   5.954   1.604 -1.4780  1.9587  0.9895
 1566TIP3    H226114   5.719   5.960   1.531 -0.1361  1.1634 -1.6112
 1567TIP3   OH226115   2.094   6.015   0.291 -0.5390 -0.0335  0.3771
 1567TIP3    H126116   2.188   5.994   0.288 -0.4030  0.3925  1.2511
 1567TIP3    H226117   2.064   5.977   0.374 -1.6741 -2.2323 -0.9588
 1568TIP3   OH226118   4.978   1.311   3.134 -0.6478  0.2119  0.2454
 1568TIP3    H126119   5.051   1.256   3.106 -0.8831  0.5356 -1.0672
 1568TIP3    H226120   4.993   1.395   3.090 -0.9143  0.8369  1.3046
 1569TIP3   OH226121   1.283   2.956  14.743  0.4424  0.2463 -0.1578
 1569TIP3    H126122   1.329   3.037  14.724 -0.3538  0.9963  0.9883
 1569TIP3    H226123   1.204   2.959  14.689  1.2033 -0.5877 -1.3860
 1570TIP3   OH226124   5.941   0.153   3.211  0.2363  0.2698  0.0172
 1570TIP3    H126125   5.973   0.204   3.285 -0.5855  0.1099  0.4984
 1570TIP3    H226126   6.017   0.102   3.183  1.1403  1.9003 -0.6296
 1571TIP3   OH226127   4.060   5.553   1.516 -0.1708 -0.4686  0.1164
 1571TIP3    H126128   4.063   5.586   1.606  1.7724  0.2990 -0.1789
 1571TIP3    H226129   4.148   5.517   1.501 -0.6231 -1.0510 -1.3175
 1572TIP3   OH226130   6.513   1.755   4.473 -0.6850  0.0350 -0.7666
 1572TIP3    H126131   6.447   1.821   4.491 -1.0685 -0.4419 -0.3807
 1572TIP3    H226132   6.476   1.702   4.403 -1.3958 -1.1336  0.4350
 1573TIP3   OH226133   3.260   6.147  13.663 -0.8370  0.6371 -0.2988
 1573TIP3    H126134   3.263   6.195  13.745 -0.9828 -0.8358  0.5948
 1573TIP3    H226135   3.195   6.078  13.677 -0.3700 -0.0648 -1.4053
 1574TIP3   OH226136   4.907   2.078  15.860 -0.2346 -0.0548 -0.2886
 1574TIP3    H126137   4.964   2.049  15.789 -0.4986  0.6385 -0.7917
 1574TIP3    H226138   4.967   2.097  15.932 -0.1381 -3.2236  0.6093
 1575TIP3   OH226139   0.515   3.655  11.649 -0.3291  0.0861 -0.4075
 1575TIP3    H126140   0.457   3.602  11.594 -0.8321  0.6105 -0.3883
 1575TIP3    H226141   0.603   3.631  11.620 -0.5174 -1.2740  0.0763
 1576TIP3   OH226142   0.625   5.855  11.691  0.5751 -0.2313 -0.3002
 1576TIP3    H126143   0.565   5.930  11.689  0.0002 -0.6742 -0.0645
 1576TIP3    H226144   0.686   5.871  11.620  0.8551  0.7839  0.1461
 1577TIP3   OH226145   2.547   6.196   5.381 -0.2090 -0.6510 -0.0545
 1577TIP3    H126146   2.553   6.267   5.445  1.6325 -1.3226  0.5631
 1577TIP3    H226147   2.488   6.133   5.421 -1.4007  0.2336 -0.3507
 1578TIP3   OH226148   3.258   1.475  12.499 -0.3639 -0.5603  0.1631
 1578TIP3    H126149   3.201   1.510  12.567  0.0968 -0.7662  0.6633
 1578TIP3    H226150   3.341   1.457  12.544  0.8179  1.6790 -0.9399
 1579TIP3   OH226151   1.238   4.264   3.355 -0.2653 -0.1427 -0.6049
 1579TIP3    H126152   1.296   4.285   3.429 -0.2341  0.0476 -0.6839
 1579TIP3    H226153   1.161   4.223   3.396 -1.3962  2.2187 -0.2223
 1580TIP3   OH226154   4.633   1.753   0.686  0.2177  0.4515 -0.0729
 1580TIP3    H126155   4.621   1.738   0.780  1.5753 -0.2720  0.0249
 1580TIP3    H226156   4.710   1.700   0.664 -0.5220  0.0256 -1.7554
 1581TIP3   OH226157   3.116   3.837   5.096  0.4023 -0.4321  0.8553
 1581TIP3    H126158   3.188   3.812   5.155  3.1799  0.2313 -1.9612
 1581TIP3    H226159   3.156   3.898   5.034 -1.7919 -2.3393 -2.7531
 1582TIP3   OH226160   3.818   5.415  14.873 -0.1742  0.0810 -0.2901
 1582TIP3    H126161   3.803   5.451  14.961  0.0467 -1.5640  0.4543
 1582TIP3    H226162   3.730   5.407  14.835 -0.4238 -0.7430  0.4354
 1583TIP3   OH226163   0.601   4.334  14.087  0.1357  0.4669  0.1417
 1583TIP3    H126164   0.633   4.411  14.039  0.2006  0.1619 -0.3130
 1583TIP3    H226165   0.515   4.361  14.121 -0.0310  0.6013 -0.3761
 1584TIP3   OH226166   2.535   4.239  15.246  0.4023 -0.2195 -0.6835
 1584TIP3    H126167   2.494   4.194  15.173  0.3312 -1.0518 -0.1368
 1584TIP3    H226168   2.628   4.243  15.223  0.8344 -2.7944  0.3051
 1585TIP3   OH226169   2.513   5.416   1.256  0.0259  0.1717  0.3807
 1585TIP3    H126170   2.470   5.359   1.192 -2.1770  1.6912  0.4184
 1585TIP3    H226171   2.602   5.427   1.222  0.0536 -1.9771 -0.4343
 1586TIP3   OH226172   1.504   4.347  15.967  0.5038  0.0040 -0.0952
 1586TIP3    H126173   1.589   4.381  15.938  1.4490 -1.7935  0.3950
 1586TIP3    H226174   1.526   4.271  16.021 -1.4460 -1.2282 -0.9076
 1587TIP3   OH226175   4.658   6.309  12.839  0.2099 -0.1233 -0.4126
 1587TIP3    H126176   4.601   6.274  12.908 -1.8193  1.4300 -1.2322
 1587TIP3    H226177   4.671   6.235  12.779 -2.1017 -0.1900 -0.9128
 1588TIP3   OH226178   1.396   1.959  11.382  0.6007  0.3880 -0.3600
 1588TIP3    H126179   1.432   2.012  11.311  0.7125 -0.3754 -0.8859
 1588TIP3    H226180   1.469   1.906  11.412  0.4593  0.4335  0.0736
 1589TIP3   OH226181   0.799   5.855   2.903  0.0855  0.7749 -0.2360
 1589TIP3    H126182   0.782   5.934   2.956 -0.9255  0.1321  0.4186
 1589TIP3    H226183   0.804   5.784   2.968 -0.9039  0.0094 -0.9853
 1590TIP3   OH226184   0.463   0.166   2.638 -0.3256  0.1043 -0.3794
 1590TIP3    H126185   0.496   0.240   2.587  0.3121 -0.3772 -0.6766
 1590TIP3    H226186   0.487   0.089   2.587 -0.5001 -0.3388  0.1968
 1591TIP3   OH226187   3.731   0.537   3.661 -0.2240  0.8285 -0.5445
 1591TIP3    H126188   3.748   0.449   3.695 -0.8182  0.4846 -1.0994
 1591TIP3    H226189   3.757   0.596   3.731 -0.2434  0.1865  0.0100
 1592TIP3   OH226190   0.452   5.366  12.709  0.5870  0.4279  0.2412
 1592TIP3    H126191   0.482   5.369  12.618  1.6998  0.1609  0.5776
 1592TIP3    H226192   0.370   5.317  12.706  0.5268  0.5747 -0.6411
 1593TIP3   OH226193   2.137   1.315   3.894 -0.1532 -0.0914 -0.2954
 1593TIP3    H126194   2.144   1.293   3.802 -0.4281 -0.1597 -0.3005
 1593TIP3    H226195   2.221   1.289   3.932 -0.7743 -1.9694 -0.1187
 1594TIP3   OH226196   6.249   1.727   5.479 -0.0390 -0.5226  0.2332
 1594TIP3    H126197   6.182   1.702   5.415  1.6572 -0.1036 -1.8408
 1594TIP3    H226198   6.207   1.795   5.532 -1.6874 -1.2661 -0.0627
 1595TIP3   OH226199   0.410   0.382  15.091 -0.4768  0.0429  0.3731
 1595TIP3    H126200   0.476   0.450  15.076 -0.2257 -0.0274  1.0924
 1595TIP3    H226201   0.396   0.383  15.186 -0.7401 -0.6526  0.3483
 1596TIP3   OH226202   0.028   5.683   1.616 -0.6975  0.1226  0.1418
 1596TIP3    H126203   0.063   5.729   1.539 -0.5787  0.6941  0.5240
 1596TIP3    H226204   0.005   5.754   1.676 -0.0840 -0.3402  0.9340
 1597TIP3   OH226205   6.421   2.146   2.583 -0.0188 -0.3626  0.2338
 1597TIP3    H126206   6.427   2.106   2.669 -1.6215 -2.1826 -0.4198
 1597TIP3    H226207   6.484   2.098   2.529  1.2254  0.9916  0.4019
 1598TIP3   OH226208   6.521   1.829  16.679  0.0435 -0.0491  0.6124
 1598TIP3    H126209   6.435   1.795  16.652  0.0806  0.8886 -0.8156
 1598TIP3    H226210   6.584   1.776  16.631  0.2145  0.1238  0.6479
 1599TIP3   OH226211   6.781   3.478  13.704  0.7967 -0.8084 -0.0164
 1599TIP3    H126212   6.741   3.447  13.622  1.0864  1.7261 -1.2503
 1599TIP3    H226213   6.869   3.506  13.679  1.8411 -2.2816  1.7603
 1600TIP3   OH226214   5.754   4.164   4.511  0.1673  0.0207 -0.1394
 1600TIP3    H126215   5.780   4.256   4.525  0.5293 -0.3288  1.8566
 1600TIP3    H226216   5.660   4.167   4.497  0.1272  0.6715  0.2374
 1601TIP3   OH226217   1.108   4.807   3.651 -0.1605 -0.8879 -0.0601
 1601TIP3    H126218   1.037   4.860   3.614  0.6249  0.6887  0.6033
 1601TIP3    H226219   1.063   4.739   3.701 -1.2216 -0.2603 -0.1228
 1602TIP3   OH226220   2.313   0.824   3.668 -0.2852 -0.0833 -0.4421
 1602TIP3    H126221   2.378   0.887   3.698  0.2424 -0.3263 -1.0557
 1602TIP3    H226222   2.298   0.847   3.576 -0.7559 -0.2987 -0.4243
 1603TIP3   OH226223   2.173   5.184   2.038 -0.4997 -0.2384  0.7182
 1603TIP3    H126224   2.239   5.240   2.081 -1.9964  2.3717 -0.1307
 1603TIP3    H226225   2.094   5.198   2.090 -1.4945  0.3576 -0.9018
 1604TIP3   OH226226   0.632   5.942   3.652  0.4181 -0.5615 -0.6071
 1604TIP3    H126227   0.615   5.917   3.743  0.6038 -0.9231 -0.6667
 1604TIP3    H226228   0.546   5.940   3.610  0.0309  1.5547  0.0064
 1605TIP3   OH226229   3.955   2.866   4.420 -0.3097  0.1408 -0.1369
 1605TIP3    H126230   3.873   2.896   4.459 -0.6860 -2.0023  0.8398
 1605TIP3    H226231   3.935   2.852   4.328 -0.9018  0.1450 -0.0110
 1606TIP3   OH226232   6.567   1.769  14.305 -0.5804  0.2894  0.0408
 1606TIP3    H126233   6.574   1.734  14.216  3.1394 -0.2879  0.3874
 1606TIP3    H226234   6.560   1.692  14.361  4.1671 -0.1220  0.5460
 1607TIP3   OH226235   2.413   6.172  13.936  0.1921 -0.3480 -0.0161
 1607TIP3    H126236   2.387   6.265  13.935 -2.2584 -0.9052  1.6329
 1607TIP3    H226237   2.399   6.143  13.846 -2.0552  0.2122  0.0884
 1608TIP3   OH226238   3.504   2.705   3.462  0.5024  0.0847 -0.3579
 1608TIP3    H126239   3.544   2.667   3.383 -1.0342  1.3947 -1.8464
 1608TIP3    H226240   3.539   2.794   3.466 -1.2556  0.8446 -0.9983
 1609TIP3   OH226241   6.020   0.553  15.118 -0.2556  0.4338 -0.0735
 1609TIP3    H126242   6.095   0.601  15.082 -0.1224 -0.0537 -0.4544
 1609TIP3    H226243   6.058   0.490  15.178 -0.3876  0.4104 -0.0135
 1610TIP3   OH226244   0.032   3.496  12.038  0.0695 -0.2367  0.5351
 1610TIP3    H126245   0.018   3.548  12.118 -0.2967 -2.2524  1.8661
 1610TIP3    H226246  -0.056   3.479  12.005  0.1914  0.0362  0.0606
 1611TIP3   OH226247   4.525   4.162  11.873  0.1386  0.4862 -0.2629
 1611TIP3    H126248   4.444   4.212  11.870 -0.0920  0.0624 -1.9705
 1611TIP3    H226249   4.586   4.219  11.921 -0.3062  2.1243 -1.5466
 1612TIP3   OH226250   4.617   1.731   0.983 -0.3439  0.2931 -0.2388
 1612TIP3    H126251   4.605   1.662   1.048  0.4342  1.6579  1.4460
 1612TIP3    H226252   4.537   1.783   0.987  0.8444  2.1764  2.0012
 1613TIP3   OH226253   5.149   5.675  13.487  0.1196  0.2458 -0.2641
 1613TIP3    H126254   5.203   5.748  13.519  2.8834 -1.8145  0.1905
 1613TIP3    H226255   5.147   5.687  13.392 -1.5199  2.1383 -0.0575
 1614TIP3   OH226256   2.220   5.009   3.556  0.5176 -0.2546  0.3939
 1614TIP3    H126257   2.211   4.919   3.588 -0.2879  0.1582  1.3970
 1614TIP3    H226258   2.173   5.009   3.473 -2.6152  0.0010  1.9870
 1615TIP3   OH226259   3.924   1.894  17.086  0.2550  0.3835 -0.2686
 1615TIP3    H126260   3.973   1.976  17.084  0.4186  0.2753 -1.6958
 1615TIP3    H226261   3.893   1.882  16.996 -3.2126  0.9206  0.6753
 1616TIP3   OH226262   2.731   5.493  15.741  0.4653 -0.2695  0.0666
 1616TIP3    H126263   2.682   5.438  15.680  0.9104 -0.1870 -0.3673
 1616TIP3    H226264   2.819   5.497  15.705  1.1024 -1.3087  1.3950
 1617TIP3   OH226265   1.828   3.183  14.161 -0.5209 -0.3223 -0.3578
 1617TIP3    H126266   1.735   3.161  14.149 -0.5886 -0.0161 -0.4169
 1617TIP3    H226267   1.829   3.279  14.161 -0.1300 -0.3235 -0.9256
 1618TIP3   OH226268   4.208   6.522   1.197  0.1070 -0.3217  1.0504
 1618TIP3    H126269   4.225   6.443   1.146 -2.6212 -1.6587  2.0032
 1618TIP3    H226270   4.164   6.491   1.276 -2.1770  2.1728  0.9230
 1619TIP3   OH226271   5.443   4.017   4.764 -0.1544 -0.2867 -0.2512
 1619TIP3    H126272   5.398   3.992   4.683  0.1044 -2.8672  0.2970
 1619TIP3    H226273   5.372   4.045   4.823 -0.6692 -0.9114 -0.5544
 1620TIP3   OH226274   0.932   2.017   1.183  0.1574 -0.5328 -0.3260
 1620TIP3    H126275   0.937   1.981   1.272  0.8197 -0.1586 -0.2018
 1620TIP3    H226276   1.021   2.009   1.149  0.5622  1.7541  0.0263
 1621TIP3   OH226277   5.182   0.038  15.607 -0.4424  0.0070 -0.5313
 1621TIP3    H126278   5.254   0.086  15.565 -0.7659  0.2855 -0.7692
 1621TIP3    H226279   5.119   0.106  15.632  0.0432 -0.0717  1.0191
 1622TIP3   OH226280   5.055   0.376   1.973  0.1909  0.5782  0.3844
 1622TIP3    H126281   4.968   0.415   1.977 -0.1752 -0.3165  1.9251
 1622TIP3    H226282   5.040   0.284   1.951  1.0655  1.1671 -3.5254
 1623TIP3   OH226283   4.723   1.832   2.269 -0.4063  0.5380 -0.2492
 1623TIP3    H126284   4.643   1.780   2.259  0.0108 -0.2822  0.5378
 1623TIP3    H226285   4.692   1.922   2.279 -1.2554  0.1961  0.3357
 1624TIP3   OH226286   3.827   2.629   5.002  0.0801 -0.6014 -0.2426
 1624TIP3    H126287   3.863   2.552   5.046 -1.5870 -1.8383 -0.8927
 1624TIP3    H226288   3.832   2.607   4.909  1.3228  0.9290 -0.5785
 1625TIP3   OH226289   4.447   6.422   2.097  0.4168 -0.4278  0.2102
 1625TIP3    H126290   4.472   6.496   2.041 -0.3057 -0.0230  0.4060
 1625TIP3    H226291   4.514   6.356   2.080  1.7900  0.7157  0.9613
 1626TIP3   OH226292   5.230   0.528   3.680  0.1615 -0.0449 -0.4070
 1626TIP3    H126293   5.240   0.567   3.767 -3.2468 -2.6168  1.4114
 1626TIP3    H226294   5.284   0.449   3.683  1.2171  0.6292 -1.2433
 1627TIP3   OH226295   5.166   3.059  11.589  0.1059  0.2632 -0.1822
 1627TIP3    H126296   5.204   3.082  11.674  2.4890  1.0593 -1.3916
 1627TIP3    H226297   5.152   3.143  11.545  0.7621 -0.1927 -1.3120
 1628TIP3   OH226298   0.429   5.584   2.812 -0.4142 -0.0567 -0.1088
 1628TIP3    H126299   0.379   5.603   2.733  1.1704  0.3914 -1.0654
 1628TIP3    H226300   0.420   5.663   2.866  0.4742  0.6630 -0.9668
 1629TIP3   OH226301   3.414   5.625  10.893  0.1126  0.1405  0.1777
 1629TIP3    H126302   3.412   5.697  10.830 -0.0274  0.3147  0.3811
 1629TIP3    H226303   3.464   5.556  10.848 -1.4874 -0.4127 -0.8303
 1630TIP3   OH226304   0.735   0.926   3.890 -0.2411  0.5690  0.5468
 1630TIP3    H126305   0.650   0.966   3.907 -1.4234 -0.4045 -2.4331
 1630TIP3    H226306   0.719   0.832   3.901  0.3096  0.3485 -0.4754
 1631TIP3   OH226307   5.242   6.522  16.061  0.0442  0.7517 -0.3316
 1631TIP3    H126308   5.242   6.613  16.030  2.2375  1.4741  1.5324
 1631TIP3    H226309   5.165   6.516  16.118  1.1684  2.2058  1.4252
 1632TIP3   OH226310   5.725   3.137   2.300  0.5179 -0.0269 -0.1876
 1632TIP3    H126311   5.784   3.208   2.325  2.2423 -1.3290 -0.3057
 1632TIP3    H226312   5.721   3.143   2.204 -2.7228  2.3919 -0.0497
 1633TIP3   OH226313   3.351   3.717  13.335  0.0797  0.6236 -0.5503
 1633TIP3    H126314   3.293   3.762  13.274  0.7856  3.5953  0.7954
 1633TIP3    H226315   3.312   3.731  13.421  0.2653 -1.5928 -0.0497
 1634TIP3   OH226316   1.342   1.558   3.997 -0.1156 -0.2967  0.2315
 1634TIP3    H126317   1.386   1.637   4.028 -1.4697 -0.1608  1.9010
 1634TIP3    H226318   1.411   1.510   3.950  1.5238  0.4194  1.7902
 1635TIP3   OH226319   0.970   4.779   2.657  0.4582 -0.6628 -0.6476
 1635TIP3    H126320   0.950   4.851   2.598 -1.0080 -0.4892  0.0126
 1635TIP3    H226321   1.011   4.712   2.602 -0.7357 -0.4485 -1.8406
 1636TIP3   OH226322   6.310   2.312   3.239  0.0585 -0.1550  0.0435
 1636TIP3    H126323   6.331   2.223   3.210  0.0124  0.2492 -1.3032
 1636TIP3    H226324   6.393   2.348   3.269  0.1235 -0.5568  0.3643
 1637TIP3   OH226325   6.465   2.245   2.917  0.4240 -0.1895  0.2795
 1637TIP3    H126326   6.413   2.291   2.852 -1.4843 -0.5320  1.4616
 1637TIP3    H226327   6.486   2.311   2.983  2.3114  0.1477 -0.5901
 1638TIP3   OH226328   6.581   2.736   2.209  0.3070 -0.4790  0.0942
 1638TIP3    H126329   6.664   2.706   2.172 -0.3898 -0.5326 -1.5008
 1638TIP3    H226330   6.547   2.660   2.255 -0.2291 -1.4071 -1.7565
 1639TIP3   OH226331   3.944   3.982   5.153 -0.2886  0.3997  0.3417
 1639TIP3    H126332   3.991   4.057   5.191 -2.3518  2.0346 -0.1489
 1639TIP3    H226333   3.965   3.909   5.211 -3.0889  2.6588  4.7300
 1640TIP3   OH226334   1.747   1.047   1.520 -0.0504  0.3435 -0.3472
 1640TIP3    H126335   1.752   0.965   1.470  1.5948 -0.3977  0.9425
 1640TIP3    H226336   1.838   1.078   1.523  0.4263 -0.8599  4.0495
 1641TIP3   OH226337   0.836   5.230   1.123  0.2466 -0.2172 -0.2354
 1641TIP3    H126338   0.779   5.176   1.068 -0.4222  1.3732 -1.1783
 1641TIP3    H226339   0.896   5.272   1.062  0.4709  0.4331  0.4134
 1642TIP3   OH226340   3.385   5.919  10.427  0.4460  0.9503  0.5275
 1642TIP3    H126341   3.407   5.979  10.356 -0.0998 -0.5288 -0.9405
 1642TIP3    H226342   3.305   5.956  10.466  0.7049  1.7311  0.3245
 1643TIP3   OH226343   6.277   0.644   2.582 -0.5556 -0.4791 -0.1353
 1643TIP3    H126344   6.325   0.582   2.528 -1.4768 -0.0014 -1.5740
 1643TIP3    H226345   6.197   0.598   2.606 -0.0098 -0.8031  1.1385
 1644TIP3   OH226346   3.774   4.193  14.368 -0.2599  0.5500  0.3611
 1644TIP3    H126347   3.725   4.248  14.430  0.8334  2.0466 -0.0203
 1644TIP3    H226348   3.864   4.193  14.403  0.7179  2.6101 -1.8602
 1645TIP3   OH226349   1.396   5.737  12.744  0.4875  0.0812 -0.0099
 1645TIP3    H126350   1.370   5.775  12.827 -2.3675  0.1783 -0.8503
 1645TIP3    H226351   1.397   5.811  12.683 -1.2391 -0.5019 -0.8148
 1646TIP3   OH226352   0.647   3.160   5.512 -0.1109  0.3058 -0.6182
 1646TIP3    H126353   0.595   3.181   5.435 -1.5803 -0.1588  0.2006
 1646TIP3    H226354   0.676   3.070   5.497 -3.2691 -1.0914  0.7847
 1647TIP3   OH226355   2.273   3.864  16.564 -0.3777  0.2604  0.5896
 1647TIP3    H126356   2.193   3.901  16.529  1.0084  0.5267 -2.6689
 1647TIP3    H226357   2.337   3.934  16.558  0.3211 -0.1355  2.5375
 1648TIP3   OH226358   3.929   3.581   2.542 -1.0168 -0.0738 -0.1322
 1648TIP3    H126359   4.021   3.584   2.569 -1.0939 -1.3712  0.3705
 1648TIP3    H226360   3.897   3.671   2.553  0.6496  0.8194 -2.0827
 1649TIP3   OH226361   3.827   5.977  16.980 -0.1013 -0.1702  0.3777
 1649TIP3    H126362   3.738   6.007  17.000 -0.7114 -1.8202  0.2854
 1649TIP3    H226363   3.879   6.006  17.055 -0.8566  0.1765  0.7823
 1650TIP3   OH226364   2.731   2.288   4.974  0.4073  0.0893 -0.5086
 1650TIP3    H126365   2.826   2.297   4.980  0.3418  0.2391  0.5727
 1650TIP3    H226366   2.717   2.196   4.952  0.7988  0.0597 -0.6519
 1651TIP3   OH226367   4.167   3.700   2.647 -0.0410 -0.6626 -0.1225
 1651TIP3    H126368   4.193   3.649   2.724 -2.0968 -1.7012 -0.0690
 1651TIP3    H226369   4.238   3.763   2.637  1.0332 -1.4640  1.7173
 1652TIP3   OH226370   4.005   5.106  13.746  0.1377  0.4630  0.2815
 1652TIP3    H126371   4.039   5.100  13.835 -0.2969  0.7498  0.4675
 1652TIP3    H226372   4.001   5.015  13.716  0.0749  0.3463  0.6343
 1653TIP3   OH226373   5.031   5.900  13.938 -0.1603  0.0522 -0.0778
 1653TIP3    H126374   5.075   5.818  13.915  1.1084  0.5588  0.4313
 1653TIP3    H226375   4.953   5.872  13.987  0.4416 -0.8530  0.4005
 1654TIP3   OH226376   2.600   4.357   1.585  0.5225  0.0772 -0.1409
 1654TIP3    H126377   2.625   4.409   1.662 -0.0187 -0.2049  0.2361
 1654TIP3    H226378   2.506   4.376   1.574  0.1498 -1.3540  0.4281
 1655TIP3   OH226379   3.479   4.320   0.231  0.2303  0.0378 -0.1527
 1655TIP3    H126380   3.425   4.265   0.287  0.8064 -1.0752 -0.6437
 1655TIP3    H226381   3.417   4.367   0.175 -0.3226  0.8238  1.0843
 1656TIP3   OH226382   6.341   2.229  14.974 -0.1025 -0.0977 -0.5732
 1656TIP3    H126383   6.370   2.270  15.055 -1.1560 -0.6640  0.1138
 1656TIP3    H226384   6.369   2.289  14.905  0.1747  0.7514  0.2650
 1657TIP3   OH226385   3.040   4.724  11.409  0.1440 -0.0337  0.2567
 1657TIP3    H126386   3.000   4.761  11.330 -0.4581 -0.1143  0.5193
 1657TIP3    H226387   3.124   4.691  11.380 -0.2000 -0.3316 -0.4197
 1658TIP3   OH226388   0.674   5.696  16.802 -0.2558 -0.6291  0.3062
 1658TIP3    H126389   0.657   5.613  16.758 -0.0895 -0.8518  0.6586
 1658TIP3    H226390   0.615   5.696  16.877  1.2737 -1.4237  1.5667
 1659TIP3   OH226391   0.295   0.576  10.946  0.3295 -0.1894 -0.2696
 1659TIP3    H126392   0.371   0.632  10.929  1.1944 -0.9899  0.8439
 1659TIP3    H226393   0.220   0.632  10.927  1.1758  0.6588 -1.2909
 1660TIP3   OH226394   0.050   3.279   5.225 -0.4893  0.5428 -0.5043
 1660TIP3    H126395   0.071   3.358   5.175  0.3289 -0.4653 -1.8069
 1660TIP3    H226396   0.134   3.235   5.238 -1.1489 -1.1488 -1.6133
 1661TIP3   OH226397   0.771   6.101   3.024  0.0654  0.6139  0.3251
 1661TIP3    H126398   0.857   6.118   2.984 -0.8285 -0.3269 -2.2505
 1661TIP3    H226399   0.717   6.175   2.997 -0.8559 -0.5874 -1.3549
 1662TIP3   OH226400   4.023   1.043  13.894 -0.6762  0.1329 -0.5650
 1662TIP3    H126401   3.953   1.012  13.951  0.0077 -0.6194 -0.1109
 1662TIP3    H226402   3.994   1.021  13.806 -1.0767 -0.0287 -0.3974
 1663TIP3   OH226403   1.078   0.489   0.095  0.0429 -0.0663  0.0797
 1663TIP3    H126404   1.003   0.430   0.091  0.5692 -0.8446  1.2123
 1663TIP3    H226405   1.153   0.435   0.069  0.3553  0.4413 -0.1025
 1664TIP3   OH226406   1.390   5.548   1.653  0.5877 -0.0736 -0.1059
 1664TIP3    H126407   1.437   5.611   1.599 -0.2405 -1.0868 -2.1205
 1664TIP3    H226408   1.407   5.463   1.611 -0.6106 -0.8375  0.8636
 1665TIP3   OH226409   1.351   1.295  16.781  0.1460  0.3698  0.1775
 1665TIP3    H126410   1.287   1.297  16.852 -0.8505  0.4748 -0.7049
 1665TIP3    H226411   1.436   1.297  16.825 -0.4519  1.3540  1.3344
 1666TIP3   OH226412   4.269   0.340  16.927 -0.4770 -0.4368  0.4994
 1666TIP3    H126413   4.273   0.276  16.998 -1.1386 -2.4472 -1.1403
 1666TIP3    H226414   4.347   0.394  16.938  0.0639 -1.4558  2.0389
 1667TIP3   OH226415   4.412   2.549  12.489  0.3195  0.9736  0.0037
 1667TIP3    H126416   4.426   2.633  12.534 -0.1712  1.3429 -0.5215
 1667TIP3    H226417   4.441   2.483  12.552 -1.2942  1.4241  1.2987
 1668TIP3   OH226418   2.973   0.702   5.956  0.1334  0.1557 -0.5673
 1668TIP3    H126419   2.911   0.635   5.927  1.2136 -1.2976  0.3111
 1668TIP3    H226420   3.058   0.669   5.928  0.8501  0.3885  1.2105
 1669TIP3   OH226421   2.507   6.521  14.615  0.6857 -0.0968  0.1428
 1669TIP3    H126422   2.588   6.531  14.664  0.0355  0.6273  1.1164
 1669TIP3    H226423   2.535   6.508  14.524  1.8773  0.1915  0.4529
 1670TIP3   OH226424   5.449   5.800   0.412  0.5248  0.2121  0.0014
 1670TIP3    H126425   5.513   5.799   0.341 -0.4609  0.4947 -0.9223
 1670TIP3    H226426   5.366   5.777   0.370 -0.2013  1.0174  0.9287
 1671TIP3   OH226427   6.431   2.573   4.710 -0.7947 -0.1172 -0.9371
 1671TIP3    H126428   6.501   2.619   4.664 -1.2708  1.5474 -0.0619
 1671TIP3    H226429   6.477   2.502   4.756  0.2878  0.7567 -0.6198
 1672TIP3   OH226430   1.464   3.231  15.897 -0.3714  0.7578 -0.2153
 1672TIP3    H126431   1.413   3.309  15.873 -3.0376 -1.1923 -1.3950
 1672TIP3    H226432   1.446   3.219  15.990 -2.0046  0.2222 -0.5650
 1673TIP3   OH226433   3.659   1.196  11.444  0.5357 -0.8900  0.7501
 1673TIP3    H126434   3.709   1.149  11.377  2.1767  1.1270  0.4503
 1673TIP3    H226435   3.724   1.216  11.512 -0.1141  0.8221  0.8965
 1674TIP3   OH226436   3.598   4.088  12.686  0.0519  0.0225  0.6178
 1674TIP3    H126437   3.572   4.142  12.761 -1.5641  0.5199 -0.2504
 1674TIP3    H226438   3.559   4.132  12.611  2.5227  0.1439 -0.7007
 1675TIP3   OH226439   5.973   1.833  16.727 -0.5367 -0.1793 -0.0819
 1675TIP3    H126440   5.897   1.775  16.726 -0.2272 -0.5989  0.5500
 1675TIP3    H226441   5.968   1.880  16.810 -0.2166 -0.0581 -0.1255
 1676TIP3   OH226442   6.583   4.836  15.631  0.2773  0.5084 -0.3789
 1676TIP3    H126443   6.500   4.873  15.662  0.3062  1.0430 -0.9236
 1676TIP3    H226444   6.614   4.899  15.566  1.0759  0.2715 -0.2325
 1677TIP3   OH226445   6.056   3.325  11.972  0.4540  0.0223  0.8359
 1677TIP3    H126446   6.041   3.309  12.065 -1.3776 -0.7271  0.4509
 1677TIP3    H226447   6.028   3.244  11.929  1.3324  0.3327 -0.3805
 1678TIP3   OH226448   3.320   6.045  16.904 -0.6571 -0.2024 -0.7261
 1678TIP3    H126449   3.310   6.053  16.999 -2.2663  2.7085 -1.0033
 1678TIP3    H226450   3.410   6.073  16.887 -0.7838  0.6286 -0.1167
 1679TIP3   OH226451   4.165   1.078  14.872  0.0746 -0.2731 -0.4833
 1679TIP3    H126452   4.160   1.053  14.964  2.9334  2.1185  0.4483
 1679TIP3    H226453   4.097   1.145  14.861  1.1798  1.0443  0.5227
 1680TIP3   OH226454   3.671   5.896   4.706  0.5696 -0.5523 -0.1646
 1680TIP3    H126455   3.659   5.819   4.762 -0.9341 -1.2781 -1.4142
 1680TIP3    H226456   3.638   5.969   4.758  2.7358 -0.5445  1.3471
 1681TIP3   OH226457   1.773   5.294  16.385 -0.6140 -0.1159  0.8756
 1681TIP3    H126458   1.749   5.355  16.316  0.2016  0.3965  1.0375
 1681TIP3    H226459   1.830   5.344  16.443  0.7415 -1.2482  0.5679
 1682TIP3   OH226460   2.200   4.545   5.411 -0.5658 -0.4091 -0.3789
 1682TIP3    H126461   2.291   4.575   5.410 -0.4482 -0.4635 -3.7579
 1682TIP3    H226462   2.150   4.620   5.443  0.4923  0.3122 -0.3582
 1683TIP3   OH226463   1.083   5.684  13.478 -0.2469 -0.5494 -0.0415
 1683TIP3    H126464   1.174   5.700  13.454  0.0250 -1.9317 -0.0269
 1683TIP3    H226465   1.039   5.767  13.462  0.6223 -0.3967 -1.9250
 1684TIP3   OH226466   1.992   5.792  12.215  0.2925  0.1738  0.4012
 1684TIP3    H126467   2.029   5.811  12.302 -0.0724 -2.0269  1.1023
 1684TIP3    H226468   2.024   5.863  12.160  0.4205  1.7267  2.3555
 1685TIP3   OH226469   5.529   5.389   5.333 -0.2939 -0.1124 -0.1333
 1685TIP3    H126470   5.582   5.336   5.273  0.6686  1.1871 -0.4808
 1685TIP3    H226471   5.450   5.411   5.283 -0.8478 -1.4443  0.1236
 1686TIP3   OH226472   1.345   3.176   4.625 -0.3857  0.1732  0.0223
 1686TIP3    H126473   1.357   3.084   4.601  0.0858  0.3173 -0.3270
 1686TIP3    H226474   1.251   3.191   4.620 -0.3214  0.2330 -1.9535
 1687TIP3   OH226475   5.791   5.266  11.524  0.5765 -0.2951 -0.3112
 1687TIP3    H126476   5.776   5.226  11.438  1.9792 -1.7267  0.0513
 1687TIP3    H226477   5.703   5.286  11.557 -0.3243 -3.6247 -0.3294
 1688TIP3   OH226478   3.322   4.750   6.223 -0.2973 -0.5527 -0.1604
 1688TIP3    H126479   3.251   4.690   6.243 -0.1142 -0.4306  0.9318
 1688TIP3    H226480   3.395   4.719   6.277 -0.0051  0.2556 -0.0781
 1689TIP3   OH226481   6.241   2.555   0.401 -0.6891  0.2859 -0.4425
 1689TIP3    H126482   6.185   2.572   0.325  0.1864 -1.0056 -1.4206
 1689TIP3    H226483   6.317   2.509   0.365 -0.2849 -0.4305  1.2272
 1690TIP3   OH226484   0.033   5.217   5.586  0.1804  0.6058  0.1903
 1690TIP3    H126485  -0.049   5.224   5.635 -0.8748  1.3911 -1.5853
 1690TIP3    H226486   0.069   5.305   5.587 -0.3013  0.8457 -1.1129
 1691TIP3   OH226487   4.530   6.296   5.599 -0.2324 -0.1104  0.1249
 1691TIP3    H126488   4.572   6.368   5.646 -0.4582  0.5403 -0.6380
 1691TIP3    H226489   4.590   6.222   5.609  0.8530  0.6519 -0.5037
 1692TIP3   OH226490   5.502   3.123   0.231 -0.0177 -0.0234 -0.6001
 1692TIP3    H126491   5.495   3.029   0.250 -2.1894  0.0776 -0.6095
 1692TIP3    H226492   5.499   3.128   0.135  1.5383 -0.0083 -0.6601
 1693TIP3   OH226493   1.915   6.666  15.694  0.5598  0.1108 -0.2755
 1693TIP3    H126494   1.946   6.602  15.759 -0.6443  1.0429  1.3075
 1693TIP3    H226495   1.971   6.742  15.708  0.8591  0.0175 -0.9543
 1694TIP3   OH226496   1.913   3.369   2.508  0.3669  0.1593 -0.4416
 1694TIP3    H126497   1.856   3.420   2.450  0.3649 -0.4636 -1.0068
 1694TIP3    H226498   1.854   3.311   2.556  0.4787 -0.2517 -0.7865
 1695TIP3   OH226499   5.306   0.756  12.855  0.2287  0.4270 -0.0787
 1695TIP3    H126500   5.340   0.667  12.859  1.4546  0.9244  1.9261
 1695TIP3    H226501   5.226   0.754  12.909  1.3755  0.9419  1.7170
 1696TIP3   OH226502   0.198   6.420   3.830 -0.3046  0.3763  0.0219
 1696TIP3    H126503   0.104   6.429   3.812 -0.5624  0.6388  1.3953
 1696TIP3    H226504   0.229   6.510   3.839  0.0858  0.2900 -0.4331
 1697TIP3   OH226505   6.190   4.981   2.859  0.1629  0.0854  0.2127
 1697TIP3    H126506   6.206   4.916   2.790 -2.9767 -1.1202  0.4559
 1697TIP3    H226507   6.175   5.063   2.812  0.1184 -0.2661 -0.3966
 1698TIP3   OH226508   6.220   6.380   4.447  0.0687 -0.3566  0.0152
 1698TIP3    H126509   6.266   6.369   4.364  1.5961 -1.6811  1.0024
 1698TIP3    H226510   6.128   6.366   4.425  0.6766 -3.2968 -1.0367
 1699TIP3   OH226511   0.429   2.067  14.249  0.8666 -0.5659 -0.0527
 1699TIP3    H126512   0.374   2.100  14.178 -1.7235 -2.8378  0.7206
 1699TIP3    H226513   0.491   2.008  14.207 -0.6000 -1.8325 -0.5260
 1700TIP3   OH226514   0.158   4.226   2.511 -0.1367  0.8119  0.0538
 1700TIP3    H126515   0.202   4.311   2.521  1.4014 -0.0888  1.5364
 1700TIP3    H226516   0.094   4.224   2.582 -1.3716  1.3734 -1.0006
 1701TIP3   OH226517   4.463   4.727   0.579 -0.1269 -0.1332  0.9838
 1701TIP3    H126518   4.543   4.680   0.601  0.5019  1.0554  1.3290
 1701TIP3    H226519   4.483   4.818   0.599 -0.4774  0.6705 -1.8746
 1702TIP3   OH226520   5.213   4.890  17.090  0.0324 -0.4770 -0.4264
 1702TIP3    H126521   5.176   4.959  17.035  0.2747 -0.0987 -0.1228
 1702TIP3    H226522   5.307   4.892  17.071  0.3823  0.7826  1.1963
 1703TIP3   OH226523   2.734   4.095   4.264 -0.5291 -0.1731 -0.2128
 1703TIP3    H126524   2.680   4.114   4.340 -2.7271  0.3452 -1.8045
 1703TIP3    H226525   2.766   4.181   4.235 -0.7621 -0.2121 -0.6005
 1704TIP3   OH226526   2.934   0.533   0.338 -0.1829  0.2644 -0.0779
 1704TIP3    H126527   2.904   0.573   0.255 -0.6365 -1.9246 -1.0326
 1704TIP3    H226528   2.882   0.577   0.405 -1.3734  0.6210 -1.1772
 1705TIP3   OH226529   3.634   3.852   0.929 -0.0461  0.7860  0.1290
 1705TIP3    H126530   3.664   3.930   0.976 -1.6498  0.5730  1.6235
 1705TIP3    H226531   3.649   3.780   0.991  1.1187 -0.0919 -1.1061
 1706TIP3   OH226532   2.240   3.365  16.373 -0.3815 -0.2592  0.1142
 1706TIP3    H126533   2.257   3.428  16.443 -1.7389 -1.4351  1.5667
 1706TIP3    H226534   2.156   3.325  16.396  0.4420 -2.6478 -0.6770
 1707TIP3   OH226535   4.946   3.823   2.799 -0.5952  0.0635  0.0090
 1707TIP3    H126536   5.012   3.841   2.865  0.9215 -0.7554 -1.2075
 1707TIP3    H226537   4.897   3.905   2.791  1.5273  1.3926 -0.3940
 1708TIP3   OH226538   5.081   0.765  11.996 -0.1923  0.0342  0.3914
 1708TIP3    H126539   5.126   0.832  12.046 -1.7183  0.6893  0.9455
 1708TIP3    H226540   5.000   0.749  12.044 -0.7359 -0.8212 -0.7518
 1709TIP3   OH226541   4.519   5.417  12.349  0.3129 -0.5033  0.3837
 1709TIP3    H126542   4.574   5.439  12.424  0.7568 -4.0347  1.2404
 1709TIP3    H226543   4.580   5.380  12.285 -0.5340 -0.6546 -0.3505
 1710TIP3   OH226544   0.533   1.954  16.597 -0.0130  0.0429  0.1304
 1710TIP3    H126545   0.533   1.881  16.660 -0.4600 -0.6926 -0.7021
 1710TIP3    H226546   0.507   1.914  16.514  1.2400  0.8566 -0.6967
 1711TIP3   OH226547   0.891   2.366  12.112 -0.2954 -0.2505 -0.0367
 1711TIP3    H126548   0.899   2.403  12.023 -0.7273 -0.2543 -0.0797
 1711TIP3    H226549   0.811   2.405  12.147  0.5942  0.8280  0.8727
 1712TIP3   OH226550   0.184   1.857  12.776  0.4356 -0.4856 -0.1875
 1712TIP3    H126551   0.252   1.844  12.843  1.1748  2.0889 -0.3441
 1712TIP3    H226552   0.186   1.951  12.757 -2.7180 -0.4149 -0.7251
 1713TIP3   OH226553   5.457   2.040  14.771 -0.0525  0.5301 -0.5070
 1713TIP3    H126554   5.478   1.970  14.708  2.3717  0.8221 -0.1106
 1713TIP3    H226555   5.472   2.121  14.722  3.3079  0.7980  0.7105
 1714TIP3   OH226556   2.795   4.445   4.665 -0.0674 -0.7947  0.0437
 1714TIP3    H126557   2.708   4.459   4.704 -0.6255 -0.6223 -1.2192
 1714TIP3    H226558   2.834   4.532   4.661 -0.8798 -0.4579 -1.7002
 1715TIP3   OH226559   4.923   1.875   3.649  0.3734 -0.2093 -0.2545
 1715TIP3    H126560   4.868   1.954   3.655  0.7630  0.1009 -0.6916
 1715TIP3    H226561   4.908   1.842   3.561 -0.2139 -0.9486  0.1136
 1716TIP3   OH226562   5.841   6.716  12.306 -0.2096 -0.8350 -0.2088
 1716TIP3    H126563   5.881   6.630  12.311 -1.6343 -1.5419 -0.4562
 1716TIP3    H226564   5.761   6.708  12.358 -0.2479  0.4117 -0.0345
 1717TIP3   OH226565   2.554   3.089   3.458 -0.2095  0.3581 -0.3532
 1717TIP3    H126566   2.594   3.025   3.517 -1.2578 -0.2120 -0.2421
 1717TIP3    H226567   2.540   3.167   3.513 -1.3154 -0.2178  0.2193
 1718TIP3   OH226568   3.097   0.135   5.458  0.5657  0.0600 -0.1082
 1718TIP3    H126569   3.185   0.097   5.467  0.1603 -0.9064 -0.1043
 1718TIP3    H226570   3.098   0.209   5.519  0.9389 -0.7780  0.9594
 1719TIP3   OH226571   2.055   0.313  10.606 -0.6541  0.4527 -0.9788
 1719TIP3    H126572   1.976   0.264  10.629 -0.8511  0.8249 -0.8510
 1719TIP3    H226573   2.101   0.257  10.543 -0.3163 -0.4041 -0.0019
 1720TIP3   OH226574   3.998   0.510  10.551 -0.1414 -0.7382  0.2585
 1720TIP3    H126575   3.974   0.430  10.597 -1.4966 -0.4968  0.0279
 1720TIP3    H226576   3.914   0.547  10.523  0.5421  0.1202 -0.7159
 1721TIP3   OH226577   2.657   4.972  16.188 -0.2944 -0.4792  0.2308
 1721TIP3    H126578   2.751   4.987  16.179 -0.6112  1.6971  0.0583
 1721TIP3    H226579   2.648   4.920  16.268  0.8950  1.7053  1.8676
 1722TIP3   OH226580   2.963   0.526   4.198  0.3318  0.0593  0.3558
 1722TIP3    H126581   3.028   0.594   4.182  0.5052 -0.3348 -0.6592
 1722TIP3    H226582   2.982   0.458   4.133 -1.6552  0.3352 -0.5964
 1723TIP3   OH226583   5.007   1.937  14.336 -0.1226  0.1109  0.4963
 1723TIP3    H126584   4.982   2.002  14.270  0.4864 -0.7704 -0.6438
 1723TIP3    H226585   5.046   1.989  14.407 -0.0808  1.0293 -0.1727
 1724TIP3   OH226586   6.121   2.460  11.997  0.0125  0.0605  0.4849
 1724TIP3    H126587   6.069   2.435  12.074  1.3748 -1.4912  0.9619
 1724TIP3    H226588   6.203   2.411  12.006  0.9615  1.2595 -1.0248
 1725TIP3   OH226589   0.803   5.329   3.057 -0.5500  0.4031 -0.0026
 1725TIP3    H126590   0.761   5.413   3.072 -0.6929  0.6417 -1.6179
 1725TIP3    H226591   0.806   5.319   2.962  1.0805 -0.6015  0.1056
 1726TIP3   OH226592   4.484   2.830   4.793 -0.0879 -0.1624 -0.1905
 1726TIP3    H126593   4.466   2.903   4.852  2.9937 -0.4178  1.2329
 1726TIP3    H226594   4.412   2.768   4.808 -0.7789  0.9527  1.2953
 1727TIP3   OH226595   3.218   6.510  16.361  0.0722 -0.2750  0.3613
 1727TIP3    H126596   3.143   6.454  16.339  0.3156 -1.1773  1.6579
 1727TIP3    H226597   3.221   6.575  16.291 -0.8228 -1.3001 -0.6784
 1728TIP3   OH226598   3.209   1.608  16.846  0.8080  0.6880 -0.1883
 1728TIP3    H126599   3.174   1.520  16.839 -0.1450  0.8924  1.5220
 1728TIP3    H226600   3.249   1.625  16.761 -1.6458 -0.2326 -1.6211
 1729TIP3   OH226601   1.331   3.961   3.162 -0.2862  0.0963 -0.3933
 1729TIP3    H126602   1.258   3.908   3.128 -0.0869 -0.2111 -0.3394
 1729TIP3    H226603   1.407   3.934   3.111 -0.2662  0.6428 -0.6661
 1730TIP3   OH226604   5.085   3.531   0.099 -1.1380 -0.0561  0.1961
 1730TIP3    H126605   5.006   3.487   0.130 -0.4203 -1.9655 -0.5297
 1730TIP3    H226606   5.133   3.553   0.179 -2.2729  0.9213  0.6278
 1731TIP3   OH226607   4.127   3.016  16.469  0.0622  0.0358  0.3578
 1731TIP3    H126608   4.134   2.922  16.486  0.7586  0.0274  0.0679
 1731TIP3    H226609   4.048   3.043  16.516  0.8241 -0.3602  1.9458
 1732TIP3   OH226610   5.093   2.452   5.399 -0.8277 -0.1313 -0.3864
 1732TIP3    H126611   5.094   2.544   5.374  0.7517 -0.1664 -0.5609
 1732TIP3    H226612   5.024   2.413   5.346 -1.8286  1.0323  0.0292
 1733TIP3   OH226613   3.209   2.544   0.411 -0.1849  0.1766  0.4245
 1733TIP3    H126614   3.292   2.544   0.362 -1.5190 -1.4019 -2.0506
 1733TIP3    H226615   3.172   2.630   0.395 -0.3152 -0.1064 -0.9709
 1734TIP3   OH226616   5.198   5.956  17.243  0.1040 -0.8394  0.1111
 1734TIP3    H126617   5.161   5.996  17.322  1.0010 -0.8102  0.5311
 1734TIP3    H226618   5.155   5.870  17.238 -1.8782  0.1340 -0.8303
 1735TIP3   OH226619   3.047   4.828   5.057  0.2146  0.2063 -0.1381
 1735TIP3    H126620   3.019   4.907   5.103  1.1797  1.4436 -1.5703
 1735TIP3    H226621   3.138   4.815   5.084 -0.2480 -1.0865  0.9209
 1736TIP3   OH226622   1.477   0.861   1.826  0.2652  0.1107 -0.0414
 1736TIP3    H126623   1.555   0.909   1.854  0.2063  0.8146 -1.0027
 1736TIP3    H226624   1.429   0.924   1.772 -0.1913 -0.8024 -0.7270
 1737TIP3   OH226625   3.744   3.155   0.332 -0.2027  0.2168  1.0163
 1737TIP3    H126626   3.763   3.225   0.270  0.9011 -0.9900 -0.0899
 1737TIP3    H226627   3.660   3.179   0.372 -2.9536 -0.6578 -3.5637
 1738TIP3   OH226628   5.464   0.001  15.749  0.1399 -0.0859  0.1657
 1738TIP3    H126629   5.533  -0.041  15.697  0.3189  0.5370 -0.1089
 1738TIP3    H226630   5.427   0.067  15.690 -0.9529 -0.6756  0.1793
 1739TIP3   OH226631   3.225   4.477  11.693  0.2364 -0.4952  0.7225
 1739TIP3    H126632   3.195   4.534  11.765 -0.5007  0.2531 -0.1498
 1739TIP3    H226633   3.288   4.531  11.646 -1.9517  0.4713 -1.3272
 1740TIP3   OH226634   6.701   3.071   4.411  0.0615  0.1302 -0.5450
 1740TIP3    H126635   6.701   2.988   4.362  0.4242 -1.0058  1.2698
 1740TIP3    H226636   6.786   3.111   4.391  0.9810 -1.1943  0.4681
 1741TIP3   OH226637   4.302   6.787  15.624 -0.4781 -0.9447  0.1501
 1741TIP3    H126638   4.208   6.791  15.606  0.0589 -0.6498 -3.1722
 1741TIP3    H226639   4.326   6.876  15.648 -0.8222 -0.6893 -0.4384
 1742TIP3   OH226640   0.512   3.899   2.214 -0.6605 -0.2904 -0.2163
 1742TIP3    H126641   0.582   3.872   2.273 -0.2463 -0.3031 -0.7113
 1742TIP3    H226642   0.495   3.990   2.236 -2.2956 -0.9755  1.7039
 1743TIP3   OH226643   6.737   0.879   0.525  0.4532  0.4071 -0.0193
 1743TIP3    H126644   6.814   0.870   0.581  0.8766  1.9119 -0.3330
 1743TIP3    H226645   6.753   0.957   0.473 -1.4402  0.9696  0.1482
 1744TIP3   OH226646   0.462   0.483  14.424 -0.0763  0.1113 -0.8792
 1744TIP3    H126647   0.429   0.533  14.349 -0.4379 -0.5112 -1.1411
 1744TIP3    H226648   0.419   0.521  14.500  0.1340  0.6125 -1.0089
 1745TIP3   OH226649   4.552   5.159  12.537 -0.0435  0.0112  0.2409
 1745TIP3    H126650   4.628   5.155  12.479 -0.8215  0.8201 -0.8918
 1745TIP3    H226651   4.477   5.140  12.480 -0.7804  0.2289  1.1058
 1746TIP3   OH226652   5.242   3.376   4.777  0.2760  0.4946 -0.1938
 1746TIP3    H126653   5.323   3.332   4.802  0.1487  0.3017 -0.1223
 1746TIP3    H226654   5.260   3.469   4.792 -0.1469  0.3245  1.6254
 1747TIP3   OH226655   4.924   0.479   5.753  0.0330  0.2012 -0.0795
 1747TIP3    H126656   4.938   0.405   5.811  0.9338  0.7886  0.4798
 1747TIP3    H226657   4.925   0.442   5.665 -0.0328 -0.5117  0.2155
 1748TIP3   OH226658   4.003   1.568   2.881 -0.5625 -0.5126 -0.3641
 1748TIP3    H126659   3.965   1.623   2.950  0.8782 -0.8166  0.7123
 1748TIP3    H226660   3.947   1.490   2.880 -2.5883  0.8480 -1.8703
 1749TIP3   OH226661   3.139   5.641   0.490 -0.1291  0.3861  0.4136
 1749TIP3    H126662   3.075   5.694   0.539 -1.4153 -1.3633  0.7503
 1749TIP3    H226663   3.124   5.665   0.398 -1.4771 -0.1444  0.4627
 1750TIP3   OH226664   0.086   6.409  13.426  0.4472  0.3292  0.3153
 1750TIP3    H126665   0.099   6.326  13.472  0.6069 -0.1422 -0.5460
 1750TIP3    H226666   0.021   6.456  13.478 -1.5701 -1.3980 -0.4646
 1751TIP3   OH226667   2.674   3.471   3.878  0.1666  0.1356 -0.2179
 1751TIP3    H126668   2.696   3.388   3.834  0.7945 -0.1438  0.5845
 1751TIP3    H226669   2.750   3.527   3.863  1.0033 -0.4240  1.5778
 1752TIP3   OH226670   5.881   1.850  10.792  0.2611 -0.6898  0.2281
 1752TIP3    H126671   5.794   1.829  10.825  0.0912  0.5623  0.6445
 1752TIP3    H226672   5.874   1.942  10.765  1.0102 -1.0263 -1.2401
 1753TIP3   OH226673   1.470   1.824  15.668 -0.2459  0.3549  0.1023
 1753TIP3    H126674   1.462   1.730  15.685 -0.4346  0.2679 -0.4546
 1753TIP3    H226675   1.558   1.835  15.632  0.4833  0.6593  1.8664
 1754TIP3   OH226676   5.755   4.215   3.028  0.3588 -0.1673  0.1191
 1754TIP3    H126677   5.717   4.134   2.994 -0.9195  0.9084 -1.1633
 1754TIP3    H226678   5.836   4.188   3.071  0.8144 -1.9507 -1.7139
 1755TIP3   OH226679   3.388   3.825   3.075 -0.0562 -0.1119  0.0969
 1755TIP3    H126680   3.415   3.887   3.143 -0.6646 -0.9329  1.1220
 1755TIP3    H226681   3.462   3.822   3.014  1.3914 -0.8569  1.8000
 1756TIP3   OH226682   3.368   4.084   4.469 -0.2801  0.3277 -0.7161
 1756TIP3    H126683   3.285   4.080   4.516 -0.3458  1.1048 -0.7577
 1756TIP3    H226684   3.344   4.076   4.377 -0.1489 -1.2239 -0.6460
 1757TIP3   OH226685   4.734   4.598   1.803 -0.1923  0.5717  0.1651
 1757TIP3    H126686   4.675   4.523   1.802  1.0166 -0.4322 -1.5208
 1757TIP3    H226687   4.817   4.564   1.835 -0.0296  1.5534  0.8400
 1758TIP3   OH226688   2.081   4.496   6.023  0.1655  0.2857  0.3512
 1758TIP3    H126689   2.121   4.557   5.961 -0.9055 -0.4666 -1.1484
 1758TIP3    H226690   2.020   4.445   5.970  0.7597 -1.8610  1.6077
 1759TIP3   OH226691   4.196   5.819   3.359 -0.1718 -0.0025  0.3600
 1759TIP3    H126692   4.185   5.784   3.447 -0.9829 -0.0721  0.2327
 1759TIP3    H226693   4.254   5.756   3.316  1.7251  0.9565  1.3653
 1760TIP3   OH226694   1.408   0.990  15.873  0.1512 -0.4107 -0.6455
 1760TIP3    H126695   1.356   0.977  15.953 -0.6648  1.8492 -0.7364
 1760TIP3    H226696   1.496   0.963  15.897  0.0762  0.8431  1.2923
 1761TIP3   OH226697   5.390   3.352  15.198 -0.0085  0.1515 -0.4985
 1761TIP3    H126698   5.312   3.325  15.247  0.1038  2.1599  0.9105
 1761TIP3    H226699   5.355   3.393  15.118 -0.3194 -0.3867 -0.6434
 1762TIP3   OH226700   5.394   1.753  14.625 -0.0371  0.1823  0.2544
 1762TIP3    H126701   5.420   1.666  14.596  0.7133  0.5272 -0.1400
 1762TIP3    H226702   5.444   1.768  14.705  0.0278  0.3460  0.1843
 1763TIP3   OH226703   3.264   6.526   0.590 -0.0065  0.6673  0.0757
 1763TIP3    H126704   3.222   6.612   0.591  0.4862  0.9180 -0.2769
 1763TIP3    H226705   3.253   6.496   0.500  0.8986  0.9080 -0.1252
 1764TIP3   OH226706   0.881   1.998  11.519 -0.2152 -0.2869  0.1512
 1764TIP3    H126707   0.847   1.997  11.430 -0.0074 -0.5313  0.0721
 1764TIP3    H226708   0.825   2.059  11.566 -1.5122 -1.5441  0.3045
 1765TIP3   OH226709   5.455   0.123  13.404  0.4941 -0.8686  0.2869
 1765TIP3    H126710   5.428   0.191  13.342  2.6484 -0.4203 -0.2338
 1765TIP3    H226711   5.405   0.142  13.483  1.7136  2.0097  0.4906
 1766TIP3   OH226712   2.230   3.762   4.075 -0.5307  0.2836  0.8663
 1766TIP3    H126713   2.321   3.776   4.051 -1.3826  2.8633 -1.3746
 1766TIP3    H226714   2.224   3.793   4.165  0.8849 -0.6024  1.3084
 1767TIP3   OH226715   1.785   2.110  16.552 -0.2123 -0.4888 -0.0426
 1767TIP3    H126716   1.800   2.203  16.540 -0.8481 -0.6075 -2.0971
 1767TIP3    H226717   1.752   2.102  16.641 -0.8119  1.3407 -0.0695
 1768TIP3   OH226718   1.795   5.509   4.317 -0.7056  0.6826  0.3866
 1768TIP3    H126719   1.745   5.472   4.390  0.2289 -2.3001 -0.3183
 1768TIP3    H226720   1.750   5.477   4.239  0.5819  0.4304 -0.2770
 1769TIP3   OH226721   1.729   0.559  11.789 -0.0801  0.3168 -0.1832
 1769TIP3    H126722   1.735   0.464  11.798  1.5655  0.5244  1.4875
 1769TIP3    H226723   1.660   0.572  11.724 -0.3260 -2.0044 -0.4914
 1770TIP3   OH226724   6.371   0.847   3.854 -0.3866 -0.2908 -0.2513
 1770TIP3    H126725   6.459   0.870   3.884 -0.4486  0.5820 -0.7050
 1770TIP3    H226726   6.381   0.762   3.811  0.8367  1.0645 -2.8880
 1771TIP3   OH226727   5.062   5.370   5.809 -0.1170 -0.5326 -0.6788
 1771TIP3    H126728   5.105   5.291   5.840  0.2913 -0.7122 -1.6611
 1771TIP3    H226729   5.098   5.385   5.722  1.5426  2.0561  0.3427
 1772TIP3   OH226730   4.668   5.647   4.325  0.4491 -0.2386  0.3003
 1772TIP3    H126731   4.578   5.646   4.356  0.1917  0.0722 -0.4165
 1772TIP3    H226732   4.688   5.555   4.307  0.3792 -0.3421  0.7253
 1773TIP3   OH226733   5.150   5.314  15.604 -0.2829 -0.1061 -0.1678
 1773TIP3    H126734   5.151   5.282  15.514 -1.8259  1.0267 -0.6423
 1773TIP3    H226735   5.129   5.407  15.597  2.5494  0.7405  1.2423
 1774TIP3   OH226736   5.651   3.176   2.799 -0.2447  0.3960  0.6893
 1774TIP3    H126737   5.577   3.123   2.828 -0.0838 -0.2848 -0.0925
 1774TIP3    H226738   5.648   3.171   2.704  0.9556  0.1342  0.6480
 1775TIP3   OH226739   3.834   5.874  11.511  0.2798  0.6418 -0.1363
 1775TIP3    H126740   3.754   5.922  11.533 -0.7378 -0.9107 -0.2796
 1775TIP3    H226741   3.883   5.933  11.453 -0.4182  1.8951  0.5199
 1776TIP3   OH226742   1.652   2.232  13.644  0.0066 -0.1148  0.4052
 1776TIP3    H126743   1.569   2.274  13.622 -0.7395 -0.2648  2.6396
 1776TIP3    H226744   1.707   2.243  13.566 -2.5819 -1.3572 -1.7601
 1777TIP3   OH226745   4.495   5.727  13.101 -0.0362  0.6864 -0.0983
 1777TIP3    H126746   4.433   5.791  13.066 -0.2029  0.6603  0.1449
 1777TIP3    H226747   4.445   5.678  13.167 -0.6985 -1.4560 -2.0659
 1778TIP3   OH226748   6.744   5.350   2.412 -0.1992  0.2309 -0.1967
 1778TIP3    H126749   6.668   5.407   2.412 -0.9436 -0.7432 -0.0584
 1778TIP3    H226750   6.709   5.262   2.420  0.8819 -0.3156 -1.1566
 1779TIP3   OH226751   0.956   5.425  14.382  0.2649 -0.3175  0.0888
 1779TIP3    H126752   0.874   5.389  14.414  1.3130 -0.9123  2.3085
 1779TIP3    H226753   0.959   5.514  14.417 -0.4199  0.5959 -1.9502
 1780TIP3   OH226754   0.091   5.965   0.120 -0.1791 -0.2734 -0.3396
 1780TIP3    H126755   0.011   6.002   0.157  0.3623  0.0545  0.5662
 1780TIP3    H226756   0.088   5.987   0.027 -1.0447 -0.0983 -0.2711
 1781TIP3   OH226757   0.157   0.123  12.550  0.0534 -0.0909 -0.7534
 1781TIP3    H126758   0.183   0.127  12.458 -0.5610 -0.4916 -0.9499
 1781TIP3    H226759   0.061   0.121  12.548 -0.0069 -3.3613 -0.2790
 1782TIP3   OH226760   2.344   5.430   3.535  0.4855 -0.0060  0.2724
 1782TIP3    H126761   2.359   5.510   3.585  0.0463  0.7347 -0.7374
 1782TIP3    H226762   2.350   5.360   3.599  0.7366  0.8454  1.2070
 1783TIP3   OH226763   6.642   1.569   2.502 -0.2064  0.5219  0.4406
 1783TIP3    H126764   6.690   1.535   2.426  1.4291 -1.0589  2.0735
 1783TIP3    H226765   6.698   1.639   2.536  0.9273 -1.1311  2.1802
 1784TIP3   OH226766   0.437   1.988  13.685  0.2005 -0.1366 -0.0435
 1784TIP3    H126767   0.341   1.997  13.678  0.1829 -0.1209  0.2264
 1784TIP3    H226768   0.462   1.940  13.606 -0.2099 -1.4707  0.6022
 1785TIP3   OH226769   2.691   0.362   3.504 -0.4097 -1.1160 -0.1836
 1785TIP3    H126770   2.664   0.298   3.571  0.5189 -0.8794  0.4473
 1785TIP3    H226771   2.777   0.391   3.534 -0.9360  0.6537 -0.3061
 1786TIP3   OH226772   3.996   6.561   3.804 -0.1879  0.1966  0.8495
 1786TIP3    H126773   4.022   6.643   3.846  2.7763 -0.6035  0.8106
 1786TIP3    H226774   4.073   6.504   3.814 -0.5781 -1.1741 -2.6857
 1787TIP3   OH226775   5.112   5.651  12.915 -0.2014 -0.3449  0.2443
 1787TIP3    H126776   5.085   5.560  12.906  0.9340 -0.7526  0.8642
 1787TIP3    H226777   5.061   5.697  12.848  0.0450 -1.6005 -0.8555
 1788TIP3   OH226778   5.703   5.325   2.056  0.1627 -0.2392 -0.1284
 1788TIP3    H126779   5.680   5.330   1.963 -0.6512  0.5341  0.0960
 1788TIP3    H226780   5.756   5.403   2.071 -0.9300  0.4279  0.3638
 1789TIP3   OH226781   4.813   3.905  14.072 -0.5420 -0.5763  0.3790
 1789TIP3    H126782   4.896   3.876  14.033  0.4366  0.2359  1.7592
 1789TIP3    H226783   4.796   3.991  14.032 -1.8992 -1.6413 -1.5056
 1790TIP3   OH226784   2.032   5.208  13.480 -0.2606 -0.2526  0.4417
 1790TIP3    H126785   2.080   5.126  13.469 -0.2288 -0.1221 -0.5451
 1790TIP3    H226786   1.966   5.206  13.410 -0.2992  0.5361  0.4517
 1791TIP3   OH226787   3.739   2.060  16.652  0.6853 -0.0628  0.0588
 1791TIP3    H126788   3.680   2.126  16.687  1.1277  1.1599 -1.4063
 1791TIP3    H226789   3.738   1.989  16.717 -0.7161  0.8578  1.0762
 1792TIP3   OH226790   3.789   6.588  11.486 -0.0467  0.0902  0.2586
 1792TIP3    H126791   3.821   6.673  11.515  0.6387  0.5768 -1.7660
 1792TIP3    H226792   3.850   6.562  11.417 -1.5529 -0.9809 -0.7181
 1793TIP3   OH226793   2.467   3.859   5.884 -0.3178  0.5128  0.7495
 1793TIP3    H126794   2.489   3.832   5.795  0.0594  0.3048  0.9019
 1793TIP3    H226795   2.546   3.902   5.917 -1.3661  3.1572  0.0169
 1794TIP3   OH226796   0.895   5.346  12.112 -0.8378  0.0691 -0.1303
 1794TIP3    H126797   0.820   5.405  12.102 -0.2304  0.7585 -0.7424
 1794TIP3    H226798   0.906   5.338  12.207 -1.9575 -0.4113 -0.0213
 1795TIP3   OH226799   0.127   4.394  11.563 -0.1758 -0.0712 -0.0546
 1795TIP3    H126800   0.106   4.415  11.472  1.8615 -1.5464 -0.9550
 1795TIP3    H226801   0.204   4.338  11.557 -0.1882 -0.4946  2.5931
 1796TIP3   OH226802   2.390   1.259   3.991 -0.1815  1.0475  0.2904
 1796TIP3    H126803   2.383   1.173   4.034 -1.2194  0.6846 -0.5603
 1796TIP3    H226804   2.475   1.292   4.019 -0.4512  0.4608  1.9343
 1797TIP3   OH226805   3.322   1.223   5.938 -0.1004 -0.1758  0.2512
 1797TIP3    H126806   3.382   1.194   5.870  1.6531  0.8934  1.2667
 1797TIP3    H226807   3.279   1.300   5.902  0.6549  0.2528  0.2535
 1798TIP3   OH226808   5.172   2.730  12.057  0.4581 -0.0945 -0.4597
 1798TIP3    H126809   5.105   2.713  11.991  0.4531 -2.0413  0.0123
 1798TIP3    H226810   5.232   2.656  12.050  1.3652  0.5115  0.6238
 1799TIP3   OH226811   3.911   3.599  14.110  0.2936 -0.0111  0.2167
 1799TIP3    H126812   3.908   3.577  14.017 -0.1663  0.0246  0.2210
 1799TIP3    H226813   4.005   3.599  14.131  0.3565 -1.2192  0.0427
 1800TIP3   OH226814   1.959   4.377  11.724 -0.1569 -0.1154  0.0769
 1800TIP3    H126815   1.892   4.380  11.792 -0.5376 -0.9737 -0.2473
 1800TIP3    H226816   2.031   4.327  11.763 -0.3906 -0.6405 -0.1594
 1801TIP3   OH226817   4.700   5.776   2.371  0.2134  0.0617 -0.4708
 1801TIP3    H126818   4.789   5.788   2.340  0.8861  3.4068  2.2100
 1801TIP3    H226819   4.709   5.735   2.457 -0.9684 -0.7514 -0.7038
 1802TIP3   OH226820   0.175   3.018   1.060  0.2122  0.6552  0.4626
 1802TIP3    H126821   0.223   2.999   1.141  0.2648  0.3902  0.3720
 1802TIP3    H226822   0.214   3.098   1.027  1.2215 -0.0463 -0.0927
 1803TIP3   OH226823   2.833   5.873   2.427 -0.2185 -0.2984 -0.5717
 1803TIP3    H126824   2.928   5.871   2.420 -0.0485  3.5624 -1.3196
 1803TIP3    H226825   2.802   5.838   2.343  0.4742 -1.4889 -0.3596
 1804TIP3   OH226826   3.938   4.222  14.116 -0.3498 -0.3622  0.4206
 1804TIP3    H126827   3.962   4.246  14.205 -0.0601 -1.4310  0.6353
 1804TIP3    H226828   3.914   4.130  14.121  0.3150 -0.6145 -0.7266
 1805TIP3   OH226829   2.211   2.514   3.351 -0.5448  0.7909  0.0689
 1805TIP3    H126830   2.163   2.488   3.430  0.4956 -1.4918  0.0299
 1805TIP3    H226831   2.145   2.514   3.282 -1.2715  1.8519  0.7279
 1806TIP3   OH226832   4.720   1.050  14.498  0.2347  0.4598  0.2420
 1806TIP3    H126833   4.673   1.050  14.582 -0.2014  0.3649  0.0013
 1806TIP3    H226834   4.747   0.959  14.485  0.5464  0.5254  0.4095
 1807TIP3   OH226835   4.790   0.581   6.102 -0.4583  0.2009  0.4153
 1807TIP3    H126836   4.880   0.611   6.096 -0.0578 -0.9771  0.4271
 1807TIP3    H226837   4.785   0.534   6.185 -0.3537 -2.0198 -0.7665
 1808TIP3   OH226838   4.565   3.271   0.084  0.6444  0.1555 -0.6314
 1808TIP3    H126839   4.589   3.363   0.101  0.4780  0.0763  0.0454
 1808TIP3    H226840   4.481   3.276   0.038 -0.6672  0.2904  1.6454
 1809TIP3   OH226841   4.228   1.333   4.505 -0.1085  0.1031 -0.3006
 1809TIP3    H126842   4.244   1.365   4.416 -1.1659 -1.6339 -1.1688
 1809TIP3    H226843   4.213   1.239   4.495 -1.8951  0.1208  1.4911
 1810TIP3   OH226844   5.861   0.675  12.041 -0.9809 -0.6237  0.3883
 1810TIP3    H126845   5.826   0.716  12.120 -2.4521 -1.0426 -0.0162
 1810TIP3    H226846   5.851   0.741  11.973  0.3374 -0.2428  0.5320
 1811TIP3   OH226847   2.630   6.688   5.691 -0.8224  0.6866  0.0557
 1811TIP3    H126848   2.720   6.717   5.678 -0.3810  0.1413  1.6950
 1811TIP3    H226849   2.581   6.768   5.711 -0.3472  0.7862  0.8711
 1812TIP3   OH226850   3.419   5.528  13.647 -0.2353  0.3881  0.2233
 1812TIP3    H126851   3.488   5.487  13.595 -0.0608 -0.4241  1.0627
 1812TIP3    H226852   3.345   5.537  13.587  0.1676  0.0490 -0.3278
 1813TIP3   OH226853   4.335   2.191   4.506  0.0912  0.1373 -0.1856
 1813TIP3    H126854   4.240   2.203   4.512 -0.0217 -0.9846  0.7099
 1813TIP3    H226855   4.346   2.112   4.453  0.3369 -1.6607  2.3271
 1814TIP3   OH226856   0.987   6.462  13.859 -0.3564  0.5285 -0.1084
 1814TIP3    H126857   1.005   6.551  13.891  0.8014  0.0136  0.7757
 1814TIP3    H226858   0.977   6.472  13.765  1.2549  1.4108 -0.2290
 1815TIP3   OH226859   0.573   0.754  15.742  0.0822  0.3752 -0.1589
 1815TIP3    H126860   0.511   0.824  15.762  2.7764  2.5868  1.1445
 1815TIP3    H226861   0.619   0.784  15.663  0.5002 -0.4947 -0.2613
 1816TIP3   OH226862   4.064   1.182   3.534  0.4197  0.0080 -0.0183
 1816TIP3    H126863   4.014   1.198   3.454  0.6639  0.6047 -0.0580
 1816TIP3    H226864   4.040   1.254   3.592 -1.0930 -1.3429  1.1248
 1817TIP3   OH226865   0.607   2.045  17.190  0.2518 -0.4728 -0.1947
 1817TIP3    H126866   0.532   2.095  17.222  0.8652 -0.2412  0.8976
 1817TIP3    H226867   0.684   2.091  17.222  0.8921 -0.6247 -1.4236
 1818TIP3   OH226868   6.593   3.498   4.940 -0.1905  0.3048  0.4297
 1818TIP3    H126869   6.549   3.486   4.855  1.1842 -1.9363 -0.0567
 1818TIP3    H226870   6.681   3.529   4.917  0.3100 -0.6647  0.9715
 1819TIP3   OH226871   1.251   4.799  14.006 -0.7019  0.4382 -0.0622
 1819TIP3    H126872   1.304   4.730  14.047 -1.4521  1.2812  2.5508
 1819TIP3    H226873   1.202   4.755  13.937  0.3712 -1.1949  0.1712
 1820TIP3   OH226874   6.266   5.881   3.009  0.5563  0.4325 -0.0342
 1820TIP3    H126875   6.300   5.868   2.920 -1.6501  1.1888 -1.0871
 1820TIP3    H226876   6.285   5.972   3.029 -0.2937  0.7000 -0.3975
 1821TIP3   OH226877   0.735   3.571  11.133  0.2351 -0.0370  0.2650
 1821TIP3    H126878   0.741   3.636  11.062 -0.5016  1.2934  1.3656
 1821TIP3    H226879   0.823   3.569  11.171  0.2801  0.2738  0.1806
 1822TIP3   OH226880   4.180   1.705  16.612  0.8631 -0.0191  0.1965
 1822TIP3    H126881   4.100   1.684  16.565  0.7936 -0.9346  0.7023
 1822TIP3    H226882   4.175   1.799  16.628  0.2985  0.0793 -0.5107
 1823TIP3   OH226883   5.872   1.700   2.321 -0.1475 -0.1628  0.1315
 1823TIP3    H126884   5.781   1.726   2.310  0.4631  0.9110 -3.8100
 1823TIP3    H226885   5.922   1.781   2.316  1.1274 -0.9221 -0.0786
 1824TIP3   OH226886   6.206   3.764  14.969  0.6148  0.2783 -0.5936
 1824TIP3    H126887   6.204   3.857  14.992  0.3738  0.3906 -1.0520
 1824TIP3    H226888   6.176   3.761  14.878  0.0636 -0.3045 -0.4017
 1825TIP3   OH226889   1.390   2.020   6.498 -0.0333  0.1552  0.0490
 1825TIP3    H126890   1.465   1.980   6.542  0.4345  1.7682  0.8023
 1825TIP3    H226891   1.353   1.950   6.445  0.3503 -1.4301  1.7778
 1826TIP3   OH226892   3.484   0.572  11.634  0.2665  0.2622 -0.0958
 1826TIP3    H126893   3.530   0.493  11.662  1.4784  1.9518  3.0892
 1826TIP3    H226894   3.392   0.546  11.630  0.7659 -1.5890 -0.3893
 1827TIP3   OH226895   6.273   3.277   1.828 -0.3010  0.4737  0.5642
 1827TIP3    H126896   6.291   3.340   1.758  1.4696  0.5293  1.0214
 1827TIP3    H226897   6.194   3.231   1.800 -0.2407  1.2362 -0.9415
 1828TIP3   OH226898   5.990   5.065   1.742 -0.5706 -0.3172 -0.0374
 1828TIP3    H126899   5.958   5.049   1.830 -1.0903 -1.1711 -0.3661
 1828TIP3    H226900   6.053   4.995   1.725  0.4682  0.5638  0.1001
 1829TIP3   OH226901   4.891   4.450   4.756 -0.7385  0.2662  0.5894
 1829TIP3    H126902   4.802   4.436   4.787 -2.3568 -0.3703 -3.6196
 1829TIP3    H226903   4.915   4.366   4.716  1.1036  0.9533  0.1753
 1830TIP3   OH226904   0.800   3.352   2.325  0.4048 -0.5028 -0.3138
 1830TIP3    H126905   0.711   3.354   2.362  0.5271  0.8837 -0.0354
 1830TIP3    H226906   0.791   3.304   2.243 -0.5596 -0.5779 -0.1764
 1831TIP3   OH226907   5.152   3.018  14.751  0.2543 -0.6708  0.3570
 1831TIP3    H126908   5.213   3.089  14.771 -0.6593  0.0911  0.5029
 1831TIP3    H226909   5.205   2.939  14.756  1.5762  0.0663 -0.9455
 1832TIP3   OH226910   6.241   2.425   2.052 -0.7899  0.0532 -0.4708
 1832TIP3    H126911   6.172   2.367   2.019  0.6722 -1.3291 -1.2592
 1832TIP3    H226912   6.214   2.446   2.141 -1.2012 -2.1951  0.0078
 1833TIP3   OH226913   0.548   6.726   2.502 -0.0841  0.4155 -0.4235
 1833TIP3    H126914   0.541   6.736   2.407 -0.7442 -1.4943 -0.6058
 1833TIP3    H226915   0.642   6.714   2.517  0.3180  2.7801 -0.5418
 1834TIP3   OH226916   2.958   6.723   0.244 -0.2081 -1.0324  0.3443
 1834TIP3    H126917   2.902   6.645   0.242 -3.2956  0.9915  0.6120
 1834TIP3    H226918   2.964   6.745   0.337  0.8790 -1.0872  0.2925
 1835TIP3   OH226919   2.852   2.518  15.310 -0.2370  0.1231 -0.4756
 1835TIP3    H126920   2.821   2.468  15.386 -1.9558 -1.1955 -1.9333
 1835TIP3    H226921   2.936   2.478  15.288 -1.0015 -1.3924 -0.8477
 1836TIP3   OH226922   2.397   2.777  16.841 -0.4737 -0.4564 -0.0808
 1836TIP3    H126923   2.404   2.873  16.840 -3.4210 -0.1558  0.0010
 1836TIP3    H226924   2.395   2.754  16.934 -1.9343 -0.3414 -0.0663
 1837TIP3   OH226925   2.930   6.559   1.723  0.0806 -0.4490  0.1103
 1837TIP3    H126926   2.857   6.621   1.721 -0.8019 -1.4750 -0.5931
 1837TIP3    H226927   3.003   6.610   1.759 -1.0743  0.4926  1.2452
 1838TIP3   OH226928   6.606   5.238  14.212 -0.2050  0.3565 -0.3541
 1838TIP3    H126929   6.536   5.185  14.250  1.4910 -3.2701 -1.8465
 1838TIP3    H226930   6.687   5.201  14.247  1.1174  1.8952 -1.5825
 1839TIP3   OH226931   2.424   2.067   1.839  0.0207  0.5429 -0.4755
 1839TIP3    H126932   2.332   2.079   1.816  0.2204  0.7108 -1.2072
 1839TIP3    H226933   2.472   2.089   1.759  0.6865  0.2540 -0.1627
 1840TIP3   OH226934   4.392   2.343  16.722 -0.8270  0.0219 -0.1263
 1840TIP3    H126935   4.398   2.428  16.767 -1.7445  0.4901 -0.8488
 1840TIP3    H226936   4.433   2.358  16.637 -2.2797  0.1945 -0.8361
 1841TIP3   OH226937   6.278   3.292  13.436  0.5171  0.5523  0.0747
 1841TIP3    H126938   6.335   3.231  13.482 -0.7887 -1.0621 -0.3632
 1841TIP3    H226939   6.254   3.357  13.501  2.1854  0.8126  0.4707
 1842TIP3   OH226940   6.208   5.401  15.686 -0.0495  0.2141 -0.1358
 1842TIP3    H126941   6.160   5.384  15.767  0.8653 -3.0812 -0.1688
 1842TIP3    H226942   6.141   5.430  15.624 -0.9591  1.5116  1.3709
 1843TIP3   OH226943   4.613   3.141  15.090 -0.5773  0.5972 -0.0193
 1843TIP3    H126944   4.597   3.198  15.165  1.0682  0.7937  0.2313
 1843TIP3    H226945   4.627   3.055  15.128 -0.7743  0.4894 -0.1915
 1844TIP3   OH226946   4.065   6.329   4.729 -0.5494 -0.0386  0.2310
 1844TIP3    H126947   4.115   6.347   4.649  2.3268  0.1633  1.9217
 1844TIP3    H226948   4.021   6.246   4.712  2.0834 -1.3537 -0.7183
 1845TIP3   OH226949   4.908   3.217  15.171  0.3392  0.0913 -0.1979
 1845TIP3    H126950   4.906   3.161  15.093 -0.7150  0.4740 -0.4705
 1845TIP3    H226951   4.821   3.205  15.210  0.5067  0.6778  0.3534
 1846TIP3   OH226952   1.453   6.533  17.182  0.1204 -0.1674  0.0220
 1846TIP3    H126953   1.536   6.528  17.229  0.2586 -0.1074 -0.2118
 1846TIP3    H226954   1.396   6.585  17.238 -0.6141 -2.3664  1.4391
 1847TIP3   OH226955   4.850   4.337   4.362 -0.5818 -0.4569  0.8028
 1847TIP3    H126956   4.798   4.302   4.434 -1.4201 -1.5530 -0.2757
 1847TIP3    H226957   4.871   4.427   4.388  1.9821 -1.7617  3.8705
 1848TIP3   OH226958   5.291   1.509  11.198  0.4208  0.4222 -0.5643
 1848TIP3    H126959   5.386   1.517  11.192  0.5688  0.1377  0.9432
 1848TIP3    H226960   5.277   1.440  11.263 -0.8168  0.2278 -1.0133
 1849TIP3   OH226961   6.027   0.242   3.702 -0.1147 -0.3924 -0.2380
 1849TIP3    H126962   6.027   0.330   3.740 -2.0180 -1.0583  1.5378
 1849TIP3    H226963   6.119   0.214   3.706  0.2457  0.8365  0.8286
 1850TIP3   OH226964   0.594   0.491  13.598 -0.1265  0.1743  0.2542
 1850TIP3    H126965   0.637   0.530  13.673  1.7353  1.3793 -1.3647
 1850TIP3    H226966   0.613   0.550  13.525 -0.7182 -1.6282 -1.4534
 1851TIP3   OH226967   4.394   1.546   2.921  0.6789 -0.7203  0.2273
 1851TIP3    H126968   4.400   1.577   2.831 -0.1582  2.1246  1.0565
 1851TIP3    H226969   4.435   1.459   2.919  0.3709 -0.9096 -2.9218
 1852TIP3   OH226970   2.633   3.777   4.753 -0.2007 -0.1776  0.3209
 1852TIP3    H126971   2.655   3.810   4.840 -0.1253 -2.3348  1.1703
 1852TIP3    H226972   2.704   3.717   4.730 -1.5233 -1.7029 -0.0103
 1853TIP3   OH226973   5.966   1.321  12.889  0.1994  0.1221  0.0732
 1853TIP3    H126974   5.897   1.302  12.952  1.1141  0.6618  1.2971
 1853TIP3    H226975   5.980   1.416  12.896  0.5436  0.1394 -0.7040
 1854TIP3   OH226976   6.411   6.511   3.934 -0.1097  0.0666 -0.4024
 1854TIP3    H126977   6.385   6.485   3.846 -1.3972  1.6959 -0.5603
 1854TIP3    H226978   6.352   6.463   3.992  0.0882 -0.2657 -0.4744
 1855TIP3   OH226979   6.204   0.329  16.094 -0.2715  0.3279  0.3011
 1855TIP3    H126980   6.131   0.391  16.092 -0.5166  0.0957  1.2512
 1855TIP3    H226981   6.218   0.312  16.188 -0.7364 -1.6555  0.0513
 1856TIP3   OH226982   6.216   3.686  12.956 -0.1611 -1.0374 -0.3303
 1856TIP3    H126983   6.149   3.737  12.910  0.5898  2.9125  2.4488
 1856TIP3    H226984   6.294   3.695  12.902 -0.0487  0.9433  0.0812
 1857TIP3   OH226985   4.412   3.213  13.872 -0.5315  0.3597 -0.4785
 1857TIP3    H126986   4.501   3.247  13.866 -0.2831 -0.2620 -0.4073
 1857TIP3    H226987   4.402   3.186  13.963  0.1854 -2.0770 -1.0175
 1858TIP3   OH226988   2.956   2.091  14.075  0.4208 -0.3560  0.1805
 1858TIP3    H126989   2.892   2.111  14.144 -0.3542 -2.4657  0.1265
 1858TIP3    H226990   3.037   2.071  14.122  0.3697 -0.0899  0.3818
 1859TIP3   OH226991   5.657   4.428   0.087  0.2056 -0.0588  0.6827
 1859TIP3    H126992   5.611   4.383   0.016 -1.7550  0.8399  1.3043
 1859TIP3    H226993   5.713   4.491   0.043 -1.5193  0.9837 -0.1096
 1860TIP3   OH226994   1.624   4.348   2.527 -0.1565  0.1458 -0.4472
 1860TIP3    H126995   1.711   4.371   2.562  0.4013 -0.9160 -1.0684
 1860TIP3    H226996   1.618   4.395   2.444 -0.4359  0.7056 -0.1114
 1861TIP3   OH226997   3.676   5.392   2.332  0.0332  0.6237 -0.0043
 1861TIP3    H126998   3.722   5.408   2.415 -1.3362  1.3152  0.6533
 1861TIP3    H226999   3.722   5.447   2.268  2.0385 -1.0112 -0.0885
 1862TIP3   OH227000   0.105   6.470  13.786  0.0375  0.5781  0.0951
 1862TIP3    H127001   0.079   6.542  13.844 -0.6584  0.8349 -0.5223
 1862TIP3    H227002   0.121   6.396  13.844 -1.3119  0.6370  0.5581
 1863TIP3   OH227003   3.205   2.775   5.068  0.1289  0.1156  0.2120
 1863TIP3    H127004   3.226   2.809   5.156 -0.6930  0.2929  0.3454
 1863TIP3    H227005   3.183   2.853   5.017  0.3972 -0.0100 -0.0991
 1864TIP3   OH227006   4.600   3.271  14.113  0.3583 -0.2226 -0.4550
 1864TIP3    H127007   4.623   3.310  14.197 -0.1156 -0.2296 -0.3204
 1864TIP3    H227008   4.670   3.208  14.095 -1.1029 -2.5784  1.4546
 1865TIP3   OH227009   2.775   4.689  15.581  0.1145 -0.1196  0.1400
 1865TIP3    H127010   2.709   4.753  15.558  0.1303 -0.2671 -0.3237
 1865TIP3    H227011   2.829   4.732  15.648  0.9479  0.8531 -1.1325
 1866TIP3   OH227012   4.593   4.092   2.113 -0.0752  0.1655 -0.4781
 1866TIP3    H127013   4.511   4.074   2.067 -0.1719 -1.7047  0.3121
 1866TIP3    H227014   4.567   4.112   2.202  0.3022 -0.1963 -0.2827
 1867TIP3   OH227015   0.406   2.115  12.582  0.4988 -0.2199 -0.3094
 1867TIP3    H127016   0.457   2.048  12.537  0.3324 -1.6428  1.4704
 1867TIP3    H227017   0.464   2.191  12.585  1.6612 -1.0809 -0.2692
 1868TIP3   OH227018   6.405   5.699  12.978 -0.3210  0.0599 -0.1472
 1868TIP3    H127019   6.404   5.645  13.057 -0.9839  0.3901  0.0765
 1868TIP3    H227020   6.498   5.716  12.962 -0.0778 -1.3717 -0.3861
 1869TIP3   OH227021   4.048   2.177   4.991  0.0783 -0.1986 -0.5586
 1869TIP3    H127022   4.061   2.119   5.066  1.3396  0.3346 -0.3311
 1869TIP3    H227023   4.022   2.119   4.920  1.0109 -1.0222 -0.2592
 1870TIP3   OH227024   4.631   1.471   3.794  0.2562  0.5501 -0.2958
 1870TIP3    H127025   4.686   1.528   3.740  0.5970  0.1231 -0.4077
 1870TIP3    H227026   4.691   1.438   3.862  0.3013 -0.4044 -0.7792
 1871TIP3   OH227027   0.555   0.203  11.596  0.5210  0.6564  0.1146
 1871TIP3    H127028   0.534   0.284  11.550 -3.3459  1.0407  2.1990
 1871TIP3    H227029   0.530   0.134  11.535 -2.3579  1.1479  0.6246
 1872TIP3   OH227030   3.670   4.647  15.327  0.3196  0.4883 -0.3094
 1872TIP3    H127031   3.725   4.571  15.347 -2.8742 -2.4259 -1.6843
 1872TIP3    H227032   3.659   4.644  15.233 -2.2646  0.8291 -0.0739
 1873TIP3   OH227033   0.057   2.021  11.692 -0.2224  0.3771  0.2074
 1873TIP3    H127034   0.054   1.972  11.610 -0.3998 -1.0492  1.0333
 1873TIP3    H227035   0.005   2.100  11.674  1.6981  1.3012 -1.7642
 1874TIP3   OH227036   2.250   2.523   0.199 -0.2969  0.2707  0.1609
 1874TIP3    H127037   2.180   2.550   0.259  1.4212  0.5191  2.1548
 1874TIP3    H227038   2.246   2.427   0.200  1.6156  0.1164  3.2047
 1875TIP3   OH227039   3.625   5.543  16.741 -0.2372  0.0720  0.7208
 1875TIP3    H127040   3.546   5.591  16.715 -0.1008 -1.2629 -2.7026
 1875TIP3    H227041   3.697   5.598  16.711 -0.0163 -0.5445  0.0864
 1876TIP3   OH227042   6.296   3.485   5.759 -0.3044 -0.2204  0.0165
 1876TIP3    H127043   6.356   3.434   5.704 -0.7772  0.3414 -1.0578
 1876TIP3    H227044   6.209   3.458   5.730 -0.5596  0.9044 -0.3033
 1877TIP3   OH227045   5.818   0.184   1.466  0.6813  0.4138  0.0290
 1877TIP3    H127046   5.804   0.210   1.557  2.7588  0.9773  0.2254
 1877TIP3    H227047   5.747   0.122   1.448 -1.4392  2.3358  1.1385
 1878TIP3   OH227048   2.397   6.375  17.255  0.1529  0.1588 -0.0534
 1878TIP3    H127049   2.425   6.457  17.295  0.4916 -0.1979  0.4550
 1878TIP3    H227050   2.386   6.314  17.328  1.2371 -0.6398 -0.5222
 1879TIP3   OH227051   0.976   2.231  15.457 -0.4655  0.3362 -0.0920
 1879TIP3    H127052   0.957   2.158  15.517  0.6469 -0.4176 -0.6291
 1879TIP3    H227053   0.938   2.204  15.374 -0.7203  0.7234 -0.1032
 1880TIP3   OH227054   5.392   1.469  15.079  0.3427 -0.0102 -0.0727
 1880TIP3    H127055   5.443   1.548  15.061  0.8489 -0.0866  0.9397
 1880TIP3    H227056   5.453   1.411  15.126 -0.2776 -0.6502 -0.0361
 1881TIP3   OH227057   3.266   2.937   0.857  0.5202 -0.1868  0.3802
 1881TIP3    H127058   3.258   2.869   0.923  1.2537 -1.3681 -0.7029
 1881TIP3    H227059   3.221   3.013   0.895 -0.8132 -1.4231  1.3754
 1882TIP3   OH227060   2.839   0.443  14.809  0.1902 -0.5624 -0.4207
 1882TIP3    H127061   2.761   0.404  14.770 -1.2344  0.1484  1.5574
 1882TIP3    H227062   2.837   0.534  14.782  0.3261 -0.5429 -0.3676
 1883TIP3   OH227063   0.215   5.714   3.959 -0.0363  0.6206  0.1411
 1883TIP3    H127064   0.265   5.795   3.946 -1.5756  1.4227 -1.0583
 1883TIP3    H227065   0.128   5.733   3.925 -0.1980 -1.8511 -1.0331
 1884TIP3   OH227066   0.616   1.126  13.932  0.5095  0.1931  0.0483
 1884TIP3    H127067   0.521   1.127  13.923  0.6056 -0.7839 -1.2683
 1884TIP3    H227068   0.632   1.082  14.015 -0.1748 -0.2401 -0.0483
 1885TIP3   OH227069   4.495   3.623  12.857  0.6631 -0.2184 -0.4477
 1885TIP3    H127070   4.476   3.618  12.763  0.1523  0.0988 -0.3668
 1885TIP3    H227071   4.411   3.644  12.897  1.3423  2.2992 -0.1587
 1886TIP3   OH227072   1.619   0.680   3.741  0.3195 -0.1904  0.1181
 1886TIP3    H127073   1.577   0.765   3.729  0.6417 -0.0974 -0.3815
 1886TIP3    H227074   1.548   0.616   3.730 -0.5029  0.0508  3.0701
 1887TIP3   OH227075   1.034   5.349   0.904  0.0634 -0.2853 -0.0485
 1887TIP3    H127076   0.993   5.303   0.831 -0.5776  1.8376 -1.1271
 1887TIP3    H227077   1.035   5.441   0.876  0.0180  0.5718  2.5441
 1888TIP3   OH227078   5.877   2.449  11.600 -0.4771  0.3524 -0.3102
 1888TIP3    H127079   5.843   2.531  11.563  0.2525  0.0543 -1.7222
 1888TIP3    H227080   5.953   2.476  11.652 -1.3216  0.7451  0.7483
 1889TIP3   OH227081   6.558   6.616   2.212 -0.2980 -0.4338  0.8811
 1889TIP3    H127082   6.494   6.608   2.284  0.5322  1.5354  1.9312
 1889TIP3    H227083   6.640   6.585   2.250  0.1862  0.7879  0.9020
 1890TIP3   OH227084   4.666   3.093   5.092  0.2977  0.3745 -0.1280
 1890TIP3    H127085   4.740   3.142   5.057 -0.6352  1.4064 -0.7194
 1890TIP3    H227086   4.626   3.152   5.156  1.3954 -1.1107  2.0594
 1891TIP3   OH227087   6.458   3.227   3.863 -0.2591  0.3186 -0.0454
 1891TIP3    H127088   6.532   3.287   3.861  0.3894 -0.4533 -1.4966
 1891TIP3    H227089   6.384   3.280   3.835  0.4475  0.3571 -2.0850
 1892TIP3   OH227090   4.342   5.641  11.830 -0.0361 -0.2658  0.3049
 1892TIP3    H127091   4.394   5.670  11.906 -0.8201 -1.1318  1.1942
 1892TIP3    H227092   4.383   5.558  11.803 -0.2481 -0.3659  0.2880
 1893TIP3   OH227093   4.217   5.290  13.091 -0.2933 -0.3135  0.0507
 1893TIP3    H127094   4.227   5.197  13.109 -0.7355 -0.3945 -0.1095
 1893TIP3    H227095   4.139   5.296  13.035 -1.2210  0.2989  1.3508
 1894TIP3   OH227096   2.643   0.811  16.970 -0.0731 -0.4327 -0.3580
 1894TIP3    H127097   2.638   0.762  16.887 -0.5840  0.1649 -0.6870
 1894TIP3    H227098   2.628   0.745  17.038  1.1169 -1.0706 -0.6942
 1895TIP3   OH227099   4.992   3.876   4.999 -0.1868 -0.0104 -0.1571
 1895TIP3    H127100   4.979   3.916   4.913  0.1530  1.9837  0.6689
 1895TIP3    H227101   4.933   3.801   5.000 -1.1158  0.6587 -1.6547
 1896TIP3   OH227102   1.813   6.119  17.116 -0.1426  0.7782 -0.2343
 1896TIP3    H127103   1.767   6.199  17.141 -1.2945 -0.0017  0.1850
 1896TIP3    H227104   1.886   6.150  17.061  0.8245  2.2967  1.7842
 1897TIP3   OH227105   5.980   6.739  12.631 -0.4131  0.1169  1.0464
 1897TIP3    H127106   5.891   6.771  12.641 -0.7298 -0.1240 -0.7517
 1897TIP3    H227107   6.017   6.791  12.560  1.2538  0.9060  2.3991
 1898TIP3   OH227108   3.922   4.492   5.389  0.0285  0.6545  0.1672
 1898TIP3    H127109   4.018   4.491   5.387  0.0180 -0.0085 -1.4694
 1898TIP3    H227110   3.897   4.403   5.413 -0.1692  0.3049 -1.2640
 1899TIP3   OH227111   6.690   3.455   5.824  0.2166 -0.2431  0.5904
 1899TIP3    H127112   6.761   3.394   5.806  0.0725 -1.2767  3.0909
 1899TIP3    H227113   6.685   3.459   5.920 -1.7830  1.3654  0.5001
 1900TIP3   OH227114   5.716   2.133  12.225 -0.2178  0.7000  0.3975
 1900TIP3    H127115   5.773   2.122  12.301 -0.5012 -0.6902  0.4291
 1900TIP3    H227116   5.720   2.049  12.180  0.4153  1.6641 -1.4769
 1901TIP3   OH227117   6.571   5.253  15.339 -0.2838 -0.3363 -0.5514
 1901TIP3    H127118   6.530   5.309  15.404 -1.1684 -0.9598 -0.5502
 1901TIP3    H227119   6.518   5.265  15.260 -0.4821 -1.1700 -0.5498
 1902TIP3   OH227120   0.500   2.407  17.270  0.0703 -0.1497 -0.0116
 1902TIP3    H127121   0.513   2.389  17.177  0.8119 -0.7301  0.1984
 1902TIP3    H227122   0.518   2.324  17.314  1.6729  0.5974  0.8141
 1903TIP3   OH227123   2.222   1.271  11.689  0.1657 -0.5205  0.3324
 1903TIP3    H127124   2.134   1.243  11.716 -0.0792  0.6588  0.7926
 1903TIP3    H227125   2.220   1.366  11.695  1.2835 -0.4464 -0.2860
 1904TIP3   OH227126   1.609   4.917  12.267 -0.8314  0.3633 -0.3899
 1904TIP3    H127127   1.571   4.831  12.248 -0.5273  0.0801  0.2322
 1904TIP3    H227128   1.660   4.939  12.189 -0.5838 -0.2112 -0.3971
 1905TIP3   OH227129   1.514   3.968   5.617 -0.2535  0.3670 -0.1135
 1905TIP3    H127130   1.599   3.965   5.574 -0.9458  0.1125 -1.5182
 1905TIP3    H227131   1.528   3.925   5.702  0.6694 -1.0329 -0.9457
 1906TIP3   OH227132   3.503   1.888   6.265  0.2878 -0.2056 -0.3061
 1906TIP3    H127133   3.466   1.891   6.353  0.4814 -0.1737 -0.2238
 1906TIP3    H227134   3.484   1.974   6.228 -1.3226 -0.7972 -0.9399
 1907TIP3   OH227135   4.198   3.058  11.380 -0.2140  0.2756 -0.6051
 1907TIP3    H127136   4.162   3.093  11.462 -0.6564 -1.1344 -0.1629
 1907TIP3    H227137   4.156   3.109  11.311 -0.0692  1.2768  0.0307
 1908TIP3   OH227138   2.216   2.711   1.150  0.4777 -0.0948 -0.6763
 1908TIP3    H127139   2.157   2.655   1.098  0.6065  0.9167 -1.9722
 1908TIP3    H227140   2.164   2.789   1.168  0.3058 -0.5863  1.1126
 1909TIP3   OH227141   2.129   2.859  13.367 -0.0509  0.2172  0.5394
 1909TIP3    H127142   2.075   2.928  13.406 -2.0872  1.2527 -3.5309
 1909TIP3    H227143   2.107   2.780  13.417 -1.9716  1.4826  1.8357
 1910TIP3   OH227144   5.120   6.511  13.579 -0.0686  0.1199  0.2121
 1910TIP3    H127145   5.138   6.535  13.488  0.9650 -1.0303  0.0857
 1910TIP3    H227146   5.033   6.546  13.596 -0.2490  0.4300 -1.1981
 1911TIP3   OH227147   0.329   6.352  13.050  0.2379 -0.2221 -0.2796
 1911TIP3    H127148   0.367   6.440  13.046 -1.2852  0.4987  0.5774
 1911TIP3    H227149   0.355   6.319  13.136  2.2485 -1.3464 -1.2315
 1912TIP3   OH227150   6.653   6.251  14.110 -0.1243 -0.4407 -0.2267
 1912TIP3    H127151   6.681   6.161  14.094  0.1508 -0.7766  1.9525
 1912TIP3    H227152   6.627   6.253  14.202 -1.2610  1.4315 -0.5362
 1913TIP3   OH227153   2.987   2.381  17.193 -0.4033  0.1337  0.6778
 1913TIP3    H127154   2.895   2.384  17.219 -0.6057  1.2781 -0.0938
 1913TIP3    H227155   3.032   2.437  17.257 -0.0796 -1.0843  1.5622
 1914TIP3   OH227156   0.934   1.315  11.977 -0.0099  0.0486 -0.3671
 1914TIP3    H127157   0.928   1.334  12.071 -0.8148 -1.0693 -0.1680
 1914TIP3    H227158   0.892   1.389  11.934  1.1771  1.0077  0.0960
 1915TIP3   OH227159   4.411   5.883  13.988  0.1949 -0.5281  0.4151
 1915TIP3    H127160   4.481   5.843  13.936 -0.0583 -0.6316  0.1505
 1915TIP3    H227161   4.457   5.941  14.049  0.4092  0.9979 -1.1264
 1916TIP3   OH227162   6.733   6.124  12.209  0.3359 -0.4892  0.1564
 1916TIP3    H127163   6.784   6.153  12.134  0.2001 -2.8360 -0.9387
 1916TIP3    H227164   6.780   6.158  12.285  2.1524 -0.5463 -0.8971
 1917TIP3   OH227165   2.506   0.892   2.387 -0.4101  0.3174 -0.2746
 1917TIP3    H127166   2.587   0.855   2.423 -0.0493 -0.5295 -1.8482
 1917TIP3    H227167   2.452   0.911   2.463  0.7730 -0.2814  0.7521
 1918TIP3   OH227168   3.631   2.162  16.896  0.0097 -0.0250 -0.0091
 1918TIP3    H127169   3.680   2.189  16.974 -0.9590 -0.2204  0.6905
 1918TIP3    H227170   3.548   2.210  16.903 -0.6695 -1.1444 -0.1486
 1919TIP3   OH227171   5.830   0.602   1.357 -0.0476 -0.3639  0.1274
 1919TIP3    H127172   5.785   0.578   1.438  1.1834 -0.9938  0.6399
 1919TIP3    H227173   5.860   0.692   1.371 -1.4992  0.2373 -0.3982
 1920TIP3   OH227174   4.621   1.928   5.497 -0.6944  0.0212  0.0760
 1920TIP3    H127175   4.551   1.993   5.488 -0.5169  0.2981  0.6381
 1920TIP3    H227176   4.588   1.866   5.561  0.0741  0.8561  1.3226
 1921TIP3   OH227177   3.963   5.140   5.846  0.7461 -0.4466  0.2070
 1921TIP3    H127178   3.904   5.208   5.880  1.4880  1.1145 -1.4541
 1921TIP3    H227179   3.934   5.127   5.755  2.4226 -0.2478 -0.3835
 1922TIP3   OH227180   0.295   5.115   4.332 -0.7252 -0.0380 -0.3865
 1922TIP3    H127181   0.267   5.098   4.242 -0.5242  3.1769 -1.1803
 1922TIP3    H227182   0.363   5.182   4.324  1.1395 -1.4688  2.0470
 1923TIP3   OH227183   3.536   5.353  15.723 -0.4025 -0.7757 -0.6379
 1923TIP3    H127184   3.507   5.438  15.690  0.7450 -0.5929 -1.2104
 1923TIP3    H227185   3.585   5.373  15.802  1.4839 -0.6851 -1.7679
 1924TIP3   OH227186   6.582   5.559   0.938  0.0124  0.0465  0.5530
 1924TIP3    H127187   6.557   5.552   1.030  0.4807 -0.6444  0.6310
 1924TIP3    H227188   6.626   5.477   0.918 -0.5198 -0.0186 -0.4283
 1925TIP3   OH227189   6.347   2.061  16.642  0.2341 -0.1787  0.2312
 1925TIP3    H127190   6.330   2.109  16.724 -0.2478 -1.1517  0.7128
 1925TIP3    H227191   6.416   1.999  16.664  0.8362  0.2628 -0.3849
 1926TIP3   OH227192   6.304   2.110  11.316 -0.3146 -0.4220  0.7059
 1926TIP3    H127193   6.345   2.104  11.230 -0.3115 -1.6137  0.7758
 1926TIP3    H227194   6.262   2.025  11.329  0.0639 -0.4243  2.0711
 1927TIP3   OH227195   4.481   3.983  15.545 -0.3944 -0.5567  0.2285
 1927TIP3    H127196   4.488   4.044  15.618  0.2810 -0.7465  0.3254
 1927TIP3    H227197   4.556   3.924  15.555  0.5830  0.3237 -1.4563
 1928TIP3   OH227198   6.209   5.700  15.337 -0.6609  0.0690  0.3615
 1928TIP3    H127199   6.160   5.783  15.344 -0.3858  0.2244  0.4410
 1928TIP3    H227200   6.301   5.726  15.338 -0.5733 -0.2355  0.3250
 1929TIP3   OH227201   1.735   5.979   5.463  0.6467 -0.0798  0.1015
 1929TIP3    H127202   1.721   5.940   5.377  2.2807 -1.9187  0.5805
 1929TIP3    H227203   1.674   5.931   5.521  1.6680 -0.9872  0.4530
 1930TIP3   OH227204   1.096   6.363  15.500  0.5783  0.3710 -0.2596
 1930TIP3    H127205   1.074   6.312  15.422  0.9357  0.6242 -0.5269
 1930TIP3    H227206   1.145   6.438  15.467  1.0782  0.2743  0.2405
 1931TIP3   OH227207   4.042   1.891  13.664  0.0400 -0.2142  0.0630
 1931TIP3    H127208   4.076   1.833  13.597  1.1707  0.6921 -0.1856
 1931TIP3    H227209   4.119   1.938  13.697 -0.8667  1.5567 -0.1687
 1932TIP3   OH227210   3.403   2.162  14.416  0.1893  0.1077 -0.2304
 1932TIP3    H127211   3.438   2.249  14.438 -0.4187  0.1331  0.6966
 1932TIP3    H227212   3.466   2.125  14.355  1.1674  0.6590  0.4224
 1933TIP3   OH227213   3.950   6.154  13.272  0.1059  0.2050 -0.1668
 1933TIP3    H127214   3.963   6.139  13.365 -2.5530 -2.9940 -0.1214
 1933TIP3    H227215   3.872   6.210  13.267  0.1548  0.2481 -0.4820
 1934TIP3   OH227216   4.300   2.567  13.582 -0.2745  0.1458  0.0217
 1934TIP3    H127217   4.304   2.646  13.636 -1.6123 -0.5040  1.1398
 1934TIP3    H227218   4.374   2.576  13.521  2.6124  0.0229  3.1855
 1935TIP3   OH227219   0.933   2.065   3.024  0.4526  0.1434 -0.7710
 1935TIP3    H127220   0.934   2.090   2.931 -0.0197  0.4655 -0.6940
 1935TIP3    H227221   0.840   2.051   3.044  0.6155 -0.5928 -0.5204
 1936TIP3   OH227222   1.007   6.548   1.430  0.1458  0.0598 -0.3968
 1936TIP3    H127223   0.963   6.539   1.346  0.6186 -0.6013 -0.5755
 1936TIP3    H227224   1.084   6.601   1.411 -0.4760  1.1043 -0.1078
 1937TIP3   OH227225   3.325   4.724  11.273 -0.2575 -0.1655  0.2669
 1937TIP3    H127226   3.419   4.727  11.257 -0.4731  0.2497 -0.9977
 1937TIP3    H227227   3.310   4.791  11.339  0.3607 -0.4166  0.6757
 1938TIP3   OH227228   3.371   3.473  12.881 -0.1937  0.5912  0.2097
 1938TIP3    H127229   3.320   3.394  12.864 -0.6094  0.5727  1.4134
 1938TIP3    H227230   3.347   3.533  12.810  0.4082 -0.4621 -0.9266
 1939TIP3   OH227231   4.423   2.599  16.332 -0.3387  0.4719  0.2244
 1939TIP3    H127232   4.422   2.688  16.369 -0.2867 -0.2833  2.1746
 1939TIP3    H227233   4.338   2.590  16.289  0.7066  2.4002 -2.5875
 1940TIP3   OH227234   5.321   3.085   3.466  0.1163  0.2604 -0.7172
 1940TIP3    H127235   5.282   3.149   3.526 -1.1185  0.5753 -1.7990
 1940TIP3    H227236   5.318   3.002   3.514 -1.2206  0.4270 -0.4677
 1941TIP3   OH227237   4.676   2.111   4.106  0.2159 -0.3456 -0.5809
 1941TIP3    H127238   4.669   2.103   4.201 -0.9803  0.2336 -0.6094
 1941TIP3    H227239   4.627   2.190   4.085 -0.6351 -1.1666 -1.8095
 1942TIP3   OH227240   2.977   2.394  11.805  0.0188 -0.1080  0.6162
 1942TIP3    H127241   2.894   2.375  11.762 -0.8749  1.8738  1.3307
 1942TIP3    H227242   2.994   2.486  11.784  3.0227 -0.9119 -1.0379
 1943TIP3   OH227243   2.002   2.840   2.013  0.3567 -0.0114 -0.7945
 1943TIP3    H127244   1.984   2.800   2.098  1.1176  0.3543 -0.4512
 1943TIP3    H227245   1.916   2.856   1.975  0.0260 -0.8311 -0.4017
 1944TIP3   OH227246   6.219   5.812   1.737 -0.1382  0.0418 -0.4966
 1944TIP3    H127247   6.300   5.778   1.774 -0.8027 -2.1014 -0.8566
 1944TIP3    H227248   6.221   5.784   1.645 -0.3885  1.7251 -1.0453
 1945TIP3   OH227249   1.043   0.095   5.978  0.3069  0.3108 -0.2070
 1945TIP3    H127250   1.118   0.149   6.004  0.0092  0.5934  0.0744
 1945TIP3    H227251   0.976   0.115   6.042  1.3154 -3.1335  2.2405
 1946TIP3   OH227252   0.635   1.126   5.971  0.3551  0.0307 -0.5741
 1946TIP3    H127253   0.574   1.062   5.936  0.6508 -0.2458 -0.5895
 1946TIP3    H227254   0.636   1.196   5.905 -0.3484  0.2925 -0.3159
 1947TIP3   OH227255   2.171   0.274   1.159 -0.0289  0.1223 -0.4897
 1947TIP3    H127256   2.081   0.280   1.190  0.6360  0.3079  1.5843
 1947TIP3    H227257   2.209   0.202   1.209  1.0796  0.2650 -1.0780
 1948TIP3   OH227258   5.538   0.972  11.195  0.0260 -0.7705 -0.0501
 1948TIP3    H127259   5.495   1.021  11.125  1.7566  0.9720  0.0254
 1948TIP3    H227260   5.570   1.039  11.255  2.9079 -1.8931 -0.1688
 1949TIP3   OH227261   6.432   4.409   0.292  0.4461  0.4234  0.4171
 1949TIP3    H127262   6.483   4.402   0.211  0.2724 -0.0218  0.3466
 1949TIP3    H227263   6.487   4.462   0.350  0.9169  0.0815  0.2865
 1950TIP3   OH227264   1.611   3.448  12.091  0.4184 -0.1757  0.0970
 1950TIP3    H127265   1.566   3.363  12.082  1.0614 -0.4801 -0.2831
 1950TIP3    H227266   1.565   3.505  12.030 -0.5258 -0.0283  0.9212
 1951TIP3   OH227267   0.146   3.456   4.541  0.4158 -0.2659  0.4099
 1951TIP3    H127268   0.159   3.395   4.468  0.2196  1.8883 -1.5141
 1951TIP3    H227269   0.235   3.482   4.566  0.4502  0.0688 -0.0406
 1952TIP3   OH227270   5.836   1.309  13.816 -0.5828  0.1605 -0.1412
 1952TIP3    H127271   5.907   1.354  13.862 -0.9324  0.5303  0.0479
 1952TIP3    H227272   5.765   1.306  13.880 -0.6977 -0.3186 -0.2866
 1953TIP3   OH227273   3.525   2.567   1.962 -0.3067 -0.1712  0.4066
 1953TIP3    H127274   3.594   2.539   2.023  0.0219 -1.1355 -0.3744
 1953TIP3    H227275   3.533   2.507   1.888 -0.7970  0.8751 -0.5261
 1954TIP3   OH227276   1.223   1.956   1.153 -0.0091  0.0967 -0.2017
 1954TIP3    H127277   1.298   2.009   1.179  0.6784 -0.7290 -0.4597
 1954TIP3    H227278   1.211   1.976   1.060 -0.3945  0.5477 -0.0646
 1955TIP3   OH227279   1.435   4.970  12.542  0.0319  0.6324  0.5089
 1955TIP3    H127280   1.521   5.011  12.535 -0.2152  1.1513  0.4471
 1955TIP3    H227281   1.409   4.952  12.451  0.0013  0.6368  0.5166
 1956TIP3   OH227282   6.441   2.366  16.957 -0.1412 -0.4597  0.3438
 1956TIP3    H127283   6.470   2.307  17.026  0.5582 -0.1628  0.3213
 1956TIP3    H227284   6.505   2.353  16.887 -0.6819 -0.5565 -0.1410
 1957TIP3   OH227285   5.548   4.557   5.779 -0.6200  0.4712 -0.3564
 1957TIP3    H127286   5.503   4.635   5.814  3.3514  2.3331  1.2892
 1957TIP3    H227287   5.584   4.514   5.857  0.3471 -0.9431 -1.5349
 1958TIP3   OH227288   6.478   0.363   6.009  0.2355  0.3751  0.1906
 1958TIP3    H127289   6.555   0.352   5.954  0.0865  2.6909 -0.5728
 1958TIP3    H227290   6.512   0.374   6.097  0.7915  1.2302 -0.1206
 1959TIP3   OH227291   1.465   0.343  12.143 -0.0778  0.0851  0.2636
 1959TIP3    H127292   1.548   0.297  12.130 -0.4431 -0.1100 -1.6552
 1959TIP3    H227293   1.466   0.367  12.235  3.0007  1.7814 -0.0440
 1960TIP3   OH227294   5.342   6.265  13.919 -0.2328  0.0741 -0.1341
 1960TIP3    H127295   5.362   6.175  13.894 -1.5997 -0.1563 -0.5300
 1960TIP3    H227296   5.417   6.294  13.969  0.2658 -1.2681 -0.0652
 1961TIP3   OH227297   2.566   6.444   5.551 -0.1152  0.4355 -0.0621
 1961TIP3    H127298   2.584   6.495   5.472 -0.8551  1.2087  0.2534
 1961TIP3    H227299   2.589   6.503   5.623  2.1113 -0.8148  0.3520
 1962TIP3   OH227300   6.652   0.148  15.307 -0.4870  0.0007  0.3591
 1962TIP3    H127301   6.683   0.090  15.238 -0.9713 -0.8760  0.8661
 1962TIP3    H227302   6.600   0.214  15.261  0.7603  0.5527 -0.3124
 1963TIP3   OH227303   6.497   3.176  13.174 -0.2715 -0.2136 -0.5627
 1963TIP3    H127304   6.479   3.263  13.211 -2.8924  0.0467 -2.1452
 1963TIP3    H227305   6.591   3.164  13.185 -0.2095  1.7303  1.9599
 1964TIP3   OH227306   1.171   5.090  15.631 -0.3265  0.7014 -0.2208
 1964TIP3    H127307   1.128   5.004  15.631 -0.0437  0.3526 -4.0865
 1964TIP3    H227308   1.254   5.076  15.675 -0.7499 -0.7451  0.1731
 1965TIP3   OH227309   1.327   1.616  16.504 -0.6894  0.4911  0.3756
 1965TIP3    H127310   1.300   1.648  16.418 -1.4194 -0.4759  0.2213
 1965TIP3    H227311   1.282   1.532  16.513  0.3734 -0.0124  1.1737
 1966TIP3   OH227312   0.884   3.160   2.087  0.3588 -0.2818 -0.2522
 1966TIP3    H127313   0.852   3.217   2.017 -0.1772  1.8550  1.6265
 1966TIP3    H227314   0.980   3.162   2.079  0.2955 -0.1235 -0.9597
 1967TIP3   OH227315   5.869   3.042  15.262  0.2400  0.2640 -0.1017
 1967TIP3    H127316   5.854   3.100  15.336  0.6649  1.0800 -0.6409
 1967TIP3    H227317   5.934   2.979  15.294  1.4950  1.4594 -0.1911
 1968TIP3   OH227318   0.382   5.406   5.634  0.4436  0.3504  0.0946
 1968TIP3    H127319   0.420   5.322   5.611 -1.5454 -0.6608  0.2686
 1968TIP3    H227320   0.440   5.441   5.701  1.0192 -1.1290  0.4100
 1969TIP3   OH227321   4.826   6.140   0.119 -0.2041  0.0181 -0.3010
 1969TIP3    H127322   4.799   6.138   0.211 -0.5735 -0.5391 -0.4164
 1969TIP3    H227323   4.806   6.052   0.086 -2.2771  0.8780 -1.5466
 1970TIP3   OH227324   3.311   4.564  14.503 -0.3823  0.5355  0.2499
 1970TIP3    H127325   3.231   4.530  14.462  1.6681 -0.8420 -3.0229
 1970TIP3    H227326   3.296   4.658  14.511 -2.2007  0.3636 -0.5902
 1971TIP3   OH227327   2.735   5.832   4.336 -0.0089  0.5057  0.1514
 1971TIP3    H127328   2.771   5.810   4.422  1.4616 -0.2581 -0.6217
 1971TIP3    H227329   2.658   5.777   4.327  1.3626 -1.4593 -0.0981
 1972TIP3   OH227330   2.143   4.401  15.577  0.1734  0.5183 -0.0001
 1972TIP3    H127331   2.087   4.436  15.508  0.3759 -0.6518 -0.7718
 1972TIP3    H227332   2.222   4.454  15.573 -0.1452  0.9993 -0.0963
 1973TIP3   OH227333   6.549   0.683   4.211 -0.0848 -0.2821 -0.4876
 1973TIP3    H127334   6.632   0.643   4.238  0.4615  1.0500 -0.1502
 1973TIP3    H227335   6.506   0.615   4.159  1.0679 -1.1079 -0.4009
 1974TIP3   OH227336   2.016   4.105  12.427  0.1128 -1.0514 -0.0077
 1974TIP3    H127337   1.949   4.168  12.453  1.9488  0.5152  1.1918
 1974TIP3    H227338   1.979   4.020  12.449 -1.6028 -0.2503  0.3219
 1975TIP3   OH227339   4.249   3.631  16.505  0.0130  0.2413  0.1755
 1975TIP3    H127340   4.262   3.631  16.411 -1.0488 -2.6880 -0.0483
 1975TIP3    H227341   4.310   3.697  16.538 -0.0985  1.8555 -2.5650
 1976TIP3   OH227342   1.315   3.062   6.291  0.3703  0.4291 -0.5683
 1976TIP3    H127343   1.259   3.126   6.249 -0.1641  0.7337  0.5938
 1976TIP3    H227344   1.400   3.105   6.299  0.2395  0.6818 -0.5525
 1977TIP3   OH227345   1.200   2.362   1.616 -0.3197  0.4646 -0.1968
 1977TIP3    H127346   1.163   2.415   1.545 -2.5102 -0.4325  0.1809
 1977TIP3    H227347   1.273   2.413   1.649 -0.5620  1.8892 -1.7170
 1978TIP3   OH227348   3.142   4.459  12.716 -0.2084 -0.6239  0.4291
 1978TIP3    H127349   3.114   4.550  12.705 -2.6861 -1.5077 -1.5216
 1978TIP3    H227350   3.198   4.442  12.641  2.3603 -0.1170  2.0888
 1979TIP3   OH227351   0.983   6.731   5.618 -0.3455 -0.1079 -0.3975
 1979TIP3    H127352   1.018   6.815   5.588  0.5612  0.2673  1.5902
 1979TIP3    H227353   1.060   6.676   5.631 -0.8441 -0.8408 -0.4968
 1980TIP3   OH227354   6.230   4.375  12.899 -0.6909 -0.3157  0.2119
 1980TIP3    H127355   6.192   4.420  12.823 -0.7025  0.1967  0.5151
 1980TIP3    H227356   6.220   4.282  12.879  0.1151 -0.1978 -0.8255
 1981TIP3   OH227357   6.170   0.932   6.280 -0.5547  0.3196  0.2126
 1981TIP3    H127358   6.216   0.981   6.348  0.8090 -1.1858  0.4422
 1981TIP3    H227359   6.190   0.979   6.199  0.5846  0.2792  0.4484
 1982TIP3   OH227360   3.230   1.949  13.793  0.1595  0.1785  0.1276
 1982TIP3    H127361   3.257   2.013  13.728  1.2483 -0.2942  0.0817
 1982TIP3    H227362   3.312   1.913  13.826 -0.4081 -1.7799 -0.4498
 1983TIP3   OH227363   0.942   6.634  12.434  0.3643 -0.1884 -0.2204
 1983TIP3    H127364   0.926   6.540  12.436  1.1021 -0.3130  0.2242
 1983TIP3    H227365   0.925   6.660  12.344 -2.9088 -0.1823  0.2756
 1984TIP3   OH227366   3.684   3.830  12.752 -0.1527  0.0298  0.1368
 1984TIP3    H127367   3.653   3.919  12.735 -0.8823 -0.0991  0.7859
 1984TIP3    H227368   3.698   3.826  12.846  3.0134  0.4526 -0.2082
 1985TIP3   OH227369   0.780   1.664  14.946 -0.2489 -0.0029  0.7607
 1985TIP3    H127370   0.833   1.691  15.021 -0.8688 -0.3222  1.3228
 1985TIP3    H227371   0.697   1.709  14.959 -0.3530 -0.0460  0.2473
 1986TIP3   OH227372   3.228   6.278   0.991  0.1184 -1.2410 -0.0788
 1986TIP3    H127373   3.255   6.190   0.964 -0.9583 -1.1813 -1.4824
 1986TIP3    H227374   3.271   6.336   0.928  2.1820 -0.5494  1.8200
 1987TIP3   OH227375   2.989   1.466  11.746 -0.0942  0.3610  0.3529
 1987TIP3    H127376   3.060   1.415  11.785  0.6123 -0.2522 -1.6483
 1987TIP3    H227377   2.934   1.402  11.702 -0.7412  1.0429  0.1500
 1988TIP3   OH227378   1.279   0.195  13.846 -0.1072 -0.5715 -0.5030
 1988TIP3    H127379   1.241   0.125  13.794  0.7093 -0.5426 -1.1640
 1988TIP3    H227380   1.249   0.276  13.804 -0.7290 -0.5215  0.0243
 1989TIP3   OH227381   3.888   0.186   4.686  0.0774 -0.2017  0.5940
 1989TIP3    H127382   3.793   0.196   4.685  0.2243  1.6025 -0.4562
 1989TIP3    H227383   3.911   0.173   4.778 -1.1566 -0.5473  0.8695
 1990TIP3   OH227384   3.286   1.698  15.344  0.2961  0.0584 -0.6808
 1990TIP3    H127385   3.374   1.721  15.312 -0.1224  1.7171 -0.7525
 1990TIP3    H227386   3.302   1.660  15.430  1.1743 -1.1309 -1.3250
 1991TIP3   OH227387   1.076   5.808   0.974 -0.0707  0.0635 -0.2707
 1991TIP3    H127388   1.072   5.884   1.032  0.7450  1.0991 -1.5377
 1991TIP3    H227389   0.992   5.765   0.986 -0.7776  1.4714  0.0631
 1992TIP3   OH227390   1.738   2.353   4.779  0.0615  0.0489  0.0838
 1992TIP3    H127391   1.789   2.317   4.851 -0.0718 -1.3428 -0.4821
 1992TIP3    H227392   1.793   2.340   4.702 -0.1719  0.7044 -0.2034
 1993TIP3   OH227393   5.407   6.063   0.489 -0.1957 -0.5048  0.5180
 1993TIP3    H127394   5.414   5.968   0.494 -0.8776 -0.6040 -0.2023
 1993TIP3    H227395   5.462   6.087   0.415 -0.7974 -0.4402  0.0896
 1994TIP3   OH227396   4.214   1.017  11.936 -0.1780  0.2827  0.2142
 1994TIP3    H127397   4.271   1.019  11.859  0.7354  0.3416  0.8718
 1994TIP3    H227398   4.128   1.046  11.904  0.2672  0.6030 -0.7126
 1995TIP3   OH227399   1.254   5.987   5.555  0.5790  0.4781  0.5636
 1995TIP3    H127400   1.248   5.914   5.493  0.8033  0.0229  1.0742
 1995TIP3    H227401   1.213   6.060   5.509  0.1459 -0.0250  0.1321
 1996TIP3   OH227402   2.842   6.410  12.462  0.0946  0.6002 -0.3506
 1996TIP3    H127403   2.771   6.457  12.419  0.8425 -0.2956 -2.7069
 1996TIP3    H227404   2.913   6.409  12.397  0.0665 -3.8954 -0.5908
 1997TIP3   OH227405   1.910   3.265  12.443 -0.1339  0.5867 -0.4812
 1997TIP3    H127406   1.997   3.249  12.481 -0.6818  2.7616  1.9622
 1997TIP3    H227407   1.919   3.238  12.352  1.8211 -3.2648  0.6316
 1998TIP3   OH227408   0.730   0.182   5.663  0.6889 -0.8225  0.4745
 1998TIP3    H127409   0.816   0.216   5.687  0.1799  1.4925 -0.6722
 1998TIP3    H227410   0.715   0.216   5.575 -1.4624 -1.0786  0.6931
 1999TIP3   OH227411   2.685   2.686  14.375  0.1686  0.0990 -0.4300
 1999TIP3    H127412   2.610   2.729  14.418  0.0032 -0.8381  0.2439
 1999TIP3    H227413   2.752   2.682  14.444  1.2203  1.7879 -1.2858
 2000TIP3   OH227414   0.670   4.563   1.962 -0.1040 -0.2520  0.2902
 2000TIP3    H127415   0.585   4.564   2.006 -0.6892 -3.4396 -0.4739
 2000TIP3    H227416   0.681   4.652   1.929 -1.1937  1.3684  3.8023
 2001TIP3   OH227417   0.959   0.093  10.837 -0.6028  0.3518 -0.1215
 2001TIP3    H127418   0.991   0.176  10.873 -0.3937  0.5356 -0.7061
 2001TIP3    H227419   0.936   0.040  10.913  0.1272  0.6022  0.2806
 2002TIP3   OH227420   0.784   5.158   5.984  0.4554 -0.2950  0.2895
 2002TIP3    H127421   0.724   5.089   5.955 -0.5656  0.6237  0.1099
 2002TIP3    H227422   0.867   5.138   5.940  0.1450 -1.3220  0.1389
 2003TIP3   OH227423   2.317   6.706  16.633 -0.5732  0.1636  0.1848
 2003TIP3    H127424   2.338   6.759  16.556 -0.7911 -0.4993 -0.3423
 2003TIP3    H227425   2.392   6.647  16.642  0.3940  1.5343  1.6818
 2004TIP3   OH227426   4.255   5.199   4.666 -0.5256 -0.2460 -0.0866
 2004TIP3    H127427   4.200   5.166   4.737 -0.8938 -0.4583 -0.4742
 2004TIP3    H227428   4.314   5.262   4.709 -1.0953  0.0133  0.3196
 2005TIP3   OH227429   2.449   3.157  13.333  0.0181  0.4330 -0.1937
 2005TIP3    H127430   2.531   3.190  13.370  0.8796 -0.6076 -1.1072
 2005TIP3    H227431   2.382   3.186  13.395  0.8031  2.9676 -0.4036
 2006TIP3   OH227432   3.104   4.383  14.007  0.4072 -0.1331  0.8740
 2006TIP3    H127433   3.021   4.353  14.044  0.1227  0.3733  0.6458
 2006TIP3    H227434   3.095   4.478  14.000  1.2031 -0.0154  1.3354
 2007TIP3   OH227435   0.603   4.522  14.733  0.3783  0.0096 -0.1318
 2007TIP3    H127436   0.684   4.516  14.784  0.1944  2.4872  0.5697
 2007TIP3    H227437   0.566   4.607  14.756 -1.9721 -0.6514 -1.1462
 2008TIP3   OH227438   2.319   5.712  14.981 -0.1764 -0.2149  0.1878
 2008TIP3    H127439   2.223   5.719  14.977 -0.0739  2.4273  0.7311
 2008TIP3    H227440   2.335   5.631  15.030 -2.1667  0.0894  1.4535
 2009TIP3   OH227441   6.672   3.650   5.630  0.0230 -0.0377  0.1787
 2009TIP3    H127442   6.657   3.605   5.713 -1.2566  0.9044  0.4696
 2009TIP3    H227443   6.599   3.624   5.575 -0.4675  1.2765  0.1806
 2010TIP3   OH227444   6.517   6.511   0.536  0.5365 -0.5165 -0.1927
 2010TIP3    H127445   6.580   6.475   0.600 -1.5192  1.0163  2.9537
 2010TIP3    H227446   6.439   6.457   0.548 -0.5464  1.0587  0.1478
 2011TIP3   OH227447   6.743   6.462  16.024  0.5341  0.3001  0.0738
 2011TIP3    H127448   6.717   6.504  16.106 -0.2813  1.5466 -0.7971
 2011TIP3    H227449   6.764   6.372  16.049 -0.4735  0.4353  1.5292
 2012TIP3   OH227450   2.920   1.173   0.430 -0.2402  0.0251 -0.0154
 2012TIP3    H127451   2.913   1.128   0.346 -1.4047 -0.4122  0.2978
 2012TIP3    H227452   3.009   1.208   0.431 -1.1826  2.9497 -2.8978
 2013TIP3   OH227453   6.535   5.955  12.183  0.3590 -0.0903  0.0063
 2013TIP3    H127454   6.569   5.899  12.113 -0.8291  0.0419 -0.7012
 2013TIP3    H227455   6.610   6.009  12.209  1.4974 -1.8411  0.5824
 2014TIP3   OH227456   2.265   5.122  16.802 -0.1828  0.2868  0.0904
 2014TIP3    H127457   2.319   5.168  16.867  0.4212  0.7190 -0.7035
 2014TIP3    H227458   2.283   5.029  16.818  0.0490  0.3951  0.4652
 2015TIP3   OH227459   3.300   4.210   3.254  0.3857 -0.1248 -0.1171
 2015TIP3    H127460   3.371   4.247   3.307  1.0718  0.2216 -1.2558
 2015TIP3    H227461   3.297   4.118   3.281  0.5259  0.1066  0.7251
 2016TIP3   OH227462   5.268   5.310  17.013 -0.3760  0.4083 -0.0514
 2016TIP3    H127463   5.361   5.314  16.994  0.0358  2.1180  1.9904
 2016TIP3    H227464   5.228   5.372  16.953  0.0424  0.8961  0.1656
 2017TIP3   OH227465   5.167   5.405  10.546 -0.0138 -0.0029  0.5486
 2017TIP3    H127466   5.072   5.407  10.539 -0.0142  4.1557 -1.1612
 2017TIP3    H227467   5.184   5.407  10.640 -1.5591 -0.8785  0.8891
 2018TIP3   OH227468   3.713   1.968   7.068 -0.3759  0.1606  0.0895
 2018TIP3    H127469   3.808   1.976   7.068 -0.3651  0.0264  0.1466
 2018TIP3    H227470   3.694   1.898   7.006 -0.6206  2.3740 -2.4914
 2019TIP3   OH227471   6.573   3.446   2.340 -0.5133  0.3028  0.0552
 2019TIP3    H127472   6.579   3.456   2.435 -0.4222 -1.0671  0.2187
 2019TIP3    H227473   6.518   3.518   2.311 -0.9648  0.4388  1.2107
 2020TIP3   OH227474   5.567   2.139   4.139 -0.4282 -0.2233 -0.2468
 2020TIP3    H127475   5.602   2.091   4.063  0.8884  1.8489 -1.0099
 2020TIP3    H227476   5.618   2.107   4.213  1.2253  0.7418 -0.9249
 2021TIP3   OH227477   3.448   0.638  13.312 -0.2747 -0.3021 -0.0574
 2021TIP3    H127478   3.437   0.627  13.218 -0.4300 -0.9938  0.0349
 2021TIP3    H227479   3.493   0.558  13.341  0.7281  0.3701  0.2984
 2022TIP3   OH227480   6.647   4.418   5.385 -0.2150 -0.3774 -0.9065
 2022TIP3    H127481   6.637   4.394   5.477  0.5591 -3.0772 -1.4303
 2022TIP3    H227482   6.694   4.502   5.388  0.6256 -0.8343  1.1652
 2023TIP3   OH227483   2.567   6.766   0.784 -0.6051  0.1507 -0.5208
 2023TIP3    H127484   2.545   6.740   0.873 -1.7824  3.5724  0.3246
 2023TIP3    H227485   2.495   6.733   0.730 -2.1508  1.6692  0.5169
 2024TIP3   OH227486   4.174   1.666   2.688  0.4946  0.1548 -0.4521
 2024TIP3    H127487   4.155   1.757   2.663 -1.0594 -0.8567 -3.4355
 2024TIP3    H227488   4.114   1.648   2.760 -0.2088  1.0977 -0.7742
 2025TIP3   OH227489   3.539   0.332  14.705  0.0652 -0.2240  0.9267
 2025TIP3    H127490   3.557   0.367  14.617 -2.1610  2.7304  1.5070
 2025TIP3    H227491   3.491   0.251  14.689  2.1619 -1.2783 -0.5033
 2026TIP3   OH227492   2.089   5.714  12.863 -0.0431  0.0683 -0.2484
 2026TIP3    H127493   2.110   5.621  12.875  0.0765  0.4388  3.5971
 2026TIP3    H227494   2.068   5.722  12.770 -2.1826 -4.2666 -0.3866
 2027TIP3   OH227495   4.488   3.168   2.349  0.2584  0.3231  0.2233
 2027TIP3    H127496   4.569   3.126   2.377 -0.2431  0.1096  1.4461
 2027TIP3    H227497   4.515   3.238   2.291  1.3018  0.0877  0.4124
 2028TIP3   OH227498   1.698   0.255   0.562  0.6536  0.3926 -0.0972
 2028TIP3    H127499   1.672   0.314   0.491  1.6130  0.9009 -0.0410
 2028TIP3    H227500   1.773   0.298   0.602 -0.0363  0.2462  1.4055
 2029TIP3   OH227501   1.137   5.605   4.294 -0.0996  0.0463 -0.5828
 2029TIP3    H127502   1.050   5.633   4.267 -0.8816 -1.0302  0.7000
 2029TIP3    H227503   1.124   5.517   4.329  1.0601  0.8039  1.9473
 2030TIP3   OH227504   2.906   6.098   0.219  0.6070  0.2444 -0.5306
 2030TIP3    H127505   2.989   6.085   0.265  0.0605 -0.1661  0.3629
 2030TIP3    H227506   2.906   6.191   0.196  1.4119  0.1973 -0.7438
 2031TIP3   OH227507   5.334   0.751   3.918 -0.6530 -0.0966  0.3816
 2031TIP3    H127508   5.404   0.714   3.864 -0.7540  0.7514 -0.3386
 2031TIP3    H227509   5.360   0.730   4.008 -0.0705 -0.8085  0.0590
 2032TIP3   OH227510   6.300   3.278   5.182  0.5152 -0.0298 -0.5145
 2032TIP3    H127511   6.395   3.269   5.173  0.8081  0.2564  1.7315
 2032TIP3    H227512   6.286   3.371   5.202 -0.0069 -0.4719  1.2823
 2033TIP3   OH227513   6.136   3.782   6.129  0.4020 -0.1739 -0.4336
 2033TIP3    H127514   6.174   3.765   6.215 -0.2587  0.3790 -0.0216
 2033TIP3    H227515   6.086   3.863   6.140  0.8042  0.2427 -1.4973
 2034TIP3   OH227516   3.884   2.426  11.837  0.3071  0.0599 -0.0246
 2034TIP3    H127517   3.829   2.428  11.915  0.2062  2.7895 -0.0607
 2034TIP3    H227518   3.968   2.463  11.865  1.4768 -2.0931 -0.4669
 2035TIP3   OH227519   4.259   1.615   1.218  0.0174 -0.7311  0.2176
 2035TIP3    H127520   4.322   1.687   1.221 -0.6113 -0.1514 -0.2804
 2035TIP3    H227521   4.186   1.649   1.167 -0.5794 -1.4952  0.5467
 2036TIP3   OH227522   2.655   0.910   5.635 -0.1316  0.2762 -0.1278
 2036TIP3    H127523   2.595   0.980   5.611  0.7070  1.2648  0.5306
 2036TIP3    H227524   2.622   0.832   5.590 -0.8274  1.1903 -1.2534
 2037TIP3   OH227525   5.645   4.347  13.924 -0.1738  0.1949  0.0295
 2037TIP3    H127526   5.673   4.351  14.015  0.5900  0.3578 -0.2064
 2037TIP3    H227527   5.680   4.265  13.890 -0.1519  0.3022 -0.2160
 2038TIP3   OH227528   5.306   1.134   6.642 -0.3645  0.4206  0.0400
 2038TIP3    H127529   5.328   1.049   6.605 -0.2850 -0.4054  1.8835
 2038TIP3    H227530   5.214   1.126   6.667  0.5511 -0.5307  3.6293
 2039TIP3   OH227531   3.562   0.685   6.387 -0.2030  0.1243  0.2427
 2039TIP3    H127532   3.551   0.775   6.358  0.5318  0.6228  1.4233
 2039TIP3    H227533   3.499   0.635   6.336 -0.3139  1.2369 -0.7492
 2040TIP3   OH227534   3.999   4.960   1.628  0.3804 -0.4226  0.2375
 2040TIP3    H127535   4.086   4.950   1.590  0.0559  0.4171 -0.7615
 2040TIP3    H227536   3.963   5.038   1.586  0.1331  0.7843  2.5410
 2041TIP3   OH227537   6.489   6.244  16.631 -0.0208 -0.2363  0.4780
 2041TIP3    H127538   6.505   6.218  16.540  1.7709  0.3526  0.5750
 2041TIP3    H227539   6.428   6.318  16.624  1.3418  0.8695 -0.4068
 2042TIP3   OH227540   2.721   5.053  14.878  0.1106 -0.6037 -0.9177
 2042TIP3    H127541   2.657   5.124  14.875  1.2111  0.4283 -0.6340
 2042TIP3    H227542   2.732   5.035  14.972 -0.1575 -1.1491 -0.9879
 2043TIP3   OH227543   1.699   4.132   4.510  0.0935 -0.0578  0.0980
 2043TIP3    H127544   1.722   4.045   4.542 -1.3547 -0.5015 -0.0029
 2043TIP3    H227545   1.723   4.192   4.580  2.5103 -0.3276 -0.4102
 2044TIP3   OH227546   3.408   5.828   2.489  0.1080  0.0074 -0.3464
 2044TIP3    H127547   3.362   5.910   2.504  1.6479  1.0370 -0.9218
 2044TIP3    H227548   3.404   5.781   2.573 -2.2546 -0.1515 -0.4906
 2045TIP3   OH227549   1.033   6.350   2.694  0.2296 -0.1800 -0.3647
 2045TIP3    H127550   1.107   6.346   2.633  0.7236 -0.7306  0.2480
 2045TIP3    H227551   1.056   6.287   2.762 -0.3430  0.3790  0.3531
 2046TIP3   OH227552   1.380   4.983  11.972 -0.2498  0.2548  0.3008
 2046TIP3    H127553   1.433   4.921  11.923  0.7931  0.4450  1.1507
 2046TIP3    H227554   1.291   4.948  11.967  0.3584 -1.5370  1.0736
 2047TIP3   OH227555   3.643   0.904   4.329  0.5031  0.1169  0.2756
 2047TIP3    H127556   3.650   0.809   4.340  0.8323  0.3776  3.0621
 2047TIP3    H227557   3.562   0.927   4.374  0.9370  1.2580  0.5046
 2048TIP3   OH227558   1.025   0.146   5.394  0.1291  0.2612  0.1962
 2048TIP3    H127559   0.969   0.148   5.317 -0.4865  0.3442  0.6349
 2048TIP3    H227560   1.103   0.195   5.368 -0.0003  0.1460 -0.4249
 2049TIP3   OH227561   2.999   4.770  13.479 -0.2540 -0.0977 -0.2014
 2049TIP3    H127562   2.961   4.770  13.391 -2.2166  1.8653  0.5544
 2049TIP3    H227563   2.954   4.841  13.525  2.8972  1.0452  1.4749
 2050TIP3   OH227564   5.055   1.781   4.599 -0.5591  0.2541 -0.0612
 2050TIP3    H127565   5.143   1.812   4.578 -1.6268  2.6205 -1.4550
 2050TIP3    H227566   4.999   1.820   4.532 -2.9321  0.3835  1.8614
 2051TIP3   OH227567   4.982   5.862  12.760 -0.5363  1.0888 -0.1568
 2051TIP3    H127568   4.957   5.912  12.683  0.7648 -1.5042 -2.4594
 2051TIP3    H227569   4.999   5.927  12.828  0.8851  3.7414 -2.8436
 2052TIP3   OH227570   5.059   2.770  12.584 -0.0577  0.0818 -0.3304
 2052TIP3    H127571   5.117   2.789  12.658 -0.5724  1.5222 -0.2682
 2052TIP3    H227572   5.013   2.690  12.609 -0.3484  0.6376  0.9962
 2053TIP3   OH227573   5.441   5.538  16.234  0.7073 -0.0859 -0.8001
 2053TIP3    H127574   5.406   5.597  16.301  2.2440  0.5479 -0.5188
 2053TIP3    H227575   5.365   5.515  16.180 -0.5139 -0.4455  1.0123
 2054TIP3   OH227576   2.987   1.222  16.853 -0.3073  0.8017  0.1479
 2054TIP3    H127577   2.995   1.300  16.908 -0.3794  0.6929  0.3155
 2054TIP3    H227578   2.965   1.152  16.914 -2.3505  1.0460 -0.2579
 2055TIP3   OH227579   0.876   3.607   3.326  0.3467  0.1922 -0.7338
 2055TIP3    H127580   0.832   3.597   3.411  0.2545  1.3101 -0.6307
 2055TIP3    H227581   0.817   3.566   3.263  0.9974 -1.7762 -0.1233
 2056TIP3   OH227582   0.980   0.657  11.952  0.3278 -0.3528 -0.4817
 2056TIP3    H127583   1.020   0.619  12.030  1.1707  0.6715 -0.4028
 2056TIP3    H227584   0.914   0.718  11.985  0.7115  0.1105 -0.5626
 2057TIP3   OH227585   2.755   4.549   2.622 -1.0371  0.1139 -0.1085
 2057TIP3    H127586   2.805   4.506   2.552  0.3344  0.0364  0.8745
 2057TIP3    H227587   2.787   4.639   2.621  0.6935 -0.4102  1.8487
 2058TIP3   OH227588   4.204   4.131   3.776  0.2455 -0.3641  0.1789
 2058TIP3    H127589   4.223   4.165   3.863 -1.4822 -0.8754  0.7791
 2058TIP3    H227590   4.109   4.129   3.770  0.2980  0.5201 -2.0752
 2059TIP3   OH227591   2.858   5.723   6.377 -0.2546 -0.5846 -0.0053
 2059TIP3    H127592   2.790   5.666   6.340 -0.2928 -0.5693  0.0414
 2059TIP3    H227593   2.911   5.665   6.432 -0.8281 -0.3987  0.7582
 2060TIP3   OH227594   1.031   1.334  12.902 -0.1544  0.3276  0.3822
 2060TIP3    H127595   0.958   1.397  12.904 -1.0214 -0.5581 -1.1478
 2060TIP3    H227596   0.990   1.250  12.921  0.4857 -0.1762 -0.4251
 2061TIP3   OH227597   4.982   2.987   3.730  0.4113 -0.1369 -0.0161
 2061TIP3    H127598   4.902   2.960   3.685  0.7340 -0.3407 -0.4750
 2061TIP3    H227599   4.980   3.083   3.728  1.6718 -0.0605 -2.7932
 2062TIP3   OH227600   5.166   0.763  10.692  0.0246  0.4490  0.1518
 2062TIP3    H127601   5.090   0.773  10.750 -0.2083  0.6179 -0.1763
 2062TIP3    H227602   5.237   0.807  10.738 -0.3622  1.3335 -0.0754
 2063TIP3   OH227603   5.163   5.864   1.163  0.1338 -0.0837  0.0039
 2063TIP3    H127604   5.170   5.769   1.164 -0.1168 -0.1016  0.4941
 2063TIP3    H227605   5.250   5.894   1.137  0.3846 -0.4353  0.4188
 2064TIP3   OH227606   0.838   0.255   6.106 -0.1224  0.1246 -0.6363
 2064TIP3    H127607   0.745   0.239   6.090 -0.0291 -0.4038 -0.6924
 2064TIP3    H227608   0.843   0.272   6.200  0.0257 -2.4938 -0.0794
 2065TIP3   OH227609   4.527   4.085  15.921  0.6897  0.1094 -0.0804
 2065TIP3    H127610   4.475   4.123  15.850  1.3426 -1.7839 -1.6751
 2065TIP3    H227611   4.581   4.157  15.953 -2.0241  1.8672  0.8750
 2066TIP3   OH227612   4.146   0.046  15.332 -0.1853  0.4314 -0.3126
 2066TIP3    H127613   4.063   0.047  15.284 -0.4400 -1.4672  0.0018
 2066TIP3    H227614   4.120   0.025  15.422  0.5919  0.3014 -0.1133
 2067TIP3   OH227615   6.726   0.660  13.615 -0.4245 -0.3890 -0.0991
 2067TIP3    H127616   6.685   0.737  13.575  0.8843 -0.3092 -1.3984
 2067TIP3    H227617   6.766   0.693  13.695 -0.2369  0.2016 -0.4302
 2068TIP3   OH227618   4.043   2.646   0.612 -0.4424  0.6813 -0.4554
 2068TIP3    H127619   4.041   2.736   0.645 -1.5904  0.3999  0.2662
 2068TIP3    H227620   4.013   2.653   0.521  2.1095  1.3677 -1.3370
 2069TIP3   OH227621   2.346   6.216  17.018 -0.4752 -0.6531 -0.1455
 2069TIP3    H127622   2.417   6.155  17.038 -0.0161 -0.0800  0.0223
 2069TIP3    H227623   2.339   6.271  17.097 -0.1061  0.2407 -0.7094
 2070TIP3   OH227624   4.012   0.548   1.585 -0.2949  0.1360  0.5034
 2070TIP3    H127625   4.006   0.473   1.644 -1.2050  0.8528  1.3635
 2070TIP3    H227626   3.964   0.618   1.630  1.0172  1.4229  0.0172
 2071TIP3   OH227627   0.351   5.483  12.050  0.2119 -0.1298 -0.2333
 2071TIP3    H127628   0.375   5.547  11.983 -0.4653 -1.2994 -1.6471
 2071TIP3    H227629   0.373   5.399  12.011  0.2835 -0.8196  1.2496
 2072TIP3   OH227630   1.635   2.217  13.956  0.5780 -0.0784 -0.2350
 2072TIP3    H127631   1.555   2.191  14.001  0.0838  1.2415 -0.3025
 2072TIP3    H227632   1.616   2.202  13.863  0.9688 -1.1580 -0.1593
 2073TIP3   OH227633   0.247   6.502  15.374  0.3112 -0.2387 -0.2870
 2073TIP3    H127634   0.287   6.537  15.453 -1.4232 -1.6359  1.2934
 2073TIP3    H227635   0.257   6.571  15.309  1.3431  1.1428  1.2785
 2074TIP3   OH227636   6.745   3.285  12.875 -0.0040  0.6702 -0.9513
 2074TIP3    H127637   6.681   3.346  12.913  0.3076  0.0759  0.5914
 2074TIP3    H227638   6.699   3.202  12.871  1.0800 -0.1482  1.6445
 2075TIP3   OH227639   0.676   2.341   1.232  0.1100 -0.6418  0.3060
 2075TIP3    H127640   0.647   2.252   1.212  0.0731 -0.1959 -1.8756
 2075TIP3    H227641   0.617   2.397   1.182 -0.0568  0.6522  1.8815
 2076TIP3   OH227642   6.394   6.463   4.957  0.6828  0.1501 -0.1124
 2076TIP3    H127643   6.352   6.472   4.872  1.1359  0.5089 -0.2993
 2076TIP3    H227644   6.396   6.368   4.972  0.2537  0.1030 -0.3185
 2077TIP3   OH227645   3.465   5.981  15.256 -0.0763 -0.3425 -0.1748
 2077TIP3    H127646   3.513   6.044  15.309 -0.4605 -1.4531  1.6016
 2077TIP3    H227647   3.373   6.009  15.262 -0.4976 -1.8441  1.9946
 2078TIP3   OH227648   1.113   1.064  16.868  0.7007  0.3785 -0.1866
 2078TIP3    H127649   1.123   1.018  16.784 -0.8157  0.3832 -0.3930
 2078TIP3    H227650   1.193   1.044  16.916  0.5735 -1.5769 -0.7103
 2079TIP3   OH227651   4.024   3.909  13.879  0.3356 -0.0339 -1.1368
 2079TIP3    H127652   4.045   3.978  13.816 -2.4758 -0.1882 -2.3703
 2079TIP3    H227653   3.969   3.848  13.830  0.0700 -1.4777  0.8387
 2080TIP3   OH227654   0.264   1.714   4.995 -0.0075  0.2957  0.0440
 2080TIP3    H127655   0.170   1.733   4.997 -0.7541 -2.6929 -1.1536
 2080TIP3    H227656   0.291   1.742   4.908  0.7171  2.7487  0.9624
 2081TIP3   OH227657   0.566   6.249   3.260  0.4704  0.2638 -0.3391
 2081TIP3    H127658   0.597   6.159   3.247 -3.1852 -0.8198 -3.2662
 2081TIP3    H227659   0.507   6.244   3.335  2.0134  0.8865  0.9999
 2082TIP3   OH227660   5.076   1.261   0.236 -0.1186  0.0811 -0.0809
 2082TIP3    H127661   5.078   1.298   0.324 -1.4400  0.8900 -0.3547
 2082TIP3    H227662   4.994   1.293   0.199  1.1121  1.0547 -2.1524
 2083TIP3   OH227663   2.157   4.983  14.542 -0.0512  0.6077 -0.1404
 2083TIP3    H127664   2.225   4.996  14.475 -1.6300 -0.6323 -2.0724
 2083TIP3    H227665   2.165   4.891  14.567  0.0823  0.8962  0.9589
 2084TIP3   OH227666   0.035   6.652  13.975  0.6847  0.6623 -0.0223
 2084TIP3    H127667   0.035   6.745  13.951 -2.0795  1.0344  1.0284
 2084TIP3    H227668   0.103   6.645  14.041 -0.1460  2.3655  1.1085
 2085TIP3   OH227669   5.066   3.873   0.656  0.3059 -0.0123 -0.0440
 2085TIP3    H127670   5.015   3.800   0.622  0.7948  0.1644 -1.1852
 2085TIP3    H227671   5.101   3.917   0.578 -0.5323  1.8427  0.5738
 2086TIP3   OH227672   4.125   3.168   1.451 -0.1311  0.4739 -0.3249
 2086TIP3    H127673   4.185   3.233   1.414 -0.4919  0.6764 -0.5678
 2086TIP3    H227674   4.143   3.088   1.401  1.8846 -0.2812  1.4534
 2087TIP3   OH227675   2.271   3.790   4.346  0.6737  0.1476  0.4429
 2087TIP3    H127676   2.304   3.869   4.388  1.3595  0.2919 -0.3484
 2087TIP3    H227677   2.320   3.719   4.388  1.3176  0.2875 -0.0514
 2088TIP3   OH227678   1.839   3.669  13.772  0.1689  0.0901  0.3781
 2088TIP3    H127679   1.851   3.575  13.763 -0.0806 -0.1945  2.5394
 2088TIP3    H227680   1.744   3.682  13.764  0.2934  0.3171 -0.9370
 2089TIP3   OH227681   3.635   6.488  10.334 -0.3310 -0.6199  0.2165
 2089TIP3    H127682   3.714   6.444  10.363 -0.5794 -1.1712  0.0651
 2089TIP3    H227683   3.591   6.517  10.414 -0.6295 -1.4602  0.3625
 2090TIP3   OH227684   2.620   6.001  13.776  0.3547 -0.0001 -0.0834
 2090TIP3    H127685   2.582   5.961  13.697  1.8874 -0.5173 -0.5871
 2090TIP3    H227686   2.682   6.066  13.742  0.5364  0.2523  0.7197
 2091TIP3   OH227687   3.692   6.045   0.136  0.4497 -0.0857  0.6858
 2091TIP3    H127688   3.769   5.992   0.157  1.6109  0.9796 -0.7622
 2091TIP3    H227689   3.666   6.017   0.048 -0.7346 -0.2979  1.0727
 2092TIP3   OH227690   0.326   6.447   0.901 -0.0742  0.0862  0.1604
 2092TIP3    H127691   0.417   6.472   0.918  0.2768 -0.1394 -1.2843
 2092TIP3    H227692   0.328   6.352   0.895 -0.3192  0.1083 -0.3192
 2093TIP3   OH227693   1.382   5.137  14.483 -0.1810 -0.5596  0.2740
 2093TIP3    H127694   1.287   5.124  14.474 -0.2551  1.1024 -2.9803
 2093TIP3    H227695   1.420   5.058  14.443 -0.3091  0.1232 -1.2736
 2094TIP3   OH227696   4.144   5.797   0.545 -0.0407  0.5959  0.3414
 2094TIP3    H127697   4.210   5.819   0.480 -1.0379  0.9890 -0.5686
 2094TIP3    H227698   4.185   5.818   0.629  1.3870 -0.2466 -0.1212
 2095TIP3   OH227699   6.719   6.098   5.879 -0.0824 -0.1650 -0.3353
 2095TIP3    H127700   6.689   6.045   5.953 -0.8281  1.7393  0.7927
 2095TIP3    H227701   6.807   6.125   5.903 -1.1449  2.3634  1.0346
 2096TIP3   OH227702   0.150   3.598   1.937  0.3473 -0.1551 -0.3105
 2096TIP3    H127703   0.141   3.531   1.869 -1.1976 -0.0524 -0.2245
 2096TIP3    H227704   0.096   3.568   2.009 -0.3162  1.1308 -0.2336
 2097TIP3   OH227705   1.396   5.524  15.147 -1.3443 -0.8053 -0.3273
 2097TIP3    H127706   1.347   5.506  15.227 -1.5614 -1.1567 -0.5340
 2097TIP3    H227707   1.337   5.497  15.077 -0.4120 -2.3420 -0.5601
 2098TIP3   OH227708   3.069   5.955   5.617  0.1047  0.3066  0.6850
 2098TIP3    H127709   3.129   5.882   5.630  1.1846  1.3525  1.8114
 2098TIP3    H227710   3.065   5.999   5.702 -0.9343  1.2635  0.1767
 2099TIP3   OH227711   2.255   4.739   3.668  0.7342 -1.0281 -0.1502
 2099TIP3    H127712   2.296   4.760   3.752  1.2164 -0.5382 -0.5020
 2099TIP3    H227713   2.181   4.683   3.691  0.5008 -0.4032  0.6615
 2100TIP3   OH227714   4.386   3.636   3.635 -0.2440 -0.0085 -0.6043
 2100TIP3    H127715   4.351   3.720   3.662 -0.5371  0.3891 -2.1232
 2100TIP3    H227716   4.402   3.589   3.717  0.0882  1.5735  0.2863
 2101TIP3   OH227717   2.202   6.227   3.963 -0.2120  0.2410 -0.5208
 2101TIP3    H127718   2.246   6.150   3.926  0.6936  0.0357  0.8927
 2101TIP3    H227719   2.254   6.249   4.040 -1.9062  0.7280  0.5401
 2102TIP3   OH227720   3.574   3.745   2.510  0.3210 -0.3426 -0.6630
 2102TIP3    H127721   3.599   3.688   2.437  0.2338  1.0678 -1.8632
 2102TIP3    H227722   3.502   3.700   2.553  0.3013 -1.1670 -1.5200
 2103TIP3   OH227723   3.126   3.540   1.476 -0.0784  0.2869  0.2016
 2103TIP3    H127724   3.185   3.525   1.550 -0.4954 -1.8149  0.1722
 2103TIP3    H227725   3.101   3.452   1.447 -0.8351  1.0725 -1.7152
 2104TIP3   OH227726   0.900   5.052   5.709 -0.1386 -0.2300 -0.7711
 2104TIP3    H127727   0.933   5.048   5.619 -0.4640 -0.5729 -0.8768
 2104TIP3    H227728   0.943   4.980   5.754 -0.2161 -0.2547 -0.7354
 2105TIP3   OH227729   1.323   2.607   1.252 -0.1877 -0.5057  0.1053
 2105TIP3    H127730   1.249   2.606   1.313 -0.0481 -5.4557  0.6143
 2105TIP3    H227731   1.283   2.595   1.166 -0.1090  0.5941 -0.0929
 2106TIP3   OH227732   0.596   3.004  13.211 -0.2997 -0.4225  0.2390
 2106TIP3    H127733   0.588   3.077  13.149 -0.4753 -0.1690  0.5525
 2106TIP3    H227734   0.516   3.010  13.264 -0.4901 -1.0679  0.0304
 2107TIP3   OH227735   1.828   5.902  12.679  0.1358 -0.2599  0.2374
 2107TIP3    H127736   1.763   5.970  12.660 -2.2181 -2.2340  0.6634
 2107TIP3    H227737   1.881   5.897  12.600  1.8242  3.4092  0.9118
 2108TIP3   OH227738   1.259   4.323   0.494 -0.6504  0.2661 -0.0934
 2108TIP3    H127739   1.202   4.246   0.483 -1.3498  0.9418 -1.4533
 2108TIP3    H227740   1.323   4.296   0.559 -0.4070 -1.7453 -1.0891
 2109TIP3   OH227741   5.047   0.287   2.759  0.4566  0.6721  0.2072
 2109TIP3    H127742   5.044   0.208   2.706  1.4517  0.6727  0.1352
 2109TIP3    H227743   5.114   0.342   2.718 -0.1301  1.5014  0.3249
 2110TIP3   OH227744   3.733   0.526   0.313 -0.0549  0.6382  0.3630
 2110TIP3    H127745   3.743   0.619   0.333  0.6814  0.3744  1.3362
 2110TIP3    H227746   3.678   0.492   0.384 -0.2328  0.3114  0.0750
 2111TIP3   OH227747   0.792   5.775  15.088  0.0832 -0.3144  0.0140
 2111TIP3    H127748   0.880   5.800  15.058 -0.4401  0.8776 -0.5437
 2111TIP3    H227749   0.734   5.797  15.015 -1.1648  2.2253  1.6436
 2112TIP3   OH227750   1.290   1.853  11.627 -0.1427 -0.1832  0.3502
 2112TIP3    H127751   1.333   1.905  11.559  0.2743 -1.4233 -0.3732
 2112TIP3    H227752   1.239   1.788  11.579 -0.6971 -0.4116  1.2269
 2113TIP3   OH227753   1.334   6.242  13.778  0.5331  0.7505  0.1804
 2113TIP3    H127754   1.411   6.270  13.828  0.8659 -2.4971  1.7566
 2113TIP3    H227755   1.260   6.253  13.839  0.7668 -2.0324  1.1376
 2114TIP3   OH227756   2.635   4.737   2.046  0.2223 -1.0407  0.1773
 2114TIP3    H127757   2.602   4.716   1.959  0.5304  2.5796 -0.9475
 2114TIP3    H227758   2.719   4.780   2.031 -0.4065  1.0200  2.0949
 2115TIP3   OH227759   1.438   0.285  11.192 -0.4099  0.0483  0.0519
 2115TIP3    H127760   1.434   0.349  11.121  2.5726 -0.4613 -0.7427
 2115TIP3    H227761   1.384   0.212  11.163  1.1659 -0.3839 -2.0686
 2116TIP3   OH227762   6.143   1.079  11.862  0.9211 -0.2425 -0.2183
 2116TIP3    H127763   6.152   1.111  11.772  0.9091 -0.1293 -0.1793
 2116TIP3    H227764   6.180   1.149  11.916  1.2320 -0.4530 -0.1558
 2117TIP3   OH227765   6.204   3.640   4.561 -0.2252  0.0544 -0.5720
 2117TIP3    H127766   6.159   3.673   4.638  0.9637  0.9653 -0.2270
 2117TIP3    H227767   6.227   3.719   4.512 -1.2866 -0.5274 -2.0642
 2118TIP3   OH227768   1.533   0.609  14.528 -0.2269 -0.9544 -0.3012
 2118TIP3    H127769   1.510   0.667  14.455 -0.6914 -1.3983 -0.5191
 2118TIP3    H227770   1.525   0.521  14.491 -2.0274 -1.2505  0.6929
 2119TIP3   OH227771   0.391   4.212   1.610  0.3000 -0.0195 -0.3918
 2119TIP3    H127772   0.299   4.192   1.624  0.9209 -1.1000  3.3019
 2119TIP3    H227773   0.436   4.173   1.685  3.3247  3.6701  0.0355
 2120TIP3   OH227774   1.474   6.741  15.878  0.5014 -0.4093 -0.4091
 2120TIP3    H127775   1.547   6.768  15.822  0.3551 -1.3250 -1.0566
 2120TIP3    H227776   1.439   6.663  15.836  0.0842 -0.8423  0.7170
 2121TIP3   OH227777   6.232   3.473  14.211  0.2716  0.3840  0.0392
 2121TIP3    H127778   6.320   3.510  14.218  0.7383 -0.1481 -2.2826
 2121TIP3    H227779   6.239   3.387  14.252  1.0568  0.0452 -0.7715
 2122TIP3   OH227780   6.486   4.071   4.579  0.6734  0.5273  0.9424
 2122TIP3    H127781   6.528   4.157   4.584  1.0517  0.5272 -1.2624
 2122TIP3    H227782   6.394   4.091   4.559  0.9015  0.4297 -0.2565
 2123TIP3   OH227783   0.281   1.252   2.840  0.3409  0.2078 -0.5649
 2123TIP3    H127784   0.254   1.191   2.771  1.1434 -0.7271 -0.0724
 2123TIP3    H227785   0.285   1.337   2.797  2.0725 -0.5498 -2.0349
 2124TIP3   OH227786   5.602   5.680   1.074 -0.4295 -0.0745  0.0741
 2124TIP3    H127787   5.545   5.611   1.042  0.0872 -0.6043  0.2887
 2124TIP3    H227788   5.608   5.665   1.169 -1.4174  1.0859  0.3465
 2125TIP3   OH227789   0.752   1.870   0.647 -0.2993 -0.0629 -0.2592
 2125TIP3    H127790   0.695   1.799   0.616  1.0407 -0.9947 -0.6878
 2125TIP3    H227791   0.753   1.859   0.742 -1.1630  0.2410 -0.2033
 2126TIP3   OH227792   0.576   0.699  12.522  0.1435  0.5839 -0.0492
 2126TIP3    H127793   0.543   0.620  12.565 -0.7516 -0.3579 -2.3284
 2126TIP3    H227794   0.510   0.765  12.541 -0.9242 -0.1672 -1.0025
 2127TIP3   OH227795   4.931   0.522   5.151  0.1192  0.2097 -0.0122
 2127TIP3    H127796   4.965   0.539   5.239  0.8491  2.5420 -0.6583
 2127TIP3    H227797   4.849   0.572   5.147 -0.2556 -0.4339 -0.4333
 2128TIP3   OH227798   4.454   2.100  11.527  0.0318  1.0236 -0.6168
 2128TIP3    H127799   4.377   2.047  11.548  0.9561  0.3108  1.1545
 2128TIP3    H227800   4.467   2.155  11.604  0.4966  2.1210 -1.4608
 2129TIP3   OH227801   5.336   4.981   0.040  0.3344  0.7789  0.3659
 2129TIP3    H127802   5.344   4.925   0.117  2.2841  0.7642  0.2034
 2129TIP3    H227803   5.261   4.945  -0.008  1.0185 -1.2280  0.6733
 2130TIP3   OH227804   3.416   3.013   5.129  0.2288  0.4095 -0.4345
 2130TIP3    H127805   3.385   2.959   5.201 -2.3929  1.9025 -0.3116
 2130TIP3    H227806   3.340   3.065   5.103  1.4059  0.8408 -3.4798
 2131TIP3   OH227807   4.344   2.740   0.483 -0.0414 -0.4043  0.2992
 2131TIP3    H127808   4.263   2.744   0.534 -1.2387  0.6099 -1.5517
 2131TIP3    H227809   4.338   2.814   0.422  1.3907 -1.4050 -1.1520
 2132TIP3   OH227810   2.326   5.576  11.812 -0.2785  0.3677 -0.4576
 2132TIP3    H127811   2.260   5.584  11.881  0.9225  0.0008  0.7971
 2132TIP3    H227812   2.409   5.590  11.858  0.6264 -0.8698 -1.6526
 2133TIP3   OH227813   6.721   6.303  16.814  0.0621 -0.7311 -0.2216
 2133TIP3    H127814   6.742   6.396  16.829  1.7825 -0.8242 -1.6065
 2133TIP3    H227815   6.665   6.304  16.737 -1.3217 -0.7707  0.7581
 2134TIP3   OH227816   0.820   3.999   0.079 -0.2054 -0.0105  0.0729
 2134TIP3    H127817   0.787   3.910   0.090 -1.7966  0.2776 -1.7980
 2134TIP3    H227818   0.850   4.003  -0.012  0.9948  1.0366  0.4804
 2135TIP3   OH227819   1.305   0.434   0.931 -0.1899  0.1370 -0.0322
 2135TIP3    H127820   1.315   0.528   0.939 -0.0114  0.0676  0.6608
 2135TIP3    H227821   1.386   0.405   0.888 -0.0840  0.2598  0.0825
 2136TIP3   OH227822   2.913   2.532  10.831 -0.7437  0.1154 -0.6628
 2136TIP3    H127823   3.008   2.524  10.832 -0.5872  0.1778  4.1087
 2136TIP3    H227824   2.882   2.447  10.801  0.8140 -0.4543 -0.7401
 2137TIP3   OH227825   6.278   0.888  12.319 -0.1485 -0.4935  0.1812
 2137TIP3    H127826   6.203   0.893  12.260  0.3642 -1.2025 -0.5574
 2137TIP3    H227827   6.281   0.974  12.362 -3.7794 -1.6611  3.2873
 2138TIP3   OH227828   1.571   2.450  14.517 -0.1838  0.1298  0.3643
 2138TIP3    H127829   1.599   2.365  14.553 -0.4230  0.1947  0.7036
 2138TIP3    H227830   1.506   2.482  14.579 -0.1006  0.5596  0.2311
 2139TIP3   OH227831   2.271   0.566  17.094  0.4988 -0.1275  0.0990
 2139TIP3    H127832   2.266   0.624  17.170 -0.9361  1.2575 -0.9686
 2139TIP3    H227833   2.353   0.588  17.051  2.1106 -2.0070  1.9836
 2140TIP3   OH227834   5.454   0.242   5.838 -0.2549  0.1230 -0.8095
 2140TIP3    H127835   5.485   0.278   5.755  0.4966 -0.4853 -0.8054
 2140TIP3    H227836   5.531   0.242   5.894 -0.6555  0.1169 -0.2492
 2141TIP3   OH227837   1.304   5.181  10.901 -0.2999  0.1271  0.1361
 2141TIP3    H127838   1.356   5.183  10.820  0.7107  1.1910  0.7783
 2141TIP3    H227839   1.245   5.106  10.889  2.5787 -2.3175  0.0850
 2142TIP3   OH227840   1.863   6.359  16.793 -0.0702 -0.0680  0.1756
 2142TIP3    H127841   1.865   6.452  16.817 -0.2547  0.1407 -0.5990
 2142TIP3    H227842   1.932   6.319  16.847  0.1860  0.5610  0.3221
 2143TIP3   OH227843   3.028   3.834   1.516 -0.1647  0.2937 -0.2839
 2143TIP3    H127844   2.989   3.753   1.483 -1.0280  0.1441  1.0320
 2143TIP3    H227845   3.059   3.812   1.604  0.4448  1.1545 -0.2719
 2144TIP3   OH227846   5.462   1.406  11.491  0.0967  0.2095  0.2200
 2144TIP3    H127847   5.369   1.385  11.489  0.3738 -1.1943  0.5152
 2144TIP3    H227848   5.476   1.464  11.417 -1.0757  0.7361  0.4011
 2145TIP3   OH227849   2.589   2.961  15.824 -0.2483 -0.0236 -0.3374
 2145TIP3    H127850   2.610   3.055  15.824  2.0968 -0.5089 -0.0042
 2145TIP3    H227851   2.633   2.926  15.900  0.0308 -1.6437 -1.2067
 2146TIP3   OH227852   2.198   2.992  15.631  0.0913  0.2441  0.2694
 2146TIP3    H127853   2.125   3.001  15.692 -0.8390 -1.7644 -0.4438
 2146TIP3    H227854   2.204   3.077  15.587 -2.4849  0.2162 -0.3244
 2147TIP3   OH227855   5.341   4.237   3.939 -0.2196 -0.2787  0.2040
 2147TIP3    H127856   5.303   4.150   3.925 -1.3230  0.1515  0.4399
 2147TIP3    H227857   5.266   4.296   3.937  0.4880  0.6384  0.3607
 2148TIP3   OH227858   2.025   4.567   0.200  0.0832  0.1119 -0.3458
 2148TIP3    H127859   1.977   4.649   0.187  0.3355  0.1900 -0.7704
 2148TIP3    H227860   1.959   4.508   0.238  0.2487  0.9098  1.2803
 2149TIP3   OH227861   2.704   3.173  12.193  0.0110  0.8807 -0.0557
 2149TIP3    H127862   2.646   3.099  12.213  0.7402 -0.1772 -1.6938
 2149TIP3    H227863   2.648   3.235  12.145 -0.3546  0.9901  0.4923
 2150TIP3   OH227864   5.895   4.045   0.367 -0.2881  0.0935 -0.1583
 2150TIP3    H127865   5.827   4.108   0.346 -0.2079  0.0858 -0.4398
 2150TIP3    H227866   5.859   3.993   0.439 -0.9941 -0.5834 -0.9866
 2151TIP3   OH227867   6.651   1.231  11.131 -0.2784  0.4186  0.1828
 2151TIP3    H127868   6.714   1.177  11.179 -0.9127  0.7316  1.4122
 2151TIP3    H227869   6.692   1.318  11.128  0.7619 -0.0714 -1.8329
 2152TIP3   OH227870   2.962   5.152  10.965 -0.1302  0.0915 -0.0902
 2152TIP3    H127871   3.040   5.128  10.915 -1.5468 -1.6534 -1.5991
 2152TIP3    H227872   2.937   5.072  11.011 -2.1653 -0.0468 -1.3011
 2153TIP3   OH227873   5.639   5.106  14.256 -0.0691  0.0041 -0.1088
 2153TIP3    H127874   5.626   5.165  14.182 -2.5133  1.1004  1.0681
 2153TIP3    H227875   5.702   5.151  14.312  1.4871 -0.6502 -1.2457
 2154TIP3   OH227876   6.234   5.083  11.856  0.1233  0.0452 -0.1829
 2154TIP3    H127877   6.181   5.115  11.930 -0.1404 -0.5920 -0.0847
 2154TIP3    H227878   6.315   5.053  11.897  0.1983  0.1918 -0.2225
 2155TIP3   OH227879   0.691   2.797  14.237 -0.1420 -0.2757 -0.3519
 2155TIP3    H127880   0.631   2.868  14.258  0.7351  0.3036  0.2704
 2155TIP3    H227881   0.656   2.759  14.156 -1.3322  0.0375 -0.0077
 2156TIP3   OH227882   5.128   4.400   2.663 -0.7665 -0.4840  0.1515
 2156TIP3    H127883   5.103   4.491   2.675  0.5981  0.1404 -1.3378
 2156TIP3    H227884   5.052   4.359   2.623 -1.0455  0.2499 -0.0908
 2157TIP3   OH227885   0.474   1.726  15.326 -0.1439 -0.0490  0.8512
 2157TIP3    H127886   0.393   1.766  15.358  0.1773  1.6588 -0.3152
 2157TIP3    H227887   0.444   1.658  15.266 -0.7249  0.3567  0.6695
 2158TIP3   OH227888   3.758   5.211  17.029  0.7738  0.7502 -0.0274
 2158TIP3    H127889   3.790   5.165  16.952 -0.8139  1.7793 -1.3679
 2158TIP3    H227890   3.796   5.299  17.021  0.8912  0.7575  0.5785
 2159TIP3   OH227891   2.459   6.312   2.237  0.1900  0.3431 -0.2610
 2159TIP3    H127892   2.481   6.227   2.277  0.8893  0.4502 -0.4007
 2159TIP3    H227893   2.441   6.369   2.311 -1.4478 -0.2162 -0.1903
 2160TIP3   OH227894   6.588   6.285   1.662  0.4986  0.2974 -0.4180
 2160TIP3    H127895   6.607   6.283   1.756  0.1073  0.3635 -0.3383
 2160TIP3    H227896   6.547   6.200   1.644  1.0253  0.0828 -0.6263
 2161TIP3   OH227897   4.097   5.735  17.227 -0.5047  0.1705  0.5429
 2161TIP3    H127898   4.073   5.645  17.249  1.1071 -0.5071 -0.2829
 2161TIP3    H227899   4.113   5.778  17.312  3.0127 -1.6250  0.9869
 2162TIP3   OH227900   1.618   0.341   1.383 -0.5927  0.8635  0.2459
 2162TIP3    H127901   1.640   0.256   1.344  0.9791  1.4838 -0.2852
 2162TIP3    H227902   1.575   0.389   1.313 -0.2799  0.9755  0.1282
 2163TIP3   OH227903   1.273   6.052   3.266  0.1487  0.1239 -0.2601
 2163TIP3    H127904   1.267   6.087   3.177 -1.6488  1.6689  0.3945
 2163TIP3    H227905   1.334   6.111   3.311 -0.5473  0.6121  0.0563
 2164TIP3   OH227906   1.216   3.730   4.393  0.2635  0.0713  0.3606
 2164TIP3    H127907   1.145   3.786   4.425 -0.3289  0.2316 -1.1400
 2164TIP3    H227908   1.175   3.645   4.378  0.5612 -0.0495  0.2293
 2165TIP3   OH227909   5.027   4.135   1.947  0.0213 -0.1799 -0.3500
 2165TIP3    H127910   5.086   4.164   1.878  0.3387  0.0772  0.0231
 2165TIP3    H227911   5.027   4.040   1.940  2.3115 -0.3797  1.0843
 2166TIP3   OH227912   3.449   4.487  16.061 -0.6005 -0.0042  0.8446
 2166TIP3    H127913   3.460   4.400  16.097  1.2599  0.3535  1.2501
 2166TIP3    H227914   3.538   4.514  16.037 -1.2357  1.4818  0.0469
 2167TIP3   OH227915   5.594   3.904   4.277 -0.2525 -0.1727  0.5510
 2167TIP3    H127916   5.673   3.954   4.259 -0.0532 -0.5671  0.3069
 2167TIP3    H227917   5.549   3.953   4.346  0.2125  0.0434  0.7007
 2168TIP3   OH227918   2.795   2.657   2.494  0.7592 -0.1674 -0.4135
 2168TIP3    H127919   2.778   2.564   2.511 -0.2809  0.1181  0.1743
 2168TIP3    H227920   2.864   2.656   2.427  1.1041 -1.3539 -0.0719
 2169TIP3   OH227921   5.655   1.744  14.774  0.2344 -0.3836 -0.1341
 2169TIP3    H127922   5.663   1.655  14.740  1.5702  0.2097 -1.5560
 2169TIP3    H227923   5.622   1.734  14.863 -1.1789 -2.1858 -0.8173
 2170TIP3   OH227924   0.298   0.989   5.593 -0.2307 -0.2462  0.1709
 2170TIP3    H127925   0.376   0.947   5.557  0.7049 -0.0157  1.8502
 2170TIP3    H227926   0.293   0.958   5.683 -2.4113 -0.6749 -0.0423
 2171TIP3   OH227927   3.155   0.193  11.867 -0.0890  0.0883  0.3835
 2171TIP3    H127928   3.158   0.121  11.803 -0.5912 -0.4252  0.9228
 2171TIP3    H227929   3.097   0.160  11.936 -0.1799  0.9484  0.7197
 2172TIP3   OH227930   2.375   5.478   0.869  0.3121  0.4117  0.6486
 2172TIP3    H127931   2.405   5.391   0.840  1.3887  0.3595  1.8503
 2172TIP3    H227932   2.280   5.472   0.867  0.3698 -0.5972  0.1442
 2173TIP3   OH227933   5.497   3.552  16.806 -0.0826  0.0913 -0.2572
 2173TIP3    H127934   5.445   3.573  16.729 -0.3338 -0.9573 -0.3829
 2173TIP3    H227935   5.517   3.459  16.798  1.1940  0.3041  0.1579
 2174TIP3   OH227936   0.301   4.118   4.334 -0.1086 -0.5578  0.1027
 2174TIP3    H127937   0.223   4.099   4.281 -0.2737  1.2974 -0.4223
 2174TIP3    H227938   0.283   4.205   4.372  1.5570 -0.2379  0.2440
 2175TIP3   OH227939   2.921   6.156   3.992 -0.0427 -0.0031  0.5916
 2175TIP3    H127940   2.831   6.183   3.976  0.0793 -0.0538 -0.2684
 2175TIP3    H227941   2.960   6.229   4.041 -0.2742  0.4805  0.0680
 2176TIP3   OH227942   1.830   2.373  16.567  0.4491 -0.2186 -0.2167
 2176TIP3    H127943   1.768   2.441  16.593  1.2224 -0.2728  1.9754
 2176TIP3    H227944   1.915   2.417  16.564  0.7667 -0.8097 -0.0555
 2177TIP3   OH227945   1.555   2.913  17.228 -0.0018  0.4539  0.4534
 2177TIP3    H127946   1.606   2.918  17.309  0.7749  0.9492 -0.0512
 2177TIP3    H227947   1.496   2.839  17.241  3.8641 -3.1713 -0.6036
 2178TIP3   OH227948   0.357   0.077  16.122 -0.3075  0.6058 -0.5111
 2178TIP3    H127949   0.269   0.085  16.086 -0.7827  0.5199  0.6016
 2178TIP3    H227950   0.351   0.006  16.186  0.5289  0.6834 -0.3314
 2179TIP3   OH227951   3.037   4.609  13.158 -0.3773 -0.3752  0.3673
 2179TIP3    H127952   3.087   4.544  13.107 -0.7546 -0.7019  0.4125
 2179TIP3    H227953   2.956   4.565  13.181 -0.4416 -0.0430  0.7990
 2180TIP3   OH227954   4.477   2.335  16.332 -0.0263  0.0856  0.1413
 2180TIP3    H127955   4.405   2.301  16.385 -2.3028  0.8726 -2.2607
 2180TIP3    H227956   4.469   2.430  16.338  1.7417  0.2199  0.9431
 2181TIP3   OH227957   2.402   3.382   0.559  0.2754 -0.4180 -0.0043
 2181TIP3    H127958   2.417   3.340   0.644  1.1074 -0.0498  0.0435
 2181TIP3    H227959   2.436   3.471   0.570 -1.1982  0.1907 -0.1996
 2182TIP3   OH227960   1.173   6.780  16.781  0.5567 -0.3542 -0.0542
 2182TIP3    H127961   1.144   6.752  16.867 -0.7580 -0.6188 -0.5612
 2182TIP3    H227962   1.093   6.787  16.729  1.1518  1.3162 -0.8301
 2183TIP3   OH227963   0.091   4.866   4.544  0.6129  0.5776  0.6029
 2183TIP3    H127964   0.075   4.941   4.487  1.7829 -0.4469 -1.1919
 2183TIP3    H227965   0.186   4.858   4.546  0.6301  0.7589  3.0326
 2184TIP3   OH227966   4.801   4.423   0.266  0.3368  0.1824 -0.3361
 2184TIP3    H127967   4.860   4.482   0.220  0.6070 -0.8647 -1.3913
 2184TIP3    H227968   4.713   4.454   0.244  0.4190  2.1145  1.7255
 2185TIP3   OH227969   4.301   0.380  16.288  0.6461  0.1252  0.1457
 2185TIP3    H127970   4.270   0.448  16.348  0.4535 -0.7919  1.1078
 2185TIP3    H227971   4.351   0.320  16.344  3.6102  1.1300 -1.1752
 2186TIP3   OH227972   3.373   6.593  13.521 -0.2720  0.7306 -0.5271
 2186TIP3    H127973   3.461   6.593  13.484 -0.8224  1.5026 -1.8919
 2186TIP3    H227974   3.356   6.685  13.540  0.2181  0.3305  2.3156
 2187TIP3   OH227975   0.096   1.150   6.564  0.3597  0.2354 -0.1254
 2187TIP3    H127976   0.092   1.059   6.536 -1.8168 -0.4966  2.1618
 2187TIP3    H227977   0.162   1.152   6.633  2.0864  0.9537 -1.7289
 2188TIP3   OH227978   2.138   6.732   2.434 -0.1350 -0.2311 -0.0765
 2188TIP3    H127979   2.199   6.674   2.388 -1.1324 -0.1127 -1.6451
 2188TIP3    H227980   2.194   6.796   2.479  0.9610 -2.0407  1.2486
 2189TIP3   OH227981   1.435   1.351  14.197 -0.6460  0.0295 -0.0006
 2189TIP3    H127982   1.521   1.394  14.194 -0.0329 -1.1460  0.1027
 2189TIP3    H227983   1.455   1.258  14.191 -1.8105 -0.3698  1.7122
 2190TIP3   OH227984   2.414   6.470  15.248  0.0399  0.5837 -0.3904
 2190TIP3    H127985   2.353   6.423  15.304 -0.6643  1.2002 -0.6350
 2190TIP3    H227986   2.381   6.458  15.159  0.0583  1.2178 -0.4916
 2191TIP3   OH227987   0.683   6.364  14.901 -0.5303  0.2728 -0.3197
 2191TIP3    H127988   0.731   6.311  14.965 -0.2213  0.3446 -0.4910
 2191TIP3    H227989   0.611   6.307  14.873 -0.7744  0.3119  0.2276
 2192TIP3   OH227990   3.737   5.668   2.628  0.0066 -0.1421  0.2114
 2192TIP3    H127991   3.698   5.616   2.558  1.3536 -0.0414 -0.6414
 2192TIP3    H227992   3.806   5.612   2.663  1.4145  1.0056 -0.6619
 2193TIP3   OH227993   2.152   1.428   0.828 -0.4470  0.1067  0.4730
 2193TIP3    H127994   2.194   1.440   0.912 -1.3731 -0.3436  1.0222
 2193TIP3    H227995   2.063   1.461   0.841 -0.7018 -0.2903 -0.2199
 2194TIP3   OH227996   4.533   4.230   3.035 -0.1050  0.6401  0.2321
 2194TIP3    H127997   4.536   4.134   3.038  0.1038  0.6599  0.8785
 2194TIP3    H227998   4.443   4.250   3.013 -0.1437  0.2916  0.0570
 2195TIP3   OH227999   6.705   3.886  11.126  0.2213  0.3171  0.2466
 2195TIP3    H128000   6.610   3.895  11.139  0.0044 -0.9071 -0.2958
 2195TIP3    H228001   6.725   3.944  11.053  0.0646  1.2961  0.9712
 2196TIP3   OH228002   3.564   4.855   2.898  0.6045 -0.3375 -0.1478
 2196TIP3    H128003   3.558   4.778   2.842  1.6126 -1.2924  1.0012
 2196TIP3    H228004   3.513   4.922   2.852  0.2047 -1.4965 -1.4686
 2197TIP3   OH228005   0.634   5.296   5.003  0.3137  0.0379 -0.6193
 2197TIP3    H128006   0.719   5.274   5.040 -0.8515 -1.1661  1.5746
 2197TIP3    H228007   0.633   5.392   5.000  0.8201  0.1877  1.8468
 2198TIP3   OH228008   4.646   3.741  11.569  0.1290 -0.0535 -0.3983
 2198TIP3    H128009   4.613   3.652  11.572 -1.0685  0.2715 -2.0047
 2198TIP3    H228010   4.596   3.788  11.636  0.5558 -0.5140  0.2487
 2199TIP3   OH228011   3.446   6.317  16.313  0.3420 -0.0270  0.8922
 2199TIP3    H128012   3.482   6.399  16.280 -0.2419  0.3749  1.2431
 2199TIP3    H228013   3.354   6.337  16.330 -0.5140 -1.4274 -1.4958
 2200TIP3   OH228014   3.498   1.814  10.851 -0.2747  0.2418 -0.2048
 2200TIP3    H128015   3.474   1.881  10.787  2.2633  0.4037 -1.0939
 2200TIP3    H228016   3.513   1.735  10.799  1.1542  0.1965  0.2292
 2201TIP3   OH228017   2.487   1.295   0.947 -0.2590 -0.0221  0.0691
 2201TIP3    H128018   2.486   1.369   0.886  0.5331  1.0243  1.2601
 2201TIP3    H228019   2.432   1.324   1.020  0.8188 -0.1827  0.9862
 2202TIP3   OH228020   4.739   0.758  11.754 -0.0851 -0.3255 -0.0230
 2202TIP3    H128021   4.828   0.794  11.750 -0.0994 -0.1477  1.0644
 2202TIP3    H228022   4.697   0.806  11.825 -0.5222 -1.5640  0.5857
 2203TIP3   OH228023   3.392   4.727  12.003 -0.3286 -0.4408 -0.4876
 2203TIP3    H128024   3.474   4.777  12.008  0.0924 -0.9838 -1.5145
 2203TIP3    H228025   3.365   4.717  12.094 -0.6224  1.9361 -0.2428
 2204TIP3   OH228026   0.355   2.260   3.793 -0.2072 -0.2468  0.2275
 2204TIP3    H128027   0.274   2.278   3.746  0.6664 -1.2423 -1.8362
 2204TIP3    H228028   0.356   2.164   3.803  0.8453 -0.2874 -0.1147
 2205TIP3   OH228029   0.716   4.792  14.182 -0.5699 -0.0216 -0.4341
 2205TIP3    H128030   0.680   4.757  14.264 -0.4288  1.4448  0.3057
 2205TIP3    H228031   0.798   4.834  14.209 -1.0097  1.3517 -1.1279
 2206TIP3   OH228032   0.122   6.252  13.938  0.4415 -0.2635 -0.0221
 2206TIP3    H128033   0.087   6.253  14.027  0.8664 -1.0669  0.1649
 2206TIP3    H228034   0.070   6.187  13.892 -0.2871  0.6901 -0.5949
 2207TIP3   OH228035   2.805   3.251   2.603  0.7791  0.8806  0.2467
 2207TIP3    H128036   2.782   3.319   2.540  0.9387  0.8627  0.1696
 2207TIP3    H228037   2.758   3.173   2.574  0.4872  0.9934  0.4132
 2208TIP3   OH228038   2.407   6.411   1.470  0.3089 -0.2323 -0.8552
 2208TIP3    H128039   2.465   6.485   1.484 -0.3317  0.2375 -0.6266
 2208TIP3    H228040   2.436   6.344   1.532 -1.0033  0.9430  1.1160
 2209TIP3   OH228041   4.127   5.239   0.464  0.0206  0.2745  0.2686
 2209TIP3    H128042   4.095   5.314   0.414 -2.3146 -0.0476  1.1449
 2209TIP3    H228043   4.146   5.172   0.398 -1.9527  0.2365 -0.3334
 2210TIP3   OH228044   5.532   5.466   1.380 -0.0722  0.0441 -0.0986
 2210TIP3    H128045   5.613   5.430   1.344  1.5261  2.4780  0.7975
 2210TIP3    H228046   5.508   5.405   1.450  2.0464  0.1822  0.8182
 2211TIP3   OH228047   4.663   5.677  10.638 -0.3027  0.0868 -0.1133
 2211TIP3    H128048   4.728   5.657  10.571  0.5643  3.3120 -0.3680
 2211TIP3    H228049   4.584   5.700  10.588 -0.6163 -0.5016  0.1005
 2212TIP3   OH228050   3.253   2.433  12.885  0.3899 -0.1986 -0.2294
 2212TIP3    H128051   3.290   2.409  12.970  0.5078 -0.0221 -0.2303
 2212TIP3    H228052   3.187   2.499  12.904 -0.6166 -1.1976 -0.1302
 2213TIP3   OH228053   3.479   0.192   3.002 -0.4793  0.5611  0.6101
 2213TIP3    H128054   3.426   0.137   3.059 -1.7010  2.3650  1.3193
 2213TIP3    H228055   3.570   0.170   3.025 -0.9364  0.2092  2.2239
 2214TIP3   OH228056   4.022   4.108  10.649 -0.3302 -0.3383  1.0631
 2214TIP3    H128057   3.973   4.189  10.635  0.1570 -0.0826  0.8176
 2214TIP3    H228058   3.973   4.042  10.600 -0.6100 -0.1497  1.0867
 2215TIP3   OH228059   0.693   2.682   1.452 -0.0761  0.0387  0.2100
 2215TIP3    H128060   0.761   2.749   1.465  1.4441 -1.2755 -0.5894
 2215TIP3    H228061   0.642   2.713   1.378 -0.2180  0.9214  0.6582
 2216TIP3   OH228062   6.661   5.915   1.708 -0.0400 -0.4479 -0.0627
 2216TIP3    H128063   6.714   5.978   1.757  0.5259 -0.9213 -0.0528
 2216TIP3    H228064   6.587   5.966   1.675  1.7221  0.8773 -2.2701
 2217TIP3   OH228065   1.469   6.285   3.331 -0.0209 -0.6188 -0.3757
 2217TIP3    H128066   1.542   6.277   3.269 -0.2995 -0.5342 -0.7209
 2217TIP3    H228067   1.423   6.364   3.303 -1.3162 -1.6657 -1.3354
 2218TIP3   OH228068   0.477   6.008  14.487  0.1147  0.3004 -0.4684
 2218TIP3    H128069   0.382   6.019  14.477 -0.2394 -1.2181  0.8446
 2218TIP3    H228070   0.504   5.957  14.411 -0.3057 -0.1860 -0.2907
 2219TIP3   OH228071   4.047   3.227  10.514  0.5657 -0.6011 -0.2017
 2219TIP3    H128072   3.958   3.197  10.529  1.0479 -3.5723 -2.3634
 2219TIP3    H228073   4.037   3.310  10.468 -1.1237 -1.2863 -1.1348
 2220TIP3   OH228074   2.336   2.257  16.751  0.0193  0.1328  0.5928
 2220TIP3    H128075   2.262   2.233  16.696 -0.5377 -2.8408  2.4034
 2220TIP3    H228076   2.304   2.246  16.840  1.7165  2.0380  1.5232
 2221TIP3   OH228077   1.679   5.925   0.319 -0.4585 -0.0174  0.3373
 2221TIP3    H128078   1.744   5.955   0.255  0.0119  1.3041  1.3988
 2221TIP3    H228079   1.600   5.974   0.297 -0.2502  0.5575  0.8676
 2222TIP3   OH228080   4.153   3.402  11.690 -0.2588 -0.1269 -0.0444
 2222TIP3    H128081   4.133   3.311  11.670  1.0149 -0.6607  0.9831
 2222TIP3    H228082   4.208   3.398  11.769 -0.7254  1.5646  0.4052
 2223TIP3   OH228083   3.373   5.786   2.992  0.3916  0.1232 -0.5221
 2223TIP3    H128084   3.352   5.713   3.050  0.5282  0.4512 -0.0585
 2223TIP3    H228085   3.369   5.748   2.904  1.0561 -0.5866 -0.2587
 2224TIP3   OH228086   3.663   2.323  10.799 -0.5658 -0.3414 -0.3233
 2224TIP3    H128087   3.734   2.280  10.846  1.1724  0.1237 -2.3545
 2224TIP3    H228088   3.676   2.417  10.815 -2.0606 -0.3173  1.0129
 2225TIP3   OH228089   4.079   4.956  16.234 -0.0873 -0.3342  0.5292
 2225TIP3    H128090   4.003   5.013  16.221  2.1176  2.8832  0.6335
 2225TIP3    H228091   4.093   4.954  16.328  0.3043 -0.4526  0.4716
 2226TIP3   OH228092   3.896   6.720   1.827 -0.6351  0.2339 -0.1425
 2226TIP3    H128093   3.815   6.671   1.838  0.0166 -1.3380 -1.8404
 2226TIP3    H228094   3.869   6.801   1.783 -1.6491  1.2560  2.1993
 2227TIP3   OH228095   3.345   3.744  10.799  0.0908 -0.3100 -0.0120
 2227TIP3    H128096   3.412   3.678  10.815  0.7139  0.7274  1.9845
 2227TIP3    H228097   3.264   3.704  10.831  0.2975 -0.4781  0.3101
 2228TIP3   OH228098   3.272   1.063  13.769 -0.1853 -0.2300  0.3125
 2228TIP3    H128099   3.353   1.018  13.792 -1.3237 -2.5410  0.0622
 2228TIP3    H228100   3.276   1.073  13.674 -0.5519 -1.1825  0.1806
 2229TIP3   OH228101   5.371   4.126  15.501  0.1822  0.4318 -0.1379
 2229TIP3    H128102   5.384   4.218  15.523 -1.9112  0.9334 -0.7856
 2229TIP3    H228103   5.405   4.117  15.412 -0.0843  0.7013 -0.2665
 2230TIP3   OH228104   2.246   1.231  12.775 -0.2415 -0.0692  0.3678
 2230TIP3    H128105   2.285   1.248  12.689 -0.6154  0.8487  0.3697
 2230TIP3    H228106   2.169   1.288  12.778 -0.2350 -0.0949  1.3088
 2231TIP3   OH228107   1.550   2.452   1.283  0.4000  0.2501 -0.3582
 2231TIP3    H128108   1.467   2.500   1.284  0.2654  0.0061  0.3490
 2231TIP3    H228109   1.608   2.506   1.229  0.6131  1.8508  1.3749
 2232TIP3   OH228110   5.811   5.477   4.503  0.3473 -0.2770 -0.4266
 2232TIP3    H128111   5.750   5.550   4.502  1.1041  0.3943  0.5077
 2232TIP3    H228112   5.828   5.461   4.596  1.9330 -0.1371 -0.6571
 2233TIP3   OH228113   4.772   1.703   1.941  0.1094 -0.1420 -0.3687
 2233TIP3    H128114   4.806   1.653   2.015  1.3943  1.0518 -0.1012
 2233TIP3    H228115   4.764   1.639   1.870  0.5720 -0.9549  0.2927
 2234TIP3   OH228116   4.776   6.607  13.439  0.4046 -0.4478  0.0963
 2234TIP3    H128117   4.786   6.553  13.361  0.6913 -1.5389  0.8657
 2234TIP3    H228118   4.854   6.662  13.440  1.1244 -1.4406  0.3649
 2235TIP3   OH228119   1.053   1.258  15.439 -0.3273 -0.1402 -0.3049
 2235TIP3    H128120   1.116   1.259  15.511  0.9692  0.3806 -1.3878
 2235TIP3    H228121   1.038   1.166  15.420  2.6980 -0.3890 -2.1119
 2236TIP3   OH228122   1.623   6.215  16.120  0.1943  0.6196 -0.3003
 2236TIP3    H128123   1.620   6.307  16.146  0.7585 -0.0708  2.4600
 2236TIP3    H228124   1.707   6.207  16.074 -0.3908  1.6761 -1.6461
 2237TIP3   OH228125   4.561   5.710   0.401 -0.0157 -0.5251  0.5254
 2237TIP3    H128126   4.649   5.742   0.421  0.2969 -1.6698  1.0750
 2237TIP3    H228127   4.503   5.784   0.419  1.0050  1.1125 -2.3071
 2238TIP3   OH228128   2.148   4.040  16.787 -0.7438 -0.5893  0.1535
 2238TIP3    H128129   2.123   4.099  16.858  0.3680 -0.0649  0.1265
 2238TIP3    H228130   2.242   4.026  16.798 -0.2939  0.3932 -1.8309
 2239TIP3   OH228131   5.187   1.635   2.393 -0.1053  0.0718  0.1677
 2239TIP3    H128132   5.135   1.555   2.396 -0.0912 -0.0210 -1.3470
 2239TIP3    H228133   5.122   1.705   2.393 -0.2793 -0.0445 -1.7499
 2240TIP3   OH228134   1.929   2.562  13.843  0.2265 -0.5231 -0.1354
 2240TIP3    H128135   1.847   2.544  13.890  0.5836  0.4946  0.9301
 2240TIP3    H228136   1.910   2.641  13.792  1.3545  1.5115  2.4104
 2241TIP3   OH228137   4.908   1.277  11.497  0.3446  0.0469 -0.2014
 2241TIP3    H128138   4.848   1.344  11.466 -1.6171 -1.6294 -0.1962
 2241TIP3    H228139   4.854   1.219  11.551  1.9889 -1.4821 -0.1012
 2242TIP3   OH228140   4.490   3.673   0.405 -0.2878 -0.1087 -0.0369
 2242TIP3    H128141   4.464   3.765   0.402  1.9763  0.5614 -1.5309
 2242TIP3    H228142   4.566   3.672   0.462  0.6144 -0.7757 -1.2181
 2243TIP3   OH228143   0.094   4.954   0.953 -0.5822  0.2141  0.1625
 2243TIP3    H128144   0.027   4.920   0.894  0.6138 -1.5274 -0.2788
 2243TIP3    H228145   0.055   4.949   1.040 -1.2754 -0.0885 -0.1630
 2244TIP3   OH228146   1.372   0.921   1.406  0.0904  0.7357 -0.6059
 2244TIP3    H128147   1.417   0.975   1.471 -0.1576  0.4631 -0.2020
 2244TIP3    H228148   1.279   0.939   1.421 -0.0413 -0.4025  0.0808
 2245TIP3   OH228149   4.470   1.791   5.728  0.3586 -0.1729 -0.1422
 2245TIP3    H128150   4.502   1.710   5.768  1.3710 -0.0213 -0.6178
 2245TIP3    H228151   4.377   1.776   5.714  0.0517 -0.4277  1.8097
 2246TIP3   OH228152   5.696   4.592   2.719 -0.4294 -0.5187  0.0789
 2246TIP3    H128153   5.634   4.558   2.783 -0.2721 -1.8999 -0.4718
 2246TIP3    H228154   5.778   4.547   2.738 -0.4488 -1.1556 -1.2290
 2247TIP3   OH228155   0.193   2.826  13.082 -0.7388 -1.0466 -0.8479
 2247TIP3    H128156   0.246   2.883  13.026 -0.4698 -0.6167 -0.1625
 2247TIP3    H228157   0.249   2.750  13.099  0.7048  0.4594  1.8645
 2248TIP3   OH228158   2.155   0.672   0.821  0.0512 -0.0546 -0.0370
 2248TIP3    H128159   2.231   0.722   0.790  0.1583 -0.0316  0.2536
 2248TIP3    H228160   2.190   0.619   0.893  0.3294 -1.8420 -1.4319
 2249TIP3   OH228161   1.650   3.999  12.564  0.2826 -0.6336 -0.0282
 2249TIP3    H128162   1.604   3.924  12.601 -0.8600  0.2776  0.4632
 2249TIP3    H228163   1.739   3.967  12.548  0.3014 -1.6154  1.7508
 2250TIP3   OH228164   5.597   5.723  12.927  0.0645  0.1058 -0.3592
 2250TIP3    H128165   5.600   5.801  12.984  1.0847 -0.0418 -0.1931
 2250TIP3    H228166   5.675   5.674  12.950 -0.4000 -0.8153 -0.7080
 2251TIP3   OH228167   3.455   0.897  16.246  0.0776  0.2560  0.1841
 2251TIP3    H128168   3.478   0.990  16.245  1.6064 -0.1051  0.1113
 2251TIP3    H228169   3.441   0.875  16.154  1.8076 -0.0462 -0.0459
 2252TIP3   OH228170   1.226   4.942  14.228  0.2816  0.2154 -0.3879
 2252TIP3    H128171   1.298   4.908  14.281  0.6205 -1.0490 -1.6050
 2252TIP3    H228172   1.236   4.899  14.143 -1.7178  0.2743 -0.7018
 2253TIP3   OH228173   1.254   5.188   0.146  0.0987  0.3442 -0.0169
 2253TIP3    H128174   1.311   5.257   0.180 -1.8280  0.7318  2.7929
 2253TIP3    H228175   1.292   5.107   0.178  0.1485  0.4387  0.1633
 2254TIP3   OH228176   6.363   2.954  15.962  0.5091  0.2348 -0.2080
 2254TIP3    H128177   6.281   2.988  15.926  0.2995  1.9134  1.6466
 2254TIP3    H228178   6.418   3.032  15.975  0.6186 -0.2091  2.7905
 2255TIP3   OH228179   4.879   3.522  14.600 -0.2287  0.3083  0.0026
 2255TIP3    H128180   4.899   3.502  14.508 -0.6268  1.6093 -0.3852
 2255TIP3    H228181   4.889   3.616  14.607 -0.4150  0.2512  1.2596
 2256TIP3   OH228182   0.899   4.372  13.823  0.0390  0.1888  0.4288
 2256TIP3    H128183   0.986   4.362  13.862 -0.1565  2.3776  1.5936
 2256TIP3    H228184   0.894   4.463  13.797 -1.9461  0.1536  0.4793
 2257TIP3   OH228185   4.939   1.092  14.704 -0.1780 -0.0689  0.1169
 2257TIP3    H128186   4.949   1.185  14.728 -0.6000 -0.2574  1.0857
 2257TIP3    H228187   4.888   1.094  14.623 -0.1395  0.5549  0.1008
 2258TIP3   OH228188   2.345   4.921   0.758 -0.1252 -0.5389  0.5238
 2258TIP3    H128189   2.407   4.849   0.751  0.1760 -0.1259 -2.1219
 2258TIP3    H228190   2.266   4.889   0.714  0.2236  0.8666 -1.2475
 2259TIP3   OH228191   2.031   5.827  11.276 -0.2220  0.4637 -0.6502
 2259TIP3    H128192   2.006   5.809  11.185 -2.9107  0.7734 -0.0649
 2259TIP3    H228193   2.076   5.911  11.272  1.5154 -0.4569 -1.8969
 2260TIP3   OH228194   0.814   3.132   0.630  0.0416 -0.2737  0.2106
 2260TIP3    H128195   0.888   3.071   0.632  0.5839  0.3775  0.1892
 2260TIP3    H228196   0.852   3.218   0.649 -0.6553  0.1217 -0.1168
 2261TIP3   OH228197   4.992   4.981   5.757 -0.4743  0.0659  0.0406
 2261TIP3    H128198   4.943   4.940   5.828 -2.0434  3.6751  1.2633
 2261TIP3    H228199   5.073   5.012   5.798 -0.4050  0.2912 -0.2621
 2262TIP3   OH228200   5.840   3.894   0.812 -0.4770 -0.2309  0.4929
 2262TIP3    H128201   5.756   3.876   0.769 -0.6581  0.5133  0.5210
 2262TIP3    H228202   5.833   3.985   0.841  0.8108  0.2593 -0.6168
 2263TIP3   OH228203   4.366   1.741  14.513  0.1198 -0.9210 -0.2583
 2263TIP3    H128204   4.383   1.671  14.575  0.3540  0.0081  0.7616
 2263TIP3    H228205   4.442   1.742  14.455 -0.1876 -1.9174 -0.6991
 2264TIP3   OH228206   4.860   3.013  13.154  0.5627 -0.1429  0.4294
 2264TIP3    H128207   4.769   3.040  13.167  0.7492  0.6889  0.1037
 2264TIP3    H228208   4.856   2.945  13.086  0.1628 -0.2830  0.5917
 2265TIP3   OH228209   6.010   6.586   2.954  0.4186  0.1402  0.3213
 2265TIP3    H128210   6.084   6.574   2.895 -1.2089 -2.8478 -1.3158
 2265TIP3    H228211   5.942   6.627   2.900 -0.3586 -0.6002  0.7091
 2266TIP3   OH228212   2.587   6.492  15.509  0.1896 -0.1550 -0.5187
 2266TIP3    H128213   2.618   6.412  15.550  0.4008 -0.4326 -1.2066
 2266TIP3    H228214   2.555   6.465  15.423  1.3386  0.6467 -1.2311
 2267TIP3   OH228215   1.111   6.528  11.230 -0.5555 -0.1303 -0.6604
 2267TIP3    H128216   1.187   6.479  11.261 -2.2285 -3.1458 -0.9150
 2267TIP3    H228217   1.148   6.605  11.187  2.2010 -0.2840  1.2001
 2268TIP3   OH228218   5.628   1.200  11.319 -0.7018 -0.1162  0.1500
 2268TIP3    H128219   5.722   1.214  11.335 -0.8275 -0.6873  1.5189
 2268TIP3    H228220   5.589   1.287  11.333 -0.5640 -0.2116  1.2441
 2269TIP3   OH228221   2.738   3.697  10.468 -0.5488  0.4729 -0.1470
 2269TIP3    H128222   2.692   3.721  10.388  0.9600  1.4863 -0.7721
 2269TIP3    H228223   2.702   3.755  10.535 -2.1491 -0.6956  0.0585
 2270TIP3   OH228224   4.836   6.686   1.948 -0.1397 -0.3758 -0.5020
 2270TIP3    H128225   4.822   6.626   2.021 -3.4439  0.1486 -0.5415
 2270TIP3    H228226   4.805   6.638   1.871 -0.5939  0.5096 -0.8882
 2271TIP3   OH228227   5.039   5.733   4.067  0.2688  0.2641 -0.4496
 2271TIP3    H128228   5.034   5.714   4.160 -1.7350 -0.5122 -0.6460
 2271TIP3    H228229   4.949   5.718   4.035  0.4046  2.4862 -2.1256
 2272TIP3   OH228230   0.704   4.883  12.280 -0.1102 -0.7198 -0.2919
 2272TIP3    H128231   0.674   4.974  12.279 -2.5329 -1.4370 -1.6499
 2272TIP3    H228232   0.792   4.887  12.240 -0.1616  1.0096 -0.3199
 2273TIP3   OH228233   0.105   5.355   2.181  0.0562  1.4002 -0.2203
 2273TIP3    H128234   0.024   5.376   2.227 -1.1961 -0.5910 -1.3065
 2273TIP3    H228235   0.075   5.308   2.102  2.2870 -2.2507  0.8646
 2274TIP3   OH228236   5.313   4.360  14.501 -0.2779  0.2845 -0.0258
 2274TIP3    H128237   5.318   4.361  14.405 -0.3262  0.4934 -0.0263
 2274TIP3    H228238   5.318   4.452  14.526 -0.2118  0.2257  0.1767
 2275TIP3   OH228239   3.865   3.344   1.841 -0.3416 -0.3056  0.1363
 2275TIP3    H128240   3.885   3.296   1.922  1.4635 -2.8235 -1.6686
 2275TIP3    H228241   3.775   3.318   1.820 -0.7578  0.2167  1.1567
 2276TIP3   OH228242   2.856   3.428  16.520 -0.2221  0.0596 -0.5771
 2276TIP3    H128243   2.886   3.341  16.544  0.9796  0.5835 -0.0647
 2276TIP3    H228244   2.832   3.421  16.428  1.0124 -0.5504 -0.8785
 2277TIP3   OH228245   5.190   3.716   4.678 -0.8076 -0.5725  0.0618
 2277TIP3    H128246   5.209   3.758   4.594  0.8402 -1.2441  0.0839
 2277TIP3    H228247   5.100   3.743   4.697 -0.1273  2.3541 -0.2975
 2278TIP3   OH228248   5.615   2.418  13.844  0.0927  0.4559 -0.3441
 2278TIP3    H128249   5.613   2.450  13.754  0.9578 -1.0676 -0.9592
 2278TIP3    H228250   5.687   2.466  13.885 -2.1552  3.3670  0.5240
 2279TIP3   OH228251   0.397   4.759  15.981 -0.0432 -0.1722  0.6173
 2279TIP3    H128252   0.311   4.778  16.019 -0.7167 -0.2887 -0.7863
 2279TIP3    H228253   0.378   4.730  15.892  1.3560 -1.6978  0.7617
 2280TIP3   OH228254   6.050   0.708   5.598  0.3729  0.1872 -0.8058
 2280TIP3    H128255   6.139   0.702   5.631  0.2183 -1.2571 -0.5608
 2280TIP3    H228256   6.049   0.652   5.520  0.1189  1.6211 -1.8664
 2281TIP3   OH228257   1.821   3.310   3.518  1.0787  0.1080  0.5077
 2281TIP3    H128258   1.870   3.350   3.446 -0.6792 -0.1076 -0.8783
 2281TIP3    H228259   1.787   3.228   3.481 -1.9537  1.1631  0.6705
 2282TIP3   OH228260   3.423   2.303   2.192  0.3384  0.3453  0.3971
 2282TIP3    H128261   3.366   2.348   2.130  0.3811  0.3447  0.3576
 2282TIP3    H228262   3.451   2.224   2.146  0.0877  0.1679  0.5488
 2283TIP3   OH228263   6.531   6.735  14.638 -0.2718  0.5520  0.7463
 2283TIP3    H128264   6.494   6.647  14.638  0.2246  0.3316 -0.2451
 2283TIP3    H228265   6.596   6.734  14.709  0.8090 -0.3671 -0.2165
 2284TIP3   OH228266   3.932   5.354  14.263  0.1262  0.9697  0.7904
 2284TIP3    H128267   3.997   5.411  14.222  0.0636  2.0990  2.1948
 2284TIP3    H228268   3.893   5.408  14.332 -1.9910  0.1693  0.2725
 2285TIP3   OH228269   4.669   2.349  16.110  0.0463  0.4772 -0.4971
 2285TIP3    H128270   4.597   2.321  16.167  0.6026  0.5193  0.2440
 2285TIP3    H228271   4.633   2.343  16.021 -0.6853 -0.0547 -0.1772
 2286TIP3   OH228272   0.318   1.339   6.539  0.2901 -0.1433  0.1168
 2286TIP3    H128273   0.235   1.340   6.588 -0.3822  0.2082 -1.0078
 2286TIP3    H228274   0.368   1.413   6.574 -0.4581  0.5123 -0.1739
 2287TIP3   OH228275   3.252   0.814  12.073  0.2521  0.2217  0.2681
 2287TIP3    H128276   3.157   0.818  12.060  0.3849  1.3122 -0.5620
 2287TIP3    H228277   3.263   0.805  12.167 -0.6790  0.5301  0.4193
 2288TIP3   OH228278   6.152   2.382  12.380 -0.6045  0.0099  0.4015
 2288TIP3    H128279   6.094   2.331  12.324  2.5903 -0.9325 -2.4301
 2288TIP3    H228280   6.174   2.324  12.452 -4.0860  0.9199  2.4238
 2289TIP3   OH228281   4.872   6.524   0.191  0.1287 -0.7627  0.0375
 2289TIP3    H128282   4.820   6.598   0.158  1.5973 -0.1191 -0.9028
 2289TIP3    H228283   4.808   6.454   0.204 -1.6811  1.1741  2.8360
 2290TIP3   OH228284   6.027   2.491  16.780  0.4762 -0.3926 -0.3282
 2290TIP3    H128285   6.019   2.480  16.875 -0.4798 -0.2572 -0.3799
 2290TIP3    H228286   5.990   2.578  16.763 -0.6735 -0.9952 -0.9817
 2291TIP3   OH228287   3.643   6.131   5.374  0.5326  0.7741  0.5169
 2291TIP3    H128288   3.588   6.172   5.307 -0.3398  0.6901  1.1515
 2291TIP3    H228289   3.597   6.050   5.396  0.0604  1.4424  2.1625
 2292TIP3   OH228290   3.991   5.197   4.430 -0.8693  0.7469  0.2917
 2292TIP3    H128291   3.947   5.221   4.348 -1.0210  0.5758  0.3242
 2292TIP3    H228292   3.923   5.157   4.483 -0.6433  0.3511  0.2883
 2293TIP3   OH228293   0.802   2.743  13.515  0.2697 -0.4836 -0.3405
 2293TIP3    H128294   0.885   2.789  13.526  0.3736 -0.8824  0.6225
 2293TIP3    H228295   0.823   2.667  13.461 -0.1448  1.2216 -3.0694
 2294TIP3   OH228296   5.787   2.161   4.308  0.3877  0.3854 -0.2032
 2294TIP3    H128297   5.774   2.239   4.362  2.2790  0.1950  0.6153
 2294TIP3    H228298   5.847   2.189   4.240  0.2120 -0.0851 -0.5586
 2295TIP3   OH228299   6.209   3.936   5.223 -0.0195 -0.3829 -0.1517
 2295TIP3    H128300   6.264   3.894   5.158  0.9608 -0.4694  0.7150
 2295TIP3    H228301   6.150   3.867   5.253  1.4504 -1.1476  1.1217
 2296TIP3   OH228302   3.727   4.303  11.754  0.9645 -0.3894 -0.0198
 2296TIP3    H128303   3.816   4.329  11.778  1.3842 -1.7083 -0.0595
 2296TIP3    H228304   3.681   4.385  11.739  2.4531  0.3053 -1.0227
 2297TIP3   OH228305   0.224   0.125  15.204  0.0504 -0.6067  0.3918
 2297TIP3    H128306   0.136   0.155  15.180 -0.3557 -0.1498  2.2990
 2297TIP3    H228307   0.281   0.200  15.186 -0.6773  0.8094  3.2943
 2298TIP3   OH228308   4.505   0.609   0.683 -0.1058 -0.1075  0.1218
 2298TIP3    H128309   4.509   0.648   0.770  0.5393  0.2856 -0.0799
 2298TIP3    H228310   4.574   0.653   0.633  1.1917 -2.0335  0.0926
 2299TIP3   OH228311   3.494   5.038   1.826  0.0893  0.0253 -0.2784
 2299TIP3    H128312   3.566   5.093   1.796  0.0991  1.2691  1.8330
 2299TIP3    H228313   3.522   4.949   1.805  1.3255  0.6146 -1.2798
 2300TIP3   OH228314   6.636   5.300  13.355  0.4785  0.2436 -0.1807
 2300TIP3    H128315   6.642   5.286  13.260  2.0567  1.2396 -0.2620
 2300TIP3    H228316   6.551   5.344  13.367 -0.6128 -1.5721 -0.8707
 2301TIP3   OH228317   6.484   0.567   0.805  0.6446  0.1763  0.4348
 2301TIP3    H128318   6.431   0.646   0.794  1.7287  0.7993 -0.5380
 2301TIP3    H228319   6.550   0.591   0.870 -0.1038 -0.5313  1.4890
 2302TIP3   OH228320   5.711   3.208  13.729  0.2509 -0.5985  0.2238
 2302TIP3    H128321   5.765   3.189  13.652 -2.1398 -0.1557 -1.6663
 2302TIP3    H228322   5.726   3.301  13.746  1.3970 -0.8769  0.8475
 2303TIP3   OH228323   1.038   3.455  11.628  0.5100  0.2877 -0.0372
 2303TIP3    H128324   1.043   3.484  11.719  0.6268 -0.5255  0.2188
 2303TIP3    H228325   1.106   3.388  11.620 -0.5789 -0.8363 -0.2734
 2304TIP3   OH228326   6.787   0.582   4.262  0.5225 -0.3205  0.4052
 2304TIP3    H128327   6.858   0.606   4.322  0.0002 -1.1357  1.3790
 2304TIP3    H228328   6.829   0.523   4.199  0.8890 -0.1444  0.4797
 2305TIP3   OH228329   5.974   2.716   5.354  0.3145  0.1106  0.1008
 2305TIP3    H128330   5.917   2.721   5.277  1.4931 -0.8995 -0.8953
 2305TIP3    H228331   5.985   2.622   5.369  1.8968  0.2681  0.0897
 2306TIP3   OH228332   1.150   5.980  15.208  0.2852  0.2426 -0.0991
 2306TIP3    H128333   1.110   5.948  15.128 -0.5461  0.1331  0.3425
 2306TIP3    H228334   1.202   5.906  15.241  1.5053  0.6380 -1.0758
 2307TIP3   OH228335   0.948   5.129  15.265  0.1335  0.0371  0.7135
 2307TIP3    H128336   0.998   5.160  15.190  0.4137 -2.3014 -0.1648
 2307TIP3    H228337   0.857   5.133  15.237  0.1203  0.6276  0.8391
 2308TIP3   OH228338   0.245   1.293   1.416 -0.6297 -0.1390  0.3771
 2308TIP3    H128339   0.275   1.257   1.500 -1.2710  0.0683  0.6997
 2308TIP3    H228340   0.293   1.375   1.406 -0.1266 -0.4402  0.2599
 2309TIP3   OH228341   2.638   3.318   1.786 -0.1564  0.8061 -0.2616
 2309TIP3    H128342   2.576   3.253   1.819  1.9993 -2.1123 -1.4843
 2309TIP3    H228343   2.621   3.323   1.693  2.1206 -1.0945 -0.8896
 2310TIP3   OH228344   1.843   0.645   2.635 -0.1197 -0.0526  0.1121
 2310TIP3    H128345   1.921   0.701   2.627 -0.2593  0.5663  2.3007
 2310TIP3    H228346   1.875   0.557   2.616  0.5015  0.5007 -1.6139
 2311TIP3   OH228347   1.453   2.405  10.915  0.1513 -0.3333  0.8170
 2311TIP3    H128348   1.513   2.334  10.892 -0.8524 -1.0760  0.3690
 2311TIP3    H228349   1.373   2.385  10.866 -0.2425  0.9753  0.8932
 2312TIP3   OH228350   3.246   2.434   2.376  0.3125 -0.3680  0.0154
 2312TIP3    H128351   3.210   2.378   2.307 -2.0865  3.0330 -1.7386
 2312TIP3    H228352   3.340   2.438   2.358  0.5405 -3.3919  0.0180
 2313TIP3   OH228353   6.694   4.769   0.439 -0.2957 -0.0285  0.4552
 2313TIP3    H128354   6.710   4.863   0.440 -2.2761  0.3755  0.0428
 2313TIP3    H228355   6.599   4.762   0.426 -0.0252 -2.0974 -0.7659
 2314TIP3   OH228356   2.917   0.412  12.033 -0.3756  0.1256 -0.3200
 2314TIP3    H128357   2.922   0.457  12.117 -0.8561  1.1909 -0.8446
 2314TIP3    H228358   2.891   0.322  12.056  0.9673 -0.0139  0.7663
 2315TIP3   OH228359   5.785   5.493  16.619  0.4240 -0.3499  0.3746
 2315TIP3    H128360   5.690   5.482  16.623  0.4288 -0.6221 -0.1191
 2315TIP3    H228361   5.801   5.577  16.662 -0.1355  0.1734 -0.4002
 2316TIP3   OH228362   2.589   6.116  14.783  0.0227  0.2899  0.7990
 2316TIP3    H128363   2.621   6.069  14.705  0.0500 -1.3483  1.7547
 2316TIP3    H228364   2.494   6.110  14.776  0.0248  0.1580  0.8711
 2317TIP3   OH228365   1.211   0.297  15.984 -0.2606  0.5175  0.1846
 2317TIP3    H128366   1.209   0.203  16.002  0.7952  0.3448 -0.4922
 2317TIP3    H228367   1.147   0.334  16.044  0.7932 -0.3980  1.9746
 2318TIP3   OH228368   2.682   5.251   1.743  0.6224  0.0500  0.5717
 2318TIP3    H128369   2.710   5.280   1.656  0.0349 -0.3178  0.2553
 2318TIP3    H228370   2.709   5.159   1.747  0.5951  0.0508  0.7531
 2319TIP3   OH228371   4.220   3.111   1.895 -0.2955 -0.1618 -0.3012
 2319TIP3    H128372   4.182   3.191   1.932  1.0562 -0.1245  1.1244
 2319TIP3    H228373   4.230   3.131   1.802  0.1055  1.4027  0.0342
 2320TIP3   OH228374   3.815   5.350   5.692 -0.1871 -0.2088 -0.3104
 2320TIP3    H128375   3.839   5.416   5.757  0.7516  0.5695 -1.3998
 2320TIP3    H228376   3.720   5.343   5.698 -0.1103 -0.2340  1.1971
 2321TIP3   OH228377   0.418   6.029  11.382  0.1058 -0.1898 -0.4645
 2321TIP3    H128378   0.346   6.067  11.330 -0.6070 -1.0730 -0.1392
 2321TIP3    H228379   0.432   6.093  11.452  0.9562  0.9305 -1.6016
 2322TIP3   OH228380   0.988   0.101   0.074  0.3385  0.6452 -0.4268
 2322TIP3    H128381   1.009   0.084  -0.017 -0.4586 -0.0250 -0.4971
 2322TIP3    H228382   0.960   0.193   0.076 -0.3354  0.4587 -0.9947
 2323TIP3   OH228383   3.464   2.017  11.700  0.2204 -0.0356  0.1804
 2323TIP3    H128384   3.465   2.073  11.623 -0.3407  0.1854  0.3329
 2323TIP3    H228385   3.532   1.951  11.682 -0.8225 -0.8168 -1.1282
 2324TIP3   OH228386   6.685   5.555  13.091 -0.0145 -0.2196  0.8046
 2324TIP3    H128387   6.703   5.647  13.075 -0.4992  0.0774  1.8521
 2324TIP3    H228388   6.599   5.554  13.133  0.2723 -1.0843  1.4152
 2325TIP3   OH228389   6.753   4.051  10.600  0.0637  0.1831 -0.0870
 2325TIP3    H128390   6.818   4.121  10.593 -0.8524  1.1852  1.0135
 2325TIP3    H228391   6.800   3.972  10.574  1.5114  0.9814 -0.0091
 2326TIP3   OH228392   4.803   1.122  14.957 -0.2569 -0.2474 -0.4658
 2326TIP3    H128393   4.844   1.037  14.975  0.7083  0.4729  0.9083
 2326TIP3    H228394   4.866   1.167  14.901  0.3009  0.3956  0.6476
 2327TIP3   OH228395   4.455   3.772  13.177  0.5073 -0.0538  0.4805
 2327TIP3    H128396   4.502   3.696  13.145  0.4548  0.1747 -0.1461
 2327TIP3    H228397   4.429   3.820  13.098  1.4778  1.1870  0.8858
 2328TIP3   OH228398   1.937   2.959   4.777 -0.0239 -0.0469 -0.1363
 2328TIP3    H128399   1.978   3.037   4.813  0.0052 -0.1112 -0.0290
 2328TIP3    H228400   2.008   2.895   4.770 -0.3199 -0.5515  1.1704
 2329TIP3   OH228401   1.832   1.186   5.487  0.6943  0.4215 -0.1040
 2329TIP3    H128402   1.738   1.169   5.498  0.4793  2.3892  2.0329
 2329TIP3    H228403   1.870   1.168   5.573  2.1730  0.3551 -0.7395
 2330TIP3   OH228404   4.148   1.359   3.057 -0.4964 -0.1485 -0.2664
 2330TIP3    H128405   4.166   1.364   2.963 -0.5969 -1.0532 -0.3413
 2330TIP3    H228406   4.173   1.445   3.091  0.2350 -0.0558 -1.0031
 2331TIP3   OH228407   1.278   6.110   1.403  0.1088  0.2641  0.4942
 2331TIP3    H128408   1.224   6.173   1.356  0.5064 -0.0795 -0.4379
 2331TIP3    H228409   1.325   6.162   1.468 -0.8842  0.6508  0.9157
 2332TIP3   OH228410   2.095   4.207  17.102  0.0331 -0.3699 -0.0050
 2332TIP3    H128411   2.003   4.213  17.127 -0.2952 -2.2698 -0.5620
 2332TIP3    H228412   2.103   4.261  17.023 -0.0864  1.4969  1.2034
 2333TIP3   OH228413   4.773   3.763   1.349 -0.1575 -0.0591  0.4513
 2333TIP3    H128414   4.680   3.755   1.370 -0.4030 -2.8735 -1.1915
 2333TIP3    H228415   4.774   3.783   1.255  0.8948 -0.3779  0.3915
 2334TIP3   OH228416   0.758   0.843  12.036 -0.4563 -0.0577 -0.2151
 2334TIP3    H128417   0.714   0.758  12.032 -0.3319 -0.1194 -0.2706
 2334TIP3    H228418   0.712   0.896  11.971 -1.9849  0.6018  1.3397
 2335TIP3   OH228419   5.902   1.220   1.706 -0.1689  0.1907 -0.1837
 2335TIP3    H128420   5.939   1.136   1.679 -1.8781 -1.5391  2.3620
 2335TIP3    H228421   5.836   1.197   1.771 -1.3365  3.4971 -0.0056
 2336TIP3   OH228422   2.275   5.955   2.811  0.5046  0.6377  0.0171
 2336TIP3    H128423   2.271   6.044   2.845  1.4487  0.5592  0.3584
 2336TIP3    H228424   2.369   5.938   2.800  0.4295 -0.8510  1.3780
 2337TIP3   OH228425   3.485   5.001  14.186  0.5109 -0.3099  0.6233
 2337TIP3    H128426   3.497   5.072  14.122  2.3581  0.3054  1.5778
 2337TIP3    H228427   3.430   5.039  14.254  0.2260 -0.3016  0.3907
 2338TIP3   OH228428   2.583   1.207  11.437 -0.1235 -0.3635 -0.6471
 2338TIP3    H128429   2.515   1.275  11.441  1.1484  0.8964  0.9458
 2338TIP3    H228430   2.614   1.199  11.527  1.6942 -1.0610 -1.2896
 2339TIP3   OH228431   6.469   1.198   2.504 -0.0347  0.0202 -0.0315
 2339TIP3    H128432   6.442   1.117   2.462 -0.2030 -0.4773  1.0042
 2339TIP3    H228433   6.388   1.245   2.521  0.0956  0.6897 -1.1379
 2340TIP3   OH228434   1.068   3.867   1.186  0.6637  0.4584  0.0572
 2340TIP3    H128435   1.110   3.846   1.101 -1.3252  1.0549 -1.1240
 2340TIP3    H228436   1.141   3.871   1.247  2.2028  0.1547 -1.6498
 2341TIP3   OH228437   0.054   0.926  17.070 -0.2841  0.5118  0.3664
 2341TIP3    H128438   0.048   0.851  17.128  0.8316  0.2515  0.1578
 2341TIP3    H228439   0.129   0.976  17.102 -1.4341  1.9580  0.9680
 2342TIP3   OH228440   4.835   4.576   2.882  0.3682 -0.1685  0.6382
 2342TIP3    H128441   4.847   4.663   2.844  1.5910  0.4640  2.3086
 2342TIP3    H228442   4.748   4.579   2.922  0.9709  0.8886  1.9898
 2343TIP3   OH228443   2.269   6.044  11.881  0.4268 -0.0948  0.2447
 2343TIP3    H128444   2.325   5.966  11.872 -0.7411 -0.8041 -1.5162
 2343TIP3    H228445   2.275   6.087  11.796 -1.7773 -0.2960 -0.0799
 2344TIP3   OH228446   2.909   2.631   5.109  0.4046  0.1404  0.1675
 2344TIP3    H128447   2.970   2.675   5.050  0.5192  0.3028  0.4079
 2344TIP3    H228448   2.946   2.543   5.121 -0.3985 -0.4226 -1.1955
 2345TIP3   OH228449   3.395   5.417   2.671  0.0976 -0.5472 -0.2858
 2345TIP3    H128450   3.309   5.391   2.703 -0.0805  0.9924  0.5670
 2345TIP3    H228451   3.454   5.348   2.702 -0.5647 -0.7378  0.5893
 2346TIP3   OH228452   0.539   4.321  13.530  0.2308 -0.4306 -0.1924
 2346TIP3    H128453   0.606   4.301  13.595 -1.0198  1.0867  1.6777
 2346TIP3    H228454   0.459   4.282  13.565 -0.0411 -1.6827 -2.0727
 2347TIP3   OH228455   3.681   0.691  16.211 -0.2737 -0.0562 -0.4504
 2347TIP3    H128456   3.707   0.647  16.129  1.8492 -0.2088  0.2293
 2347TIP3    H228457   3.681   0.784  16.189  2.1967  0.0614 -0.2326
 2348TIP3   OH228458   6.224   0.863   4.553 -0.5669 -0.2887 -0.0987
 2348TIP3    H128459   6.188   0.908   4.477 -0.2761  0.7021  0.3259
 2348TIP3    H228460   6.148   0.852   4.611 -1.1505 -2.5901 -1.2054
 2349TIP3   OH228461   6.526   2.318   4.815 -0.5951 -0.0537 -0.4924
 2349TIP3    H128462   6.613   2.323   4.856 -0.1260  2.2736 -1.5855
 2349TIP3    H228463   6.493   2.232   4.840  1.4110 -0.4374  1.1742
 2350TIP3   OH228464   2.747   0.955  12.409  0.2298  0.7982  0.1805
 2350TIP3    H128465   2.732   1.049  12.400 -0.3927  0.6149 -0.7798
 2350TIP3    H228466   2.700   0.931  12.489  1.5011  1.5174  1.1939
 2351TIP3   OH228467   4.301   3.540   1.539 -0.1279 -0.2250  0.4484
 2351TIP3    H128468   4.263   3.524   1.453 -0.9114  0.9791  0.5327
 2351TIP3    H228469   4.234   3.509   1.600 -1.1486  2.0615  0.5995
 2352TIP3   OH228470   5.627   0.562  11.455 -0.8570  0.6749  0.4307
 2352TIP3    H128471   5.646   0.479  11.410 -1.1069  0.4866  0.6641
 2352TIP3    H228472   5.588   0.617  11.389  2.3479  1.8592 -0.6826
 2353TIP3   OH228473   3.563   5.205  14.007 -0.3707  0.3138 -0.3341
 2353TIP3    H128474   3.535   5.194  13.917 -0.0361 -0.2745 -0.3774
 2353TIP3    H228475   3.658   5.214  14.002 -0.2869 -0.2726 -0.0097
 2354TIP3   OH228476   1.510   3.965   1.869 -0.9322  0.0237 -0.0997
 2354TIP3    H128477   1.474   3.999   1.787 -0.8989 -2.4901 -1.2577
 2354TIP3    H228478   1.471   4.021   1.937 -2.1946  1.2140 -1.7041
 2355TIP3   OH228479   3.748   3.816  13.432 -0.5514  0.0870  0.0212
 2355TIP3    H128480   3.840   3.796  13.418  0.7607  2.7689  3.3629
 2355TIP3    H228481   3.731   3.892  13.377  0.4831  1.9397  2.1022
 2356TIP3   OH228482   0.165   0.690  13.034 -0.7150  0.2759 -0.4833
 2356TIP3    H128483   0.109   0.735  13.097  1.9262  0.2509  2.0704
 2356TIP3    H228484   0.141   0.597  13.041  0.3768  0.0916  1.5481
 2357TIP3   OH228485   2.374   5.327  14.419 -0.0449 -0.4328  0.4104
 2357TIP3    H128486   2.296   5.339  14.473 -0.6200  2.2230 -0.8560
 2357TIP3    H228487   2.341   5.316  14.330  0.8819  3.2728 -0.5819
 2358TIP3   OH228488   0.353   4.281   4.628  0.7902 -0.0828  0.9245
 2358TIP3    H128489   0.333   4.188   4.626 -0.5675  0.2129 -0.0477
 2358TIP3    H228490   0.268   4.324   4.637  1.0768  1.1489 -1.4812
 2359TIP3   OH228491   4.922   5.106  16.712  0.2032 -0.0350  0.0274
 2359TIP3    H128492   4.827   5.103  16.699  0.0068 -0.3782  1.3811
 2359TIP3    H228493   4.957   5.056  16.638 -0.8026 -1.6762  0.6062
 2360TIP3   OH228494   0.766   5.632  16.022  0.1632 -0.0549  0.2533
 2360TIP3    H128495   0.755   5.677  15.938 -3.8989 -0.1483  0.5239
 2360TIP3    H228496   0.760   5.703  16.087 -1.0563 -0.3865  0.5261
 2361TIP3   OH228497   1.056   1.039  12.378 -0.0554 -0.0597 -0.1780
 2361TIP3    H128498   1.016   1.125  12.383  0.9165  0.3402  1.3397
 2361TIP3    H228499   1.135   1.052  12.325 -0.3562 -0.2094 -0.6685
 2362TIP3   OH228500   0.905   3.883   1.779  0.0150 -0.2316  0.8987
 2362TIP3    H128501   0.987   3.924   1.808  1.3893 -1.1925 -1.3379
 2362TIP3    H228502   0.837   3.932   1.824  1.7834  0.5326  2.9696
 2363TIP3   OH228503   4.278   1.062   2.236 -0.0301 -0.3930 -0.0312
 2363TIP3    H128504   4.338   1.122   2.281  0.6024 -1.1537  0.1625
 2363TIP3    H228505   4.268   0.988   2.297 -0.0665 -0.9098 -0.6527
 2364TIP3   OH228506   6.781   4.105   2.168  0.5065  0.2061  0.3171
 2364TIP3    H128507   6.700   4.129   2.214  0.2029  2.1303 -1.0874
 2364TIP3    H228508   6.792   4.012   2.186 -2.2453 -0.2173  0.2587
 2365TIP3   OH228509   4.001   2.332   1.265 -0.2408 -0.0246  0.6072
 2365TIP3    H128510   4.070   2.303   1.325  1.0970 -0.8482 -1.2435
 2365TIP3    H228511   3.923   2.337   1.320  0.7535 -1.4279  2.2736
 2366TIP3   OH228512   4.417   2.882  12.856  0.4856  0.0492 -0.3880
 2366TIP3    H128513   4.429   2.792  12.825  1.5223  0.2432 -0.5764
 2366TIP3    H228514   4.478   2.934  12.804  0.3196  0.7758  0.1281
 2367TIP3   OH228515   2.975   0.796  13.816 -0.3226 -0.5018  0.1668
 2367TIP3    H128516   2.993   0.877  13.769  2.5722  0.1838  2.2302
 2367TIP3    H228517   2.891   0.812  13.860  0.2336  1.4350  0.5996
 2368TIP3   OH228518   1.228   5.585   4.624 -0.8158  0.7676  0.4019
 2368TIP3    H128519   1.158   5.648   4.608 -1.7787 -0.1088  0.9943
 2368TIP3    H228520   1.201   5.506   4.578  1.2126  1.2478 -1.7756
 2369TIP3   OH228521   2.543   1.664  12.673  0.6871  0.2792  0.2659
 2369TIP3    H128522   2.480   1.615  12.726  0.0058  2.0086  1.1486
 2369TIP3    H228523   2.499   1.747  12.655  2.6129  1.4574  0.7117
 2370TIP3   OH228524   1.415   4.366  14.540  0.2969  0.7954  0.4516
 2370TIP3    H128525   1.356   4.419  14.487 -0.0621 -0.5706 -0.5649
 2370TIP3    H228526   1.360   4.337  14.613  0.2797  1.1696  0.5907
 2371TIP3   OH228527   2.611   3.355  14.846  0.2638  0.4717 -0.4486
 2371TIP3    H128528   2.518   3.365  14.866  0.0507 -0.2538 -1.0160
 2371TIP3    H228529   2.656   3.375  14.928 -0.4342  0.0923  0.0368
 2372TIP3   OH228530   4.459   0.681  12.646 -0.7747  0.7566 -0.1988
 2372TIP3    H128531   4.505   0.705  12.565  0.5709  0.8604  0.5748
 2372TIP3    H228532   4.419   0.596  12.626  0.5392  0.2031 -0.6130
 2373TIP3   OH228533   3.007   5.713  17.053 -0.2245  0.1679 -0.0755
 2373TIP3    H128534   3.008   5.701  17.148 -0.0563 -1.1971 -0.2251
 2373TIP3    H228535   2.990   5.625  17.019 -0.7598  0.7292 -1.2988
 2374TIP3   OH228536   5.718   4.981  15.466 -0.0845 -1.0296 -0.4350
 2374TIP3    H128537   5.677   4.895  15.464 -0.2044 -0.9739 -1.5039
 2374TIP3    H228538   5.781   4.979  15.394 -0.2272 -0.1667 -0.5973
 2375TIP3   OH228539   6.191   3.086  16.399  0.6667  0.0664  0.1076
 2375TIP3    H128540   6.275   3.128  16.383  2.1806 -2.5167  0.6782
 2375TIP3    H228541   6.199   3.000  16.357 -1.1440 -0.7994  1.4188
 2376TIP3   OH228542   0.720   1.702  13.637 -0.4214 -0.3006 -0.1996
 2376TIP3    H128543   0.725   1.771  13.703 -2.4656 -0.8903  0.6422
 2376TIP3    H228544   0.685   1.746  13.560  0.5315  0.0708 -0.4354
 2377TIP3   OH228545   6.481   5.327  11.762 -0.5282 -0.1331 -0.0358
 2377TIP3    H128546   6.468   5.242  11.804 -0.3884 -0.9043 -1.4920
 2377TIP3    H228547   6.542   5.309  11.690 -3.2253  0.4401 -2.6210
 2378TIP3   OH228548   1.575   1.053  13.483  0.1394  0.5598 -0.0387
 2378TIP3    H128549   1.646   1.106  13.446  2.1268 -1.1050  1.0911
 2378TIP3    H228550   1.516   1.116  13.524  0.7530  2.0416 -1.3214
 2379TIP3   OH228551   0.173   2.924  10.597 -0.1573 -0.1287 -0.9257
 2379TIP3    H128552   0.112   2.850  10.602  0.2785 -0.5810 -1.9158
 2379TIP3    H228553   0.149   2.968  10.515 -0.9761  1.3582  0.0636
 2380TIP3   OH228554   3.149   5.090  15.867 -0.3731 -0.2731  0.2953
 2380TIP3    H128555   3.117   5.034  15.796  0.9926  0.6309 -1.0948
 2380TIP3    H228556   3.204   5.032  15.920 -1.6281 -1.0266  0.8131
 2381TIP3   OH228557   3.666   0.091  13.926 -0.2540 -0.7017  0.4058
 2381TIP3    H128558   3.715   0.091  13.844 -1.6855 -1.9621 -0.4868
 2381TIP3    H228559   3.666  -0.001  13.954 -1.5347 -0.6292  0.7154
 2382TIP3   OH228560   1.973   4.350   2.056 -0.3099  0.1677 -0.5505
 2382TIP3    H128561   1.966   4.444   2.042 -0.3026  0.1440 -0.7078
 2382TIP3    H228562   1.958   4.339   2.150  1.4135  0.5133 -0.1961
 2383TIP3   OH228563   6.092   1.846   4.691  0.6001 -0.5176 -0.1476
 2383TIP3    H128564   6.043   1.771   4.656  0.7204 -1.4518  1.5655
 2383TIP3    H228565   6.182   1.814   4.698  0.7761  0.0011 -0.0148
 2384TIP3   OH228566   0.773   3.284   3.680  0.1662  0.1402 -0.3560
 2384TIP3    H128567   0.797   3.241   3.598  1.9485 -0.7671  0.5715
 2384TIP3    H228568   0.774   3.214   3.745  2.0909  1.3189  1.0156
 2385TIP3   OH228569   6.380   0.336   3.153  0.3406 -0.4683 -0.0573
 2385TIP3    H128570   6.446   0.309   3.217  0.4777 -1.8778 -0.7591
 2385TIP3    H228571   6.415   0.307   3.069 -0.9061 -0.7535 -0.4998
 2386TIP3   OH228572   0.122   5.216   3.680  0.0932 -0.5602  0.0952
 2386TIP3    H128573   0.158   5.227   3.592 -0.1560 -2.0635 -0.2258
 2386TIP3    H228574   0.038   5.261   3.677 -0.9100 -2.3765 -1.1476
 2387TIP3   OH228575   3.676   5.649   0.614 -0.5283  0.3503 -0.2510
 2387TIP3    H128576   3.719   5.723   0.570  1.3019 -0.0536  0.7796
 2387TIP3    H228577   3.742   5.580   0.616 -1.9679 -1.0851 -0.5305
 2388TIP3   OH228578   1.345   4.902  13.371  0.8493  0.3875 -0.0693
 2388TIP3    H128579   1.341   4.996  13.350  0.7784  0.3228 -0.3486
 2388TIP3    H228580   1.438   4.881  13.364  0.5554 -0.3602 -3.6242
 2389TIP3   OH228581   3.259   1.017  16.486  0.3249  0.0114 -0.1034
 2389TIP3    H128582   3.254   1.041  16.394  0.5542  0.3302 -0.0355
 2389TIP3    H228583   3.288   1.098  16.530 -0.0732 -0.0554  0.2827
 2390TIP3   OH228584   2.024   2.129   3.254 -0.2244  0.0538 -0.9937
 2390TIP3    H128585   2.109   2.169   3.234  0.5671 -0.1300  1.6451
 2390TIP3    H228586   2.041   2.074   3.330 -3.3026  2.4278  1.6795
 2391TIP3   OH228587   3.667   6.571  13.867  0.4827 -1.0495  0.2405
 2391TIP3    H128588   3.758   6.577  13.897  0.2933 -1.6649  0.9935
 2391TIP3    H228589   3.640   6.483  13.893 -0.7046 -0.4544  1.1342
 2392TIP3   OH228590   4.869   0.545   0.765 -0.1582  0.3916  0.2006
 2392TIP3    H128591   4.871   0.607   0.838 -0.7607  0.0515  0.5095
 2392TIP3    H228592   4.836   0.596   0.691 -0.0577  0.5992  0.2982
 2393TIP3   OH228593   3.801   3.859   4.945 -0.4676  0.5097  0.2405
 2393TIP3    H128594   3.871   3.853   4.879 -1.4364  0.1964 -0.7769
 2393TIP3    H228595   3.835   3.923   5.008 -0.5952  2.9358 -1.9635
 2394TIP3   OH228596   2.604   1.035  16.687  0.0413  0.6899 -0.0357
 2394TIP3    H128597   2.695   1.052  16.661  0.1424 -2.2124 -2.0071
 2394TIP3    H228598   2.552   1.073  16.616 -0.1499  0.0539 -0.2348
 2395TIP3   OH228599   0.627   1.251   1.242  0.7691  0.0037  0.1981
 2395TIP3    H128600   0.612   1.202   1.162 -0.4467 -0.0154  0.4166
 2395TIP3    H228601   0.565   1.213   1.305  1.1396  0.5572  0.9075
 2396TIP3   OH228602   1.102   2.485   1.973  0.1277 -0.3043 -0.3730
 2396TIP3    H128603   1.101   2.532   1.890  1.6895 -0.9074 -0.7815
 2396TIP3    H228604   1.125   2.551   2.038 -1.8600  0.3345 -0.2622
 2397TIP3   OH228605   1.992   2.358  13.162  0.1280 -0.8993  0.0716
 2397TIP3    H128606   2.029   2.286  13.213  1.7052 -0.4212 -0.3332
 2397TIP3    H228607   2.037   2.354  13.078  1.7841  1.7241  0.7149
 2398TIP3   OH228608   4.859   3.375   5.211 -0.6821 -0.0438 -0.1109
 2398TIP3    H128609   4.893   3.453   5.257 -2.5300  1.0347 -0.4672
 2398TIP3    H228610   4.862   3.306   5.277  1.4774  0.1561  0.0707
 2399TIP3   OH228611   3.532   5.346  17.186 -0.1399 -0.3743 -0.6481
 2399TIP3    H128612   3.460   5.313  17.240  1.4476  0.3090  2.1337
 2399TIP3    H228613   3.587   5.269  17.170  1.9188  0.0048  3.1577
 2400TIP3   OH228614   3.643   3.356  14.020 -0.0282  0.4646  0.1930
 2400TIP3    H128615   3.716   3.294  14.015 -0.1089  0.5008 -2.7535
 2400TIP3    H228616   3.619   3.356  14.113  0.7916 -2.9438  0.5480
 2401TIP3   OH228617   5.120   1.522  10.483 -0.4016  0.2679  0.4587
 2401TIP3    H128618   5.051   1.458  10.472  1.6807 -1.7847 -1.8378
 2401TIP3    H228619   5.195   1.472  10.516  0.8547  1.8084  0.1066
 2402TIP3   OH228620   1.125   2.723  13.442 -0.0156 -0.5902 -0.1209
 2402TIP3    H128621   1.099   2.738  13.351 -1.5772 -1.7939  0.0709
 2402TIP3    H228622   1.193   2.655  13.437 -1.1076 -1.7042 -0.3498
 2403TIP3   OH228623   5.801   1.745   5.749  0.0374 -0.2475 -0.0833
 2403TIP3    H128624   5.725   1.791   5.785  1.1326  0.5299  1.3430
 2403TIP3    H228625   5.776   1.723   5.659 -0.4421  3.5255 -1.0539
 2404TIP3   OH228626   1.938   1.702   1.576 -0.0661  0.5049  0.0974
 2404TIP3    H128627   1.913   1.768   1.640 -0.9834  0.6539 -0.4070
 2404TIP3    H228628   1.862   1.693   1.519  0.4496 -0.1947 -0.5004
 2405TIP3   OH228629   3.746   5.962   0.685 -0.1565 -0.0292  0.4912
 2405TIP3    H128630   3.791   5.942   0.767 -0.4552  0.2126  0.7118
 2405TIP3    H228631   3.779   5.896   0.624 -0.2601 -0.4775  0.9151
 2406TIP3   OH228632   4.840   0.379   2.501 -0.4709  0.3509 -0.3116
 2406TIP3    H128633   4.907   0.314   2.479 -0.3000  0.4721 -0.1423
 2406TIP3    H228634   4.768   0.327   2.537 -0.0816  0.3165  0.4237
 2407TIP3   OH228635   6.167   4.921  13.594 -0.5015 -0.0482 -0.2768
 2407TIP3    H128636   6.176   4.827  13.609  0.5818  0.2476  1.1299
 2407TIP3    H228637   6.152   4.958  13.682  2.6188  1.4304 -0.2556
 2408TIP3   OH228638   2.266   6.436   4.602 -0.1114 -0.2252  0.3016
 2408TIP3    H128639   2.327   6.368   4.631  0.7062  0.2778 -0.2071
 2408TIP3    H228640   2.253   6.491   4.679  1.4779  0.6834 -0.0401
 2409TIP3   OH228641   3.429   3.491  11.502  0.0338  0.5157 -0.2098
 2409TIP3    H128642   3.393   3.528  11.584 -0.0365 -0.8512  0.4018
 2409TIP3    H228643   3.383   3.538  11.433 -3.3659 -1.4027  0.5239
 2410TIP3   OH228644   3.949   1.972   1.314  0.1362 -0.0463 -0.2055
 2410TIP3    H128645   3.937   2.030   1.239  1.1952  0.4315 -0.0331
 2410TIP3    H228646   4.041   1.946   1.310 -0.0427 -0.8117  0.3664
 2411TIP3   OH228647   6.401   5.884  14.585  0.0859 -0.0218 -0.0633
 2411TIP3    H128648   6.494   5.885  14.608  0.1985  0.7132 -0.5040
 2411TIP3    H228649   6.399   5.881  14.490 -0.2318  3.0533 -0.2845
 2412TIP3   OH228650   6.267   2.197  16.852  0.3324  0.0276 -0.3440
 2412TIP3    H128651   6.203   2.201  16.923  0.6374 -0.3390 -0.0496
 2412TIP3    H228652   6.331   2.265  16.874 -0.9431  1.7118 -1.6176
 2413TIP3   OH228653   5.897   1.581   6.060  0.0658 -0.0796 -0.3192
 2413TIP3    H128654   5.864   1.668   6.036 -0.0682  0.2170  0.8722
 2413TIP3    H228655   5.952   1.596   6.136 -0.3171 -1.1030  0.1774
 2414TIP3   OH228656   2.437   5.286   1.491 -0.0910  0.1862 -0.2288
 2414TIP3    H128657   2.470   5.349   1.555  0.6924 -0.6188  0.1632
 2414TIP3    H228658   2.473   5.316   1.407  2.5902 -1.2529  0.3060
 2415TIP3   OH228659   2.492   0.402  14.440 -0.1301  0.4711  0.6739
 2415TIP3    H128660   2.475   0.474  14.379 -1.4483  0.3609  0.8877
 2415TIP3    H228661   2.509   0.326  14.384 -1.1260  0.4162  0.4393
 2416TIP3   OH228662   5.799   2.156   5.974  0.0206  0.5105 -0.2011
 2416TIP3    H128663   5.734   2.152   5.904 -1.1929  2.1115  0.7646
 2416TIP3    H228664   5.849   2.075   5.965 -0.9609  0.0552 -2.0663
 2417TIP3   OH228665   5.007   6.639  17.027 -0.4399  0.3683 -0.2471
 2417TIP3    H128666   4.943   6.693  17.074  2.2711  1.1387  2.9189
 2417TIP3    H228667   4.991   6.550  17.058  0.6623  0.7317  1.5345
 2418TIP3   OH228668   3.439   0.344   5.412 -0.6695 -1.0529 -0.4459
 2418TIP3    H128669   3.516   0.308   5.368 -0.1643 -0.3870 -0.1282
 2418TIP3    H228670   3.393   0.267   5.446  0.3976 -1.4060  0.2407
 2419TIP3   OH228671   2.471   5.581   2.058  0.1113  0.2349  0.1466
 2419TIP3    H128672   2.455   5.669   2.025 -1.9736 -0.1747 -0.0538
 2419TIP3    H228673   2.513   5.535   1.986  1.7716  1.1906  0.4568
 2420TIP3   OH228674   6.042   0.380  12.368 -0.3682 -0.1348 -0.2343
 2420TIP3    H128675   6.117   0.385  12.309 -0.2758 -2.0336 -0.3587
 2420TIP3    H228676   6.012   0.289  12.360 -1.5711  0.1015  1.1623
 2421TIP3   OH228677   5.159   2.453  12.351  0.1230 -0.6962  0.3882
 2421TIP3    H128678   5.142   2.368  12.392 -0.7170 -0.4018  0.6801
 2421TIP3    H228679   5.105   2.453  12.273 -1.0536  0.1422  1.1682
 2422TIP3   OH228680   6.707   2.356  16.812  0.9191  0.3842 -0.3077
 2422TIP3    H128681   6.747   2.420  16.753  0.0730  3.2339  1.9557
 2422TIP3    H228682   6.774   2.339  16.879  1.3664 -1.7230 -1.2073
 2423TIP3   OH228683   1.915   6.153  15.702  0.5622  0.0313 -0.2102
 2423TIP3    H128684   1.884   6.219  15.640 -1.1743 -0.9806 -0.4886
 2423TIP3    H228685   1.947   6.082  15.648  1.1711  0.0847  0.0786
 2424TIP3   OH228686   4.483   3.926   3.892 -0.0430  0.1732 -0.3916
 2424TIP3    H128687   4.493   3.989   3.963 -0.3295 -1.7651  1.4875
 2424TIP3    H228688   4.392   3.934   3.866  0.3983  1.8605 -1.5683
 2425TIP3   OH228689   3.169   6.144  11.282  0.0113  0.6410 -0.0939
 2425TIP3    H128690   3.232   6.103  11.223  1.0959  2.1448 -0.0489
 2425TIP3    H228691   3.117   6.201  11.226 -0.2398  0.6134  0.1116
 2426TIP3   OH228692   3.852   3.228  11.645 -0.1444 -0.0312 -0.4143
 2426TIP3    H128693   3.886   3.234  11.734 -0.6738  0.5373 -0.2429
 2426TIP3    H228694   3.795   3.304  11.636 -0.1681 -0.1333 -1.2104
 2427TIP3   OH228695   6.565   3.280  15.768  0.0445  0.0522 -0.0050
 2427TIP3    H128696   6.511   3.349  15.729  1.4556  0.5662 -1.1342
 2427TIP3    H228697   6.646   3.324  15.793 -0.5581 -0.3969  3.0591
 2428TIP3   OH228698   4.965   5.722   4.352 -0.4320  0.3934 -0.5602
 2428TIP3    H128699   4.979   5.638   4.396 -0.2481  0.9235  0.4314
 2428TIP3    H228700   4.874   5.744   4.371 -0.3189  0.6784 -0.3377
 2429TIP3   OH228701   3.053   2.882  12.346  0.7874 -0.3654 -0.0255
 2429TIP3    H128702   3.067   2.946  12.275  0.8789  1.2698  1.3924
 2429TIP3    H228703   2.977   2.831  12.317  0.6087  0.4904 -1.1631
 2430TIP3   OH228704   5.276   2.839   0.356 -0.7372 -0.3910 -0.4623
 2430TIP3    H128705   5.348   2.777   0.364  2.9725  3.5899  0.4336
 2430TIP3    H228706   5.227   2.829   0.438  1.6077 -0.2229  1.0648
 2431TIP3   OH228707   6.321   5.945  14.070 -0.2070  0.3159 -0.4454
 2431TIP3    H128708   6.235   5.914  14.097 -0.9182  2.2070 -0.3875
 2431TIP3    H228709   6.360   5.981  14.150  1.7938 -2.8293  0.1578
 2432TIP3   OH228710   0.107   1.046  13.019  0.2313 -0.1379  0.2339
 2432TIP3    H128711   0.084   0.977  13.081  0.5711 -0.3566  0.1210
 2432TIP3    H228712   0.090   1.128  13.066  3.1986 -0.2354  1.7413
 2433TIP3   OH228713   1.573   1.229   2.312  0.7263 -0.1976 -0.5440
 2433TIP3    H128714   1.585   1.215   2.406 -0.7663  1.0648 -0.1250
 2433TIP3    H228715   1.582   1.142   2.274  0.1948 -0.9263  0.9054
 2434TIP3   OH228716   2.108   4.173   3.757 -0.2309 -0.8002  0.1481
 2434TIP3    H128717   2.032   4.164   3.700  0.3179 -2.5896 -0.3916
 2434TIP3    H228718   2.181   4.184   3.696  0.1560 -1.0240  0.5653
 2435TIP3   OH228719   4.508   6.270  13.646 -0.2432 -0.2592 -0.2379
 2435TIP3    H128720   4.530   6.216  13.570 -0.0639  2.3696 -2.2309
 2435TIP3    H228721   4.440   6.330  13.613  1.2674  2.3201  0.9980
 2436TIP3   OH228722   2.948   5.919  11.385 -0.1947  0.1557 -0.0264
 2436TIP3    H128723   2.999   5.959  11.456  0.4327 -1.2015  0.3184
 2436TIP3    H228724   2.932   5.991  11.323  2.3278  0.6048 -0.2566
 2437TIP3   OH228725   2.347   0.707  16.607  0.3408 -0.2559  0.0922
 2437TIP3    H128726   2.289   0.783  16.605  1.1940  0.4165 -2.0942
 2437TIP3    H228727   2.293   0.636  16.643 -0.0168  1.6380  3.7112
 2438TIP3   OH228728   3.429   1.449  12.721 -0.1248  0.1225  0.4269
 2438TIP3    H128729   3.519   1.481  12.713  0.9429 -2.9252 -1.2218
 2438TIP3    H228730   3.425   1.410  12.808 -0.5003  1.8622  1.2355
 2439TIP3   OH228731   1.565   1.232   3.005  0.1398  0.3430  0.6826
 2439TIP3    H128732   1.472   1.252   2.996 -0.4627 -2.7533 -1.5906
 2439TIP3    H228733   1.609   1.299   2.953 -1.1110  0.1415 -0.7038
 2440TIP3   OH228734   5.341   1.386  10.942 -0.0242  0.5851  0.2616
 2440TIP3    H128735   5.323   1.447  11.012 -1.0540  1.5118 -0.7677
 2440TIP3    H228736   5.263   1.389  10.887  0.3976 -0.7640 -0.4579
 2441TIP3   OH228737   1.446   1.345   2.676  0.1005  0.1127 -0.3459
 2441TIP3    H128738   1.439   1.420   2.617 -0.9788 -0.6769 -1.2586
 2441TIP3    H228739   1.362   1.343   2.722  0.4914  0.0253  0.3780
 2442TIP3   OH228740   2.658   0.958  13.602 -0.2087 -0.4765 -0.2522
 2442TIP3    H128741   2.715   0.967  13.525 -0.3186 -0.3326 -0.3185
 2442TIP3    H228742   2.674   1.037  13.653 -1.8217  0.5742 -1.2721
 2443TIP3   OH228743   3.534   6.502   0.323  0.5712 -0.4782  0.2796
 2443TIP3    H128744   3.513   6.507   0.230 -0.9541  0.9706  0.6484
 2443TIP3    H228745   3.570   6.414   0.335  1.0000 -0.6055 -1.7031
 2444TIP3   OH228746   2.105   0.445   4.247  0.3576  0.5880  0.3207
 2444TIP3    H128747   2.106   0.523   4.302  0.6855  1.3597 -0.7436
 2444TIP3    H228748   2.013   0.432   4.225 -0.0917 -0.9717  2.6897
 2445TIP3   OH228749   1.551   0.602  15.145  0.0261  0.4910 -0.3573
 2445TIP3    H128750   1.529   0.574  15.234  3.9014  1.3317  1.0488
 2445TIP3    H228751   1.493   0.677  15.130 -1.0005  0.0949  1.2525
 2446TIP3   OH228752   5.616   3.475  13.327 -0.0736  0.7418  0.2516
 2446TIP3    H128753   5.667   3.476  13.246 -0.0889 -0.1100  0.2182
 2446TIP3    H228754   5.531   3.437  13.301 -0.9452  2.6503  0.1873
 2447TIP3   OH228755   3.754   4.317  12.570 -0.9480 -0.1110 -0.0778
 2447TIP3    H128756   3.754   4.258  12.495 -0.4496 -0.4029  0.1434
 2447TIP3    H228757   3.768   4.260  12.645  1.2817  0.4169  0.0042
 2448TIP3   OH228758   1.446   4.940   1.433 -0.1385 -0.1248  0.9830
 2448TIP3    H128759   1.386   5.014   1.424 -1.0520 -0.6673  2.2701
 2448TIP3    H228760   1.409   4.873   1.375  0.9782  0.5500 -0.5862
 2449TIP3   OH228761   5.967   5.960   1.762  0.8407 -0.2414  0.1163
 2449TIP3    H128762   6.026   6.031   1.737  0.5268 -0.2091 -0.5752
 2449TIP3    H228763   6.024   5.887   1.783  1.1255 -0.2566 -0.6867
 2450TIP3   OH228764   6.689   1.925   0.491  0.1963  0.3049  0.6418
 2450TIP3    H128765   6.635   1.908   0.414  0.4012  3.4370 -0.3476
 2450TIP3    H228766   6.779   1.915   0.460  0.2605  0.5177  0.7538
 2451TIP3   OH228767   2.194   0.796   5.005 -0.7282 -0.3548 -0.2521
 2451TIP3    H128768   2.173   0.832   4.919 -0.5899  0.9494  0.2453
 2451TIP3    H228769   2.123   0.734   5.023 -0.1783 -1.5264 -1.7732
 2452TIP3   OH228770   5.834   4.206  16.065 -0.6653 -0.2907 -0.1270
 2452TIP3    H128771   5.906   4.143  16.072 -0.6093 -0.0611  2.4265
 2452TIP3    H228772   5.852   4.254  15.985  2.0789 -0.2186  0.4267
 2453TIP3   OH228773   4.167   5.796   0.198 -0.0724  0.2539 -0.4046
 2453TIP3    H128774   4.152   5.714   0.245  1.6421  0.3923  0.4342
 2453TIP3    H228775   4.262   5.805   0.193 -0.2198  1.8661 -1.0740
 2454TIP3   OH228776   2.906   1.538  16.769  0.4332  0.1672 -0.4172
 2454TIP3    H128777   2.904   1.564  16.861 -1.8308 -0.8185 -0.1434
 2454TIP3    H228778   2.922   1.619  16.721  1.2085  0.7560  0.7988
 2455TIP3   OH228779   1.201   2.727   2.127  0.6384 -0.4046  0.3324
 2455TIP3    H128780   1.136   2.761   2.189 -0.1092 -1.4255  0.1355
 2455TIP3    H228781   1.224   2.802   2.073  1.2176  0.4922  1.7534
 2456TIP3   OH228782   2.349   5.430  11.241  0.7917  0.3335 -0.4717
 2456TIP3    H128783   2.417   5.373  11.278 -0.0884 -1.6894 -1.7733
 2456TIP3    H228784   2.334   5.395  11.153 -2.9564 -0.3633  0.2803
 2457TIP3   OH228785   5.432   3.232  15.906  0.0761  0.5391 -0.7544
 2457TIP3    H128786   5.441   3.305  15.968  3.5336  0.7667 -1.3117
 2457TIP3    H228787   5.480   3.260  15.829  1.3914 -2.2197 -1.0491
 2458TIP3   OH228788   4.592   6.117  16.311 -0.3283  0.6413 -0.0754
 2458TIP3    H128789   4.640   6.143  16.390  1.8685  0.7968 -1.3680
 2458TIP3    H228790   4.607   6.188  16.249 -2.1468  0.5973 -0.6111
 2459TIP3   OH228791   0.698   2.462  16.289  0.2012 -0.7710  0.5676
 2459TIP3    H128792   0.626   2.504  16.242 -1.1164  0.4004  3.4204
 2459TIP3    H228793   0.672   2.370  16.295 -1.3730 -0.2933  1.9367
 2460TIP3   OH228794   5.369   0.683  13.921  0.3866 -0.3691 -0.3957
 2460TIP3    H128795   5.365   0.710  14.013 -1.3435  1.8606 -1.0469
 2460TIP3    H228796   5.463   0.675  13.903  0.7701 -0.3239  1.4107
 2461TIP3   OH228797   1.501   2.340  10.613 -0.2331  0.4625 -0.0924
 2461TIP3    H128798   1.413   2.317  10.644 -0.3430  0.1697 -0.6184
 2461TIP3    H228799   1.518   2.279  10.541 -0.1147  1.3529 -0.8376
 2462TIP3   OH228800   3.461   5.903  16.467 -0.1020  0.0844  0.4778
 2462TIP3    H128801   3.400   5.837  16.435 -0.6202  1.6796 -2.0950
 2462TIP3    H228802   3.420   5.937  16.547 -1.0751 -0.9279  0.4290
 2463TIP3   OH228803   5.956   5.998   0.422  0.0773 -0.1427 -0.4087
 2463TIP3    H128804   5.913   5.938   0.483 -0.6838  0.8044  0.0214
 2463TIP3    H228805   5.934   5.963   0.336  0.3112 -0.9254 -0.1582
 2464TIP3   OH228806   6.675   5.067  13.147 -0.3444  0.1656 -0.1054
 2464TIP3    H128807   6.700   4.988  13.098 -0.5872 -0.8396  1.3103
 2464TIP3    H228808   6.693   5.139  13.088 -0.5165 -0.9878 -1.6179
 2465TIP3   OH228809   2.408   4.221   4.821 -0.2941 -0.2418 -0.0924
 2465TIP3    H128810   2.383   4.178   4.903  1.3414 -2.1963 -0.5267
 2465TIP3    H228811   2.337   4.200   4.760 -0.8404  0.0330  0.4411
 2466TIP3   OH228812   1.067   5.835  14.996  0.0055  0.4054  0.0382
 2466TIP3    H128813   1.112   5.885  14.928  0.9320 -0.3301  0.0886
 2466TIP3    H228814   1.005   5.780  14.947 -0.1337  0.6868 -0.1094
 2467TIP3   OH228815   5.341   6.462  12.622 -0.2538 -0.4183 -0.0839
 2467TIP3    H128816   5.397   6.512  12.682 -0.4570 -1.3462  0.9198
 2467TIP3    H228817   5.376   6.373  12.625 -1.5356 -0.9417  0.2994
 2468TIP3   OH228818   5.449   6.327  15.643 -0.0569  0.2618 -0.1426
 2468TIP3    H128819   5.495   6.248  15.611  0.6014  0.2575  0.7827
 2468TIP3    H228820   5.406   6.298  15.723 -1.2075  0.4286 -0.6835
 2469TIP3   OH228821   3.530   1.844   4.750 -0.2270 -0.0543 -0.3252
 2469TIP3    H128822   3.591   1.905   4.791 -0.7792  0.8930 -0.8658
 2469TIP3    H228823   3.463   1.900   4.712 -0.3005 -0.9556 -1.5865
 2470TIP3   OH228824   4.427   0.401   5.774 -0.4643 -0.2254  0.8903
 2470TIP3    H128825   4.446   0.329   5.714 -0.8711 -0.3502  0.9083
 2470TIP3    H228826   4.333   0.393   5.792 -0.3316 -0.2243  1.5910
 2471TIP3   OH228827   0.950   0.639  16.357 -0.0993 -0.2242 -0.1123
 2471TIP3    H128828   0.920   0.695  16.428 -0.5090 -0.6602  0.0674
 2471TIP3    H228829   0.891   0.658  16.284 -1.3230 -1.5980  0.4612
 2472TIP3   OH228830   3.159   0.571  16.997 -0.2630  0.0205  0.7278
 2472TIP3    H128831   3.112   0.587  16.915  0.9392 -0.2315 -0.0377
 2472TIP3    H228832   3.172   0.476  16.999  1.6404  0.2233  0.0712
 2473TIP3   OH228833   2.772   3.456   0.427 -0.0366 -0.2948 -0.0756
 2473TIP3    H128834   2.752   3.369   0.393 -1.8719 -0.1075  0.3854
 2473TIP3    H228835   2.781   3.443   0.521  1.8068 -0.3004 -0.2298
 2474TIP3   OH228836   0.138   3.482   5.044 -0.4664 -0.0764  0.0308
 2474TIP3    H128837   0.230   3.461   5.030 -0.2671  0.6899  0.1419
 2474TIP3    H228838   0.105   3.504   4.956 -0.6225 -0.6495 -0.0548
 2475TIP3   OH228839   4.175   6.044  14.565 -0.1306  0.0522 -0.1468
 2475TIP3    H128840   4.231   6.079  14.634  1.0851  0.5199 -1.3269
 2475TIP3    H228841   4.234   5.995  14.508 -1.0847 -0.2413 -0.9214
 2476TIP3   OH228842   2.718   0.672   4.176 -0.2600 -0.0133  0.4050
 2476TIP3    H128843   2.693   0.661   4.267 -0.6022 -2.1163  0.0954
 2476TIP3    H228844   2.735   0.584   4.144 -0.2493  0.6513 -1.6079
 2477TIP3   OH228845   2.289   4.420   5.672 -0.4308  0.8679 -0.2477
 2477TIP3    H128846   2.270   4.500   5.720  1.2769  1.0600  0.1841
 2477TIP3    H228847   2.305   4.450   5.582 -0.9210  0.8587 -0.3401
 2478TIP3   OH228848   1.106   2.840  12.196 -0.0782  0.1228  0.5411
 2478TIP3    H128849   1.024   2.878  12.230 -0.6804 -0.6596  0.0015
 2478TIP3    H228850   1.114   2.756  12.241 -1.1782 -1.1933 -1.5216
 2479TIP3   OH228851   1.665   5.145  13.789  0.2454 -0.4682  0.3589
 2479TIP3    H128852   1.639   5.143  13.697 -0.7014 -0.7592  0.6273
 2479TIP3    H228853   1.627   5.226  13.822 -0.2642 -0.8596  0.7371
 2480TIP3   OH228854   3.766   0.801  16.560  0.1856 -0.0294 -0.1239
 2480TIP3    H128855   3.833   0.774  16.498  1.0767  0.1124  0.7430
 2480TIP3    H228856   3.809   0.794  16.646 -1.5911 -2.2204  0.7117
 2481TIP3   OH228857   1.245   3.339   5.735 -0.2935  0.2937 -0.0288
 2481TIP3    H128858   1.172   3.279   5.726 -0.3599  0.5734 -1.7022
 2481TIP3    H228859   1.236   3.399   5.661  1.8921  0.0234 -0.5852
 2482TIP3   OH228860   1.617   1.378  12.595 -0.6539  0.0247  0.0280
 2482TIP3    H128861   1.695   1.432  12.587 -0.7191  0.4169  1.7806
 2482TIP3    H228862   1.649   1.288  12.586 -0.2919  0.2519 -1.1220
 2483TIP3   OH228863   5.300   0.166   0.784  0.3848  0.8844  0.4950
 2483TIP3    H128864   5.259   0.169   0.698  0.3419  1.7464  0.5411
 2483TIP3    H228865   5.227   0.159   0.845  0.3081  2.0401  0.5549
 2484TIP3   OH228866   4.904   5.132  12.623 -0.1986 -0.1678 -0.5524
 2484TIP3    H128867   4.893   5.061  12.686 -0.5373 -0.9962 -1.5183
 2484TIP3    H228868   4.860   5.207  12.664 -0.4883 -0.7119  0.1541
 2485TIP3   OH228869   2.887   2.569  13.968 -0.4739  0.1391 -0.1263
 2485TIP3    H128870   2.979   2.573  13.943 -0.0402 -1.1642  1.0715
 2485TIP3    H228871   2.867   2.475  13.971 -0.6435  0.1492  3.5145
 2486TIP3   OH228872   0.448   2.275  16.114  0.2470 -0.3516 -0.3558
 2486TIP3    H128873   0.374   2.329  16.142  0.7223 -0.3187  0.9362
 2486TIP3    H228874   0.500   2.263  16.194  1.3654 -0.8019 -1.1205
 2487TIP3   OH228875   6.391   4.407  15.279  0.6702  0.0029  0.2466
 2487TIP3    H128876   6.421   4.412  15.189  1.8829 -1.2152  0.5499
 2487TIP3    H228877   6.456   4.456  15.329 -0.6970  1.8132  0.3537
 2488TIP3   OH228878   3.786   3.180   4.843  0.0565 -0.4269  0.7621
 2488TIP3    H128879   3.746   3.161   4.928 -1.4491 -0.3419  0.1087
 2488TIP3    H228880   3.779   3.097   4.795  0.8768 -0.4681  0.7034
 2489TIP3   OH228881   3.671   1.171  13.097 -0.3243 -0.1634 -0.1521
 2489TIP3    H128882   3.610   1.245  13.094  0.7289  0.6917 -1.7487
 2489TIP3    H228883   3.751   1.208  13.133  0.1860 -0.5193 -0.8970
 2490TIP3   OH228884   2.356   4.676   4.789 -0.1067  0.1286  0.1909
 2490TIP3    H128885   2.279   4.640   4.834  0.7274  1.1977  2.6373
 2490TIP3    H228886   2.359   4.768   4.818  1.5769  0.3378 -0.5665
 2491TIP3   OH228887   0.043   5.432   1.549 -0.1419  0.1177  0.4058
 2491TIP3    H128888   0.020   5.513   1.595 -2.5051 -0.5283  0.4933
 2491TIP3    H228889  -0.032   5.416   1.491  1.4712 -0.6382 -1.5712
 2492TIP3   OH228890   5.107   0.320   4.513  0.0696  0.0410 -0.4187
 2492TIP3    H128891   5.120   0.331   4.419 -0.2498 -0.2001 -0.4916
 2492TIP3    H228892   5.066   0.402   4.541  1.1984  0.5753 -0.2839
 2493TIP3   OH228893   1.428   4.166   1.556  0.1270 -0.1945  0.0739
 2493TIP3    H128894   1.337   4.141   1.574  0.1149  0.7824  1.5840
 2493TIP3    H228895   1.459   4.203   1.639  1.5060  0.6298 -0.7748
 2494TIP3   OH228896   4.005   0.071   1.365  0.0741 -0.6823  0.0172
 2494TIP3    H128897   3.955   0.057   1.446  0.6330 -2.1145  0.1330
 2494TIP3    H228898   3.993  -0.009   1.315  1.0362 -0.4401 -0.6193
 2495TIP3   OH228899   0.574   1.209  12.651 -0.0196  0.3814 -0.1046
 2495TIP3    H128900   0.623   1.164  12.582  0.0558  2.1738 -1.3104
 2495TIP3    H228901   0.483   1.186  12.635  0.1447 -0.6046  0.3100
 2496TIP3   OH228902   5.719   1.249  13.084 -0.8001  1.0137 -0.1960
 2496TIP3    H128903   5.791   1.279  13.139  1.7306 -3.0128 -0.9157
 2496TIP3    H228904   5.694   1.165  13.121 -0.7028 -0.6993 -3.6152
 2497TIP3   OH228905   1.180   5.353   4.076  0.0055  0.2515  0.3763
 2497TIP3    H128906   1.229   5.341   4.157  0.0855 -0.1867  0.2651
 2497TIP3    H228907   1.233   5.310   4.009 -1.1773 -1.4650  0.4706
 2498TIP3   OH228908   3.353   6.729   0.109 -0.0036 -0.0669 -0.0558
 2498TIP3    H128909   3.329   6.683   0.029  0.6006 -1.6510  0.6298
 2498TIP3    H228910   3.278   6.786   0.127 -1.0177 -1.1373 -0.6988
 2499TIP3   OH228911   0.236   5.488  15.110 -0.5299 -0.1388  0.2302
 2499TIP3    H128912   0.270   5.403  15.137 -1.4992 -0.5378  0.2326
 2499TIP3    H228913   0.195   5.525  15.188  2.9511  1.9940  1.2831
 2500TIP3   OH228914   0.580   1.503   4.937 -0.3163  0.3209  0.7562
 2500TIP3    H128915   0.488   1.474   4.939 -0.7968  1.6512 -0.1260
 2500TIP3    H228916   0.609   1.484   4.848 -0.6660  2.4564  0.1251
 2501TIP3   OH228917   2.705   2.838  16.038  0.4400 -0.2339  0.0487
 2501TIP3    H128918   2.772   2.770  16.040  0.2871 -0.3773  1.6259
 2501TIP3    H228919   2.623   2.792  16.057  0.0977  0.1673 -0.4136
 2502TIP3   OH228920   3.561   3.853  14.853  0.6125 -0.5074 -0.3762
 2502TIP3    H128921   3.597   3.766  14.835  1.1806 -0.4101  0.2204
 2502TIP3    H228922   3.467   3.839  14.859  0.8034 -1.4102  1.2942
 2503TIP3   OH228923   0.408   5.734  14.653  0.4266  0.2697 -0.2485
 2503TIP3    H128924   0.374   5.652  14.690  0.5959  0.4607  0.3384
 2503TIP3    H228925   0.403   5.721  14.559 -4.0574  1.3736 -0.4024
 2504TIP3   OH228926   2.721   5.020  11.278 -0.2625 -0.2583  0.1866
 2504TIP3    H128927   2.643   5.001  11.226  1.3777  1.3480 -3.2399
 2504TIP3    H228928   2.787   4.959  11.244  1.0921  1.3984 -0.3086
 2505TIP3   OH228929   0.585   6.674  15.408  0.5007 -0.4254  0.0266
 2505TIP3    H128930   0.624   6.587  15.410 -2.5635 -2.0979 -2.8615
 2505TIP3    H228931   0.599   6.705  15.319  0.8287  1.7704  0.7706
 2506TIP3   OH228932   3.850   3.873   1.386 -0.6269 -0.5267  0.9643
 2506TIP3    H128933   3.804   3.930   1.448 -0.5186  1.0681 -0.3390
 2506TIP3    H228934   3.795   3.874   1.308  0.8049  0.1913 -0.0922
 2507TIP3   OH228935   0.463   3.883   4.761 -0.1194  0.7891  0.5222
 2507TIP3    H128936   0.395   3.827   4.724  0.7050  0.0565  0.0587
 2507TIP3    H228937   0.440   3.892   4.854 -0.5997  0.1858  0.4643
 2508TIP3   OH228938   3.256   5.628   5.044 -0.0968 -0.0102  0.5775
 2508TIP3    H128939   3.176   5.635   4.991 -0.4926  0.3794  1.2060
 2508TIP3    H228940   3.245   5.548   5.094 -0.5705  0.5483  1.4017
 2509TIP3   OH228941   1.051   3.082  11.443 -0.7176  0.0628 -0.5054
 2509TIP3    H128942   1.118   3.127  11.392 -0.5385 -1.0235 -1.2620
 2509TIP3    H228943   0.976   3.076  11.385 -0.6543 -0.8161 -0.5094
 2510TIP3   OH228944   3.939   4.211   5.334 -0.1342  0.3735  0.0586
 2510TIP3    H128945   3.989   4.164   5.400 -0.2183 -0.9136 -0.7575
 2510TIP3    H228946   3.851   4.174   5.340 -0.5853  1.4458  0.3586
 2511TIP3   OH228947   3.300   1.527   0.352  0.8655  0.0099  0.2850
 2511TIP3    H128948   3.280   1.570   0.268  1.1576  0.5594  0.4926
 2511TIP3    H228949   3.253   1.444   0.348  0.7179  0.1193 -0.3451
 2512TIP3   OH228950   5.064   6.131   1.284 -0.6475 -0.2736  0.1152
 2512TIP3    H128951   5.059   6.037   1.299 -2.0901 -0.5652 -1.8764
 2512TIP3    H228952   5.151   6.145   1.247  0.0570 -0.5836  1.5562
 2513TIP3   OH228953   4.713   0.735   0.887  0.1664  0.2897 -0.0878
 2513TIP3    H128954   4.697   0.645   0.914 -1.9808  0.6194 -0.0469
 2513TIP3    H228955   4.739   0.780   0.967 -0.9130  0.1333  0.3780
 2514TIP3   OH228956   3.862   1.951   2.262  0.2021 -0.0250  0.2429
 2514TIP3    H128957   3.793   2.014   2.284  0.6279  0.7487 -0.5401
 2514TIP3    H228958   3.822   1.865   2.277 -0.6084  0.4190  0.7190
 2515TIP3   OH228959   0.107   0.480  13.322  0.5482 -0.1886 -0.0023
 2515TIP3    H128960   0.092   0.424  13.399 -1.4500  0.5660  0.2317
 2515TIP3    H228961   0.165   0.549  13.353  0.8709 -0.6463  0.4324
 2516TIP3   OH228962   5.781   3.062   1.348 -0.4310 -0.0069 -0.4443
 2516TIP3    H128963   5.754   3.137   1.295  0.2928  1.4923  1.2066
 2516TIP3    H228964   5.876   3.073   1.358 -0.4268 -0.7331  0.4331
 2517TIP3   OH228965   1.590   6.336  16.925  0.6810 -0.1799  0.5260
 2517TIP3    H128966   1.539   6.416  16.939 -0.6759 -0.7927 -0.6640
 2517TIP3    H228967   1.678   6.368  16.904 -0.3183  1.1591 -2.1153
 2518TIP3   OH228968   2.162   2.455  15.823 -0.3963 -0.3686  0.0190
 2518TIP3    H128969   2.155   2.550  15.831 -3.7243 -0.6091  1.6460
 2518TIP3    H228970   2.233   2.431  15.882  1.3201  1.1089 -1.3207
 2519TIP3   OH228971   2.074   4.370  10.799 -0.4322  0.3863 -0.2144
 2519TIP3    H128972   2.129   4.442  10.768  2.2043 -1.0706  0.7646
 2519TIP3    H228973   1.990   4.412  10.820  0.6968  3.0004 -0.4777
 2520TIP3   OH228974   3.209   4.078  13.644  0.1659  0.2242  0.1870
 2520TIP3    H128975   3.209   4.086  13.548  0.5613 -0.3171  0.1403
 2520TIP3    H228976   3.168   4.159  13.674  0.7757  0.7614 -0.4088
 2521TIP3   OH228977   2.299   4.462  17.120  0.0891 -0.0795 -0.2745
 2521TIP3    H128978   2.226   4.501  17.168  1.0205  1.4298 -0.0084
 2521TIP3    H228979   2.282   4.483  17.028  0.0389  0.0266 -0.2400
 2522TIP3   OH228980   5.771   6.109   1.924  0.0037  0.2235  0.0920
 2522TIP3    H128981   5.775   6.103   1.829  1.1264  2.4255 -0.0604
 2522TIP3    H228982   5.682   6.081   1.946 -0.3228 -0.1903 -1.6067
 2523TIP3   OH228983   4.996   0.996  12.940 -0.1055 -0.5053 -0.3185
 2523TIP3    H128984   5.061   0.928  12.960 -0.3731 -0.0910  2.2758
 2523TIP3    H228985   4.915   0.948  12.924 -0.5398 -0.8997  2.4841
 2524TIP3   OH228986   4.312   2.920   0.779 -0.2821  0.3382  0.4155
 2524TIP3    H128987   4.370   2.996   0.776 -0.9180  0.8203  0.0515
 2524TIP3    H228988   4.230   2.951   0.740 -1.3584  0.1525  2.4072
 2525TIP3   OH228989   3.236   1.914  14.883 -0.4821  0.3498 -0.0114
 2525TIP3    H128990   3.281   1.831  14.898  0.2882  0.6632 -0.5080
 2525TIP3    H228991   3.273   1.947  14.801 -1.9783  0.4037 -0.7040
 2526TIP3   OH228992   2.437   0.768  11.434 -0.4320  0.0493 -0.2020
 2526TIP3    H128993   2.343   0.772  11.450 -0.7111  1.0012 -1.8905
 2526TIP3    H228994   2.464   0.685  11.474 -2.1037 -0.5905 -0.3055
 2527TIP3   OH228995   6.003   5.771   4.300 -0.2178  0.3931 -0.0472
 2527TIP3    H128996   5.932   5.719   4.337  0.5644 -1.4066 -0.9741
 2527TIP3    H228997   6.058   5.708   4.254  1.0299  1.9925 -0.8488
 2528TIP3   OH228998   1.634   1.283  11.311 -0.3453 -0.1163  0.4751
 2528TIP3    H128999   1.664   1.194  11.294 -1.3827 -0.4859  0.5582
 2528TIP3    H229000   1.541   1.275  11.331 -0.3231  0.9134  1.1157
 2529TIP3   OH229001   5.302   1.642  15.512  0.3681  0.3957  0.3451
 2529TIP3    H129002   5.256   1.601  15.586 -0.4307  0.3153 -0.1926
 2529TIP3    H229003   5.393   1.613  15.522 -0.0394 -0.9135  0.4048
 2530TIP3   OH229004   1.378   2.694   4.120  0.0946  0.0701 -0.0111
 2530TIP3    H129005   1.433   2.651   4.185 -0.2623  0.7807  0.7825
 2530TIP3    H229006   1.295   2.648   4.125 -0.7444  1.6327  1.8138
 2531TIP3   OH229007   3.675   3.892  16.422  0.5363 -0.3348 -0.0108
 2531TIP3    H129008   3.657   3.819  16.363  1.1011  0.4537 -1.2014
 2531TIP3    H229009   3.763   3.922  16.397  1.1194 -0.4587  1.7595
 2532TIP3   OH229010   4.967   5.421  14.379 -0.1426 -0.1820 -0.3597
 2532TIP3    H129011   4.979   5.493  14.317  0.2310 -0.6672 -0.8569
 2532TIP3    H229012   5.028   5.442  14.451 -1.3506  0.9479  0.3872
 2533TIP3   OH229013   4.396   0.409  12.503 -0.1354  0.4158 -0.3375
 2533TIP3    H129014   4.448   0.330  12.490  1.4170  1.4627 -0.8283
 2533TIP3    H229015   4.308   0.377  12.523  0.6467 -1.4321  0.4147
 2534TIP3   OH229016   4.436   4.729   3.426  0.9391  0.1490 -0.8161
 2534TIP3    H129017   4.440   4.735   3.330 -1.8357  0.9506 -0.9701
 2534TIP3    H229018   4.439   4.635   3.444 -0.9010 -0.1847 -1.9262
 2535TIP3   OH229019   2.708   0.300   2.786  0.1110 -0.1796 -0.0296
 2535TIP3    H129020   2.672   0.263   2.867 -2.2519  0.1956 -0.8481
 2535TIP3    H229021   2.640   0.287   2.721  1.4731  0.6269 -1.6987
 2536TIP3   OH229022   0.319   5.503   2.250 -0.5212  0.3335 -0.1092
 2536TIP3    H129023   0.336   5.430   2.310 -2.7145  1.1182  1.6052
 2536TIP3    H229024   0.230   5.488   2.219  0.0716  0.7198 -2.1226
 2537TIP3   OH229025   1.679   2.857   4.456 -0.3011 -0.1600  0.2660
 2537TIP3    H129026   1.742   2.861   4.385  1.3272  0.1666  1.6449
 2537TIP3    H229027   1.718   2.796   4.519 -1.8739 -0.7402  0.7142
 2538TIP3   OH229028   2.477   1.939   0.419  0.5928  0.1587 -0.4607
 2538TIP3    H129029   2.495   1.886   0.497 -0.8487 -0.7695 -0.7297
 2538TIP3    H229030   2.382   1.945   0.414  0.6874  1.9826 -1.0061
 2539TIP3   OH229031   1.392   2.569   3.304  0.3381 -0.1698  0.3255
 2539TIP3    H129032   1.456   2.599   3.239  0.7635 -0.2794  0.6889
 2539TIP3    H229033   1.401   2.474   3.304 -0.8275 -0.2983 -0.6395
 2540TIP3   OH229034   6.698   6.051   2.336 -0.8635  0.0928  0.3298
 2540TIP3    H129035   6.777   5.998   2.335 -0.2599  0.9165  1.4832
 2540TIP3    H229036   6.700   6.096   2.421 -2.7348 -0.1183  0.5384
 2541TIP3   OH229037   5.677   4.808  15.102  0.0518  0.2953  0.5132
 2541TIP3    H129038   5.699   4.783  15.192 -1.0153 -0.5507  0.5599
 2541TIP3    H229039   5.598   4.860  15.110 -0.3825 -0.2707  0.0306
 2542TIP3   OH229040   3.655   5.054  14.949 -0.3300 -0.0028 -0.2441
 2542TIP3    H129041   3.728   5.082  14.893  0.2611  0.2517  0.6399
 2542TIP3    H229042   3.582   5.111  14.923 -0.1615 -0.1005 -0.9701
 2543TIP3   OH229043   4.692   6.570  16.031  0.1978 -0.5013  0.4035
 2543TIP3    H129044   4.609   6.609  16.057 -0.3854 -0.9181 -0.7553
 2543TIP3    H229045   4.716   6.615  15.950  0.2120 -1.5800 -0.2064
 2544TIP3   OH229046   0.518   4.316  11.346 -0.6034  0.0852  0.4259
 2544TIP3    H129047   0.491   4.400  11.384 -0.3836 -0.1051  1.0300
 2544TIP3    H229048   0.578   4.339  11.276 -1.4987  0.4712 -0.2306
 2545TIP3   OH229049   5.505   6.712   1.192  0.0552  0.9413  0.1080
 2545TIP3    H129050   5.584   6.765   1.193  0.1081  0.8674  1.3329
 2545TIP3    H229051   5.527   6.633   1.242  0.3100 -0.7888 -2.5666
 2546TIP3   OH229052   4.595   6.040   3.560 -0.0857  0.5297  0.5045
 2546TIP3    H129053   4.687   6.033   3.533 -0.3024 -0.2863 -0.0889
 2546TIP3    H229054   4.554   6.092   3.491 -0.9888 -2.9400 -1.8375
 2547TIP3   OH229055   0.368   5.032  14.395 -0.2631  0.5346  0.0012
 2547TIP3    H129056   0.434   5.078  14.447 -0.9316  2.9851 -1.1687
 2547TIP3    H229057   0.291   5.029  14.452  0.0987 -0.1858  0.4793
 2548TIP3   OH229058   3.488   3.179   0.464  0.7151 -0.2294  0.0450
 2548TIP3    H129059   3.469   3.166   0.557  1.8751 -2.4397  0.0376
 2548TIP3    H229060   3.487   3.274   0.453  0.1291  0.0838  2.2035
 2549TIP3   OH229061   5.448   1.527   6.640 -0.0081  0.0934 -0.2153
 2549TIP3    H129062   5.542   1.514   6.652  0.3393  1.6886 -0.9365
 2549TIP3    H229063   5.436   1.622   6.641 -1.5915 -0.0734 -0.3386
 2550TIP3   OH229064   3.771   2.502   3.779  0.3404 -0.3124 -0.3586
 2550TIP3    H129065   3.676   2.500   3.770  0.0443  1.1339  1.8200
 2550TIP3    H229066   3.800   2.560   3.709 -0.5037  0.1774 -0.3193
 2551TIP3   OH229067   0.815   6.706   5.384  0.0127 -0.0454  0.2982
 2551TIP3    H129068   0.900   6.743   5.407  0.8693  0.0644 -2.6269
 2551TIP3    H229069   0.753   6.750   5.441  1.8452  0.1683  2.2267
 2552TIP3   OH229070   6.002   6.118   2.096 -0.7182  0.0129 -0.5068
 2552TIP3    H129071   6.045   6.045   2.050 -1.6235 -0.5717 -0.4498
 2552TIP3    H229072   5.918   6.128   2.051 -0.7184  0.8540 -0.3379
 2553TIP3   OH229073   1.425   2.658  13.124 -0.0514  0.3739 -0.0266
 2553TIP3    H129074   1.406   2.668  13.218  0.1318 -0.9543  0.1733
 2553TIP3    H229075   1.386   2.573  13.101  2.8871 -1.0041 -0.3140
 2554TIP3   OH229076   4.589   5.888  15.363 -0.4062  0.0656 -0.2408
 2554TIP3    H129077   4.548   5.947  15.300 -0.5688 -1.0213 -1.1817
 2554TIP3    H229078   4.680   5.916  15.367 -1.2647  3.1921  2.6433
 2555TIP3   OH229079   6.247   5.550  16.689  0.0797 -0.0419 -0.2528
 2555TIP3    H129080   6.272   5.470  16.643  1.4366  0.2741 -0.1042
 2555TIP3    H229081   6.267   5.620  16.627 -0.2631  0.2447 -0.0445
 2556TIP3   OH229082   4.587   4.519   2.974  0.3326  0.7654 -0.3931
 2556TIP3    H129083   4.519   4.531   2.908 -1.3488  2.5046  1.5403
 2556TIP3    H229084   4.582   4.426   2.997 -1.0832  0.7600 -0.6269
 2557TIP3   OH229085   1.867   5.412   4.697  0.3645  0.4853 -0.0865
 2557TIP3    H129086   1.794   5.432   4.639  1.5315  2.8120 -0.8896
 2557TIP3    H229087   1.940   5.395   4.637  0.4418 -2.3306  0.6824
 2558TIP3   OH229088   0.165   0.180   5.987  0.9515 -0.6509  0.3000
 2558TIP3    H129089   0.200   0.114   5.927 -0.8292  0.0236 -1.5977
 2558TIP3    H229090   0.231   0.249   5.988  0.2300  0.1979 -2.4938
 2559TIP3   OH229091   1.906   4.524   5.677  0.2651 -0.0618 -0.4009
 2559TIP3    H129092   1.878   4.445   5.630  0.1060 -0.7204  0.7576
 2559TIP3    H229093   1.970   4.565   5.618 -0.5648 -0.3883 -1.5551
 2560TIP3   OH229094   3.068   5.187  13.042  0.4424 -0.1108  0.7692
 2560TIP3    H129095   2.984   5.187  13.087  0.7742 -1.9447  1.4469
 2560TIP3    H229096   3.133   5.183  13.112  1.0680  0.0157  0.2077
 2561TIP3   OH229097   2.109   2.544  15.304  0.0588 -0.2480  0.1515
 2561TIP3    H129098   2.063   2.486  15.242 -0.4314  1.5005 -1.2325
 2561TIP3    H229099   2.128   2.489  15.379  2.0600 -2.9533 -2.1117
 2562TIP3   OH229100   3.107   0.961   5.980 -0.1137  0.6887 -0.5152
 2562TIP3    H129101   3.168   0.956   5.907  1.7355  0.2814  0.9818
 2562TIP3    H229102   3.042   0.893   5.961  0.5315  0.3411 -1.5949
 2563TIP3   OH229103   3.143   4.887  15.658 -0.1623 -0.0687 -0.5847
 2563TIP3    H129104   3.057   4.906  15.620  1.3707  0.8322 -3.9081
 2563TIP3    H229105   3.146   4.791  15.662 -1.7588 -0.1186  0.9146
 2564TIP3   OH229106   0.216   1.748  16.980  0.4872 -0.0593 -0.5973
 2564TIP3    H129107   0.306   1.727  16.955  0.8581 -0.0291  0.6422
 2564TIP3    H229108   0.225   1.791  17.066 -0.7058 -0.0721 -0.4583
 2565TIP3   OH229109   2.094   3.034   1.377 -0.0267  0.2506 -0.6586
 2565TIP3    H129110   2.126   2.952   1.415  1.5252  1.4140  0.6931
 2565TIP3    H229111   2.090   3.016   1.283  1.0593 -1.1344 -0.4778
 2566TIP3   OH229112   0.594   5.640  12.745 -0.2185 -0.3960  0.6129
 2566TIP3    H129113   0.584   5.655  12.651  0.6321  0.7986  0.6771
 2566TIP3    H229114   0.688   5.653  12.761 -0.4863  0.3358  1.7551
 2567TIP3   OH229115   2.621   4.936  16.897  0.2525  0.7146 -0.5203
 2567TIP3    H129116   2.565   4.864  16.868 -1.1372  1.3047  0.5874
 2567TIP3    H229117   2.690   4.941  16.831  0.3848 -1.6063 -0.6443
 2568TIP3   OH229118   6.095   1.994  10.948 -0.5443  0.8120  0.2704
 2568TIP3    H129119   6.028   1.934  10.917  0.7010 -0.3602 -0.2306
 2568TIP3    H229120   6.065   2.080  10.919 -1.8892  0.3295  0.1837
 2569TIP3   OH229121   5.776   0.709  15.050  0.1234 -0.2401 -0.6986
 2569TIP3    H129122   5.848   0.646  15.044 -0.7665 -1.4670  0.8250
 2569TIP3    H229123   5.810   0.787  15.006  2.1375 -0.9785 -0.5966
 2570TIP3   OH229124   5.814   1.046  12.582 -0.1576  0.4341  0.3218
 2570TIP3    H129125   5.896   1.029  12.535 -0.6890 -0.5226 -0.2979
 2570TIP3    H229126   5.839   1.101  12.656  1.3880 -1.4575  1.2929
 2571TIP3   OH229127   6.540   2.153  12.428 -0.1916 -0.0024  0.3039
 2571TIP3    H129128   6.598   2.124  12.499  1.0653  0.0967 -0.6622
 2571TIP3    H229129   6.540   2.249  12.435  0.3458  0.0341 -0.1362
 2572TIP3   OH229130   6.693   0.527  14.307  0.7767 -0.0119  0.3668
 2572TIP3    H129131   6.684   0.587  14.382 -0.3043  0.0646  0.1842
 2572TIP3    H229132   6.775   0.480  14.325  0.5787  0.0530  1.5644
 2573TIP3   OH229133   0.885   0.178  11.536 -0.0116  0.3457 -0.1544
 2573TIP3    H129134   0.845   0.265  11.541 -2.3147 -0.5195 -1.7901
 2573TIP3    H229135   0.865   0.137  11.620 -0.8963  0.6235 -0.2200
 2574TIP3   OH229136   4.059   3.413   2.275  0.3952  0.2254  0.4928
 2574TIP3    H129137   4.075   3.370   2.359  0.6667 -1.3285 -0.3175
 2574TIP3    H229138   3.966   3.435   2.277  0.8318  2.1765  2.0481
 2575TIP3   OH229139   6.070   3.930  16.483 -0.9079 -0.9615 -0.0215
 2575TIP3    H129140   6.051   4.014  16.440 -0.5511 -0.0559  1.5320
 2575TIP3    H229141   5.986   3.903  16.520 -1.1327 -1.5618 -0.9285
 2576TIP3   OH229142   0.635   3.714   4.513  0.1847 -0.3778  0.0569
 2576TIP3    H129143   0.598   3.802   4.525  0.5250 -0.1628 -0.4443
 2576TIP3    H229144   0.680   3.696   4.595 -1.2983 -0.7809  0.8173
 2577TIP3   OH229145   2.578   4.483  15.824  0.1899  0.4293 -0.5583
 2577TIP3    H129146   2.534   4.410  15.781 -0.2148 -0.1456  0.7825
 2577TIP3    H229147   2.669   4.454  15.831 -0.0566 -0.1525  0.3702
 2578TIP3   OH229148   6.772   5.696   1.156  0.7101  0.1919  0.0817
 2578TIP3    H129149   6.811   5.646   1.085  2.6841  0.1590  1.1198
 2578TIP3    H229150   6.681   5.666   1.159  0.3187  0.7573 -2.8765
 2579TIP3   OH229151   4.997   1.719  15.903 -0.3960  0.2874 -0.0756
 2579TIP3    H129152   5.077   1.769  15.889 -0.1359  0.2393  1.1263
 2579TIP3    H229153   4.966   1.747  15.989  0.1090 -2.0479  0.9387
 2580TIP3   OH229154   3.510   3.160  11.970  0.0506  0.1843  0.0432
 2580TIP3    H129155   3.492   3.248  11.938 -1.1032  0.5096  1.4545
 2580TIP3    H229156   3.448   3.104  11.922  0.3145  0.2438 -0.3643
 2581TIP3   OH229157   4.197   5.218  14.762  0.4509  0.4387 -0.3741
 2581TIP3    H129158   4.218   5.125  14.774  1.5922  0.6485 -0.6610
 2581TIP3    H229159   4.189   5.229  14.667  1.9880  0.9594 -0.4711
 2582TIP3   OH229160   0.077   0.759  13.815 -0.6192 -0.0904  0.0126
 2582TIP3    H129161   0.157   0.794  13.776  0.7625 -1.8990  1.0416
 2582TIP3    H229162   0.068   0.807  13.898  0.8953 -1.5737  1.1035
 2583TIP3   OH229163   5.343   3.218   3.035  0.2914  0.0719  0.6001
 2583TIP3    H129164   5.371   3.150   3.096 -2.1209  0.3717  2.1616
 2583TIP3    H229165   5.279   3.175   2.978  0.2995  0.5293  0.2372
 2584TIP3   OH229166   5.880   3.024   2.545  0.0646  0.6315 -0.1012
 2584TIP3    H129167   5.838   3.109   2.533  0.4889  1.1128  1.5022
 2584TIP3    H229168   5.809   2.963   2.561 -0.1485  1.1749  1.1826
 2585TIP3   OH229169   1.169   2.985   5.951 -0.4001 -0.5301  0.3573
 2585TIP3    H129170   1.221   3.064   5.959 -1.2630 -0.1157  3.1939
 2585TIP3    H229171   1.083   3.009   5.986 -2.2862 -1.4706 -3.1263
 2586TIP3   OH229172   6.479   1.671  16.921  0.6168 -0.1203  0.0970
 2586TIP3    H129173   6.545   1.717  16.973  1.0971 -0.0292 -0.5788
 2586TIP3    H229174   6.466   1.727  16.844  0.6476 -0.7433 -0.3641
 2587TIP3   OH229175   0.597   4.942   3.151  0.0140  0.3153 -0.4486
 2587TIP3    H129176   0.645   4.949   3.068  1.5355 -0.0498  0.3555
 2587TIP3    H229177   0.568   5.032   3.170  0.0379  0.4749 -1.1591
 2588TIP3   OH229178   4.510   3.978   1.171 -0.2503 -0.7565  0.0382
 2588TIP3    H129179   4.434   4.030   1.146 -2.2588 -2.5763  1.9231
 2588TIP3    H229180   4.533   4.009   1.258 -0.9393 -2.3621  0.8287
 2589TIP3   OH229181   5.650   6.173  16.074 -0.4438  0.1651  0.3422
 2589TIP3    H129182   5.649   6.103  16.009 -0.6189  0.1971  0.3118
 2589TIP3    H229183   5.558   6.186  16.098 -0.5226  1.0566 -0.3840
 2590TIP3   OH229184   2.667   2.493   4.595 -0.0708  0.5288  0.2566
 2590TIP3    H129185   2.746   2.454   4.632 -0.6739 -1.0641 -0.0743
 2590TIP3    H229186   2.678   2.587   4.610  0.7087  0.1492  2.5126
 2591TIP3   OH229187   1.309   0.975  17.032 -0.7075 -0.4005  0.6358
 2591TIP3    H129188   1.296   1.050  17.091  0.6392 -0.4313  1.0093
 2591TIP3    H229189   1.348   0.907  17.088  2.7495  0.3073 -0.6503
 2592TIP3   OH229190   0.545   1.273   2.401 -0.0792  0.2045 -0.3303
 2592TIP3    H129191   0.566   1.258   2.308  0.3205 -0.8885 -0.0809
 2592TIP3    H229192   0.470   1.332   2.399 -1.1155 -1.0787 -1.4034
 2593TIP3   OH229193   0.615   6.435   1.255 -0.4639  0.0964 -0.7523
 2593TIP3    H129194   0.537   6.431   1.201  0.8667  0.3774 -2.8072
 2593TIP3    H229195   0.661   6.353   1.238  0.9423  1.0245 -1.6299
 2594TIP3   OH229196   4.012   2.572  14.584 -0.3615  0.1466  0.2242
 2594TIP3    H129197   3.967   2.569  14.668  2.5691  1.8933  2.0536
 2594TIP3    H229198   4.023   2.665  14.566 -0.1887 -0.2048 -1.7243
 2595TIP3   OH229199   5.948   4.202  14.218  0.2610  0.0926 -0.1968
 2595TIP3    H129200   6.025   4.215  14.163  1.3810  1.3660  1.5245
 2595TIP3    H229201   5.979   4.148  14.290 -0.0941  1.5103  1.0871
 2596TIP3   OH229202   5.836   2.469   5.616 -0.0918  0.3309 -0.1306
 2596TIP3    H129203   5.811   2.498   5.704 -1.0608  2.1373 -0.9393
 2596TIP3    H229204   5.921   2.510   5.601  0.4050 -0.5557  0.2113
 2597TIP3   OH229205   5.126   2.388   3.038 -0.1083 -0.0464  0.2973
 2597TIP3    H129206   5.107   2.329   3.111 -2.0140 -0.9546 -0.8625
 2597TIP3    H229207   5.137   2.474   3.079  0.6610 -0.8219  1.8051
 2598TIP3   OH229208   0.343   0.762  17.274  0.4528 -0.3029  0.2933
 2598TIP3    H129209   0.380   0.849  17.286  1.9213 -0.4226 -2.5148
 2598TIP3    H229210   0.349   0.721  17.360  0.1076  2.1742  1.5980
 2599TIP3   OH229211   1.399   5.262  14.721 -0.7807 -0.2211 -0.0029
 2599TIP3    H129212   1.487   5.248  14.758  0.4663  2.1669 -1.7732
 2599TIP3    H229213   1.401   5.214  14.639 -0.1222  1.8268 -1.2591
 2600TIP3   OH229214   1.937   4.416   4.422 -0.1833 -0.7029 -0.3938
 2600TIP3    H129215   2.014   4.360   4.428  0.3734  0.1049  0.0895
 2600TIP3    H229216   1.897   4.411   4.509  0.1106 -0.0104 -0.2165
 2601TIP3   OH229217   5.203   5.530   2.109 -0.0864 -0.4896  0.0111
 2601TIP3    H129218   5.246   5.525   2.023  0.0307 -2.6213  0.1267
 2601TIP3    H229219   5.114   5.559   2.089  0.5484  1.1314 -0.5634
 2602TIP3   OH229220   2.241   2.533   1.550 -0.5109 -0.1391  0.0112
 2602TIP3    H129221   2.248   2.538   1.645 -1.3087  0.2382  0.0632
 2602TIP3    H229222   2.329   2.511   1.520 -0.0246  0.7055  0.7760
 2603TIP3   OH229223   2.619   4.606   5.083  0.3141  0.4178  0.0754
 2603TIP3    H129224   2.698   4.554   5.071  0.6324  0.6297  1.1771
 2603TIP3    H229225   2.602   4.604   5.177 -0.9350  0.4699 -0.1314
 2604TIP3   OH229226   4.754   6.737   1.396 -0.5217  0.4037  0.3903
 2604TIP3    H129227   4.825   6.801   1.394 -0.3092  0.1687 -0.5735
 2604TIP3    H229228   4.722   6.735   1.306  1.2827 -2.7838 -0.3449
 2605TIP3   OH229229   3.023   2.972  13.476  0.2310 -0.3694 -0.5500
 2605TIP3    H129230   3.103   2.938  13.516  1.1376  2.1972 -0.0004
 2605TIP3    H229231   2.957   2.964  13.544 -0.7442 -4.6845 -1.7451
 2606TIP3   OH229232   1.733   2.579   3.269  0.1328 -0.3452  1.5017
 2606TIP3    H129233   1.770   2.491   3.284 -0.1984 -0.2411  3.0741
 2606TIP3    H229234   1.736   2.589   3.174  0.3102 -2.0051  1.2869
 2607TIP3   OH229235   1.725   1.716   6.326 -0.7557  0.0193  0.0035
 2607TIP3    H129236   1.772   1.799   6.335 -1.9702  0.5076  2.4578
 2607TIP3    H229237   1.773   1.656   6.382 -2.0258  0.0682  1.1611
 2608TIP3   OH229238   1.109   4.057   2.138 -0.0614 -0.4321  0.1055
 2608TIP3    H129239   1.021   4.019   2.135 -1.4483  2.3554  1.5303
 2608TIP3    H229240   1.156   4.005   2.202 -1.1544 -1.0923  0.3908
 2609TIP3   OH229241   4.391   2.092  16.801  0.3304 -0.1049  0.1653
 2609TIP3    H129242   4.387   2.184  16.774  1.0473 -0.3929 -0.9747
 2609TIP3    H229243   4.454   2.090  16.872  1.9671 -0.0066 -1.2195
 2610TIP3   OH229244   2.035   1.786   4.280  0.0327 -0.4306  0.3063
 2610TIP3    H129245   1.967   1.719   4.288 -0.1830 -0.2091  0.3123
 2610TIP3    H229246   2.011   1.853   4.343 -1.6144  1.2881 -1.9970
 2611TIP3   OH229247   0.575   1.270   4.756  0.4948  0.1259  0.7726
 2611TIP3    H129248   0.554   1.225   4.675  0.8860  1.5069 -0.1401
 2611TIP3    H229249   0.515   1.233   4.821  0.0257 -0.8450 -0.1867
 2612TIP3   OH229250   1.387   2.701   5.543 -0.2812  0.0792 -0.0905
 2612TIP3    H129251   1.364   2.613   5.573  1.4850 -0.8937 -1.3877
 2612TIP3    H229252   1.417   2.690   5.453  1.6671  1.6802  0.2572
 2613TIP3   OH229253   5.554   3.392  12.668  0.1836 -0.5694  0.0147
 2613TIP3    H129254   5.523   3.439  12.591 -0.8553  2.3055  2.0234
 2613TIP3    H229255   5.597   3.458  12.721  1.2908 -2.5433  1.7482
 2614TIP3   OH229256   3.859   1.717   3.051 -0.2362 -0.2945  0.1966
 2614TIP3    H129257   3.886   1.664   3.126  0.4863  0.6990  0.6625
 2614TIP3    H229258   3.799   1.782   3.088  1.9337  1.7008  0.4007
 2615TIP3   OH229259   4.519   5.002   0.870  0.1803 -0.8341  0.6955
 2615TIP3    H129260   4.440   5.008   0.923 -2.0995  0.5383 -2.4982
 2615TIP3    H229261   4.533   4.908   0.859 -2.9112 -1.2151 -1.0210
 2616TIP3   OH229262   6.639   1.495  16.418  0.2172 -0.6276 -0.8688
 2616TIP3    H129263   6.594   1.434  16.360  2.3108 -1.3660 -1.8191
 2616TIP3    H229264   6.701   1.541  16.362 -0.5005  1.6040  0.0539
 2617TIP3   OH229265   3.668   0.635   0.626 -0.3264  0.3470 -0.0881
 2617TIP3    H129266   3.666   0.688   0.706 -1.7083  0.8995 -0.4643
 2617TIP3    H229267   3.591   0.579   0.632  0.8885 -1.3677  0.0985
 2618TIP3   OH229268   0.494   2.342  16.989 -0.2037 -0.4618  0.0377
 2618TIP3    H129269   0.500   2.250  16.962  1.5089 -0.0285 -1.2517
 2618TIP3    H229270   0.427   2.379  16.932 -0.6706 -0.8208  0.3403
 2619TIP3   OH229271   2.871   6.041  12.125  0.1200  0.3929  0.3473
 2619TIP3    H129272   2.872   6.132  12.155 -0.5171  0.6674 -0.4342
 2619TIP3    H229273   2.857   6.046  12.030 -1.3803 -0.5500  0.4785
 2620TIP3   OH229274   6.382   5.956  10.990  0.6322 -0.2854 -0.5076
 2620TIP3    H129275   6.346   5.873  10.957  0.9914 -0.0132 -1.6351
 2620TIP3    H229276   6.473   5.955  10.963  1.6027 -1.0198  2.4526
 2621TIP3   OH229277   0.285   5.402   5.139  0.4248  0.1347  0.2163
 2621TIP3    H129278   0.225   5.330   5.121 -0.0180  0.5149  0.1216
 2621TIP3    H229279   0.371   5.362   5.141 -0.0424 -0.9425  3.3217
 2622TIP3   OH229280   4.628   5.342   2.797 -0.1361  0.0806 -1.2983
 2622TIP3    H129281   4.572   5.403   2.845  2.0478  0.5418  0.8216
 2622TIP3    H229282   4.583   5.258   2.803 -0.8920  0.5420 -0.1489
 2623TIP3   OH229283   6.605   2.920   5.463 -0.1342  0.1381  0.4293
 2623TIP3    H129284   6.552   2.857   5.511 -0.2272 -0.4048 -0.3660
 2623TIP3    H229285   6.542   2.983   5.427 -0.4221 -1.1183 -1.4419
 2624TIP3   OH229286   4.379   1.974  15.906 -0.2077 -0.0139 -0.2793
 2624TIP3    H129287   4.379   1.907  15.974  0.6205  0.6682  0.4188
 2624TIP3    H229288   4.470   1.983  15.881 -0.3247  0.7606 -0.4518
 2625TIP3   OH229289   4.482   1.580   5.407  0.4625 -0.4330  0.2727
 2625TIP3    H129290   4.574   1.597   5.387  0.3822 -1.2883 -0.9651
 2625TIP3    H229291   4.434   1.651   5.365  0.5360 -0.0554  0.8141
 2626TIP3   OH229292   6.496   1.569   1.109  0.0473  0.1955 -0.2253
 2626TIP3    H129293   6.489   1.563   1.013  0.7807 -1.5691 -0.2113
 2626TIP3    H229294   6.429   1.510   1.142  2.2718 -2.2828  0.2133
 2627TIP3   OH229295   0.009   3.886   6.394 -0.4422 -0.3474 -0.8604
 2627TIP3    H129296  -0.050   3.841   6.454 -2.1693 -0.9959 -2.9257
 2627TIP3    H229297   0.090   3.899   6.444 -1.6106 -1.3041  1.3816
 2628TIP3   OH229298   4.276   6.636   4.250  0.3091 -0.2400  0.2227
 2628TIP3    H129299   4.286   6.726   4.282  0.0605 -0.0457 -0.2443
 2628TIP3    H229300   4.366   6.605   4.239  0.4086  0.2843 -0.5384
 2629TIP3   OH229301   1.530   3.836   2.215  0.7069 -0.8677 -0.0535
 2629TIP3    H129302   1.466   3.795   2.156 -2.3420  2.3738  0.6534
 2629TIP3    H229303   1.584   3.890   2.158 -1.4478  1.3155 -0.1570
 2630TIP3   OH229304   1.607   3.726  11.341  0.1295  0.8286  0.1341
 2630TIP3    H129305   1.700   3.750  11.343  0.2225  0.5035 -0.1521
 2630TIP3    H229306   1.587   3.714  11.248  0.1220 -0.2948  0.2638
 2631TIP3   OH229307   4.462   5.675  17.078  0.1672  0.3424  0.5371
 2631TIP3    H129308   4.423   5.733  17.144  0.4696  1.0434  0.1142
 2631TIP3    H229309   4.556   5.679  17.096  0.0727 -1.4064  1.6047
 2632TIP3   OH229310   0.861   0.786  12.764  0.2226 -0.4642  0.4833
 2632TIP3    H129311   0.844   0.712  12.705 -0.0850  0.5587 -0.7472
 2632TIP3    H229312   0.781   0.792  12.817 -0.7661  0.4057 -1.0098
 2633TIP3   OH229313   1.898   4.185  13.951 -0.5765 -0.6553 -0.6467
 2633TIP3    H129314   1.986   4.149  13.942  0.1807  0.5992  1.0948
 2633TIP3    H229315   1.840   4.117  13.917  0.9879 -2.0202 -0.6821
 2634TIP3   OH229316   1.000   6.112   4.184 -0.3571 -0.2423  0.1631
 2634TIP3    H129317   0.981   6.025   4.221 -1.8977 -0.8533 -1.9111
 2634TIP3    H229318   0.974   6.173   4.253  0.3201 -1.3903  1.4834
 2635TIP3   OH229319   5.853   2.111  14.826 -1.0267 -0.1471  0.1355
 2635TIP3    H129320   5.787   2.073  14.769 -0.5455 -2.9911  1.2796
 2635TIP3    H229321   5.834   2.074  14.913  0.7179  0.6996  0.9434
 2636TIP3   OH229322   3.874   2.329  14.893  0.3547  0.0195 -0.1340
 2636TIP3    H129323   3.909   2.260  14.836  0.1856 -1.2929  1.3113
 2636TIP3    H229324   3.810   2.285  14.949  2.7374  0.4770  3.2603
 2637TIP3   OH229325   2.347   6.747   2.022 -0.3502 -0.0577  0.1029
 2637TIP3    H129326   2.363   6.682   1.954  0.8293  2.4084 -2.1828
 2637TIP3    H229327   2.252   6.747   2.034 -0.4446 -1.5082 -0.5007
 2638TIP3   OH229328   4.797   5.523  12.335  0.1142  0.1681  0.8957
 2638TIP3    H129329   4.828   5.488  12.251 -1.4056  0.7374  0.0663
 2638TIP3    H229330   4.829   5.614  12.336 -1.7728  0.9042 -0.1713
 2639TIP3   OH229331   3.137   2.184  13.609 -0.0588 -0.0192  0.9618
 2639TIP3    H129332   3.223   2.150  13.583 -0.2123 -0.6187  1.2246
 2639TIP3    H229333   3.157   2.249  13.676  0.2422  0.4786  0.4064
 2640TIP3   OH229334   2.365   3.211   1.083 -0.3232 -0.5918 -0.5515
 2640TIP3    H129335   2.322   3.296   1.076 -2.5279 -1.5383  0.4973
 2640TIP3    H229336   2.315   3.153   1.026  0.5098 -1.4051 -0.4821
 2641TIP3   OH229337   2.037   4.952   5.260 -0.3631  0.0646 -0.0462
 2641TIP3    H129338   2.077   4.932   5.344 -1.1100  0.5772  0.4464
 2641TIP3    H229339   2.109   4.947   5.197  0.0954 -0.8679  0.5310
 2642TIP3   OH229340   0.742   5.170   4.457  0.2616 -0.5310 -0.4833
 2642TIP3    H129341   0.735   5.098   4.520 -0.5498  0.4871  0.6195
 2642TIP3    H229342   0.697   5.136   4.379  1.3616 -1.8347 -0.5857
 2643TIP3   OH229343   5.654   1.471   1.077  0.0079 -0.4547 -0.4589
 2643TIP3    H129344   5.732   1.427   1.112  0.5949  0.0703 -1.0811
 2643TIP3    H229345   5.595   1.478   1.152  1.4936  1.2189  0.6273
 2644TIP3   OH229346   1.880   4.759  13.060  0.1091  0.4314  0.3684
 2644TIP3    H129347   1.840   4.690  13.006  1.0412 -0.0314  0.2483
 2644TIP3    H229348   1.961   4.720  13.092  0.9082  1.6377 -0.1046
 2645TIP3   OH229349   4.621   0.879  11.995 -0.3406 -0.0894 -0.3503
 2645TIP3    H129350   4.551   0.922  12.045 -0.1814  0.8708 -0.9400
 2645TIP3    H229351   4.698   0.883  12.052 -0.4741 -0.1425 -0.1639
 2646TIP3   OH229352   4.807   0.275  13.459  0.8101 -0.2997  0.0385
 2646TIP3    H129353   4.851   0.216  13.519  1.5142  0.7366  0.5801
 2646TIP3    H229354   4.724   0.296  13.502  0.7185 -0.6003  0.0096
 2647TIP3   OH229355   3.330   3.664   2.638 -0.2304 -0.0186  0.0040
 2647TIP3    H129356   3.280   3.673   2.557  0.3297 -1.9304 -0.6033
 2647TIP3    H229357   3.265   3.637   2.703 -1.0309  3.1525  0.7389
 2648TIP3   OH229358   3.336   6.226   4.185  0.4404 -0.2906 -0.1170
 2648TIP3    H129359   3.248   6.261   4.185  0.8490  0.8823  1.7760
 2648TIP3    H229360   3.327   6.139   4.225  0.1956 -0.0278  0.4021
 2649TIP3   OH229361   3.101   2.386  15.385 -0.5946 -0.0958  0.7667
 2649TIP3    H129362   3.086   2.298  15.353 -0.4451  0.2700 -0.3468
 2649TIP3    H229363   3.092   2.379  15.480 -1.3273 -1.1478  0.6304
 2650TIP3   OH229364   2.063   1.515  13.660  0.1537  0.1013  0.3096
 2650TIP3    H129365   2.023   1.582  13.604  0.1961  0.0329  0.1982
 2650TIP3    H229366   2.011   1.436  13.643  1.4896 -0.5047 -1.2668
 2651TIP3   OH229367   6.167   5.537   4.169  0.1133 -0.1767  0.4047
 2651TIP3    H129368   6.131   5.588   4.096 -1.3062  0.1124  1.2477
 2651TIP3    H229369   6.139   5.447   4.152  3.2912 -0.9443 -1.4980
 2652TIP3   OH229370   3.070   3.345  13.570  0.0029 -0.1322  0.2966
 2652TIP3    H129371   3.046   3.414  13.631  2.8453  1.0445  0.2391
 2652TIP3    H229372   3.156   3.315  13.600 -0.3425 -2.3847 -0.7664
 2653TIP3   OH229373   5.911   2.315   1.046 -0.3423 -0.3388 -0.1066
 2653TIP3    H129374   5.867   2.366   1.114 -0.2768  1.2956 -1.2377
 2653TIP3    H229375   6.004   2.319   1.070 -0.3654 -0.1671 -0.0480
 2654TIP3   OH229376   2.536   6.570  12.157  0.1857  0.0894 -0.2398
 2654TIP3    H129377   2.574   6.489  12.192 -2.6730 -0.7002  1.3339
 2654TIP3    H229378   2.447   6.546  12.132 -1.8895  3.3031  3.1548
 2655TIP3   OH229379   6.483   5.395  17.063  0.2616 -0.1580 -0.4413
 2655TIP3    H129380   6.556   5.422  17.118  0.3159  1.2771 -1.1636
 2655TIP3    H229381   6.523   5.347  16.991  0.2066 -1.8754  0.6110
 2656TIP3   OH229382   3.727   3.104  15.749 -0.1441  0.3714 -0.2446
 2656TIP3    H129383   3.704   3.196  15.764 -0.2794  0.4553 -0.9671
 2656TIP3    H229384   3.784   3.105  15.673 -0.0614 -0.1351 -0.1939
 2657TIP3   OH229385   0.116   4.585  12.608 -0.4947  0.0796  0.0475
 2657TIP3    H129386   0.161   4.624  12.534 -2.2515 -2.9265 -2.8805
 2657TIP3    H229387   0.185   4.543  12.659  0.4732 -1.2756 -2.2370
 2658TIP3   OH229388   5.713   4.241  11.710 -0.5252 -0.6810  0.3421
 2658TIP3    H129389   5.647   4.255  11.778 -0.5289 -3.0760  0.9275
 2658TIP3    H229390   5.796   4.237  11.757 -0.3961 -1.2505  0.0750
 2659TIP3   OH229391   0.825   5.351   5.754  0.2364  0.8279  0.4333
 2659TIP3    H129392   0.817   5.354   5.850 -0.3681 -1.6507  0.5351
 2659TIP3    H229393   0.916   5.326   5.738  0.3943  1.4521  0.3462
 2660TIP3   OH229394   0.917   3.956   2.602  0.4684 -0.7567 -0.0517
 2660TIP3    H129395   0.962   4.028   2.647  0.7833  1.0228 -2.9499
 2660TIP3    H229396   0.825   3.968   2.626  0.8187 -1.0124  1.5274
 2661TIP3   OH229397   5.583   3.839  14.805  0.0085  0.1175  0.0999
 2661TIP3    H129398   5.545   3.758  14.839 -0.4111 -0.7198 -2.1775
 2661TIP3    H229399   5.661   3.811  14.756  0.7672  1.2808  0.5768
 2662TIP3   OH229400   5.987   3.901  15.560 -0.1344  0.0403  0.1902
 2662TIP3    H129401   5.962   3.943  15.642  0.9538 -0.0761  0.5931
 2662TIP3    H229402   6.053   3.958  15.523  0.0134 -0.3639 -0.1716
 2663TIP3   OH229403   2.110   4.679  13.158 -0.1155  0.2752  0.2314
 2663TIP3    H129404   2.151   4.715  13.237 -1.0455  0.6342  0.5708
 2663TIP3    H229405   2.178   4.626  13.118  0.4802  0.3436  1.1089
 2664TIP3   OH229406   2.181   6.093  11.263  0.2346  0.0435 -1.1357
 2664TIP3    H129407   2.218   6.166  11.214 -0.1087  0.3794 -0.8980
 2664TIP3    H229408   2.254   6.055  11.310 -0.2745  3.2493  2.7112
 2665TIP3   OH229409   6.181   0.200   1.317 -0.0978  0.5770  0.7926
 2665TIP3    H129410   6.250   0.193   1.251 -0.7244  2.9538 -0.2223
 2665TIP3    H229411   6.133   0.280   1.293 -3.4716 -1.1502  1.1746
 2666TIP3   OH229412   6.406   0.739   1.442 -0.0797  0.1122  0.6425
 2666TIP3    H129413   6.450   0.711   1.361  0.6313 -1.4615  1.5203
 2666TIP3    H229414   6.329   0.683   1.447 -0.8430  1.1188  0.4043
 2667TIP3   OH229415   6.120   2.616  13.681 -0.6693  0.8910 -0.7210
 2667TIP3    H129416   6.214   2.608  13.662 -0.5310  1.4934 -0.3234
 2667TIP3    H229417   6.117   2.643  13.773 -1.1777  2.4219 -1.1666
 2668TIP3   OH229418   1.167   3.854  14.011 -0.2753 -0.8211 -0.4114
 2668TIP3    H129419   1.078   3.828  13.988  0.0930 -3.6330  0.9940
 2668TIP3    H229420   1.165   3.870  14.105  0.1640  1.9416 -0.7675
 2669TIP3   OH229421   1.566   2.952  11.862  0.2292 -0.3063  0.1974
 2669TIP3    H129422   1.572   2.964  11.767  0.4271 -1.8211  0.0013
 2669TIP3    H229423   1.479   2.915  11.877 -0.9441  2.4451  0.9443
 2670TIP3   OH229424   6.733   3.968  15.157 -0.1543  0.4679  0.4593
 2670TIP3    H129425   6.700   3.887  15.119  2.2166 -0.4084  0.0651
 2670TIP3    H229426   6.712   3.962  15.250 -2.4793  0.7668  0.0011
 2671TIP3   OH229427   3.370   5.174  15.613 -0.3607  0.2549  0.5470
 2671TIP3    H129428   3.434   5.243  15.632 -1.5374  1.1527  1.3577
 2671TIP3    H229429   3.324   5.159  15.695 -0.6060 -1.0264  0.2080
 2672TIP3   OH229430   5.880   6.703  15.386  0.1328 -0.7232 -0.3639
 2672TIP3    H129431   5.953   6.758  15.414  0.0726 -0.9678  0.3027
 2672TIP3    H229432   5.885   6.703  15.290  0.9034 -0.5982 -0.3308
 2673TIP3   OH229433   3.324   2.190  15.867 -0.2081  0.1278 -0.2969
 2673TIP3    H129434   3.334   2.255  15.937  0.7576  0.3093 -0.5790
 2673TIP3    H229435   3.321   2.106  15.913  2.3052  0.0838 -0.0833
 2674TIP3   OH229436   4.970   3.540  16.159  0.1817 -0.2305  0.1924
 2674TIP3    H129437   5.045   3.555  16.102 -0.1035  0.1369 -0.0906
 2674TIP3    H229438   4.969   3.617  16.216 -0.2112 -0.0502 -0.0604
 2675TIP3   OH229439   2.007   0.795   2.941  0.8906 -0.1954 -0.3535
 2675TIP3    H129440   1.929   0.840   2.908 -0.5468  0.4847  3.4505
 2675TIP3    H229441   2.000   0.706   2.905 -0.7604  0.3266 -1.4210
 2676TIP3   OH229442   4.097   2.645  15.509 -0.0361 -0.1608  0.4446
 2676TIP3    H129443   4.160   2.582  15.542 -0.6695 -0.1115  1.8285
 2676TIP3    H229444   4.081   2.704  15.583 -2.0394 -0.4594  0.3049
 2677TIP3   OH229445   3.609   0.905  13.170  0.4055  0.5802  0.5726
 2677TIP3    H129446   3.629   0.994  13.141  0.2941  0.7154  0.9046
 2677TIP3    H229447   3.694   0.860  13.169  0.3141  0.4087 -0.5249
 2678TIP3   OH229448   4.396   1.530  15.298  0.0058  0.0458 -0.0832
 2678TIP3    H129449   4.416   1.477  15.375 -1.6397  1.7390  1.6275
 2678TIP3    H229450   4.362   1.468  15.233 -0.2603 -1.1982  1.2088
 2679TIP3   OH229451   1.243   0.256   6.083  0.1414  0.5846  0.3705
 2679TIP3    H129452   1.200   0.296   6.158  0.5155 -2.2749  2.2397
 2679TIP3    H229453   1.336   0.254   6.107  0.3520  0.1588 -0.4413
 2680TIP3   OH229454   0.526   3.594  12.203  0.1838  0.6591 -0.0240
 2680TIP3    H129455   0.496   3.608  12.113  0.5343  0.3716 -0.1851
 2680TIP3    H229456   0.615   3.561  12.194  0.3935  1.0830  0.4426
 2681TIP3   OH229457   5.383   2.647  16.860  0.4258  0.6014  0.2952
 2681TIP3    H129458   5.474   2.652  16.890  0.0195  0.3516  1.5854
 2681TIP3    H229459   5.347   2.734  16.877  0.5133  0.8187 -0.5667
 2682TIP3   OH229460   6.000   3.507   1.253 -0.1661  0.2854  0.4027
 2682TIP3    H129461   6.031   3.420   1.228 -0.6427 -0.1270  1.1681
 2682TIP3    H229462   6.042   3.524   1.337 -2.5450 -0.6619  1.9064
 2683TIP3   OH229463   1.495   5.001  14.090  0.0262 -0.2786 -0.0064
 2683TIP3    H129464   1.466   4.948  14.016 -1.1537 -0.9006  0.8583
 2683TIP3    H229465   1.533   4.939  14.151  1.1103  0.2478 -0.1275
 2684TIP3   OH229466   3.597   2.838   5.563 -0.0500  0.0744  0.2242
 2684TIP3    H129467   3.588   2.855   5.469 -0.7650  0.4860  0.3593
 2684TIP3    H229468   3.683   2.797   5.572  0.0997  0.1959 -0.5880
 2685TIP3   OH229469   1.899   0.102  10.761 -0.1250 -0.0394 -1.0468
 2685TIP3    H129470   1.900   0.137  10.850  1.1474 -2.7492  0.1086
 2685TIP3    H229471   1.809   0.070  10.749 -0.5559  1.1372 -1.1407
 2686TIP3   OH229472   2.935   6.493  13.423 -0.0093 -0.2418 -0.2013
 2686TIP3    H129473   2.969   6.571  13.468  0.1042 -0.5433  0.2391
 2686TIP3    H229474   2.993   6.422  13.452 -0.5707 -0.6275 -0.0167
 2687TIP3   OH229475   4.230   3.704  15.047  0.4204 -0.1685  0.1058
 2687TIP3    H129476   4.234   3.798  15.065  1.4778 -0.1617 -0.1022
 2687TIP3    H229477   4.143   3.677  15.078 -0.4399  1.1198 -1.0148
 2688TIP3   OH229478   3.233   6.681   5.343  0.4442 -0.0640  0.0798
 2688TIP3    H129479   3.197   6.749   5.286 -0.6786 -0.1502  0.6673
 2688TIP3    H229480   3.306   6.643   5.292  0.8340  1.2935 -0.4085
 2689TIP3   OH229481   6.273   4.189   3.047 -0.6423 -0.1663  0.3036
 2689TIP3    H129482   6.365   4.217   3.044 -0.6383 -0.0068  1.4638
 2689TIP3    H229483   6.276   4.097   3.020 -0.0990 -0.2409  0.5848
 2690TIP3   OH229484   6.714   3.861  15.412  0.1340  0.3487  0.3097
 2690TIP3    H129485   6.663   3.782  15.399 -0.7547  0.9006  0.3228
 2690TIP3    H229486   6.794   3.832  15.456  0.4074 -0.7030 -0.8443
 2691TIP3   OH229487   5.535   0.159  17.014  0.2953  0.0376 -0.1828
 2691TIP3    H129488   5.592   0.230  17.043  1.1883  0.0091 -1.7316
 2691TIP3    H229489   5.455   0.202  16.985  0.2036  0.2476  0.3665
 2692TIP3   OH229490   5.772   2.334   4.939 -1.0500 -0.4239 -0.0650
 2692TIP3    H129491   5.818   2.288   5.009 -0.9017 -1.9077 -1.0971
 2692TIP3    H229492   5.837   2.396   4.905 -1.2027  0.4844  1.2324
 2693TIP3   OH229493   4.736   5.956  10.476 -0.6193  0.2350  0.6701
 2693TIP3    H129494   4.804   5.972  10.411 -0.2844  1.1388  1.2236
 2693TIP3    H229495   4.665   5.915  10.427  0.4778 -1.1149  0.1622
 2694TIP3   OH229496   0.114   4.855  15.570  0.5464  0.4178 -0.7652
 2694TIP3    H129497   0.064   4.811  15.639 -0.1396  0.5431 -1.1708
 2694TIP3    H229498   0.052   4.916  15.531  0.8436  0.1523 -1.6726
 2695TIP3   OH229499   0.136   1.390  15.113 -0.1429 -0.3063 -0.0005
 2695TIP3    H129500   0.095   1.312  15.150 -0.6381  0.4272  1.0320
 2695TIP3    H229501   0.072   1.460  15.128  0.9563  0.6075  0.5082
 2696TIP3   OH229502   0.156   1.190  15.525 -0.0226 -0.2113 -0.1369
 2696TIP3    H129503   0.248   1.203  15.504 -0.0787  0.1186 -0.1875
 2696TIP3    H229504   0.156   1.147  15.611  0.1665  0.3543  0.1503
 2697TIP3   OH229505   2.628   3.240   0.411 -0.3450 -0.9314  0.1178
 2697TIP3    H129506   2.562   3.289   0.459 -0.9874 -0.6203 -1.0558
 2697TIP3    H229507   2.603   3.148   0.423 -0.4613 -0.8637  0.4153
 2698TIP3   OH229508   0.548   5.157  12.253  0.4721 -0.9492  0.3100
 2698TIP3    H129509   0.563   5.209  12.175 -1.4128  0.5226  0.8481
 2698TIP3    H229510   0.575   5.213  12.326  0.3712 -1.5248  0.8020
 2699TIP3   OH229511   2.447   1.125  16.458  0.5110 -0.4589  0.7999
 2699TIP3    H129512   2.445   1.221  16.461  0.4204 -0.4221 -0.1105
 2699TIP3    H229513   2.362   1.098  16.494 -0.2961 -0.1193 -0.7643
 2700TIP3   OH229514   4.447   1.930  14.836  0.1838 -0.0737  0.4570
 2700TIP3    H129515   4.429   1.858  14.775  1.1001 -1.1020  1.3571
 2700TIP3    H229516   4.410   1.901  14.919  1.9626 -0.2643  1.2358
 2701TIP3   OH229517   2.666   0.950  15.124  0.0104  0.1682 -0.0149
 2701TIP3    H129518   2.593   1.001  15.158 -0.5440 -0.3867 -0.3399
 2701TIP3    H229519   2.652   0.862  15.159 -1.0132 -0.6145 -2.2256
 2702TIP3   OH229520   1.043   4.449   0.689  0.9732  0.3067  0.3656
 2702TIP3    H129521   1.033   4.422   0.781 -1.9997  0.0884  0.0684
 2702TIP3    H229522   1.035   4.368   0.640 -0.0666  0.7163 -0.1725
 2703TIP3   OH229523   5.065   0.980   2.735  0.0656  0.3384 -0.2732
 2703TIP3    H129524   4.992   0.967   2.796  0.1454  1.3564  0.0592
 2703TIP3    H229525   5.142   0.950   2.784 -0.0828 -0.4387 -0.5077
 2704TIP3   OH229526   4.248   5.727  10.397  0.4150  0.7388  0.0228
 2704TIP3    H129527   4.161   5.761  10.419  0.7927  2.4593 -0.9821
 2704TIP3    H229528   4.232   5.636  10.371 -0.9416  0.7527  0.6840
 2705TIP3   OH229529   6.037   3.293   5.024  0.1351 -0.2672 -0.1325
 2705TIP3    H129530   6.001   3.379   5.046  1.2222 -0.3507  2.3117
 2705TIP3    H229531   6.082   3.306   4.941 -1.0150  1.1236 -0.5707
 2706TIP3   OH229532   3.339   4.291   2.816 -0.1533  0.8320 -0.3303
 2706TIP3    H129533   3.293   4.207   2.818  0.6296  0.3899 -0.3851
 2706TIP3    H229534   3.325   4.329   2.902  0.8204 -0.1036  0.2685
 2707TIP3   OH229535   6.684   5.032   2.628  0.3012 -0.3985  0.0756
 2707TIP3    H129536   6.758   4.970   2.623 -0.2782 -1.2060  1.1573
 2707TIP3    H229537   6.709   5.093   2.698  0.1866 -0.3393  0.0643
 2708TIP3   OH229538   0.148   6.318   6.829  0.1297 -0.1290  0.1950
 2708TIP3    H129539   0.079   6.266   6.786 -1.4960  2.1551 -0.1876
 2708TIP3    H229540   0.209   6.339   6.759 -0.6163  0.5891 -0.2718
 2709TIP3   OH229541   6.406   4.495  13.618 -0.2350 -0.1151 -0.0111
 2709TIP3    H129542   6.345   4.546  13.671  0.5678  0.8914 -0.0273
 2709TIP3    H229543   6.388   4.522  13.528 -2.3249 -2.5903 -0.4475
 2710TIP3   OH229544   6.146   2.816  12.724 -0.1736 -0.2266 -0.2992
 2710TIP3    H129545   6.057   2.823  12.759  0.1377 -2.1909  1.0784
 2710TIP3    H229546   6.136   2.766  12.643 -0.3196 -0.5131 -0.1051
 2711TIP3   OH229547   0.454   3.897   1.134  0.7419  0.4329  0.2298
 2711TIP3    H129548   0.411   3.970   1.179  1.2449  1.1667 -0.4373
 2711TIP3    H229549   0.543   3.897   1.169  1.0089  0.7366 -0.4218
 2712TIP3   OH229550   6.764   6.419   2.268  0.0091  0.1604  0.1965
 2712TIP3    H129551   6.844   6.448   2.224  0.0509  0.0772  0.2170
 2712TIP3    H229552   6.794   6.355   2.333  0.0485  0.9838  1.0074
 2713TIP3   OH229553   3.844   2.748   5.647  0.0933 -0.1436  0.0727
 2713TIP3    H129554   3.913   2.810   5.670  0.1487  0.2185 -1.0434
 2713TIP3    H229555   3.852   2.678   5.712  1.6326 -0.2021 -0.1586
 2714TIP3   OH229556   4.826   1.093   5.815 -0.1914  0.4266 -0.5493
 2714TIP3    H129557   4.871   1.160   5.866  0.6622 -1.1437  0.8610
 2714TIP3    H229558   4.765   1.053   5.877  1.3678 -1.9927 -0.4492
 2715TIP3   OH229559   4.687   3.022   2.478 -0.1508 -0.1606  0.3512
 2715TIP3    H129560   4.671   3.043   2.570  0.6522 -0.3677  0.5427
 2715TIP3    H229561   4.734   2.939   2.479 -0.7614 -0.5305 -0.2829
 2716TIP3   OH229562   4.135   1.111   2.015  0.0215  0.4760 -0.2102
 2716TIP3    H129563   4.113   1.204   2.023  1.9129  0.8638  1.4449
 2716TIP3    H229564   4.180   1.091   2.097 -1.8345 -2.3838  0.2681
 2717TIP3   OH229565   3.236   5.266   3.625 -0.7229  0.5196 -0.4307
 2717TIP3    H129566   3.295   5.193   3.605 -0.5524  0.2435  0.9214
 2717TIP3    H229567   3.162   5.254   3.566  0.2690  0.4932 -1.7043
 2718TIP3   OH229568   3.368   5.388   3.030  0.5431 -0.5792  0.1726
 2718TIP3    H129569   3.365   5.354   3.120 -2.1687 -0.3126  0.2472
 2718TIP3    H229570   3.350   5.481   3.039  1.2254 -0.3601 -0.5955
 2719TIP3   OH229571   3.121   2.765  13.696  0.1319  0.4429  0.0675
 2719TIP3    H129572   3.028   2.767  13.676 -0.0267  1.9415  0.7632
 2719TIP3    H229573   3.161   2.716  13.624 -1.3936 -2.1180  0.8401
 2720TIP3   OH229574   1.691   6.621   3.266  0.1093 -0.3001 -0.3728
 2720TIP3    H129575   1.702   6.668   3.349 -1.4107 -0.4944 -0.0448
 2720TIP3    H229576   1.626   6.673   3.218  2.2332  0.8128 -2.2319
 2721TIP3   OH229577   1.158   4.204  16.161  0.0476 -0.0864 -0.5795
 2721TIP3    H129578   1.238   4.248  16.189 -0.0131  0.0245 -0.5834
 2721TIP3    H229579   1.168   4.195  16.066 -0.7450  1.5173 -0.8358
 2722TIP3   OH229580   6.533   4.917  14.392  0.1564  0.5242 -0.8555
 2722TIP3    H129581   6.628   4.915  14.379  0.4758  1.5766  0.9675
 2722TIP3    H229582   6.513   5.009  14.408 -0.5910 -0.0770  2.2505
 2723TIP3   OH229583   3.071   5.372   4.293 -0.0612  0.2442 -0.2595
 2723TIP3    H129584   3.041   5.463   4.291 -0.5011  0.1944  2.0964
 2723TIP3    H229585   3.100   5.355   4.203 -0.9943  2.3476 -1.0242
 2724TIP3   OH229586   5.747   4.920   3.894 -0.3994 -0.0896  0.1607
 2724TIP3    H129587   5.656   4.892   3.904 -0.7796  0.3790 -1.6464
 2724TIP3    H229588   5.798   4.840   3.911 -1.1715 -0.5118  0.5644
 2725TIP3   OH229589   2.718   4.300  12.422  0.0088 -0.7982  0.4886
 2725TIP3    H129590   2.784   4.346  12.473  0.3225 -1.6456  0.8659
 2725TIP3    H229591   2.656   4.267  12.487  0.4680 -1.9761  0.3557
 2726TIP3   OH229592   4.697   4.875  10.468 -0.4111 -0.2187 -0.1008
 2726TIP3    H129593   4.739   4.948  10.422  0.9883 -0.9843 -0.0953
 2726TIP3    H229594   4.617   4.859  10.418 -1.5558  2.2576  0.7664
 2727TIP3   OH229595   3.652   3.877   5.996  0.2084  0.4831  0.2594
 2727TIP3    H129596   3.625   3.866   5.906 -1.3822 -0.4610  0.8213
 2727TIP3    H229597   3.628   3.967   6.018  0.4935  0.6753 -0.2190
 2728TIP3   OH229598   0.112   6.282  12.705  0.1428  0.1934  0.0819
 2728TIP3    H129599   0.163   6.256  12.782  1.7740  4.0278  0.5106
 2728TIP3    H229600   0.024   6.295  12.738  0.2749 -0.4931  0.7356
 2729TIP3   OH229601   0.118   3.800   3.111  0.5461 -0.0492 -0.1380
 2729TIP3    H129602   0.109   3.829   3.021  1.2646 -1.0596 -0.5608
 2729TIP3    H229603   0.097   3.877   3.164 -0.4228  0.4096 -1.1454
 2730TIP3   OH229604   3.910   6.275  16.566 -0.0314  0.1880  0.5308
 2730TIP3    H129605   3.951   6.269  16.480  0.4476 -0.3855  0.7907
 2730TIP3    H229606   3.970   6.329  16.618 -0.3629  0.6071  0.4843
 2731TIP3   OH229607   3.547   3.450   2.636  0.3576  0.8106  0.2425
 2731TIP3    H129608   3.469   3.504   2.650 -0.3963 -0.0601 -0.4339
 2731TIP3    H229609   3.546   3.431   2.542 -0.3106 -1.6549  0.6667
 2732TIP3   OH229610   4.487   2.738  14.881  0.5708 -0.5173  0.0887
 2732TIP3    H129611   4.462   2.728  14.789  0.8035  0.3437 -0.0677
 2732TIP3    H229612   4.466   2.653  14.920 -0.7900 -0.4604 -0.4586
 2733TIP3   OH229613   3.284   5.166  14.844 -0.4512 -0.1397  0.4055
 2733TIP3    H129614   3.299   5.075  14.871 -0.4772  0.0879  1.2126
 2733TIP3    H229615   3.310   5.168  14.753 -0.0032 -0.8501  0.5084
 2734TIP3   OH229616   2.105   2.286   4.265  0.2966  0.8689 -0.2985
 2734TIP3    H129617   2.159   2.268   4.188  0.5155 -0.0409  0.0615
 2734TIP3    H229618   2.030   2.227   4.257 -0.2405  1.5347 -0.3588
 2735TIP3   OH229619   1.963   0.762  16.414 -0.1188  0.3942  0.1489
 2735TIP3    H129620   1.947   0.673  16.447 -0.5854  1.3117  2.6684
 2735TIP3    H229621   2.045   0.788  16.455 -0.3329  1.3611 -0.0064
 2736TIP3   OH229622   1.636   6.546  11.445 -0.3859 -0.1033 -0.1150
 2736TIP3    H129623   1.643   6.625  11.392  3.1946 -0.8812 -1.0426
 2736TIP3    H229624   1.685   6.565  11.525  0.8671 -1.4156 -0.5159
 2737TIP3   OH229625   5.602   1.824   2.317 -0.4337  0.8842  0.0471
 2737TIP3    H129626   5.519   1.856   2.353 -2.3928 -1.8086 -1.6177
 2737TIP3    H229627   5.591   1.833   2.222  2.1315  2.3852 -0.1908
 2738TIP3   OH229628   4.526   0.447   2.636 -0.4434 -0.0952  0.3977
 2738TIP3    H129629   4.602   0.419   2.687 -1.2057 -0.4457  1.3605
 2738TIP3    H229630   4.549   0.425   2.546  0.6065 -0.1703  0.6657
 2739TIP3   OH229631   5.302   2.843  10.464 -0.2101  0.1341  0.0697
 2739TIP3    H129632   5.234   2.887  10.515 -0.5743  0.7834 -0.9515
 2739TIP3    H229633   5.324   2.905  10.394  2.1387  0.3690  0.9293
 2740TIP3   OH229634   4.291   2.131   2.557 -0.0437 -0.6713  0.0582
 2740TIP3    H129635   4.259   2.206   2.607 -1.1206 -0.0493 -1.4697
 2740TIP3    H229636   4.315   2.167   2.472  0.6532 -1.8675 -0.2844
 2741TIP3   OH229637   3.247   4.232   0.366  0.5143  0.2806 -0.3096
 2741TIP3    H129638   3.250   4.136   0.370  0.4239  0.3068  1.3785
 2741TIP3    H229639   3.163   4.252   0.325  0.7863 -0.3597 -1.1982
 2742TIP3   OH229640   0.437   1.958   4.566 -0.0146 -0.3881 -0.1704
 2742TIP3    H129641   0.371   1.895   4.595  0.2557 -0.4856  0.2433
 2742TIP3    H229642   0.407   2.042   4.600  0.0330 -0.4208 -0.0463
 2743TIP3   OH229643   0.033   5.386  16.121 -0.5564  0.0302  0.4630
 2743TIP3    H129644   0.109   5.431  16.159 -0.4585  0.1885  0.0800
 2743TIP3    H229645  -0.008   5.451  16.064 -1.2145  0.0751  0.9719
 2744TIP3   OH229646   2.945   3.847   0.083 -0.4320 -0.2737 -0.6292
 2744TIP3    H129647   2.872   3.810   0.033 -0.6353 -0.5103 -0.1729
 2744TIP3    H229648   2.908   3.925   0.124 -0.5807 -0.6541 -0.0118
 2745TIP3   OH229649   4.729   5.706  11.560  0.5406  0.4476  0.1748
 2745TIP3    H129650   4.722   5.614  11.584 -0.0192  1.2531  3.5388
 2745TIP3    H229651   4.660   5.718  11.495 -0.5003 -1.1589  0.9104
 2746TIP3   OH229652   6.168   1.191  15.020  0.2417  0.4694  0.0029
 2746TIP3    H129653   6.113   1.114  15.012 -0.0456  0.6777 -0.0214
 2746TIP3    H229654   6.112   1.264  14.994  0.3960  0.7308  0.3953
 2747TIP3   OH229655   5.831   0.320   6.418 -0.6013  0.3819 -0.0512
 2747TIP3    H129656   5.867   0.253   6.361  0.5766 -0.6111  1.7399
 2747TIP3    H229657   5.743   0.290   6.439 -1.1958  0.9598 -1.5892
 2748TIP3   OH229658   4.832   4.180  15.800  0.5188  0.3813  0.3446
 2748TIP3    H129659   4.920   4.165  15.835  0.6616 -0.3406 -0.3054
 2748TIP3    H229660   4.788   4.231  15.868  0.7911 -0.9862  1.6155
 2749TIP3   OH229661   5.829   5.870  16.810  0.2183 -0.3921 -0.4152
 2749TIP3    H129662   5.757   5.807  16.818 -0.0061 -0.3002 -1.5014
 2749TIP3    H229663   5.891   5.828  16.750  1.3319 -0.6835  0.8840
 2750TIP3   OH229664   5.211   6.561   3.197  0.3275  0.1955 -0.5799
 2750TIP3    H129665   5.301   6.531   3.212 -0.0807 -0.2050  1.3488
 2750TIP3    H229666   5.218   6.657   3.198  0.6704  0.1728  0.2039
 2751TIP3   OH229667   4.853   5.735  16.026 -0.0703  0.0679 -0.2267
 2751TIP3    H129668   4.810   5.787  16.093  0.2998 -0.0672  0.1246
 2751TIP3    H229669   4.782   5.691  15.980 -0.2797 -0.8321  0.9108
 2752TIP3   OH229670   3.599   1.627  13.702  0.8288  0.1747  0.6055
 2752TIP3    H129671   3.625   1.677  13.625  1.6685 -0.1216  0.6823
 2752TIP3    H229672   3.545   1.556  13.666 -1.3031  1.6945  0.6005
 2753TIP3   OH229673   2.626   6.194  16.876  0.0603  0.2930  0.1909
 2753TIP3    H129674   2.642   6.103  16.899 -1.3374 -0.5630 -1.9624
 2753TIP3    H229675   2.670   6.207  16.792  0.9245  1.8768  0.8357
 2754TIP3   OH229676   0.417   6.099   0.644  0.0254 -0.5957 -0.2524
 2754TIP3    H129677   0.432   6.005   0.648 -0.9988 -0.7992 -0.8579
 2754TIP3    H229678   0.426   6.129   0.734  1.4978 -1.0835 -0.2215
 2755TIP3   OH229679   3.316   2.922   0.231  0.0618  0.1925  0.3022
 2755TIP3    H129680   3.401   2.883   0.253  0.7850  2.0971  1.0236
 2755TIP3    H229681   3.291   2.970   0.310 -1.3620  0.2456 -0.1643
 2756TIP3   OH229682   6.156   2.219   0.616 -0.2358 -0.4035 -0.1244
 2756TIP3    H129683   6.129   2.310   0.612 -2.7560 -0.9228  2.4146
 2756TIP3    H229684   6.199   2.210   0.701 -1.2811 -1.8631  0.2774
 2757TIP3   OH229685   5.004   4.293  10.845 -0.0687  0.2169  0.4519
 2757TIP3    H129686   5.096   4.312  10.831  0.0621 -0.9641 -0.4881
 2757TIP3    H229687   4.975   4.254  10.762 -0.2508 -3.5887  2.0836
 2758TIP3   OH229688   1.221   3.740   1.652  0.1447  0.5626  0.2733
 2758TIP3    H129689   1.236   3.798   1.577  3.7163 -0.0891  0.2754
 2758TIP3    H229690   1.212   3.653   1.613 -1.7858  0.6509  0.4558
 2759TIP3   OH229691   2.275   2.257   4.057  0.5067 -0.3800 -0.1665
 2759TIP3    H129692   2.204   2.213   4.010  1.1958 -1.2098 -0.4473
 2759TIP3    H229693   2.351   2.247   4.000  1.3918 -1.5045  1.1451
 2760TIP3   OH229694   3.959   3.878  15.290 -0.7300  0.8355  0.3894
 2760TIP3    H129695   4.046   3.914  15.311  0.6189 -0.7250 -1.9672
 2760TIP3    H229696   3.978   3.790  15.257 -3.4925 -0.5306  2.1023
 2761TIP3   OH229697   1.149   6.480   2.098  0.5691  0.0083 -0.8703
 2761TIP3    H129698   1.098   6.409   2.138  0.3765  0.7176  0.2025
 2761TIP3    H229699   1.223   6.493   2.158  0.8093  0.4558 -1.2573
 2762TIP3   OH229700   6.030   3.834  12.771 -0.2480 -0.0903 -0.1450
 2762TIP3    H129701   5.994   3.759  12.724 -0.1416 -0.7490  0.7814
 2762TIP3    H229702   5.955   3.891  12.786 -0.3675 -0.1013 -0.6869
 2763TIP3   OH229703   6.474   1.889   5.411  0.4527  0.6770  0.0730
 2763TIP3    H129704   6.434   1.900   5.325  3.5732  0.6010 -1.5571
 2763TIP3    H229705   6.433   1.810   5.447 -0.3103  0.2048 -1.7274
 2764TIP3   OH229706   0.142   4.550   6.439 -0.3828 -0.9987 -0.0314
 2764TIP3    H129707   0.200   4.617   6.402 -0.1973 -1.1781 -0.0700
 2764TIP3    H229708   0.061   4.559   6.389 -0.3985 -0.7314  0.0364
 2765TIP3   OH229709   3.466   6.088   1.521  0.1293 -0.0402  0.0819
 2765TIP3    H129710   3.449   6.101   1.614  0.1531  1.0428 -0.0480
 2765TIP3    H229711   3.554   6.124   1.508  0.3638 -0.7151 -0.2573
 2766TIP3   OH229712   2.066   3.997   6.504  0.1012 -0.3659 -0.0712
 2766TIP3    H129713   2.117   3.934   6.556  1.6138  0.5997 -0.3322
 2766TIP3    H229714   2.122   4.074   6.498 -0.5222 -0.0095 -2.1511
 2767TIP3   OH229715   2.450   0.264   6.014  0.2879 -0.1772  0.1143
 2767TIP3    H129716   2.480   0.347   6.050  1.8255 -0.5895 -0.1551
 2767TIP3    H229717   2.362   0.282   5.981  0.1340  1.0249  1.1224
 2768TIP3   OH229718   0.546   0.961   1.794  0.1203  0.0503 -0.0689
 2768TIP3    H129719   0.607   0.888   1.781 -1.4248 -1.1942 -0.5487
 2768TIP3    H229720   0.589   1.015   1.861  1.2189 -1.3855  0.4530
 2769TIP3   OH229721   6.190   0.378   2.201 -0.3198  0.0524 -0.5477
 2769TIP3    H129722   6.220   0.455   2.152 -0.6711  0.3960 -0.2333
 2769TIP3    H229723   6.185   0.408   2.292  2.8164 -1.2632  0.2003
 2770TIP3   OH229724   0.146   4.383   5.847 -0.4658  0.0367  0.4417
 2770TIP3    H129725   0.068   4.365   5.899 -1.1748  0.1888 -0.5372
 2770TIP3    H229726   0.118   4.450   5.784  0.6568  0.6397  0.5570
 2771TIP3   OH229727   1.242   5.604   5.663 -0.0707 -0.0288  0.0306
 2771TIP3    H129728   1.158   5.591   5.620 -0.8621 -1.5524  1.8945
 2771TIP3    H229729   1.304   5.554   5.610 -0.6309 -0.1872 -0.4847
 2772TIP3   OH229730   0.054   3.070   1.437 -0.1345  0.6033 -0.2609
 2772TIP3    H129731   0.032   3.160   1.461 -1.1923  0.0872  0.8093
 2772TIP3    H229732   0.146   3.060   1.461 -0.3396  1.0429  0.7700
 2773TIP3   OH229733   0.785   2.811  11.795 -0.3271  0.1344 -0.4168
 2773TIP3    H129734   0.788   2.906  11.809 -0.0755 -0.1797  2.1501
 2773TIP3    H229735   0.844   2.775  11.861  0.1516 -1.7966 -1.8204
 2774TIP3   OH229736   3.623   0.185   4.589 -0.2457 -0.3785 -0.2455
 2774TIP3    H129737   3.592   0.094   4.580 -1.0224 -0.3462  1.7351
 2774TIP3    H229738   3.547   0.238   4.567 -0.5789 -0.2641  1.0919
 2775TIP3   OH229739   5.144   3.566  12.550 -1.1744 -0.3188  0.0002
 2775TIP3    H129740   5.094   3.583  12.630 -1.2326  0.1681 -0.1344
 2775TIP3    H229741   5.236   3.572  12.576 -1.1962  0.6495 -0.1335
 2776TIP3   OH229742   0.257   6.651   3.119 -0.6239 -0.0115 -0.0633
 2776TIP3    H129743   0.263   6.600   3.038 -2.3579 -1.6011  0.7539
 2776TIP3    H229744   0.344   6.646   3.157 -0.0375 -0.0377 -1.3501
 2777TIP3   OH229745   0.880   6.143  17.041  0.4334 -0.1106  0.1753
 2777TIP3    H129746   0.971   6.165  17.022  0.6818  0.3313  1.7690
 2777TIP3    H229747   0.842   6.225  17.073 -0.2984 -0.5107  0.3589
 2778TIP3   OH229748   3.539   0.946   4.005  0.1461 -0.0330 -0.4787
 2778TIP3    H129749   3.459   0.895   3.991  0.2692 -0.6166  0.8081
 2778TIP3    H229750   3.574   0.960   3.918 -0.3377 -1.4468 -0.9280
 2779TIP3   OH229751   5.785   4.303   5.570  0.0275 -0.8210 -0.1502
 2779TIP3    H129752   5.842   4.226   5.574  0.8190 -0.2517 -0.2128
 2779TIP3    H229753   5.817   4.361   5.639  0.2692 -0.0030 -0.9259
 2780TIP3   OH229754   5.292   2.952  16.510  0.1841 -0.4332 -0.0846
 2780TIP3    H129755   5.269   2.860  16.499  0.0985 -0.6461  1.6916
 2780TIP3    H229756   5.211   2.993  16.541  0.5650 -0.0003  0.3355
 2781TIP3   OH229757   2.770   6.600  15.753  0.0800  0.1666  0.2023
 2781TIP3    H129758   2.803   6.682  15.717  0.3622  0.4783  1.1153
 2781TIP3    H229759   2.710   6.566  15.687  1.7250 -0.0764 -1.2366
 2782TIP3   OH229760   6.075   4.969   2.173 -0.4263 -0.2826 -0.2632
 2782TIP3    H129761   6.002   5.017   2.213 -1.0729 -2.2553  1.0681
 2782TIP3    H229762   6.036   4.920   2.101 -0.2260 -0.6069 -0.1527
 2783TIP3   OH229763   4.778   5.904  14.516  0.0650 -0.2087  0.4345
 2783TIP3    H129764   4.746   5.870  14.432  0.4598  1.0897 -0.2839
 2783TIP3    H229765   4.730   5.855  14.582 -1.5055 -0.1045 -0.5685
 2784TIP3   OH229766   5.717   5.445   2.577 -0.0970 -0.1510 -0.1955
 2784TIP3    H129767   5.626   5.427   2.601 -0.7964  2.9428 -0.1237
 2784TIP3    H229768   5.730   5.396   2.496 -1.0529 -2.3623  0.8676
 2785TIP3   OH229769   5.690   1.828   2.614 -0.1248 -0.3849 -0.2186
 2785TIP3    H129770   5.735   1.902   2.655 -0.2124  0.2161 -1.1773
 2785TIP3    H229771   5.690   1.849   2.521  0.6350 -2.0192 -0.6126
 2786TIP3   OH229772   3.888   3.383  12.881  0.0674  0.0441  0.4343
 2786TIP3    H129773   3.858   3.455  12.826  1.1859 -0.2043 -0.5704
 2786TIP3    H229774   3.811   3.354  12.929 -1.6098 -1.2658 -2.7692
 2787TIP3   OH229775   6.473   5.125  12.387 -0.4349 -0.0286 -0.3602
 2787TIP3    H129776   6.539   5.118  12.456  0.0840 -0.4659 -0.8921
 2787TIP3    H229777   6.400   5.070  12.416  0.1943 -1.0214 -0.6203
 2788TIP3   OH229778   2.115   1.803  11.778 -0.4816  0.1424  0.2940
 2788TIP3    H129779   2.171   1.854  11.720 -0.7177  1.4387  1.1610
 2788TIP3    H229780   2.089   1.727  11.726 -0.8678  1.3703 -1.3775
 2789TIP3   OH229781   6.772   2.352  14.854  0.3673  0.4317 -0.1862
 2789TIP3    H129782   6.734   2.422  14.908 -2.0033 -1.7068  1.0835
 2789TIP3    H229783   6.704   2.330  14.791  1.2286 -0.5149 -0.8181
 2790TIP3   OH229784   6.269   5.985  11.831  0.5146 -0.1130 -0.2263
 2790TIP3    H129785   6.207   6.048  11.795  0.1467  0.4565  1.3455
 2790TIP3    H229786   6.353   6.009  11.790  0.6647  2.2943  1.2983
 2791TIP3   OH229787   2.423   5.579  14.634 -0.0608 -0.1122  0.2406
 2791TIP3    H129788   2.372   5.508  14.674 -2.3062  1.0909 -0.3616
 2791TIP3    H229789   2.498   5.590  14.693 -0.8896 -1.4079  1.6205
 2792TIP3   OH229790   2.418   1.645  14.304 -0.0450  0.0108 -0.4262
 2792TIP3    H129791   2.380   1.689  14.379 -0.7072 -1.5550  0.2001
 2792TIP3    H229792   2.467   1.571  14.341 -0.1474 -0.6251 -1.4921
 2793TIP3   OH229793   5.870   2.703  16.778 -0.3270 -0.2321 -0.0557
 2793TIP3    H129794   5.810   2.776  16.761 -0.3283 -0.1562  0.2803
 2793TIP3    H229795   5.955   2.744  16.792  0.1511 -0.4208 -2.0679
 2794TIP3   OH229796   0.013   4.584  15.310  0.0387  0.1608  0.5338
 2794TIP3    H129797  -0.012   4.661  15.258 -0.2229 -0.1858  0.1359
 2794TIP3    H229798   0.087   4.547  15.262  0.1107  0.1168  0.6796
 2795TIP3   OH229799   4.778   0.844  12.486 -0.0241  0.1246  0.4629
 2795TIP3    H129800   4.862   0.890  12.477 -1.1187  1.9564 -1.0289
 2795TIP3    H229801   4.731   0.892  12.553 -0.5885  0.2210 -0.0029
 2796TIP3   OH229802   4.225   2.651   2.102 -0.3260 -0.3938 -0.2289
 2796TIP3    H129803   4.174   2.657   2.183 -0.4132  1.1599 -0.3832
 2796TIP3    H229804   4.204   2.730   2.054  0.1995 -1.0092 -1.5143
 2797TIP3   OH229805   4.860   2.044   1.095 -0.3987 -0.2981 -0.8047
 2797TIP3    H129806   4.822   2.121   1.138  0.4327 -1.2188  1.7921
 2797TIP3    H229807   4.837   1.971   1.153  1.6673 -1.4949 -1.4141
 2798TIP3   OH229808   4.571   3.547  11.310 -0.3882 -0.5009 -0.5188
 2798TIP3    H129809   4.508   3.475  11.319  0.3038 -0.8698  2.7093
 2798TIP3    H229810   4.520   3.626  11.323 -0.5936 -0.6331 -0.5253
 2799TIP3   OH229811   3.232   4.992   6.400  0.0990  0.1042 -0.0874
 2799TIP3    H129812   3.270   4.919   6.351  0.3981 -1.0972  1.8691
 2799TIP3    H229813   3.307   5.045   6.427  0.0493  0.0029  0.2511
 2800TIP3   OH229814   2.381   1.416  11.417 -0.2197 -0.1364 -0.1656
 2800TIP3    H129815   2.358   1.508  11.403  0.6410  0.0401 -0.4939
 2800TIP3    H229816   2.303   1.377  11.457 -0.0092  1.1208  1.5822
 2801TIP3   OH229817   3.693   5.663  15.844  0.0916 -0.0416 -0.1822
 2801TIP3    H129818   3.737   5.671  15.760  0.2223  0.6459 -0.0577
 2801TIP3    H229819   3.669   5.753  15.867 -2.8069 -0.5068 -0.9716
 2802TIP3   OH229820   3.394   5.810   1.403  0.2313  0.9325 -0.2635
 2802TIP3    H129821   3.393   5.898   1.442  1.4656  0.7908  0.1319
 2802TIP3    H229822   3.422   5.753   1.474  0.1742  0.3180 -0.7303
 2803TIP3   OH229823   3.992   2.317  16.333  0.0030 -0.1491  0.1171
 2803TIP3    H129824   3.928   2.261  16.376 -1.3695  0.3279 -1.2184
 2803TIP3    H229825   4.037   2.260  16.272  0.0241 -0.2262  0.2040
 2804TIP3   OH229826   3.303   6.319   4.580  0.3537 -0.1006  0.4644
 2804TIP3    H129827   3.280   6.366   4.660  0.9681 -0.5156  0.8978
 2804TIP3    H229828   3.398   6.313   4.582  0.2869 -1.7524  0.6633
 2805TIP3   OH229829   5.906   2.308   2.838  0.0325 -0.2452 -0.1480
 2805TIP3    H129830   5.850   2.373   2.880 -0.5210 -1.1378  0.5194
 2805TIP3    H229831   5.962   2.275   2.908 -1.2988 -2.1642  0.0715
 2806TIP3   OH229832   1.372   5.131   3.939  0.0336 -0.0635 -0.1972
 2806TIP3    H129833   1.361   5.037   3.951  1.1865 -0.0047  1.6029
 2806TIP3    H229834   1.404   5.140   3.849  3.1888 -1.7446  0.6075
 2807TIP3   OH229835   4.022   0.972   4.814 -0.4132 -0.5995 -0.2053
 2807TIP3    H129836   4.089   0.925   4.863 -0.5489 -1.8678 -1.2000
 2807TIP3    H229837   4.036   1.064   4.837 -0.2196 -1.0864  1.8861
 2808TIP3   OH229838   6.614   0.502   3.435 -0.2624 -0.2671 -0.1008
 2808TIP3    H129839   6.572   0.417   3.424 -0.9313  0.1071 -0.4869
 2808TIP3    H229840   6.542   0.566   3.430  0.1937  0.3101  0.4318
 2809TIP3   OH229841   3.915   0.822  14.761  0.1886  0.2471  0.4599
 2809TIP3    H129842   4.007   0.848  14.769 -0.0861  1.7190 -0.5860
 2809TIP3    H229843   3.918   0.730  14.736  1.3817  0.3320  0.2182
 2810TIP3   OH229844   5.927   2.120  10.769 -0.1401 -0.3707 -0.2108
 2810TIP3    H129845   5.869   2.196  10.770 -1.0831 -1.0699 -0.5297
 2810TIP3    H229846   5.922   2.088  10.679 -1.3506 -1.9848  0.3813
 2811TIP3   OH229847   0.200   2.310  15.504 -0.0288  0.2959 -0.0008
 2811TIP3    H129848   0.164   2.338  15.420 -0.2794  2.3184  0.7332
 2811TIP3    H229849   0.286   2.352  15.509  1.0427 -1.7482 -0.2540
 2812TIP3   OH229850   2.846   2.867  11.938  0.0002 -0.5563 -0.1806
 2812TIP3    H129851   2.811   2.809  11.870  1.2092 -0.6829 -0.7243
 2812TIP3    H229852   2.883   2.808  12.003  0.2025 -0.4046 -0.1589
 2813TIP3   OH229853   4.523   1.535   5.807  0.3258  0.3103 -0.4551
 2813TIP3    H129854   4.463   1.492   5.746 -0.0746  2.2347 -1.4977
 2813TIP3    H229855   4.545   1.467   5.871 -2.7686 -0.5388 -0.1447
 2814TIP3   OH229856   2.074   0.616   3.631  0.6974 -0.0562  0.4658
 2814TIP3    H129857   1.987   0.590   3.602  0.8313  1.3305 -1.3261
 2814TIP3    H229858   2.094   0.556   3.704 -1.4112 -0.8895  0.4208
 2815TIP3   OH229859   6.253   5.471   6.210 -0.6884  0.3314 -0.7095
 2815TIP3    H129860   6.342   5.439   6.225 -0.0508  2.5222  0.5309
 2815TIP3    H229861   6.198   5.415   6.265  0.3925  1.2581  1.4526
 2816TIP3   OH229862   5.198   4.748   1.842  0.4330 -0.0385  0.1831
 2816TIP3    H129863   5.111   4.708   1.849  0.2861 -0.4044 -2.5468
 2816TIP3    H229864   5.197   4.819   1.907 -0.4800 -2.2952  2.8595
 2817TIP3   OH229865   2.739   0.549  15.708  0.1132  0.2684  0.0574
 2817TIP3    H129866   2.794   0.507  15.775 -0.3225  0.6658  0.6751
 2817TIP3    H229867   2.654   0.507  15.717  0.7145 -1.6730 -2.1326
 2818TIP3   OH229868   3.631   2.243   0.971  0.6405 -0.2113 -0.2498
 2818TIP3    H129869   3.599   2.161   1.008 -0.2092  0.5667  0.7967
 2818TIP3    H229870   3.726   2.237   0.979  0.7093 -1.7638 -1.6895
 2819TIP3   OH229871   1.318   5.481  13.524 -0.1300 -0.5258 -0.3051
 2819TIP3    H129872   1.382   5.553  13.526 -1.0008  0.2569  0.3126
 2819TIP3    H229873   1.295   5.471  13.432  0.1721 -0.1723 -0.4189
 2820TIP3   OH229874   1.826   0.937   4.775  0.2983  1.0579  0.2327
 2820TIP3    H129875   1.814   1.029   4.802 -0.0780  1.3710 -0.9438
 2820TIP3    H229876   1.749   0.918   4.721  0.2614 -0.0355  0.6443
 2821TIP3   OH229877   0.789   2.964  14.031  0.4245 -0.5283  0.3524
 2821TIP3    H129878   0.708   2.977  13.981 -0.6960 -1.1798  1.8938
 2821TIP3    H229879   0.773   2.884  14.082  3.0768 -2.2142 -1.2229
 2822TIP3   OH229880   5.182   2.295  12.924 -0.5688  0.7346  0.3231
 2822TIP3    H129881   5.124   2.361  12.962 -1.1660 -0.2642  1.1809
 2822TIP3    H229882   5.269   2.317  12.957 -0.9503  0.3891  1.5968
 2823TIP3   OH229883   4.430   2.891  16.793  0.0492  0.2117 -0.0891
 2823TIP3    H129884   4.425   2.887  16.888 -0.6038 -0.0760 -0.1305
 2823TIP3    H229885   4.394   2.976  16.771 -1.1865 -0.3037 -0.1533
 2824TIP3   OH229886   0.065   6.282   2.478 -0.8297 -0.0842  0.1487
 2824TIP3    H129887   0.053   6.207   2.535 -0.4059 -1.0883 -1.0446
 2824TIP3    H229888   0.159   6.285   2.461 -0.8951  0.4699 -0.1509
 2825TIP3   OH229889   0.922   2.488  15.607 -0.2483  0.0750  0.2015
 2825TIP3    H129890   0.933   2.411  15.552 -2.4623  0.7952 -1.4137
 2825TIP3    H229891   0.969   2.557  15.561 -0.7335  0.3149  0.0573
 2826TIP3   OH229892   4.457   5.710   0.153  0.0013 -0.5989 -0.0924
 2826TIP3    H129893   4.502   5.691   0.235  0.3387  0.1068 -0.1138
 2826TIP3    H229894   4.417   5.626   0.129  1.4822 -1.3103 -0.1928
 2827TIP3   OH229895   1.506   3.915   2.966  0.7177  0.0075 -0.5423
 2827TIP3    H129896   1.533   3.876   2.883 -1.8391  3.2944 -3.2461
 2827TIP3    H229897   1.537   4.005   2.961 -0.3578  0.5593  1.6123
 2828TIP3   OH229898   4.997   0.893   4.921 -0.5594 -0.3862  0.4268
 2828TIP3    H129899   4.944   0.958   4.968  1.2714  1.0053  0.6780
 2828TIP3    H229900   5.026   0.937   4.841 -0.9639 -1.6204 -0.4283
 2829TIP3   OH229901   3.648   5.722  11.977  0.1583 -0.0205 -0.0416
 2829TIP3    H129902   3.650   5.812  12.009  1.5697 -0.1486  0.2881
 2829TIP3    H229903   3.568   5.716  11.925 -0.6396  1.0425  1.0275
 2830TIP3   OH229904   3.240   5.904   3.218  0.0618 -0.3443 -0.3080
 2830TIP3    H129905   3.321   5.949   3.244 -0.5419  1.4881 -1.3768
 2830TIP3    H229906   3.266   5.850   3.144  0.4442 -0.2892 -0.2201
 2831TIP3   OH229907   2.770   4.652  16.247  0.4123 -0.2610 -0.3066
 2831TIP3    H129908   2.734   4.736  16.275 -0.5593 -1.2301  1.6006
 2831TIP3    H229909   2.861   4.654  16.275  0.1269 -0.2033  0.6466
 2832TIP3   OH229910   5.292   0.414  15.687 -0.2276  0.1510  0.4252
 2832TIP3    H129911   5.254   0.481  15.631 -0.2802  0.5991  0.9890
 2832TIP3    H229912   5.243   0.420  15.769  0.3832  0.0504  0.8031
 2833TIP3   OH229913   0.961   0.760   2.791  0.4950 -0.2951 -0.3233
 2833TIP3    H129914   0.950   0.710   2.872 -0.1795 -1.2596 -0.9883
 2833TIP3    H229915   0.872   0.786   2.766  0.5472 -1.0945 -1.4078
 2834TIP3   OH229916   1.523   5.919   3.371 -0.4042  0.8047 -0.4418
 2834TIP3    H129917   1.553   5.990   3.314 -1.2746  1.1753 -0.4705
 2834TIP3    H229918   1.453   5.876   3.321 -1.1437  1.1038  0.3069
 2835TIP3   OH229919   3.072   3.017   6.018  0.0311  0.0210  0.0983
 2835TIP3    H129920   3.098   2.950   5.955  0.3410  0.1608  0.0738
 2835TIP3    H229921   3.152   3.036   6.067  0.3184  1.3592 -0.8128
 2836TIP3   OH229922   2.499   4.198   1.832 -0.1702  0.3765  0.5167
 2836TIP3    H129923   2.453   4.281   1.847  1.6128  1.2855  1.2822
 2836TIP3    H229924   2.583   4.210   1.875  0.8496 -1.1592 -0.9423
 2837TIP3   OH229925   0.842   2.699  12.878  0.4319  0.3793  0.4123
 2837TIP3    H129926   0.936   2.685  12.883  0.6294  1.8144  1.2070
 2837TIP3    H229927   0.828   2.784  12.919 -1.2304  0.1443  0.4024
 2838TIP3   OH229928   3.374   1.256   0.542  0.4049 -0.1440 -0.3944
 2838TIP3    H129929   3.348   1.182   0.597  0.5534  0.7324  0.9197
 2838TIP3    H229930   3.424   1.217   0.471  1.9186 -1.2181  1.1615
 2839TIP3   OH229931   4.352   6.738   1.630 -0.2684 -0.4968  0.5528
 2839TIP3    H129932   4.403   6.777   1.559 -0.4231 -0.7150  0.3198
 2839TIP3    H229933   4.385   6.649   1.637 -0.6190 -0.6421  0.3957
 2840TIP3   OH229934   3.755   0.575   2.128 -0.3998 -0.3749 -0.2945
 2840TIP3    H129935   3.661   0.592   2.117 -0.5480 -1.2471 -0.4339
 2840TIP3    H229936   3.793   0.593   2.042 -0.2972  0.8126 -0.0169
 2841TIP3   OH229937   3.198   4.189  16.598  0.0125  0.4313 -0.1908
 2841TIP3    H129938   3.257   4.116  16.578 -0.2475 -0.3858  1.8025
 2841TIP3    H229939   3.249   4.247  16.653 -0.7659  0.0915  0.9296
 2842TIP3   OH229940   2.552   1.396  12.510 -0.4452 -0.2276  0.6690
 2842TIP3    H129941   2.458   1.379  12.520 -1.0194  1.3034 -1.3572
 2842TIP3    H229942   2.567   1.475  12.563 -0.2532 -0.5517  1.1038
 2843TIP3   OH229943   0.700   3.316  17.232 -0.0006 -0.4021 -0.5950
 2843TIP3    H129944   0.627   3.260  17.258  0.6247 -0.1863  1.9181
 2843TIP3    H229945   0.760   3.257  17.185  0.6623 -1.9985  1.9952
 2844TIP3   OH229946   1.314   6.234  16.820 -0.1773  0.0726  0.0123
 2844TIP3    H129947   1.380   6.183  16.773 -0.5463 -0.9619  0.5972
 2844TIP3    H229948   1.364   6.297  16.871  0.4053 -0.9032  0.6890
 2845TIP3   OH229949   3.684   0.940  14.504  0.3312 -0.3312 -0.0528
 2845TIP3    H129950   3.637   0.901  14.579 -0.3395  0.2638 -0.1559
 2845TIP3    H229951   3.709   0.864  14.451 -0.2438 -0.6867  0.1637
 2846TIP3   OH229952   4.915   0.232   0.589 -0.3226  0.1983 -0.3002
 2846TIP3    H129953   4.929   0.294   0.660  2.9560  1.0820 -1.5410
 2846TIP3    H229954   4.846   0.271   0.536 -0.1770  1.4159  0.3873
 2847TIP3   OH229955   4.041   3.476  16.171 -0.2452  0.3206  0.1388
 2847TIP3    H129956   4.071   3.420  16.243 -0.3865 -0.7142 -0.5827
 2847TIP3    H229957   3.952   3.446  16.153 -0.4623  1.0376 -0.0252
 2848TIP3   OH229958   3.120   6.759   3.961 -0.0990 -0.2560  0.4783
 2848TIP3    H129959   3.206   6.792   3.935 -1.0323  1.8811 -0.0659
 2848TIP3    H229960   3.139   6.693   4.028  1.9860 -0.5540 -0.3319
 2849TIP3   OH229961   5.092   4.445  12.583  0.4195  0.2961  0.5020
 2849TIP3    H129962   5.056   4.379  12.641  0.5474  0.3957  0.6958
 2849TIP3    H229963   5.078   4.528  12.629 -2.0132  0.7030 -0.8123
 2850TIP3   OH229964   2.204   4.496  16.401 -0.1030 -0.1408  1.0078
 2850TIP3    H129965   2.125   4.516  16.351  0.4917 -2.3617 -1.0107
 2850TIP3    H229966   2.275   4.534  16.350  0.4036 -1.2809  0.8305
 2851TIP3   OH229967   6.396   1.645   2.429  0.0230  0.1382 -0.3804
 2851TIP3    H129968   6.345   1.580   2.479  1.1421  0.2858  1.0124
 2851TIP3    H229969   6.487   1.617   2.438  0.5915  2.0710  0.6166
 2852TIP3   OH229970   5.014   2.457  13.092 -0.4707 -0.8579 -0.1852
 2852TIP3    H129971   4.955   2.518  13.136 -0.1164  0.1341 -1.0531
 2852TIP3    H229972   5.047   2.401  13.163 -0.9338 -0.1572  0.6054
 2853TIP3   OH229973   2.167   0.830   0.354  0.9258 -0.7279  0.0100
 2853TIP3    H129974   2.086   0.868   0.321  1.2992  1.4394  1.4243
 2853TIP3    H229975   2.187   0.759   0.292 -1.0951 -0.1952 -1.3490
 2854TIP3   OH229976   2.773   5.309  12.666  0.7716  0.4613 -0.4578
 2854TIP3    H129977   2.711   5.334  12.735  2.0445  2.7030 -0.0491
 2854TIP3    H229978   2.828   5.242  12.706  0.1278  0.1742 -0.0344
 2855TIP3   OH229979   4.977   1.712  14.040  0.1835 -0.0082 -0.1786
 2855TIP3    H129980   4.901   1.674  14.085 -0.9330  0.7402 -1.3587
 2855TIP3    H229981   5.037   1.737  14.111  0.0517 -2.0224  0.7225
 2856TIP3   OH229982   4.105   2.998   3.412  0.0220 -0.0196  0.3137
 2856TIP3    H129983   4.026   2.956   3.446  0.2650  1.3832  2.8144
 2856TIP3    H229984   4.084   3.091   3.411  0.9531  0.2017 -0.9962
 2857TIP3   OH229985   0.423   1.605  16.880 -0.2846 -0.5057  0.2256
 2857TIP3    H129986   0.398   1.515  16.898  1.8133 -1.2466 -0.3242
 2857TIP3    H229987   0.483   1.600  16.806  1.1546  1.1432  1.1717
 2858TIP3   OH229988   6.203   3.826   5.792  0.2076  0.2977  0.0527
 2858TIP3    H129989   6.138   3.872   5.739 -0.3220  0.5498  0.9005
 2858TIP3    H229990   6.153   3.758   5.837  0.4845  0.6371  0.8862
 2859TIP3   OH229991   2.592   4.880  10.741 -0.1637  0.3379  0.1517
 2859TIP3    H129992   2.522   4.837  10.792 -0.7476 -0.1994 -1.0683
 2859TIP3    H229993   2.593   4.970  10.774 -2.1083  0.6303 -0.4335
 2860TIP3   OH229994   1.905   3.353   5.091  0.0968 -0.2388  0.4365
 2860TIP3    H129995   1.875   3.295   5.162 -1.8030  0.9839  0.7165
 2860TIP3    H229996   1.853   3.326   5.015  1.6275 -1.0804 -0.3527
 2861TIP3   OH229997   6.554   6.772  13.256  0.7317 -0.2512  0.7036
 2861TIP3    H129998   6.587   6.683  13.242 -1.6455 -1.4050  1.8149
 2861TIP3    H229999   6.608   6.827  13.199  1.4769 -2.5607 -0.9885
 2862TIP3   OH230000   3.173   2.385  14.021 -0.0965 -0.2625 -0.3188
 2862TIP3    H130001   3.193   2.292  14.014 -1.7493 -0.6372 -0.4121
 2862TIP3    H230002   3.229   2.416  14.092  1.3748 -1.0290 -1.0843
 2863TIP3   OH230003   2.801   3.770   5.569  0.4091 -0.3055 -0.2086
 2863TIP3    H130004   2.799   3.835   5.499  0.4390  0.5301  0.5470
 2863TIP3    H230005   2.875   3.797   5.625 -1.8868  1.3561  2.2766
 2864TIP3   OH230006   2.492   4.914  11.162 -0.0229 -1.0105 -0.1839
 2864TIP3    H130007   2.431   4.977  11.124  1.7115  0.9537  0.1121
 2864TIP3    H230008   2.503   4.847  11.094  0.8560  0.9375 -2.0658
 2865TIP3   OH230009   0.635   0.587  15.415  1.3211 -0.3299 -0.1914
 2865TIP3    H130010   0.602   0.633  15.337  0.6178 -1.5199 -0.6144
 2865TIP3    H230011   0.624   0.651  15.486  0.5002  0.2152 -0.7875
 2866TIP3   OH230012   5.863   2.532   2.438 -0.4158 -0.7280 -0.1823
 2866TIP3    H130013   5.770   2.508   2.436 -0.6980  0.3093 -0.2390
 2866TIP3    H230014   5.864   2.619   2.476  0.2227  0.6167 -3.0201
 2867TIP3   OH230015   3.669   0.498   6.096  0.1841 -0.0745  0.3095
 2867TIP3    H130016   3.615   0.427   6.131 -1.4925  1.1348  0.2680
 2867TIP3    H230017   3.612   0.545   6.037  1.4955  0.8964 -0.2241
 2868TIP3   OH230018   1.121   6.024   2.391 -0.0894  0.4049 -0.0513
 2868TIP3    H130019   1.124   5.973   2.310 -0.6581 -2.1982  1.4484
 2868TIP3    H230020   1.166   5.969   2.455 -0.4224  1.9895  1.6054
 2869TIP3   OH230021   0.162   2.130   2.325 -0.3363 -0.3096  0.1629
 2869TIP3    H130022   0.176   2.066   2.255 -0.0328 -0.2181  0.1399
 2869TIP3    H230023   0.180   2.082   2.406  1.6547  0.2040  0.0716
 2870TIP3   OH230024   1.389   4.171  13.697  0.1096 -0.8091  0.5617
 2870TIP3    H130025   1.362   4.130  13.615  0.4417  1.2005 -0.6254
 2870TIP3    H230026   1.309   4.177  13.749 -1.1863  1.9974 -1.5290
 2871TIP3   OH230027   3.134   1.864  14.350 -0.4779 -0.0996  0.5127
 2871TIP3    H130028   3.210   1.820  14.389 -0.1343 -1.6467 -1.7017
 2871TIP3    H230029   3.105   1.927  14.416  3.0721  0.9756  1.2263
 2872TIP3   OH230030   2.385   1.252   2.715 -0.2318 -0.1096 -0.8016
 2872TIP3    H130031   2.397   1.332   2.665  0.0268 -0.1601 -0.8195
 2872TIP3    H230032   2.308   1.270   2.770 -0.9041 -0.2824 -1.6616
 2873TIP3   OH230033   0.484   3.172   3.114  0.5420 -0.3559 -0.0798
 2873TIP3    H130034   0.478   3.078   3.097  1.9649 -0.1662 -1.7877
 2873TIP3    H230035   0.434   3.184   3.195 -0.9732 -2.3330 -0.6404
 2874TIP3   OH230036   2.435   2.170   3.411  0.1543  0.0930  0.0680
 2874TIP3    H130037   2.409   2.121   3.489  1.7050  0.4677  0.8534
 2874TIP3    H230038   2.465   2.103   3.350 -0.1315 -0.1183  0.1549
 2875TIP3   OH230039   2.338   5.281   0.395 -0.0520  0.2265 -0.4428
 2875TIP3    H130040   2.377   5.200   0.428  1.9581  0.8815 -1.1093
 2875TIP3    H230041   2.244   5.267   0.406  0.1022 -2.7798 -1.8565
 2876TIP3   OH230042   5.770   6.744   4.818 -0.0317  0.1318  0.0350
 2876TIP3    H130043   5.789   6.776   4.906  1.6950  0.5602 -0.4572
 2876TIP3    H230044   5.825   6.797   4.761 -1.5097  0.2151 -1.3799
 2877TIP3   OH230045   5.064   4.866  15.397  0.3657 -0.2079 -0.0026
 2877TIP3    H130046   5.014   4.936  15.355  1.4764  1.3374  1.1396
 2877TIP3    H230047   5.025   4.785  15.363 -3.1392  0.8503  1.1192
 2878TIP3   OH230048   5.711   5.801   2.931 -0.0526 -0.0102 -0.1118
 2878TIP3    H130049   5.652   5.771   3.000  1.5655  0.2244  1.4629
 2878TIP3    H230050   5.742   5.721   2.888  0.7001 -0.3384  1.0045
 2879TIP3   OH230051   4.103   6.491  16.717  0.1291 -0.2354 -0.3213
 2879TIP3    H130052   4.134   6.470  16.806 -0.4258 -2.9604 -0.6742
 2879TIP3    H230053   4.167   6.450  16.659  0.8508  2.0845 -1.2618
 2880TIP3   OH230054   5.170   1.584   3.425  0.9000 -0.8003 -0.0412
 2880TIP3    H130055   5.081   1.550   3.434  0.9882 -0.9076  0.4521
 2880TIP3    H230056   5.180   1.600   3.331  0.3615 -0.7904 -0.1030
 2881TIP3   OH230057   2.810   5.781   3.453  0.6918  0.6209 -0.0620
 2881TIP3    H130058   2.874   5.711   3.465  2.0511  1.9059  0.4235
 2881TIP3    H230059   2.731   5.736   3.422  1.5335 -1.1066  0.1870
 2882TIP3   OH230060   2.876   3.957  12.237  0.5201 -0.0386 -0.0146
 2882TIP3    H130061   2.920   3.977  12.154 -0.4594 -2.4298 -1.2127
 2882TIP3    H230062   2.783   3.971  12.218 -0.1509 -4.1229 -0.6705
 2883TIP3   OH230063   0.673   0.531  14.259  0.2713  0.0077  0.2401
 2883TIP3    H130064   0.720   0.449  14.244 -1.2074 -0.8572  0.1524
 2883TIP3    H230065   0.646   0.526  14.351 -1.6442 -0.6154 -0.3261
 2884TIP3   OH230066   1.075   3.789  15.456 -0.2702 -0.0200 -0.6498
 2884TIP3    H130067   1.060   3.765  15.547  0.3631  0.9835 -0.2591
 2884TIP3    H230068   1.052   3.882  15.452 -2.2595 -0.5066 -2.0027
 2885TIP3   OH230069   5.732   1.056   5.252  0.1542  0.2041 -0.2938
 2885TIP3    H130070   5.637   1.065   5.264  0.1629 -0.5662  0.3842
 2885TIP3    H230071   5.770   1.120   5.313  0.1115 -1.1166  1.1593
 2886TIP3   OH230072   6.462   6.283   5.875 -0.0645  0.1201  0.0489
 2886TIP3    H130073   6.540   6.259   5.825  0.1896  1.0688 -0.0116
 2886TIP3    H230074   6.480   6.251   5.963  0.4420  0.4215  0.0600
 2887TIP3   OH230075   5.932   2.229   3.425 -0.1895  0.0325 -0.4748
 2887TIP3    H130076   5.883   2.162   3.472  0.8853 -1.2662 -1.1402
 2887TIP3    H230077   6.024   2.210   3.444  0.1391  2.3063  0.6033
 2888TIP3   OH230078   2.539   4.263  12.611  0.0942 -0.0284 -0.4387
 2888TIP3    H130079   2.468   4.200  12.624 -0.8893  1.2482  0.5325
 2888TIP3    H230080   2.585   4.266  12.695  0.1967  0.4694 -0.5079
 2889TIP3   OH230081   1.545   3.706  14.500  0.1957  0.7673  0.3666
 2889TIP3    H130082   1.504   3.733  14.583 -2.0536  1.9982 -1.0177
 2889TIP3    H230083   1.514   3.771  14.436  0.6962 -0.9152 -1.7134
 2890TIP3   OH230084   6.129   3.828   4.106  0.1729 -0.1243 -0.0501
 2890TIP3    H130085   6.102   3.866   4.022 -0.6478 -0.3180  0.1201
 2890TIP3    H230086   6.048   3.802   4.148  0.4378  1.3911  1.5018
 2891TIP3   OH230087   4.014   4.853  13.559  0.3860 -0.1325  0.0774
 2891TIP3    H130088   3.921   4.834  13.544  0.3524  0.7854 -1.0466
 2891TIP3    H230089   4.048   4.874  13.472  1.4330  0.4590  0.6140
 2892TIP3   OH230090   6.613   6.025  12.814 -0.2699  0.2840  0.1359
 2892TIP3    H130091   6.523   6.057  12.815 -0.4176 -0.1321  0.9230
 2892TIP3    H230092   6.655   6.068  12.889 -0.4656 -1.3135  1.1933
 2893TIP3   OH230093   2.418   2.239  11.897 -0.3663 -0.5203  0.5070
 2893TIP3    H130094   2.449   2.158  11.935  0.6360 -0.2963  0.2118
 2893TIP3    H230095   2.325   2.224  11.878 -0.4373 -1.2228  1.4008
 2894TIP3   OH230096   3.427   1.146  10.756 -0.7618  0.1656 -0.3327
 2894TIP3    H130097   3.351   1.101  10.792  0.0140 -0.7227  0.2115
 2894TIP3    H230098   3.398   1.173  10.668 -1.6551 -0.2894 -0.1947
 2895TIP3   OH230099   1.900   5.204   2.691  0.2202 -0.2973  0.7447
 2895TIP3    H130100   1.839   5.262   2.737 -0.3899 -0.5166  0.2329
 2895TIP3    H230101   1.862   5.117   2.700  1.4390 -0.7247  2.0093
 2896TIP3   OH230102   2.301   6.310  11.166  0.4423  0.1363  0.3241
 2896TIP3    H130103   2.341   6.316  11.079  1.7069  0.1036  0.8779
 2896TIP3    H230104   2.296   6.401  11.195 -0.5403  0.2029 -0.0019
 2897TIP3   OH230105   3.410   6.111   3.946  0.3466 -0.3140 -0.5856
 2897TIP3    H130106   3.351   6.146   4.013  0.1550  0.4872 -1.1675
 2897TIP3    H230107   3.494   6.102   3.991  1.1235  3.3403 -1.0210
 2898TIP3   OH230108   3.543   1.789   0.678 -0.1847  0.0749  0.7414
 2898TIP3    H130109   3.536   1.746   0.592 -1.7130 -1.2219  1.4513
 2898TIP3    H230110   3.558   1.717   0.739  1.3412  1.0363  1.5419
 2899TIP3   OH230111   4.076   3.785   0.841 -0.4631  0.2975  0.8327
 2899TIP3    H130112   4.090   3.763   0.749  0.2267  2.6556  0.2885
 2899TIP3    H230113   4.105   3.876   0.848  0.4009 -0.0834  3.6015
 2900TIP3   OH230114   5.751   1.020  14.389 -0.3867 -0.4151 -0.0608
 2900TIP3    H130115   5.834   1.067  14.380 -1.2978  1.6837  1.5723
 2900TIP3    H230116   5.769   0.951  14.452  0.4418 -0.9122 -0.8170
 2901TIP3   OH230117   2.290   1.671   4.111 -0.0250  0.4662 -1.1291
 2901TIP3    H130118   2.230   1.602   4.138 -0.3853  1.4651  0.7616
 2901TIP3    H230119   2.332   1.637   4.032  1.2579 -2.7814  0.7463
 2902TIP3   OH230120   1.258   6.257   5.377 -0.0626 -0.0164 -0.4299
 2902TIP3    H130121   1.317   6.325   5.410 -2.6837  1.1908  2.3407
 2902TIP3    H230122   1.315   6.194   5.334  3.1938  1.1747  1.7146
 2903TIP3   OH230123   6.148   2.069  11.878 -0.5588 -0.2461 -0.1549
 2903TIP3    H130124   6.221   2.120  11.913  0.9186 -0.3886 -2.7552
 2903TIP3    H230125   6.184   1.981  11.865 -1.8310 -0.8797  0.4253
 2904TIP3   OH230126   6.648   4.521   1.360 -0.2081  0.5638 -0.2312
 2904TIP3    H130127   6.735   4.554   1.382 -0.4444  0.4433  0.9930
 2904TIP3    H230128   6.593   4.599   1.354  0.0430  0.6665 -1.3555
 2905TIP3   OH230129   2.629   6.775   3.922  0.2595 -0.0191 -0.9359
 2905TIP3    H130130   2.655   6.692   3.961  1.2917 -0.2607 -2.0708
 2905TIP3    H230131   2.706   6.831   3.931 -0.6701  1.1091  0.5042
 2906TIP3   OH230132   1.950   2.791   0.061 -0.3913  0.1559 -0.1644
 2906TIP3    H130133   1.958   2.877   0.019 -1.8128 -0.5679 -2.0830
 2906TIP3    H230134   1.863   2.792   0.102  0.7176  0.6046  2.3628
 2907TIP3   OH230135   4.448   3.385   2.943  0.3162 -0.2766  0.0500
 2907TIP3    H130136   4.540   3.380   2.969 -0.5039 -0.2867  3.4333
 2907TIP3    H230137   4.443   3.462   2.886  2.1499  0.7342  1.1723
 2908TIP3   OH230138   0.519   5.169   4.813 -0.4368  1.0343 -0.0028
 2908TIP3    H130139   0.537   5.217   4.894 -1.0073  0.1216  0.6913
 2908TIP3    H230140   0.533   5.233   4.743  1.4713  1.4600  0.7079
 2909TIP3   OH230141   0.946   1.734   2.641  0.3215 -0.3276  0.3397
 2909TIP3    H130142   1.007   1.672   2.681  2.1488  2.0835  1.6226
 2909TIP3    H230143   0.992   1.764   2.562 -0.1642 -0.0476  0.1623
 2910TIP3   OH230144   5.273   6.454  15.499 -0.0323 -0.2427 -0.0593
 2910TIP3    H130145   5.248   6.389  15.434  0.8015 -0.3932 -0.2400
 2910TIP3    H230146   5.342   6.413  15.550 -0.9303 -0.2707  1.1924
 2911TIP3   OH230147   0.155   0.542   0.586 -0.3727  0.1661  0.1537
 2911TIP3    H130148   0.137   0.455   0.620  0.3728 -0.0960 -0.1039
 2911TIP3    H230149   0.154   0.599   0.663  0.3028 -0.2613  0.4938
 2912TIP3   OH230150   1.089   0.229   6.333 -0.8481  0.3634  0.5153
 2912TIP3    H130151   1.157   0.195   6.391  0.0952  0.4561 -0.5192
 2912TIP3    H230152   1.025   0.158   6.327  0.0906 -0.4503  0.0095
 2913TIP3   OH230153   5.397   0.823  14.336  0.3744  0.1025 -0.1507
 2913TIP3    H130154   5.343   0.846  14.260 -0.7291 -3.2086 -0.5786
 2913TIP3    H230155   5.486   0.818  14.302  0.3401  1.5453 -0.4767
 2914TIP3   OH230156   0.437   3.255  16.208 -0.1512 -0.1670 -0.9042
 2914TIP3    H130157   0.467   3.168  16.181 -0.3861 -1.2931  2.0112
 2914TIP3    H230158   0.476   3.267  16.295 -1.1896  2.0918 -0.6998
 2915TIP3   OH230159   4.362   3.363  12.450 -0.0311 -0.3324  0.1282
 2915TIP3    H130160   4.295   3.310  12.495  1.0972 -0.3469  1.8834
 2915TIP3    H230161   4.398   3.305  12.384 -0.7024 -0.8365  0.1943
 2916TIP3   OH230162   0.902   1.963  10.978  0.5345  0.1643  0.0379
 2916TIP3    H130163   0.830   1.920  10.932 -1.8365  2.8114  0.9186
 2916TIP3    H230164   0.903   2.052  10.942  1.9396  0.8113  1.5533
 2917TIP3   OH230165   5.214   6.368   1.587  0.5604 -0.0500 -0.1839
 2917TIP3    H130166   5.263   6.287   1.600 -0.7666 -0.5570  2.1704
 2917TIP3    H230167   5.214   6.410   1.672 -1.5215  0.8280 -0.5622
 2918TIP3   OH230168   2.052   5.730   3.432 -0.1350 -0.6433 -0.0078
 2918TIP3    H130169   1.969   5.702   3.472 -0.0315 -1.1414 -0.1298
 2918TIP3    H230170   2.086   5.797   3.492 -1.2379  0.4976 -0.6141
 2919TIP3   OH230171   0.018   1.699  13.670  0.3832  0.0016  0.0679
 2919TIP3    H130172   0.025   1.613  13.713  1.3389 -1.3414 -2.5665
 2919TIP3    H230173  -0.072   1.703  13.640 -0.0555  0.5879  1.3724
 2920TIP3   OH230174   0.110   2.512  11.676  0.1324  0.5125 -0.3393
 2920TIP3    H130175   0.177   2.541  11.614  0.7480  0.2804  0.2133
 2920TIP3    H230176   0.031   2.557  11.647 -0.7616 -2.8475 -4.0517
 2921TIP3   OH230177   0.201   4.516  15.142  0.3730 -0.3597 -0.0562
 2921TIP3    H130178   0.271   4.452  15.155  1.8444  1.2797  0.5804
 2921TIP3    H230179   0.154   4.485  15.065  2.4635 -0.9928 -1.1551
 2922TIP3   OH230180   3.617   4.724  15.795 -0.1571  0.2907  0.1208
 2922TIP3    H130181   3.654   4.790  15.853 -0.6930  1.1617 -0.5053
 2922TIP3    H230182   3.544   4.768  15.751  0.0301 -0.4418 -0.9703
 2923TIP3   OH230183   3.109   5.467  12.368 -0.1950  0.3191  0.0062
 2923TIP3    H130184   3.110   5.563  12.374  1.4475  0.3231  0.2207
 2923TIP3    H230185   3.175   5.439  12.431 -0.5259 -0.9584 -0.1905
 2924TIP3   OH230186   0.861   5.684  14.798  0.5159  0.4468 -0.5323
 2924TIP3    H130187   0.860   5.615  14.865  0.0480 -0.0410 -1.0275
 2924TIP3    H230188   0.822   5.643  14.721 -1.6353  1.8550 -0.2653
 2925TIP3   OH230189   4.831   4.799   4.909 -0.1986 -0.1558  0.1137
 2925TIP3    H130190   4.901   4.818   4.971  1.0945 -0.6150 -1.1287
 2925TIP3    H230191   4.752   4.793   4.962  0.1244  3.3725  1.2188
 2926TIP3   OH230192   0.439   6.296  14.310 -0.2039 -0.0239 -0.2425
 2926TIP3    H130193   0.437   6.391  14.319  0.3896 -0.0731  0.5883
 2926TIP3    H230194   0.489   6.280  14.230 -0.4531  0.3676 -0.4762
 2927TIP3   OH230195   4.046   6.120   3.727 -0.3607  0.4437 -0.4378
 2927TIP3    H130196   3.964   6.162   3.753  0.6179  1.7618  0.7261
 2927TIP3    H230197   4.094   6.189   3.680  1.1725  0.6090  1.2659
 2928TIP3   OH230198   5.823   6.477   1.302 -0.8816  0.2071  0.1593
 2928TIP3    H130199   5.774   6.409   1.347  0.1840 -0.6739  0.0251
 2928TIP3    H230200   5.895   6.499   1.362 -1.5945  1.7081  0.4994
 2929TIP3   OH230201   1.843   5.194  12.847  0.4205  0.5497  0.4843
 2929TIP3    H130202   1.900   5.124  12.816  0.4218  0.1003  1.4580
 2929TIP3    H230203   1.754   5.164  12.828  0.2405 -1.0140  3.2919
 2930TIP3   OH230204   4.463   4.286  12.174 -0.5480  0.2802 -0.3169
 2930TIP3    H130205   4.440   4.193  12.168 -0.1964  0.1684  0.0463
 2930TIP3    H230206   4.459   4.307  12.267  0.5094  0.3261 -0.2622
 2931TIP3   OH230207   0.354   4.174  16.095 -0.2410 -0.4801 -0.2667
 2931TIP3    H130208   0.351   4.264  16.128  1.7189 -0.5449  0.2152
 2931TIP3    H230209   0.406   4.180  16.014  0.6979 -1.2716  0.2461
 2932TIP3   OH230210   4.471   1.897   2.560  0.2335  0.4459  0.6026
 2932TIP3    H130211   4.469   1.984   2.601 -1.1452  0.1972  1.1280
 2932TIP3    H230212   4.412   1.904   2.485  1.8833  0.5786 -0.7210
 2933TIP3   OH230213   0.797   4.239  17.102 -0.1785 -0.3160  0.2069
 2933TIP3    H130214   0.803   4.231  17.007  1.1184 -1.2479  0.3268
 2933TIP3    H230215   0.885   4.215  17.133 -0.8386 -0.9605  1.6781
 2934TIP3   OH230216   0.887   4.914   0.998 -0.1652  0.3992 -0.1274
 2934TIP3    H130217   0.834   4.972   0.943 -0.8641 -0.1295 -0.0278
 2934TIP3    H230218   0.977   4.943   0.984 -0.5182  1.7660  0.2140
 2935TIP3   OH230219   2.818   5.807   4.087  0.3093 -0.0659 -0.3243
 2935TIP3    H130220   2.793   5.858   4.164  0.2387 -1.6099  0.7220
 2935TIP3    H230221   2.841   5.873   4.021 -0.9458  1.3299  0.5459
 2936TIP3   OH230222   2.340   2.920  16.349 -0.1395  0.2414  0.1703
 2936TIP3    H130223   2.385   2.941  16.267 -0.0410 -0.4730  0.0315
 2936TIP3    H230224   2.409   2.924  16.415 -0.6467  3.1612  0.6398
 2937TIP3   OH230225   6.195   1.839   2.994  0.1107  0.0135 -0.4088
 2937TIP3    H130226   6.124   1.782   2.961  0.4544 -1.5808  1.4355
 2937TIP3    H230227   6.182   1.840   3.089  2.1815  0.2315 -0.1002
 2938TIP3   OH230228   0.940   4.162   0.652 -0.1058  0.6344 -0.8479
 2938TIP3    H130229   0.899   4.113   0.581 -0.0301 -0.6907 -0.0105
 2938TIP3    H230230   0.867   4.183   0.711  0.0979  0.0992 -0.3996
 2939TIP3   OH230231   6.183   5.342   3.297 -0.5178 -0.2467 -0.4312
 2939TIP3    H130232   6.150   5.339   3.208 -0.5168 -0.3567 -0.4276
 2939TIP3    H230233   6.259   5.284   3.297 -0.0831  0.3071 -0.5401
 2940TIP3   OH230234   3.749   1.329  16.323 -0.1893  0.1447 -0.2010
 2940TIP3    H130235   3.692   1.340  16.399 -0.3642 -1.0311 -0.1473
 2940TIP3    H230236   3.736   1.408  16.271 -1.2691  0.2431  0.2039
 2941TIP3   OH230237   3.290   1.297  12.282 -0.4505 -0.5378 -0.1077
 2941TIP3    H130238   3.219   1.233  12.290 -0.5612 -0.4237 -0.1710
 2941TIP3    H230239   3.278   1.355  12.357  0.1019 -1.0354  0.3733
 2942TIP3   OH230240   4.954   5.214   2.705  0.5102 -0.3272 -0.3279
 2942TIP3    H130241   4.943   5.303   2.671  1.0126 -0.4659 -0.8703
 2942TIP3    H230242   5.048   5.201   2.708  0.4738 -0.4152  0.9076
 2943TIP3   OH230243   2.032   1.211  16.866  0.4708  0.2765  0.3476
 2943TIP3    H130244   2.065   1.214  16.776 -0.2436  0.2210  0.0807
 2943TIP3    H230245   2.094   1.155  16.912  0.2533 -0.5575 -0.3531
 2944TIP3   OH230246   0.971   1.579   0.923 -0.2051 -0.2163 -0.2284
 2944TIP3    H130247   0.906   1.596   0.991 -0.6343 -0.2051 -0.6406
 2944TIP3    H230248   0.966   1.485   0.908  0.0458 -0.2523 -0.0882
 2945TIP3   OH230249   3.166   0.649  13.185 -0.1748  0.2072 -0.5249
 2945TIP3    H130250   3.117   0.657  13.267 -0.5864 -0.3514 -0.7070
 2945TIP3    H230251   3.128   0.572  13.142  0.4578  0.1218 -0.9511
 2946TIP3   OH230252   1.070   5.652  15.367  0.3614 -0.3964  0.7560
 2946TIP3    H130253   1.048   5.732  15.414  0.5780  0.6057 -0.7834
 2946TIP3    H230254   0.989   5.600  15.367 -0.0993  0.3115  0.8354
 2947TIP3   OH230255   4.437   6.053  12.568  0.1612 -0.0613  0.1032
 2947TIP3    H130256   4.407   5.989  12.631 -1.9267  0.6668 -0.0852
 2947TIP3    H230257   4.529   6.068  12.590  0.0034 -1.2694  1.6868
 2948TIP3   OH230258   2.403   0.155   2.263  0.2006  0.6019  0.0590
 2948TIP3    H130259   2.495   0.166   2.240  0.0484 -0.5780 -1.1999
 2948TIP3    H230260   2.368   0.095   2.197 -2.1500  3.1416 -1.2045
 2949TIP3   OH230261   0.926   2.817   2.674 -0.0844 -0.1961  0.3981
 2949TIP3    H130262   0.902   2.728   2.649 -2.6720  0.7513 -0.9540
 2949TIP3    H230263   0.977   2.849   2.600 -0.6639 -0.0199  0.0676
 2950TIP3   OH230264   0.054   1.704  14.087 -0.4194 -0.0791  0.4606
 2950TIP3    H130265   0.049   1.740  14.175 -0.2515 -0.3492  0.5827
 2950TIP3    H230266   0.126   1.752  14.045 -2.0456  1.7939 -0.3601
 2951TIP3   OH230267   2.332   6.443  13.486  0.5730  0.3529 -0.1322
 2951TIP3    H130268   2.304   6.511  13.425 -2.1616  1.7323  2.3545
 2951TIP3    H230269   2.301   6.362  13.448  0.0039  1.0238 -1.1439
 2952TIP3   OH230270   1.295   4.804   1.708 -0.2889 -0.0111  0.5161
 2952TIP3    H130271   1.352   4.785   1.634 -0.0119  2.8938 -0.1575
 2952TIP3    H230272   1.213   4.758   1.688  0.0930 -0.0255 -1.1496
 2953TIP3   OH230273   2.910   3.409  17.103 -0.5981  0.1905 -0.2644
 2953TIP3    H130274   2.897   3.466  17.028  0.7233 -0.9788 -1.4215
 2953TIP3    H230275   2.823   3.373  17.120 -0.6792 -0.6307 -2.1730
 2954TIP3   OH230276   3.717   6.528   2.971  0.2183 -0.0025  0.1163
 2954TIP3    H130277   3.650   6.575   2.923 -1.8016 -1.8580  0.9499
 2954TIP3    H230278   3.796   6.582   2.961 -1.0276  1.6045 -1.9898
 2955TIP3   OH230279   3.470   0.169  15.552  0.1482 -0.4383 -0.1744
 2955TIP3    H130280   3.551   0.157  15.603  1.4891  1.1130 -1.7911
 2955TIP3    H230281   3.412   0.218  15.611  0.0346 -2.2462  1.2911
 2956TIP3   OH230282   0.565   5.821  17.276 -0.4412  0.0067 -0.4616
 2956TIP3    H130283   0.530   5.783  17.357 -1.2843  1.2575 -0.2133
 2956TIP3    H230284   0.640   5.766  17.254 -0.4147 -0.5607  0.9672
 2957TIP3   OH230285   0.226   3.052   4.125  0.1211 -0.0996 -0.8389
 2957TIP3    H130286   0.185   3.056   4.039  0.0488  0.9847 -0.7664
 2957TIP3    H230287   0.319   3.070   4.108  0.4194 -1.4931 -0.8698
 2958TIP3   OH230288   1.316   2.378   4.888  0.4680  0.3563  0.0022
 2958TIP3    H130289   1.271   2.448   4.841 -0.2161  0.3778  0.6807
 2958TIP3    H230290   1.386   2.423   4.936 -0.3804  0.6885  0.9658
 2959TIP3   OH230291   3.449   4.216  10.797 -0.4304 -0.0000 -0.2983
 2959TIP3    H130292   3.483   4.288  10.745  0.4913 -0.7379 -0.7372
 2959TIP3    H230293   3.379   4.256  10.850 -1.1673  0.8270 -1.8242
 2960TIP3   OH230294   1.585   5.184   3.086  0.4863  0.4477 -0.0584
 2960TIP3    H130295   1.552   5.100   3.118  0.0278  0.6509  0.0225
 2960TIP3    H230296   1.592   5.239   3.165  0.9849  0.4218 -0.0815
 2961TIP3   OH230297   4.717   3.230   0.964 -0.2617 -0.0466 -0.2845
 2961TIP3    H130298   4.669   3.194   0.889  1.3514  0.6231 -1.7037
 2961TIP3    H230299   4.674   3.314   0.982 -0.8472 -0.3474 -0.2553
 2962TIP3   OH230300   2.614   0.682  13.642 -0.2978  0.2635  0.0126
 2962TIP3    H130301   2.619   0.775  13.622  0.6643  0.2754  0.2707
 2962TIP3    H230302   2.609   0.639  13.556  1.0568  0.4665 -0.1922
 2963TIP3   OH230303   1.845   6.090  16.648 -0.3320  0.3919 -0.5248
 2963TIP3    H130304   1.782   6.116  16.716 -0.4840  0.8053 -0.8143
 2963TIP3    H230305   1.833   6.156  16.579  0.2102  0.2973 -0.7109
 2964TIP3   OH230306   5.683   3.572   3.562  0.3421  0.1487  0.0896
 2964TIP3    H130307   5.620   3.554   3.491  0.1929 -1.3855  0.5805
 2964TIP3    H230308   5.668   3.502   3.626  3.7934 -1.4628 -0.6177
 2965TIP3   OH230309   0.406   5.004  12.478 -0.0249  0.2169 -0.0756
 2965TIP3    H130310   0.435   5.024  12.389 -1.2666 -3.3448 -1.4375
 2965TIP3    H230311   0.324   5.052  12.488 -0.2016  0.1347 -1.0743
 2966TIP3   OH230312   2.969   1.433   1.594  0.4838  0.2169  0.1794
 2966TIP3    H130313   3.053   1.457   1.557  0.4753  1.4623  0.8915
 2966TIP3    H230314   2.922   1.390   1.523  1.0343  1.1683 -0.7896
 2967TIP3   OH230315   6.521   5.608  16.109 -0.4628  0.2109  0.6911
 2967TIP3    H130316   6.435   5.614  16.150 -0.1438 -0.7903  1.5474
 2967TIP3    H230317   6.572   5.553  16.168  1.6315  2.9493  1.6286
 2968TIP3   OH230318   0.829   0.199  15.539 -0.6744  0.0708 -0.2552
 2968TIP3    H130319   0.859   0.214  15.628 -0.9759  0.2376 -0.1797
 2968TIP3    H230320   0.807   0.106  15.536  2.0610 -0.6472 -0.9794
 2969TIP3   OH230321   0.965   1.626  10.977 -0.3125 -0.3677  0.2267
 2969TIP3    H130322   0.906   1.551  10.971 -0.8243  0.0976 -0.7638
 2969TIP3    H230323   0.944   1.667  11.061 -1.1868 -0.3909  0.0277
 2970TIP3   OH230324   1.455   0.303  14.693  0.1321  0.8376  0.2269
 2970TIP3    H130325   1.521   0.260  14.639 -1.7903 -0.4755 -1.2266
 2970TIP3    H230326   1.505   0.358  14.754  2.6868 -2.0784  0.9991
 2971TIP3   OH230327   2.107   6.574   0.553  0.4484  0.2758  0.3163
 2971TIP3    H130328   2.180   6.632   0.572 -0.5172  1.5620  0.2910
 2971TIP3    H230329   2.067   6.557   0.638  0.1407  0.4914  0.2198
 2972TIP3   OH230330   3.166   3.198   4.437  0.4950 -0.0829 -0.0213
 2972TIP3    H130331   3.229   3.226   4.504  0.2975  1.3188 -0.3973
 2972TIP3    H230332   3.180   3.258   4.364 -1.0780  0.0799 -0.2288
 2973TIP3   OH230333   1.986   5.326   5.808  0.6240 -0.2529  0.3276
 2973TIP3    H130334   2.068   5.374   5.821  0.3022  0.1443  0.9571
 2973TIP3    H230335   1.923   5.393   5.782  0.6398 -0.6584 -0.8264
 2974TIP3   OH230336   4.140   4.814  14.605 -0.2510  0.2907 -0.3662
 2974TIP3    H130337   4.062   4.793  14.553 -0.5243  0.5148 -0.0494
 2974TIP3    H230338   4.213   4.779  14.553 -0.4631  1.0219 -1.1913
 2975TIP3   OH230339   0.221   0.653  16.776  0.7475 -0.5383 -0.1355
 2975TIP3    H130340   0.166   0.730  16.763 -0.6212 -1.1255  1.6751
 2975TIP3    H230341   0.281   0.678  16.846  0.9720 -0.8058 -0.2319
 2976TIP3   OH230342   2.462   5.806  14.437 -0.2525 -0.0836 -0.2335
 2976TIP3    H130343   2.470   5.713  14.420 -0.2841 -0.0218 -0.5750
 2976TIP3    H230344   2.382   5.814  14.490  1.3499 -0.6079  2.4977
 2977TIP3   OH230345   0.408   2.834   3.875  0.1087 -0.7377  0.1250
 2977TIP3    H130346   0.338   2.900   3.867  2.2823  1.7081 -0.1886
 2977TIP3    H230347   0.414   2.816   3.969 -0.9924 -1.0831  0.1426
 2978TIP3   OH230348   5.547   5.172   4.534  0.6007 -0.1381  0.1554
 2978TIP3    H130349   5.529   5.266   4.530  0.3150 -0.0789  2.0364
 2978TIP3    H230350   5.487   5.133   4.470 -0.3003  0.8331  0.3897
 2979TIP3   OH230351   0.771   5.399  14.742 -0.5498  0.0036 -0.0287
 2979TIP3    H130352   0.774   5.312  14.701 -1.9725  0.3453 -0.9417
 2979TIP3    H230353   0.681   5.407  14.775 -0.2359  0.8618  0.6636
 2980TIP3   OH230354   5.535   4.556   3.742 -0.2524  0.2247 -0.6486
 2980TIP3    H130355   5.562   4.480   3.793  1.1634 -2.1301 -4.4305
 2980TIP3    H230356   5.452   4.530   3.702  0.3503  0.4997 -2.1522
 2981TIP3   OH230357   5.467   3.811   1.670  0.2322 -0.5442  0.0306
 2981TIP3    H130358   5.374   3.831   1.659  0.6003  0.7928 -0.8229
 2981TIP3    H230359   5.474   3.779   1.760 -1.2313 -1.8015 -0.2537
 2982TIP3   OH230360   1.401   3.988  14.038  0.1881 -0.3870  0.7609
 2982TIP3    H130361   1.314   3.957  14.012 -0.4483 -0.9801  3.3825
 2982TIP3    H230362   1.387   4.076  14.071  0.6642 -0.3123  0.7737
 2983TIP3   OH230363   0.081   2.417  12.427 -0.0253  0.2059  0.3771
 2983TIP3    H130364   0.091   2.322  12.420  0.8235  0.2539  0.7216
 2983TIP3    H230365   0.158   2.445  12.477 -0.8102  0.9593  1.1898
 2984TIP3   OH230366   2.164   0.434   0.429 -0.5364 -0.0560 -0.1481
 2984TIP3    H130367   2.099   0.483   0.379 -0.4982 -0.9141 -1.0762
 2984TIP3    H230368   2.194   0.366   0.368  1.8944  0.8586 -0.1138
 2985TIP3   OH230369   5.723   5.061  16.677  0.0962 -0.3824  0.2856
 2985TIP3    H130370   5.743   5.124  16.607 -1.4504  0.8978  0.9454
 2985TIP3    H230371   5.704   5.115  16.753 -3.1231 -1.5099  0.4112
 2986TIP3   OH230372   6.311   4.323   1.087  0.4209 -0.0768 -0.2771
 2986TIP3    H130373   6.268   4.335   1.171  0.2730 -0.1040 -0.3474
 2986TIP3    H230374   6.317   4.411   1.050 -1.9973 -0.3104 -1.4410
 2987TIP3   OH230375   2.466   3.892  14.846  0.4634 -0.3239 -0.6894
 2987TIP3    H130376   2.509   3.964  14.891 -1.3530  0.0799  0.4779
 2987TIP3    H230377   2.458   3.823  14.912  0.8963 -1.0748 -1.3941
 2988TIP3   OH230378   3.924   6.401  12.226 -0.1826 -0.1888  0.7434
 2988TIP3    H130379   3.892   6.311  12.214  0.3623 -0.4727  1.3674
 2988TIP3    H230380   3.845   6.452  12.244 -0.5770 -0.4107 -0.2860
 2989TIP3   OH230381   2.703   4.190   5.636  0.2420 -0.5184 -0.4502
 2989TIP3    H130382   2.797   4.199   5.621  0.6249 -2.2094  0.7162
 2989TIP3    H230383   2.662   4.239   5.564  1.9973  0.2126 -0.9893
 2990TIP3   OH230384   0.460   3.201   3.594 -0.0166 -0.4582 -0.1183
 2990TIP3    H130385   0.514   3.226   3.519 -0.1608  2.1129  0.5139
 2990TIP3    H230386   0.441   3.108   3.582 -0.4686 -0.0243 -3.5407
 2991TIP3   OH230387   0.382   5.907  16.579  0.0076 -0.3054  0.0967
 2991TIP3    H130388   0.379   5.982  16.639  1.8705  1.0855 -1.3938
 2991TIP3    H230389   0.327   5.841  16.620 -1.5858  1.7990  1.5884
 2992TIP3   OH230390   1.530   5.668   2.198 -0.7350 -0.0003 -0.3798
 2992TIP3    H130391   1.605   5.609   2.208 -0.7200  0.0630 -0.0956
 2992TIP3    H230392   1.458   5.622   2.242 -0.4297  0.7265  0.9246
 2993TIP3   OH230393   2.105   6.562  11.152  0.2324 -0.0868 -0.3261
 2993TIP3    H130394   2.114   6.579  11.245  2.4498 -1.2786 -0.2636
 2993TIP3    H230395   2.191   6.580  11.115 -0.4991  0.0112 -2.0960
 2994TIP3   OH230396   2.031   0.419   3.822 -0.8178  0.3521 -0.4847
 2994TIP3    H130397   2.087   0.389   3.894  1.4168  0.0572 -2.2296
 2994TIP3    H230398   1.968   0.348   3.810  1.5885 -1.7751 -1.6090
 2995TIP3   OH230399   3.960   4.706  14.067  0.3965 -0.2930  0.1319
 2995TIP3    H130400   3.955   4.682  13.974  1.4082 -0.0879  0.0144
 2995TIP3    H230401   4.041   4.667  14.098  0.0540 -0.3800  0.9495
 2996TIP3   OH230402   0.479   5.235  14.103 -0.1366 -0.0429 -0.3266
 2996TIP3    H130403   0.483   5.144  14.133  0.1780 -0.0812 -0.4818
 2996TIP3    H230404   0.457   5.230  14.010 -1.7067  0.0987  0.0174
 2997TIP3   OH230405   3.492   6.586   3.844 -0.3751 -0.4154  0.5676
 2997TIP3    H130406   3.528   6.583   3.933 -1.0006 -0.9946  0.8139
 2997TIP3    H230407   3.419   6.523   3.846 -1.3001  0.6063  0.0466
 2998TIP3   OH230408   2.583   5.721  13.085 -0.3526  0.2984 -0.3162
 2998TIP3    H130409   2.622   5.734  12.998  1.4766  2.4095  0.7268
 2998TIP3    H230410   2.575   5.809  13.121  2.0817 -0.6455  2.9468
 2999TIP3   OH230411   5.533   4.469   2.026  0.3618  0.1585 -0.2172
 2999TIP3    H130412   5.583   4.496   2.103  0.0108 -1.4344  0.6324
 2999TIP3    H230413   5.454   4.428   2.063 -0.3499  0.3597 -1.4655
 3000TIP3   OH230414   6.501   4.069  13.650  0.7153 -0.2196 -0.2682
 3000TIP3    H130415   6.490   4.001  13.583  2.2127 -1.0631  0.2942
 3000TIP3    H230416   6.593   4.096  13.642  0.0658  2.1049 -0.7830
 3001TIP3   OH230417   5.078   3.418   1.253 -0.0145  0.3398  0.4172
 3001TIP3    H130418   5.159   3.404   1.204 -1.4759 -0.0244 -2.0429
 3001TIP3    H230419   5.087   3.506   1.290  1.2742  0.5025 -0.2397
 3002TIP3   OH230420   0.790   2.869  16.364  0.7382  0.0542  0.5693
 3002TIP3    H130421   0.805   2.894  16.273  1.2867  0.0965  0.6664
 3002TIP3    H230422   0.838   2.787  16.374  0.4970 -0.0638  0.7640
 3003TIP3   OH230423   2.114   0.917   6.247  0.3324 -0.4830  0.0288
 3003TIP3    H130424   2.048   0.969   6.293  1.9677  3.5131 -1.6842
 3003TIP3    H230425   2.185   0.907   6.310 -0.4510 -1.7523  0.7434
 3004TIP3   OH230426   4.637   5.935  14.222  0.4337 -0.4567  0.2708
 3004TIP3    H130427   4.632   5.846  14.255  0.7951 -0.6937 -0.3055
 3004TIP3    H230428   4.588   5.987  14.285 -0.8347 -1.2402 -0.0368
 3005TIP3   OH230429   5.149   0.535  14.813  0.3822 -0.4917  0.1246
 3005TIP3    H130430   5.174   0.451  14.775 -1.1302 -0.2503 -1.5330
 3005TIP3    H230431   5.193   0.600  14.756  1.4674 -0.1215  1.3342
 3006TIP3   OH230432   0.364   3.825   0.509 -0.2441  1.0918 -0.3599
 3006TIP3    H130433   0.287   3.785   0.549  0.2786  0.5704  0.1382
 3006TIP3    H230434   0.369   3.786   0.422  1.1670 -1.1936  0.6669
 3007TIP3   OH230435   4.874   4.794  14.667  0.3807 -0.0548  0.8249
 3007TIP3    H130436   4.791   4.746  14.672  1.1320 -1.4466  0.4158
 3007TIP3    H230437   4.877   4.845  14.748 -0.1286 -1.2708  1.6430
 3008TIP3   OH230438   1.805   5.269   0.213  0.7117  0.7829  0.2772
 3008TIP3    H130439   1.776   5.344   0.160 -0.1318  0.2736  0.0032
 3008TIP3    H230440   1.749   5.271   0.291 -0.4880 -0.5199 -0.5060
 3009TIP3   OH230441   5.126   4.961  13.745 -0.4871 -0.4121 -0.0327
 3009TIP3    H130442   5.205   4.908  13.736  1.0345  1.1788  2.5108
 3009TIP3    H230443   5.077   4.919  13.816  0.1710  0.7937  1.2070
 3010TIP3   OH230444   3.960   1.073  14.615 -0.1690  0.2331  0.0217
 3010TIP3    H130445   3.917   0.999  14.658  2.1515  0.1302  2.4435
 3010TIP3    H230446   4.012   1.034  14.545  1.4106 -0.6050  1.5785
 3011TIP3   OH230447   1.711   6.614  12.194  0.2759 -0.3962  0.2054
 3011TIP3    H130448   1.650   6.590  12.264  1.5693 -0.1785  1.4685
 3011TIP3    H230449   1.776   6.544  12.194  1.0513  0.3041  0.1765
 3012TIP3   OH230450   6.443   3.426  16.962 -0.0359 -0.5474  0.3167
 3012TIP3    H130451   6.484   3.397  17.044  1.5435  0.9040  0.1024
 3012TIP3    H230452   6.423   3.346  16.915  0.3961 -1.3666  1.4783
 3013TIP3   OH230453   6.367   3.564  11.372 -0.4328  0.2436  0.5586
 3013TIP3    H130454   6.445   3.560  11.317 -0.2639 -1.4497  0.8876
 3013TIP3    H230455   6.399   3.555  11.461 -0.9954 -0.7090  0.6836
 3014TIP3   OH230456   3.200   6.145   4.961  0.3297 -0.3451 -0.0413
 3014TIP3    H130457   3.143   6.097   4.902 -2.6451 -1.3733  3.3057
 3014TIP3    H230458   3.149   6.220   4.990  1.3197 -0.3128  1.7897
 3015TIP3   OH230459   4.268   1.853   0.299 -0.2731 -0.2533 -0.4745
 3015TIP3    H130460   4.279   1.768   0.255  0.4954 -0.2011 -0.3945
 3015TIP3    H230461   4.298   1.837   0.388 -0.2672  0.0702 -0.4202
 3016TIP3   OH230462   1.281   6.647  13.260  0.5972  0.0536  1.1356
 3016TIP3    H130463   1.207   6.680  13.210 -0.3667 -1.1663  1.6886
 3016TIP3    H230464   1.358   6.678  13.213 -0.2653  0.7175  0.1165
 3017TIP3   OH230465   1.133   5.402  12.575 -0.0278 -0.3771  0.5400
 3017TIP3    H130466   1.158   5.371  12.661  0.6451 -1.0445  0.1162
 3017TIP3    H230467   1.135   5.498  12.582  1.9319 -0.3978  0.7515
 3018TIP3   OH230468   0.981   5.765  11.634  0.0971  0.1667 -0.4758
 3018TIP3    H130469   0.983   5.857  11.609 -2.2453  1.1486  2.3957
 3018TIP3    H230470   0.922   5.724  11.570  0.6644  0.7526 -1.3982
 3019TIP3   OH230471   6.429   3.596  14.418 -0.3243  0.1354 -0.3836
 3019TIP3    H130472   6.414   3.513  14.464  1.6353  0.5059  1.0472
 3019TIP3    H230473   6.504   3.634  14.462 -0.0129  1.8098 -2.2450
 3020TIP3   OH230474   4.957   1.699  13.083 -0.1792  0.6592 -0.4751
 3020TIP3    H130475   4.972   1.773  13.024 -1.8376  0.7735 -0.7807
 3020TIP3    H230476   4.862   1.688  13.085 -0.1673  0.5034  2.0037
 3021TIP3   OH230477   2.244   0.307  13.243 -0.1112  0.3454  0.0052
 3021TIP3    H130478   2.280   0.336  13.159  0.3116  1.2127  0.4824
 3021TIP3    H230479   2.275   0.216  13.251  0.1559  0.3730 -0.5994
 3022TIP3   OH230480   5.249   3.725  12.117  0.4115  0.5174 -0.0256
 3022TIP3    H130481   5.290   3.758  12.038  0.0375  0.7443 -0.1291
 3022TIP3    H230482   5.156   3.745  12.106  0.1643 -0.6137 -0.1122
 3023TIP3   OH230483   3.231   4.151  16.267  0.4359 -0.2513  0.4258
 3023TIP3    H130484   3.291   4.077  16.275  0.6246 -0.1570 -0.0312
 3023TIP3    H230485   3.288   4.228  16.266  0.3332 -0.1762 -0.2504
 3024TIP3   OH230486   1.150   4.102   1.848 -0.0932  0.0886 -0.3181
 3024TIP3    H130487   1.220   4.124   1.910  0.5257  0.7182 -1.2135
 3024TIP3    H230488   1.070   4.135   1.890  0.3076  0.4711  0.1571
 3025TIP3   OH230489   0.020   4.116   1.241  0.5072  0.0395  0.1967
 3025TIP3    H130490  -0.040   4.186   1.214 -0.3707 -0.4398  0.8572
 3025TIP3    H230491   0.048   4.076   1.159  1.1995  1.2943 -0.2070
 3026TIP3   OH230492   0.391   4.599   5.622 -0.2840 -0.8107 -0.1220
 3026TIP3    H130493   0.474   4.605   5.576 -0.6721  1.5689 -0.6510
 3026TIP3    H230494   0.410   4.626   5.712 -0.4898 -0.1184 -0.2801
 3027TIP3   OH230495   2.226   3.103   3.411  0.5568 -0.2081 -0.1560
 3027TIP3    H130496   2.150   3.051   3.436 -0.6471  1.9567  0.9187
 3027TIP3    H230497   2.263   3.133   3.494  1.6401  0.1161 -0.7301
 3028TIP3   OH230498   6.081   2.954  13.691 -0.1497  0.4478 -0.0190
 3028TIP3    H130499   6.105   2.954  13.784 -1.0156 -1.2024  0.2408
 3028TIP3    H230500   6.085   3.046  13.665 -1.0201  1.0828  1.9607
 3029TIP3   OH230501   5.623   0.356  16.556  0.7902  0.4486 -0.3323
 3029TIP3    H130502   5.655   0.276  16.597  0.8060  0.2271 -0.7745
 3029TIP3    H230503   5.577   0.402  16.626  3.0894  1.3559  0.6980
 3030TIP3   OH230504   2.670   3.711  12.938  0.2272  0.1535 -0.5181
 3030TIP3    H130505   2.640   3.735  13.025 -0.5368  1.4639 -1.1270
 3030TIP3    H230506   2.694   3.618  12.946  2.3078  0.7720  1.6411
 3031TIP3   OH230507   1.007   4.886  15.773  0.0689 -0.2548 -0.1479
 3031TIP3    H130508   1.045   4.931  15.848 -0.3470 -0.6607  0.3166
 3031TIP3    H230509   0.947   4.950  15.734  0.0375 -0.1522  0.0675
 3032TIP3   OH230510   3.681   0.340   5.259 -0.0795  0.3499  0.3309
 3032TIP3    H130511   3.706   0.369   5.172 -0.5745  0.7614  0.3192
 3032TIP3    H230512   3.738   0.389   5.318  0.8380 -0.5485  0.2188
 3033TIP3   OH230513   2.137   4.788   0.646 -0.5833  0.9362  0.6112
 3033TIP3    H130514   2.097   4.836   0.573 -0.5320  1.4976  0.9478
 3033TIP3    H230515   2.170   4.708   0.606 -0.8824  1.0692  0.0826
 3034TIP3   OH230516   6.157   2.288   1.166  0.0873  0.6524 -0.1351
 3034TIP3    H130517   6.217   2.215   1.159  0.9870  1.2863  0.8101
 3034TIP3    H230518   6.207   2.364   1.136  0.2364  1.4211  1.9246
 3035TIP3   OH230519   5.099   3.223   0.837  0.4789  0.3595  0.2371
 3035TIP3    H130520   5.027   3.160   0.837  0.9473 -0.1851  0.2783
 3035TIP3    H230521   5.062   3.302   0.799 -0.6025  0.6339  1.7925
 3036TIP3   OH230522   2.630   1.381   4.958  0.1877  0.1701  0.4858
 3036TIP3    H130523   2.693   1.322   4.917  1.1730  0.0539  2.0780
 3036TIP3    H230524   2.587   1.328   5.025 -1.1407  0.4421 -0.1177
 3037TIP3   OH230525   5.787   0.590   2.726  0.5120 -0.1625 -0.2009
 3037TIP3    H130526   5.809   0.599   2.819  0.4469 -3.1479  0.2091
 3037TIP3    H230527   5.747   0.503   2.720  1.9631 -0.7235 -3.2672
 3038TIP3   OH230528   5.131   2.243   2.384  0.6936  0.3238  0.4556
 3038TIP3    H130529   5.194   2.265   2.315 -1.5300  1.4110 -1.3792
 3038TIP3    H230530   5.104   2.327   2.420 -1.3271  0.1028 -0.4032
 3039TIP3   OH230531   6.152   3.419  14.981  0.1633 -0.3029  0.2335
 3039TIP3    H130532   6.075   3.387  15.028  1.1916 -1.6121  1.0598
 3039TIP3    H230533   6.171   3.351  14.916 -0.5167  0.9245 -1.3319
 3040TIP3   OH230534   6.503   4.364  15.022 -0.4183  0.1211 -0.7622
 3040TIP3    H130535   6.573   4.334  15.080 -0.9907 -0.5402 -0.3966
 3040TIP3    H230536   6.548   4.418  14.957  0.2746  0.6393  0.1225
 3041TIP3   OH230537   6.707   5.132  16.199 -0.0484  0.0831  0.1648
 3041TIP3    H130538   6.739   5.199  16.139  0.7102  0.1386  0.6183
 3041TIP3    H230539   6.622   5.105  16.163  0.3873  0.1201 -0.9185
 3042TIP3   OH230540   0.368   6.524  16.979 -0.2041  0.4708 -0.1833
 3042TIP3    H130541   0.411   6.606  17.005  0.3852 -0.0957  0.6595
 3042TIP3    H230542   0.308   6.504  17.051  1.8251 -1.3914  1.0951
 3043TIP3   OH230543   5.284   4.688  12.818  0.4418  0.1592  0.7769
 3043TIP3    H130544   5.349   4.719  12.756  0.4243 -0.2928  0.5307
 3043TIP3    H230545   5.331   4.682  12.901  0.4735  0.7270  0.8034
 3044TIP3   OH230546   0.528   2.204  14.882  0.2211  0.3004 -0.0734
 3044TIP3    H130547   0.493   2.134  14.938 -0.7589  0.6251 -0.2608
 3044TIP3    H230548   0.501   2.181  14.794  1.4767 -0.0298 -0.3940
 3045TIP3   OH230549   1.399   6.499   2.221  0.2753 -0.5837  0.7590
 3045TIP3    H130550   1.462   6.458   2.280  0.9547  0.8211  1.0452
 3045TIP3    H230551   1.430   6.477   2.133  0.4407 -0.9566  0.9124
 3046TIP3   OH230552   1.562   0.847   4.673  0.2707  0.0332  0.0054
 3046TIP3    H130553   1.521   0.825   4.757 -2.0833  0.8479 -0.8336
 3046TIP3    H230554   1.581   0.762   4.633 -0.6013 -0.3946  0.4702
 3047TIP3   OH230555   3.258   3.401   1.706 -0.0197 -0.3059 -0.0434
 3047TIP3    H130556   3.317   3.344   1.656  0.4030 -0.9178  1.1159
 3047TIP3    H230557   3.288   3.394   1.797  0.2817  2.0726  0.1090
 3048TIP3   OH230558   4.716   6.365   4.838  0.2360  0.1172  0.4800
 3048TIP3    H130559   4.660   6.396   4.767 -1.5745  0.7212  2.0903
 3048TIP3    H230560   4.771   6.440   4.860 -0.2604  0.4216  0.6991
 3049TIP3   OH230561   0.812   0.061   3.059  0.3110 -0.3492  0.1420
 3049TIP3    H130562   0.827  -0.030   3.083  0.1734  0.2904  3.0863
 3049TIP3    H230563   0.887   0.108   3.098  0.2411  0.8389 -1.0818
 3050TIP3   OH230564   0.381   0.480   2.385  0.2215  0.0510  0.4464
 3050TIP3    H130565   0.361   0.510   2.297 -0.6885 -1.8102 -0.0394
 3050TIP3    H230566   0.475   0.461   2.383 -0.0653 -1.4505 -0.6407
 3051TIP3   OH230567   2.228   1.194   1.466  0.2806 -0.4146 -0.6241
 3051TIP3    H130568   2.133   1.187   1.472  0.3946 -2.1498 -0.4392
 3051TIP3    H230569   2.249   1.164   1.378  0.5883  1.2609 -1.1640
 3052TIP3   OH230570   1.230   4.515  11.081 -0.0500  0.2831  0.6047
 3052TIP3    H130571   1.222   4.604  11.047  0.1568 -0.2263 -0.8364
 3052TIP3    H230572   1.140   4.484  11.089 -0.0832  0.2383  0.0518
 3053TIP3   OH230573   6.626   2.600   4.177 -0.0179  0.1744  0.3778
 3053TIP3    H130574   6.717   2.582   4.199 -0.1162  0.0051  0.6478
 3053TIP3    H230575   6.616   2.694   4.191 -0.3287 -0.0743  1.9904
 3054TIP3   OH230576   3.796   4.073  11.622  0.1509  0.3564 -1.0259
 3054TIP3    H130577   3.864   4.122  11.575  0.1443  0.9534 -0.4189
 3054TIP3    H230578   3.748   4.139  11.672  0.6189 -0.3583  0.4117
 3055TIP3   OH230579   3.974   3.128   0.501 -0.0044 -0.2239  0.5186
 3055TIP3    H130580   3.908   3.142   0.433  1.6741  1.1569 -0.9550
 3055TIP3    H230581   4.056   3.121   0.452  0.9677 -1.7875  2.2824
 3056TIP3   OH230582   6.205   0.635   2.056  0.8831  0.4828  0.4879
 3056TIP3    H130583   6.294   0.670   2.056  0.5518  1.3794 -0.8793
 3056TIP3    H230584   6.157   0.691   1.995 -0.5457 -0.1832  0.9640
 3057TIP3   OH230585   5.168   3.864   2.974 -0.0366  0.5016  0.2166
 3057TIP3    H130586   5.227   3.923   3.020 -0.7081  0.0330  1.7348
 3057TIP3    H230587   5.226   3.798   2.935  0.4851  0.2945  1.3136
 3058TIP3   OH230588   5.127   0.777  13.823 -0.3711 -0.5650 -0.5484
 3058TIP3    H130589   5.137   0.765  13.729 -0.4114 -2.1782 -0.3846
 3058TIP3    H230590   5.208   0.741  13.860 -0.8093 -0.9318  0.0723
 3059TIP3   OH230591   6.181   4.276  12.539  0.1295  0.6091  0.4851
 3059TIP3    H130592   6.167   4.195  12.589  0.4470  0.3650  0.1776
 3059TIP3    H230593   6.109   4.278  12.476  0.3711  0.3431  0.2006
 3060TIP3   OH230594   5.711   5.149   3.212  0.3276  0.4959  0.1406
 3060TIP3    H130595   5.675   5.238   3.210  0.5764  0.6342  1.1145
 3060TIP3    H230596   5.764   5.143   3.133 -0.1167  1.0296 -0.2111
 3061TIP3   OH230597   6.695   4.466  13.587 -0.5274 -0.6887  0.0410
 3061TIP3    H130598   6.674   4.471  13.493 -0.6033  3.2939  0.1090
 3061TIP3    H230599   6.610   4.469  13.630 -0.4244  1.4467  0.1912
 3062TIP3   OH230600   4.153   2.838   3.781  0.0200 -0.0282 -0.4452
 3062TIP3    H130601   4.154   2.880   3.867  0.0641  1.7011 -1.2436
 3062TIP3    H230602   4.218   2.767   3.788  2.3528  2.0223  0.0619
 3063TIP3   OH230603   0.574   1.073  15.625 -0.2542 -0.4765 -0.6751
 3063TIP3    H130604   0.587   0.993  15.575  0.6636  0.1040 -1.3983
 3063TIP3    H230605   0.659   1.117  15.623 -0.1872 -0.4224  1.4132
 3064TIP3   OH230606   3.697   0.526  15.075 -0.0536  0.2957 -0.0920
 3064TIP3    H130607   3.659   0.610  15.100 -0.3217 -0.3197  1.7268
 3064TIP3    H230608   3.657   0.506  14.990 -3.0270  0.2148  1.1988
 3065TIP3   OH230609   0.684   2.357  13.995 -0.3530  0.2752  0.1646
 3065TIP3    H130610   0.662   2.276  13.949 -1.8124  0.2986  0.7343
 3065TIP3    H230611   0.715   2.328  14.081 -0.9819  0.3099  0.4089
 3066TIP3   OH230612   4.728   5.457   3.474  0.1353 -0.4267 -0.5351
 3066TIP3    H130613   4.822   5.452   3.491  0.0645 -1.7486 -0.4493
 3066TIP3    H230614   4.688   5.397   3.537 -0.9528  1.4109  0.6291
 3067TIP3   OH230615   6.286   2.873   2.761 -0.2744 -0.1171 -0.1267
 3067TIP3    H130616   6.342   2.871   2.683 -0.2775 -1.0545 -0.1164
 3067TIP3    H230617   6.292   2.784   2.797  0.4857  0.5322  1.4776
 3068TIP3   OH230618   6.138   1.991   2.680 -0.1577 -0.5390  0.1191
 3068TIP3    H130619   6.209   1.927   2.684 -0.8511 -1.2816  0.6425
 3068TIP3    H230620   6.141   2.035   2.765 -1.0250 -1.3420  0.5797
 3069TIP3   OH230621   4.241   4.019  16.953 -1.1838  1.2318 -0.5404
 3069TIP3    H130622   4.180   4.091  16.969 -2.5244 -0.2521  1.4535
 3069TIP3    H230623   4.242   3.970  17.035  1.2327  0.0833 -1.1860
 3070TIP3   OH230624   1.268   0.338  11.784  1.0195 -0.1151 -0.1964
 3070TIP3    H130625   1.317   0.287  11.718 -1.4810 -0.5536 -1.8425
 3070TIP3    H230626   1.223   0.405  11.734 -2.5258 -1.6386  0.6381
 3071TIP3   OH230627   5.280   6.730  12.525  0.5659  0.2203 -0.1745
 3071TIP3    H130628   5.293   6.643  12.561  1.7207  1.3974  2.5357
 3071TIP3    H230629   5.193   6.728  12.486  0.2269 -1.8674  0.5917
 3072TIP3   OH230630   4.705   2.761  11.730  0.2034 -0.7301 -0.0145
 3072TIP3    H130631   4.784   2.808  11.758  1.0115 -1.3085 -1.2530
 3072TIP3    H230632   4.729   2.721  11.647 -0.8498 -2.3408  0.4223
 3073TIP3   OH230633   3.549   4.385  17.178  0.3143 -0.2833 -0.3130
 3073TIP3    H130634   3.485   4.330  17.223 -0.4945  0.1921 -0.8707
 3073TIP3    H230635   3.631   4.369  17.226 -0.1197 -1.1967  0.1593
 3074TIP3   OH230636   5.748   1.898   5.074  0.2321  0.3402 -0.5556
 3074TIP3    H130637   5.660   1.923   5.102 -0.3506 -2.5013  0.5337
 3074TIP3    H230638   5.740   1.881   4.980 -0.7202 -0.9629 -0.2711
 3075TIP3   OH230639   3.939   0.088  10.384 -1.0362 -0.4178  0.2852
 3075TIP3    H130640   3.991   0.019  10.341  1.1006  0.1514  1.8242
 3075TIP3    H230641   3.918   0.149  10.314  1.2481 -0.1825 -0.2789
 3076TIP3   OH230642   2.255   5.853  15.350  0.1850  0.4535  0.1595
 3076TIP3    H130643   2.199   5.902  15.290 -1.8783  0.7377  2.1981
 3076TIP3    H230644   2.282   5.917  15.416  1.3678 -0.1355  0.2878
 3077TIP3   OH230645   1.198   5.361  15.837 -0.8384 -0.6436 -0.1250
 3077TIP3    H130646   1.198   5.439  15.781 -1.1075  0.6261  1.5372
 3077TIP3    H230647   1.123   5.375  15.895  0.7866 -0.6845  2.0944
 3078TIP3   OH230648   5.017   0.487   5.422  0.0350  0.3506  0.3948
 3078TIP3    H130649   5.087   0.423   5.415 -0.1850 -0.1006  2.0002
 3078TIP3    H230650   5.052   0.556   5.477 -0.1909  0.9881 -0.2418
 3079TIP3   OH230651   2.567   5.728  16.287  0.0552 -0.2828  0.0809
 3079TIP3    H130652   2.590   5.687  16.370 -0.2394 -0.8929 -0.1254
 3079TIP3    H230653   2.472   5.724  16.284  0.0710 -0.4340 -0.3619
 3080TIP3   OH230654   1.156   5.659   1.806 -0.0462 -0.5170  0.3503
 3080TIP3    H130655   1.169   5.752   1.786 -1.3650 -0.7743 -1.9499
 3080TIP3    H230656   1.212   5.613   1.744 -0.7230 -1.3001  0.3101
 3081TIP3   OH230657   0.890   6.784   1.062  0.0477 -0.4072  0.0071
 3081TIP3    H130658   0.883   6.723   1.135 -2.6079 -0.5545 -0.3029
 3081TIP3    H230659   0.917   6.730   0.987 -0.9227 -0.9629  0.0492
 3082TIP3   OH230660   2.525   2.681   2.460  0.1992  0.0814  0.1561
 3082TIP3    H130661   2.616   2.653   2.475 -0.1265 -1.4026 -0.4688
 3082TIP3    H230662   2.473   2.626   2.518 -0.1874  2.7421  2.5536
 3083TIP3   OH230663   2.490   2.951   4.499  0.3192 -0.2460 -0.0868
 3083TIP3    H130664   2.574   2.995   4.512 -0.7525  2.4206 -1.2583
 3083TIP3    H230665   2.425   3.016   4.526 -1.4106 -1.2469 -1.6144
 3084TIP3   OH230666   6.709   3.026  11.901 -0.8121  0.8953 -0.4467
 3084TIP3    H130667   6.685   2.957  11.839  2.3990  0.2794 -1.1661
 3084TIP3    H230668   6.760   3.088  11.848 -0.6213  1.9699  0.9523
 3085TIP3   OH230669   3.846   6.308  11.555  0.4101  0.2045  0.4675
 3085TIP3    H130670   3.921   6.280  11.503 -0.3082 -1.0887  0.1066
 3085TIP3    H230671   3.831   6.399  11.527  0.2532 -0.3399 -1.3493
 3086TIP3   OH230672   3.574   6.293  13.596 -0.4092 -0.7617 -0.0605
 3086TIP3    H130673   3.607   6.323  13.680  1.5416 -0.3635 -0.9053
 3086TIP3    H230674   3.516   6.363  13.566  1.0151  0.3902 -0.2302
 3087TIP3   OH230675   5.053   2.708  13.974  0.2148 -0.0390  0.2454
 3087TIP3    H130676   5.017   2.687  13.888 -0.6639  2.5284 -0.0972
 3087TIP3    H230677   5.115   2.778  13.957  1.6266 -0.9240  1.4999
 3088TIP3   OH230678   3.362   5.758  11.424 -0.1298 -0.2344  0.3977
 3088TIP3    H130679   3.351   5.724  11.513  0.7312  0.2494  0.6981
 3088TIP3    H230680   3.322   5.845  11.428  0.0937 -0.1304  0.3705
 3089TIP3   OH230681   2.793   1.737   2.451  0.2107  0.2907  0.5115
 3089TIP3    H130682   2.728   1.786   2.400 -0.0893 -1.0874 -0.5151
 3089TIP3    H230683   2.813   1.793   2.525 -2.1979  0.7630  0.9005
 3090TIP3   OH230684   2.707   4.330   6.510 -0.2023  0.3051 -0.0657
 3090TIP3    H130685   2.726   4.309   6.419 -1.4892  1.7966 -0.7171
 3090TIP3    H230686   2.788   4.310   6.557  0.3755 -0.7760 -1.4786
 3091TIP3   OH230687   6.037   3.667   2.558 -0.4234 -0.1151  0.0689
 3091TIP3    H130688   6.010   3.753   2.590  1.7008  0.6123  0.0472
 3091TIP3    H230689   6.068   3.684   2.469  0.7530 -0.7398  0.3454
 3092TIP3   OH230690   2.504   4.050   4.093 -0.0312  0.1363 -0.4658
 3092TIP3    H130691   2.512   4.016   4.003  0.2424 -0.4647 -0.2238
 3092TIP3    H230692   2.594   4.074   4.116  0.2213 -1.3443  0.2537
 3093TIP3   OH230693   0.587   3.711   0.620 -0.1936  0.1105 -0.3850
 3093TIP3    H130694   0.570   3.741   0.710  0.5602 -0.3539 -0.0782
 3093TIP3    H230695   0.519   3.753   0.568 -0.1557  1.0390  0.2774
 3094TIP3   OH230696   3.587   0.880  12.046 -0.4873 -0.4386 -0.4986
 3094TIP3    H130697   3.531   0.842  12.113 -0.7701  1.2816  0.3069
 3094TIP3    H230698   3.585   0.818  11.973 -2.6702 -0.8640 -0.1262
 3095TIP3   OH230699   1.405   6.149   0.292 -0.0069  0.2627  0.9379
 3095TIP3    H130700   1.490   6.188   0.271 -1.4827  3.5222  0.4140
 3095TIP3    H230701   1.382   6.099   0.214 -0.5750  3.2875 -0.9931
 3096TIP3   OH230702   1.134   3.766  15.149 -0.5571 -0.0519  0.0134
 3096TIP3    H130703   1.201   3.723  15.202 -1.0760  1.0300  1.6070
 3096TIP3    H230704   1.053   3.758  15.200 -1.0956  0.9870 -0.6342
 3097TIP3   OH230705   4.937   5.084   0.067  0.2602 -0.5297 -0.3950
 3097TIP3    H130706   4.977   5.117  -0.014  0.5314 -3.1334 -1.4152
 3097TIP3    H230707   4.979   5.000   0.082  0.5373  0.0538  2.7828
 3098TIP3   OH230708   3.994   5.813   6.281  0.3066  0.0250  0.6673
 3098TIP3    H130709   3.938   5.867   6.337 -0.1206  0.9152 -0.5654
 3098TIP3    H230710   4.046   5.761   6.342 -1.1254 -0.0801  1.8700
 3099TIP3   OH230711   5.281   1.669   2.816  0.2113 -0.0103  0.5285
 3099TIP3    H130712   5.359   1.679   2.869  0.5099 -1.1492  0.3494
 3099TIP3    H230713   5.269   1.753   2.773  0.2759  0.7561  1.9544
 3100TIP3   OH230714   5.105   3.861  15.845 -0.2546 -0.4886  0.3769
 3100TIP3    H130715   5.068   3.841  15.759  0.3049 -2.1701  0.4849
 3100TIP3    H230716   5.096   3.956  15.854 -3.8478 -0.6583  0.1102
 3101TIP3   OH230717   4.970   5.928  16.335 -0.5288 -0.2676 -0.7222
 3101TIP3    H130718   5.019   5.932  16.417 -1.6504 -1.0706  0.0288
 3101TIP3    H230719   5.014   5.989  16.277  0.1107  0.5491  0.5841
 3102TIP3   OH230720   5.835   0.270   4.392  0.0568  0.2612 -0.4942
 3102TIP3    H130721   5.757   0.258   4.337 -0.6374 -1.0721  0.6954
 3102TIP3    H230722   5.870   0.181   4.403  0.9209  0.6661  0.1543
 3103TIP3   OH230723   1.418   6.718   3.430 -0.0258  0.3727  0.0083
 3103TIP3    H130724   1.425   6.806   3.394 -0.3060  0.7231  0.7956
 3103TIP3    H230725   1.506   6.698   3.463  0.1234  0.2195 -0.4755
 3104TIP3   OH230726   4.461   6.000   2.995  0.2658 -0.3484 -0.0466
 3104TIP3    H130727   4.539   5.966   2.952  0.6949 -0.1075  0.5399
 3104TIP3    H230728   4.415   6.049   2.926  0.2491 -1.0876 -0.5839
 3105TIP3   OH230729   1.654   6.200   3.511  0.7144 -0.2477 -0.4847
 3105TIP3    H130730   1.559   6.196   3.499  0.4933  0.2832  0.9094
 3105TIP3    H230731   1.678   6.287   3.478  0.4114  0.3870  0.8929
 3106TIP3   OH230732   3.922   5.452  14.602  0.1618 -0.5273  0.1715
 3106TIP3    H130733   3.849   5.404  14.562 -1.2087  1.0917  0.6147
 3106TIP3    H230734   3.912   5.437  14.696  0.2278 -0.0866  0.2524
 3107TIP3   OH230735   1.764   4.971   2.050  0.1106  0.1245 -0.2467
 3107TIP3    H130736   1.835   4.953   1.987  0.7392  3.7911 -0.8035
 3107TIP3    H230737   1.809   5.003   2.128 -0.8293  2.8395 -0.7242
 3108TIP3   OH230738   3.161   1.098  10.832  0.1700 -0.4423 -0.7559
 3108TIP3    H130739   3.087   1.061  10.784 -0.6504  0.5933 -0.3139
 3108TIP3    H230740   3.129   1.111  10.921  0.2104  1.8457 -1.0120
 3109TIP3   OH230741   1.719   1.306  11.960 -0.1082  0.2932  0.0442
 3109TIP3    H130742   1.739   1.297  12.053  1.4268 -1.1990 -0.3816
 3109TIP3    H230743   1.746   1.395  11.937 -2.0607  1.2920  1.3302
 3110TIP3   OH230744   2.857   4.713  15.979  0.2359 -0.2117  0.0222
 3110TIP3    H130745   2.814   4.693  16.062 -2.7256  1.2336 -1.0128
 3110TIP3    H230746   2.876   4.628  15.940  0.1456 -0.9046  1.4116
 3111TIP3   OH230747   6.302   6.542   6.348 -0.8448 -0.6021  0.2431
 3111TIP3    H130748   6.330   6.542   6.439  0.2659 -1.0020 -0.0826
 3111TIP3    H230749   6.276   6.451   6.331 -1.4058 -0.4465  0.2651
 3112TIP3   OH230750   2.752   5.811   2.169  0.5933  0.3215 -0.4913
 3112TIP3    H130751   2.710   5.728   2.192  1.8023 -0.5298 -1.2481
 3112TIP3    H230752   2.747   5.815   2.073 -1.4532  2.2418 -0.3851
 3113TIP3   OH230753   2.709   1.116  13.857 -0.2617 -0.2158  0.3686
 3113TIP3    H130754   2.751   1.087  13.937  0.0117 -0.2610  0.2108
 3113TIP3    H230755   2.780   1.157  13.806 -0.4512 -0.1011  0.1946
 3114TIP3   OH230756   0.591   2.296   4.832 -0.0892 -0.2191 -0.8624
 3114TIP3    H130757   0.579   2.336   4.918  0.7986  0.5557 -1.0775
 3114TIP3    H230758   0.676   2.252   4.838 -0.3205 -0.7069 -1.1425
 3115TIP3   OH230759   1.943   3.704  11.429  0.5096  0.1898  0.4948
 3115TIP3    H130760   2.010   3.637  11.413  0.6381  0.6351 -0.9995
 3115TIP3    H230761   1.935   3.708  11.524 -0.1590 -2.5733  0.6278
 3116TIP3   OH230762   5.413   0.300  13.192  0.3391  0.2217  0.6100
 3116TIP3    H130763   5.507   0.308  13.205  0.3225  1.4306  0.0763
 3116TIP3    H230764   5.403   0.256  13.108  0.4017 -2.4407  1.8777
 3117TIP3   OH230765   6.121   6.122   2.505  0.1024  0.1855 -0.1180
 3117TIP3    H130766   6.120   6.027   2.521  0.5086  0.6163  3.4987
 3117TIP3    H230767   6.037   6.141   2.464 -0.4638 -1.6308  0.1010
 3118TIP3   OH230768   4.127   1.078   6.665  0.6912  0.0240  0.1364
 3118TIP3    H130769   4.126   1.078   6.569  0.0356 -1.9486  0.0913
 3118TIP3    H230770   4.185   1.150   6.688 -0.5125  1.7209 -1.6912
 3119TIP3   OH230771   5.423   6.262  10.941  0.1727  0.2265  0.6281
 3119TIP3    H130772   5.422   6.333  10.876  0.3529 -0.3579 -0.0215
 3119TIP3    H230773   5.511   6.224  10.934  0.7179  1.0702  2.2443
 3120TIP3   OH230774   0.252   1.723   1.985 -0.0850 -0.0724 -0.0869
 3120TIP3    H130775   0.195   1.736   1.910  1.5103 -2.9997 -1.9734
 3120TIP3    H230776   0.328   1.780   1.968  0.9015 -1.7162 -1.5231
 3121TIP3   OH230777   5.099   5.384   2.319 -0.2203 -0.4932  0.2080
 3121TIP3    H130778   5.129   5.436   2.245  0.7530 -1.8120 -0.3651
 3121TIP3    H230779   5.004   5.397   2.320 -0.3110 -0.7322 -1.5164
 3122TIP3   OH230780   5.673   3.078   0.011 -0.1246  0.0622  0.5469
 3122TIP3    H130781   5.687   3.015   0.082 -0.5484  1.8290  2.3063
 3122TIP3    H230782   5.719   3.157   0.041  0.1127  0.7196 -1.4158
 3123TIP3   OH230783   1.326   5.211   2.977 -0.5380  0.4363 -0.0424
 3123TIP3    H130784   1.421   5.206   2.970 -0.4191 -1.8752  1.9051
 3123TIP3    H230785   1.294   5.196   2.888  0.9032 -0.8273 -0.3855
 3124TIP3   OH230786   1.507   4.666  12.238  0.5542 -0.0815  0.2817
 3124TIP3    H130787   1.580   4.648  12.297  0.3574  0.6656  0.7736
 3124TIP3    H230788   1.437   4.608  12.266  1.0127 -0.9355 -0.3126
 3125TIP3   OH230789   0.337   1.256   5.510 -0.3363  0.1208  0.9306
 3125TIP3    H130790   0.269   1.322   5.515 -0.0038  0.7062 -1.2127
 3125TIP3    H230791   0.295   1.176   5.542 -1.3628  0.9043  1.6120
 3126TIP3   OH230792   4.484   3.260  16.155  0.0071  0.0656 -0.0241
 3126TIP3    H130793   4.421   3.314  16.108  0.1698  0.5142  0.2611
 3126TIP3    H230794   4.431   3.198  16.205 -0.2113  0.5164  0.3052
 3127TIP3   OH230795   5.256   1.399   2.686  1.0002  0.0041 -0.0672
 3127TIP3    H130796   5.249   1.486   2.724  0.5109  0.6547 -1.5647
 3127TIP3    H230797   5.229   1.410   2.595  0.0845 -1.8865 -0.0750
 3128TIP3   OH230798   4.270   4.298   4.289  0.2782 -0.5582  0.4616
 3128TIP3    H130799   4.364   4.289   4.273  0.6272  0.4156  1.8369
 3128TIP3    H230800   4.259   4.388   4.321 -1.4930  0.2530 -2.0573
 3129TIP3   OH230801   0.227   5.245   1.602  0.5567  0.5282  0.2033
 3129TIP3    H130802   0.293   5.227   1.535 -1.3035 -1.0840 -1.3122
 3129TIP3    H230803   0.171   5.313   1.565  0.1511  0.4183  0.5962
 3130TIP3   OH230804   4.629   5.858   1.442 -0.0990  0.1172 -0.0519
 3130TIP3    H130805   4.589   5.893   1.522 -0.0959  0.5866 -0.2524
 3130TIP3    H230806   4.619   5.928   1.378  1.2884  0.3732 -0.0293
 3131TIP3   OH230807   2.376   1.924  14.433  0.2456 -0.2824  0.6649
 3131TIP3    H130808   2.288   1.907  14.466 -0.1868 -0.9244 -0.7187
 3131TIP3    H230809   2.410   1.992  14.490 -0.9974 -0.3062  1.4843
 3132TIP3   OH230810   0.688   0.197   1.663 -0.2090  0.5476  0.4683
 3132TIP3    H130811   0.760   0.260   1.655 -0.2867  0.6196  0.3378
 3132TIP3    H230812   0.726   0.123   1.711  0.2068  0.2097 -0.3560
 3133TIP3   OH230813   5.999   1.170   0.489  0.1906  0.0511  0.4268
 3133TIP3    H130814   6.001   1.079   0.461  2.1215  0.0124  0.5924
 3133TIP3    H230815   6.084   1.206   0.464 -0.4328  1.7623  0.5721
 3134TIP3   OH230816   4.260   0.043  11.155  0.2257 -0.4210 -0.1897
 3134TIP3    H130817   4.210  -0.035  11.175 -0.9365  0.4001  0.2072
 3134TIP3    H230818   4.277   0.038  11.061 -0.2122 -0.9408 -0.2433
 3135TIP3   OH230819   1.540   0.087   5.888 -0.0536 -0.0104 -0.5283
 3135TIP3    H130820   1.532   0.161   5.947  0.8915 -1.3768  1.4390
 3135TIP3    H230821   1.451   0.052   5.880 -0.2704  0.4979 -0.3513
 3136TIP3   OH230822   2.222   5.260  12.698 -0.4463  0.2865  0.3389
 3136TIP3    H130823   2.258   5.172  12.686 -1.3038 -0.1205  0.6711
 3136TIP3    H230824   2.257   5.310  12.625  0.2464 -0.2664  0.2759
 3137TIP3   OH230825   6.266   4.756   2.693  0.1385  0.1127  0.5119
 3137TIP3    H130826   6.310   4.838   2.669  0.6302 -0.1703  0.4322
 3137TIP3    H230827   6.325   4.716   2.758 -0.5172  0.2309  1.1972
 3138TIP3   OH230828   1.664   1.477  15.402 -0.1200  0.5014  0.0929
 3138TIP3    H130829   1.724   1.406  15.425 -0.8575 -0.3481 -0.5388
 3138TIP3    H230830   1.600   1.437  15.344  0.4805  2.0870 -1.8187
 3139TIP3   OH230831   1.235   0.634  16.473  0.2068  0.0313 -0.3093
 3139TIP3    H130832   1.233   0.547  16.432 -1.5565  0.3129 -0.8999
 3139TIP3    H230833   1.171   0.629  16.544  0.8201  0.5642  0.2973
 3140TIP3   OH230834   0.258   1.391   4.658 -0.6985  0.5866  0.2221
 3140TIP3    H130835   0.278   1.366   4.748  2.5680  0.0079 -0.5315
 3140TIP3    H230836   0.222   1.312   4.618 -0.2676  0.2490  0.5051
 3141TIP3   OH230837   3.251   1.109  11.736  0.1236  0.0310  0.7980
 3141TIP3    H130838   3.343   1.095  11.715 -0.2856 -0.7947 -0.5321
 3141TIP3    H230839   3.207   1.112  11.651 -1.0546  0.6193  1.4076
 3142TIP3   OH230840   5.351   1.096   5.721  0.2186  0.7185 -0.2319
 3142TIP3    H130841   5.373   1.033   5.652 -0.8542  1.0731 -0.9195
 3142TIP3    H230842   5.318   1.044   5.793  0.1633  0.4346 -0.4632
 3143TIP3   OH230843   5.758   0.414   2.371  0.5956  0.0502  0.5804
 3143TIP3    H130844   5.689   0.481   2.368  1.4614  0.9642  0.5767
 3143TIP3    H230845   5.761   0.388   2.463  0.3800  0.1441  0.6166
 3144TIP3   OH230846   1.675   0.176  15.349  0.5870  0.1386 -0.0407
 3144TIP3    H130847   1.621   0.189  15.426  1.1324  0.7321  0.2561
 3144TIP3    H230848   1.718   0.092  15.363  3.7961  1.9030  2.3150
 3145TIP3   OH230849   3.153   6.638  12.105 -0.4726  0.3845  0.3692
 3145TIP3    H130850   3.204   6.567  12.066 -1.5307 -1.5363  2.2817
 3145TIP3    H230851   3.211   6.674  12.172 -1.2046 -1.1605  1.8868
 3146TIP3   OH230852   6.253   1.992   1.770  0.1001 -0.2125 -0.1134
 3146TIP3    H130853   6.223   1.998   1.679 -2.0097 -0.8920  0.4768
 3146TIP3    H230854   6.209   2.066   1.813  1.9718  0.7827  0.1696
 3147TIP3   OH230855   5.342   0.167   1.400  0.3232 -0.1070 -1.0487
 3147TIP3    H130856   5.378   0.141   1.484 -1.6633  0.4160  0.0372
 3147TIP3    H230857   5.305   0.087   1.363  0.0597 -0.1003 -0.8036
 3148TIP3   OH230858   1.404   1.592   5.530  0.4885 -0.1682  0.2092
 3148TIP3    H130859   1.365   1.519   5.579 -0.5480 -0.5501 -1.1057
 3148TIP3    H230860   1.341   1.663   5.539 -0.1556 -0.5095 -1.2067
 3149TIP3   OH230861   1.419   2.879   1.135 -0.0063 -0.1499 -0.0495
 3149TIP3    H130862   1.514   2.876   1.151  0.1754 -1.1119 -1.1618
 3149TIP3    H230863   1.384   2.803   1.180  0.3511 -2.1737 -2.9058
 3150TIP3   OH230864   4.909   2.258   4.143  0.0698  0.0978  0.1368
 3150TIP3    H130865   4.969   2.203   4.193  1.8791  0.3259 -1.6561
 3150TIP3    H230866   4.853   2.196   4.096  0.9447 -0.2180 -0.5243
 3151TIP3   OH230867   3.995   5.274  16.629 -0.0979  1.0162 -0.0064
 3151TIP3    H130868   3.949   5.356  16.616  0.6588  1.3397 -0.7308
 3151TIP3    H230869   3.941   5.226  16.692 -2.3628  0.6404 -2.0784
 3152TIP3   OH230870   1.286   4.831   0.097  0.5289 -0.0779  0.3206
 3152TIP3    H130871   1.287   4.810   0.191 -0.6367  0.9180  0.5845
 3152TIP3    H230872   1.368   4.876   0.081  0.4329  0.3604  1.0218
 3153TIP3   OH230873   1.278   3.618   2.379 -0.0472 -0.0269  0.4718
 3153TIP3    H130874   1.265   3.679   2.307  0.3978 -0.7530 -0.2245
 3153TIP3    H230875   1.193   3.617   2.424 -0.6529 -0.3565 -0.6511
 3154TIP3   OH230876   2.240   5.433  12.496  0.7780  0.3137  0.2478
 3154TIP3    H130877   2.165   5.441  12.437 -0.6290  0.2151  1.9258
 3154TIP3    H230878   2.276   5.522  12.501  1.1952  0.2281 -1.0817
 3155TIP3   OH230879   4.738   4.680   2.092  0.0197  0.2664 -0.3361
 3155TIP3    H130880   4.734   4.649   2.001 -0.0342 -1.9713  0.3669
 3155TIP3    H230881   4.684   4.618   2.141  0.6914  0.9454  1.3415
 3156TIP3   OH230882   5.073   4.874   1.396 -0.0890 -0.1841 -0.1792
 3156TIP3    H130883   5.011   4.879   1.323 -0.2552 -1.3908 -0.1450
 3156TIP3    H230884   5.038   4.935   1.461  0.1665  1.0481 -1.1647
 3157TIP3   OH230885   2.590   1.447  15.451 -0.1419 -0.0707  0.0650
 3157TIP3    H130886   2.633   1.511  15.507  0.0672  0.5684 -0.8046
 3157TIP3    H230887   2.635   1.364  15.469 -2.4542 -0.7926  3.5949
 3158TIP3   OH230888   3.571   0.563   1.015  0.0703  0.3317 -0.2373
 3158TIP3    H130889   3.660   0.570   0.979 -0.0860  2.6275 -0.3251
 3158TIP3    H230890   3.516   0.608   0.950 -0.6999  1.4961  1.1679
 3159TIP3   OH230891   5.248   0.025  14.141  0.0759  0.2424 -0.6418
 3159TIP3    H130892   5.207  -0.062  14.139  0.0260  0.0420  2.6013
 3159TIP3    H230893   5.333   0.013  14.100  0.0429 -1.3714 -0.2975
 3160TIP3   OH230894   6.075   1.304   1.016 -0.1572  0.7682 -0.2507
 3160TIP3    H130895   6.020   1.312   0.938 -0.9108  0.1424  0.2051
 3160TIP3    H230896   6.124   1.223   1.003  2.7923  2.6259 -1.9411
 3161TIP3   OH230897   2.933   1.366  13.553 -0.0965  0.4725 -0.0389
 3161TIP3    H130898   2.934   1.451  13.509 -1.5464 -0.4043 -1.9194
 3161TIP3    H230899   2.991   1.377  13.628  0.3268  2.8889 -0.6371
 3162TIP3   OH230900   4.763   3.251   4.657 -0.2836  0.0025  0.6739
 3162TIP3    H130901   4.832   3.313   4.679  1.4292 -1.1153 -1.1960
 3162TIP3    H230902   4.786   3.172   4.706 -1.0145  0.0179  1.0628
 3163TIP3   OH230903   4.088   1.687  11.268 -0.2039 -0.2335  0.1618
 3163TIP3    H130904   4.030   1.754  11.305 -0.6392 -0.4627 -0.1040
 3163TIP3    H230905   4.099   1.713  11.177 -0.3182 -0.4866  0.0757
 3164TIP3   OH230906   5.690   5.244   5.145  0.1083  0.4565  0.3140
 3164TIP3    H130907   5.614   5.228   5.089 -0.0723  0.9154  0.4195
 3164TIP3    H230908   5.701   5.163   5.195  0.0049  0.2009 -0.0733
 3165TIP3   OH230909   0.522   6.614  16.502  0.0015 -0.1792  0.0854
 3165TIP3    H130910   0.602   6.616  16.555  1.3027  0.3891 -1.8129
 3165TIP3    H230911   0.452   6.602  16.566  1.6231 -1.2512  1.7695
 3166TIP3   OH230912   5.765   1.518  11.547 -0.7514 -0.1122  0.1892
 3166TIP3    H130913   5.694   1.494  11.488 -1.9026 -0.6142  1.7234
 3166TIP3    H230914   5.724   1.572  11.614  0.1382 -1.0011  1.5129
 3167TIP3   OH230915   4.880   1.343  10.422 -0.5106 -0.3009  0.0959
 3167TIP3    H130916   4.808   1.295  10.381 -1.5592  0.1604  1.3382
 3167TIP3    H230917   4.898   1.294  10.502 -1.8357  1.5009  1.5715
 3168TIP3   OH230918   6.575   3.800   3.124 -0.4765  0.1417 -0.1956
 3168TIP3    H130919   6.606   3.787   3.213  0.1014 -0.5318 -0.4876
 3168TIP3    H230920   6.567   3.711   3.088  2.1912  0.4345 -1.7812
 3169TIP3   OH230921   1.938   2.535   1.639  0.0963  0.1643 -0.0434
 3169TIP3    H130922   1.900   2.622   1.633  0.0975  0.1241 -0.6811
 3169TIP3    H230923   2.016   2.538   1.584 -0.6857 -0.6470 -1.2474
 3170TIP3   OH230924   1.957   4.989  16.216 -0.0791  0.3457 -0.5394
 3170TIP3    H130925   1.951   4.898  16.188  0.9902  0.4463 -1.1003
 3170TIP3    H230926   1.885   4.999  16.279  0.7653 -1.3354  0.7776
 3171TIP3   OH230927   3.707   0.160  15.693  0.4104  0.4928 -0.2479
 3171TIP3    H130928   3.797   0.192  15.691 -0.0677  1.8296 -1.2983
 3171TIP3    H230929   3.692   0.140  15.786  1.3949  1.4312  0.1437
 3172TIP3   OH230930   2.260   4.806   5.238  0.3118  0.0236  0.3764
 3172TIP3    H130931   2.292   4.869   5.302 -1.0162  0.1373  0.9640
 3172TIP3    H230932   2.320   4.732   5.245  0.8343  0.4922  0.9548
 3173TIP3   OH230933   4.414   1.830  13.012 -0.1879 -0.0407  0.1745
 3173TIP3    H130934   4.331   1.789  12.987 -0.3850  0.0658  0.6556
 3173TIP3    H230935   4.481   1.769  12.980 -0.4843 -1.2881  1.7901
 3174TIP3   OH230936   0.627   4.543  11.762  0.1360 -0.2372 -0.1050
 3174TIP3    H130937   0.691   4.613  11.770 -1.3240  1.1705 -0.1504
 3174TIP3    H230938   0.567   4.556  11.836 -1.4859  0.0262 -1.4037
 3175TIP3   OH230939   0.052   1.040  14.022 -0.4313  0.0469 -0.1864
 3175TIP3    H130940   0.020   1.045  14.112 -0.2024 -3.9492  0.2886
 3175TIP3    H230941  -0.026   1.030  13.969 -0.4582  0.0524 -0.1478
 3176TIP3   OH230942   2.469   5.590   3.705  0.1869 -0.6476  0.5258
 3176TIP3    H130943   2.490   5.668   3.756 -2.1953  0.6088 -0.2810
 3176TIP3    H230944   2.471   5.519   3.769 -0.0498  0.4695  1.8318
 3177TIP3   OH230945   4.921   6.268   5.227 -0.4217  0.8532  0.0056
 3177TIP3    H130946   4.986   6.206   5.196 -1.1782 -0.2316  0.4956
 3177TIP3    H230947   4.849   6.260   5.165 -0.1559  1.9325 -0.4496
 3178TIP3   OH230948   5.916   0.266   2.185  0.2816  0.1523 -0.6280
 3178TIP3    H130949   5.880   0.324   2.252  0.9004  0.0686 -0.2153
 3178TIP3    H230950   6.009   0.289   2.180  0.1363  0.5605 -1.8767
 3179TIP3   OH230951   3.373   4.091   1.809  0.5974  0.3107  0.2573
 3179TIP3    H130952   3.374   4.006   1.764  1.0510  0.1702  0.5290
 3179TIP3    H230953   3.286   4.096   1.848  0.5196  0.0308  0.1238
 3180TIP3   OH230954   4.760   2.245   1.247 -0.3108 -0.5225 -0.2408
 3180TIP3    H130955   4.664   2.242   1.251 -0.3825  0.0750 -1.2892
 3180TIP3    H230956   4.779   2.314   1.184  0.8038 -1.0527 -0.4983
 3181TIP3   OH230957   6.565   4.219   2.291  0.5744 -0.3503 -0.2329
 3181TIP3    H130958   6.503   4.153   2.322  1.3798 -0.1484  1.9693
 3181TIP3    H230959   6.513   4.276   2.235 -0.9318 -0.9218  0.5173
 3182TIP3   OH230960   3.277   4.261   0.039 -0.2814 -0.2476  0.1558
 3182TIP3    H130961   3.184   4.276   0.055 -0.4105 -1.6514  0.8876
 3182TIP3    H230962   3.285   4.166   0.030  0.5839  0.0236 -3.3232
 3183TIP3   OH230963   5.336   2.360   4.228  0.4706  0.4185  0.1358
 3183TIP3    H130964   5.402   2.410   4.276 -0.6774  1.0579  1.1198
 3183TIP3    H230965   5.381   2.280   4.200  1.6256  0.7974  0.8560
 3184TIP3   OH230966   6.106   5.115  12.366 -0.4387  0.5589  0.3377
 3184TIP3    H130967   6.065   5.184  12.418 -0.4311  0.8191  0.0069
 3184TIP3    H230968   6.180   5.086  12.419 -0.7527  0.4409  0.7125
 3185TIP3   OH230969   1.982   6.528  15.923  0.0680  0.3005  0.1331
 3185TIP3    H130970   2.058   6.576  15.956 -0.2542 -0.0734  1.4921
 3185TIP3    H230971   2.010   6.437  15.922 -0.3223  0.1755  0.5300
 3186TIP3   OH230972   5.971   4.819   0.154  0.1237 -0.8453 -0.2420
 3186TIP3    H130973   5.989   4.894   0.211  1.6112 -1.3571  0.0250
 3186TIP3    H230974   6.007   4.744   0.202  0.4014 -1.4458 -1.3506
 3187TIP3   OH230975   0.595   0.944  11.271  0.5586  0.1615  0.0023
 3187TIP3    H130976   0.554   0.872  11.319  0.5454 -0.6379 -1.1545
 3187TIP3    H230977   0.566   0.932  11.180  2.0235  0.5285 -0.5539
 3188TIP3   OH230978   0.159   5.252  15.780  0.0912 -0.0025 -0.3490
 3188TIP3    H130979   0.089   5.203  15.824 -0.7018  1.2276 -0.2186
 3188TIP3    H230980   0.120   5.284  15.699  0.7442  0.0475 -0.6536
 3189TIP3   OH230981   0.373   0.728   4.790 -0.9322  0.0010 -0.1336
 3189TIP3    H130982   0.464   0.729   4.819 -1.3837 -0.2013  1.3745
 3189TIP3    H230983   0.361   0.640   4.754 -0.2380  0.4070 -1.4275
 3190TIP3   OH230984   0.175   5.275  14.378 -0.2009 -0.4386 -0.3341
 3190TIP3    H130985   0.233   5.255  14.304  1.1326  1.1046  0.2205
 3190TIP3    H230986   0.235   5.291  14.451 -1.4781 -1.3982  0.9581
 3191TIP3   OH230987   5.625   5.113  16.299 -0.2052  0.7511  1.1575
 3191TIP3    H130988   5.676   5.045  16.342 -1.9002  0.2921  2.5702
 3191TIP3    H230989   5.575   5.066  16.232 -0.8295  0.7100  1.6445
 3192TIP3   OH230990   6.423   0.087  12.601  0.5176  0.4661 -0.0153
 3192TIP3    H130991   6.357   0.026  12.568  1.3256 -0.0995 -0.6347
 3192TIP3    H230992   6.424   0.073  12.695  0.9728 -0.7940 -0.1880
 3193TIP3   OH230993   1.657   5.382  13.548 -0.2495 -0.1013  0.3873
 3193TIP3    H130994   1.738   5.425  13.576  0.6376 -1.3783 -0.1208
 3193TIP3    H230995   1.612   5.448  13.495  0.8755  0.3437 -0.0437
 3194TIP3   OH230996   2.624   0.750   0.819  0.2650  0.3822  0.2712
 3194TIP3    H130997   2.544   0.783   0.778 -0.2553  0.0616  0.9993
 3194TIP3    H230998   2.593   0.705   0.898  0.9178 -2.0987 -0.8143
 3195TIP3   OH230999   3.358   4.066  13.878  0.0662  0.3435 -0.5640
 3195TIP3    H131000   3.442   4.028  13.853  0.6345  1.3579 -0.2492
 3195TIP3    H231001   3.316   4.089  13.795  0.8572  1.4096 -0.6864
 3196TIP3   OH231002   0.327   2.466  12.242  0.2764 -0.0395 -0.3157
 3196TIP3    H131003   0.299   2.395  12.185  1.0838 -0.0271 -0.7412
 3196TIP3    H231004   0.384   2.425  12.306  0.8718  0.2380 -0.6556
 3197TIP3   OH231005   0.734   6.396   4.935  0.7292 -0.7189  0.3698
 3197TIP3    H131006   0.670   6.461   4.964  1.0100  1.9602 -4.0367
 3197TIP3    H231007   0.814   6.418   4.983  0.0343  0.2592  1.1287
 3198TIP3   OH231008   1.889   3.922   0.887 -0.0505  0.0839  0.3616
 3198TIP3    H131009   1.925   3.889   0.805  0.9379  1.8000  0.0682
 3198TIP3    H231010   1.897   4.017   0.881  0.5403  0.2439  2.6566
 3199TIP3   OH231011   3.790   2.497  14.305 -0.0037  0.7328 -0.3243
 3199TIP3    H131012   3.830   2.583  14.301 -1.0228  1.2182 -0.4728
 3199TIP3    H231013   3.696   2.513  14.293 -0.0446 -0.5623 -2.1834
 3200TIP3   OH231014   0.596   1.810   0.305  0.1886 -0.0613 -0.2183
 3200TIP3    H131015   0.525   1.767   0.256  0.0640  0.8092 -0.8341
 3200TIP3    H231016   0.593   1.770   0.392 -1.6602  0.5802  0.0557
 3201TIP3   OH231017   3.647   0.815   3.162  0.3980  0.3074 -0.2078
 3201TIP3    H131018   3.694   0.777   3.236  0.6735 -0.8452 -0.9402
 3201TIP3    H231019   3.557   0.826   3.193  0.6533  0.4452  0.4970
 3202TIP3   OH231020   5.522   1.513  14.591 -0.2554  0.1574  0.0926
 3202TIP3    H131021   5.469   1.501  14.512  0.2097 -3.0697  0.1323
 3202TIP3    H231022   5.521   1.427  14.634  0.3899  1.5019  3.0721
 3203TIP3   OH231023   3.387   1.015  15.450 -0.0493  0.6482 -0.0968
 3203TIP3    H131024   3.317   1.073  15.479  0.7154  1.6794 -0.2316
 3203TIP3    H231025   3.456   1.074  15.419  0.1718 -0.3548 -1.6490
 3204TIP3   OH231026   0.076   2.607   3.201  0.0754 -0.1257  0.1807
 3204TIP3    H131027  -0.015   2.636   3.213  0.4662  0.6928  1.3497
 3204TIP3    H231028   0.104   2.649   3.120 -0.2687  0.4909  0.3688
 3205TIP3   OH231029   4.656   2.698   2.406  0.2588 -0.6243 -0.6473
 3205TIP3    H131030   4.596   2.753   2.356 -0.0788  0.3764  0.8128
 3205TIP3    H231031   4.599   2.637   2.453  0.4065 -0.0574  0.2854
 3206TIP3   OH231032   2.412   3.861   5.176  0.5290  0.8480  0.3487
 3206TIP3    H131033   2.426   3.840   5.269 -0.1306 -0.2921  0.2217
 3206TIP3    H231034   2.331   3.815   5.154  0.6013  1.2292 -0.7608
 3207TIP3   OH231035   0.372   0.398  13.944  0.3521 -0.1739 -0.4314
 3207TIP3    H131036   0.432   0.472  13.954  0.1071  0.1438 -1.2495
 3207TIP3    H231037   0.285   0.437  13.950  0.2250 -0.4302 -0.6157
 3208TIP3   OH231038   4.592   1.630   1.646  0.2072  0.2453  0.5179
 3208TIP3    H131039   4.541   1.708   1.667 -1.7949 -0.5258 -1.1854
 3208TIP3    H231040   4.630   1.649   1.560 -0.7508 -0.8221 -0.1683
 3209TIP3   OH231041   6.394   5.407  15.458 -0.3467 -0.5767  0.2207
 3209TIP3    H131042   6.375   5.466  15.385 -0.7977 -1.2985 -0.2667
 3209TIP3    H231043   6.331   5.431  15.526 -0.4602 -0.4289  0.0639
 3210TIP3   OH231044   1.333   2.745  14.925  0.4301  0.1595  0.0497
 3210TIP3    H131045   1.312   2.812  14.991  0.5855 -0.9891  1.3075
 3210TIP3    H231046   1.367   2.795  14.851  1.4647  1.4327  1.3114
 3211TIP3   OH231047   5.723   5.169   1.587  0.5612  0.1581 -0.2060
 3211TIP3    H131048   5.800   5.157   1.642  0.2840 -1.0572 -0.0526
 3211TIP3    H231049   5.720   5.089   1.533 -0.6967  0.1052 -0.0730
 3212TIP3   OH231050   3.306   5.537  14.095  0.0949  0.4795  0.2194
 3212TIP3    H131051   3.228   5.592  14.099  0.2219  0.7705 -0.8797
 3212TIP3    H231052   3.323   5.527  14.001  0.5605 -0.7421  0.4116
 3213TIP3   OH231053   0.523   0.051   5.414  0.2238 -0.3617  0.4629
 3213TIP3    H131054   0.564   0.116   5.355 -0.0250 -0.6463 -0.0306
 3213TIP3    H231055   0.444   0.024   5.368 -0.1254 -0.3843  1.0665
 3214TIP3   OH231056   3.396   0.398  14.348 -0.2169  0.2583 -0.0717
 3214TIP3    H131057   3.327   0.457  14.320 -0.5533  0.4888  1.1907
 3214TIP3    H231058   3.365   0.360  14.430  1.2059  0.4773  0.6080
 3215TIP3   OH231059   0.403   5.098  13.777  0.2065 -0.0880 -0.3692
 3215TIP3    H131060   0.367   5.017  13.811 -0.9861  0.4881 -0.1969
 3215TIP3    H231061   0.330   5.160  13.779  1.3092  1.2513  0.3817
 3216TIP3   OH231062   1.994   2.619   5.314 -0.1228  0.0522 -0.2384
 3216TIP3    H131063   2.039   2.545   5.272  1.1466  0.6538 -0.0055
 3216TIP3    H231064   2.062   2.661   5.366 -1.0582  0.8380  0.3754
 3217TIP3   OH231065   3.203   5.235  13.320  0.1925 -0.0283  0.4303
 3217TIP3    H131066   3.263   5.303  13.290 -2.0329  2.2147  0.6612
 3217TIP3    H231067   3.180   5.261  13.409 -3.8815  1.4810 -0.8381
 3218TIP3   OH231068   0.305   2.045   2.870 -0.0289  0.6925 -0.6771
 3218TIP3    H131069   0.322   2.038   2.964 -1.6710 -0.9423 -0.4535
 3218TIP3    H231070   0.390   2.028   2.829  0.3686 -0.2988  0.4913
 3219TIP3   OH231071   5.494   2.419  14.239 -0.0870  0.3091 -0.1470
 3219TIP3    H131072   5.426   2.448  14.178  0.7434  0.6397 -0.9519
 3219TIP3    H231073   5.542   2.351  14.191  0.7140  0.7207  0.0459
 3220TIP3   OH231074   2.707   6.194   0.875  0.2532 -0.6949  0.2496
 3220TIP3    H131075   2.612   6.191   0.879  0.0893  2.0126 -0.0982
 3220TIP3    H231076   2.730   6.286   0.886  2.9313 -1.4024  1.5633
 3221TIP3   OH231077   4.634   1.784  16.527 -0.4936  0.2711  0.3218
 3221TIP3    H131078   4.691   1.791  16.604  1.0906  0.1658 -0.8055
 3221TIP3    H231079   4.578   1.708  16.545  1.2769 -1.0424  0.4872
 3222TIP3   OH231080   2.466   0.719  15.948 -0.1185  0.3366  0.4798
 3222TIP3    H131081   2.405   0.684  15.883  2.5841  0.7865 -2.5790
 3222TIP3    H231082   2.430   0.805  15.971 -1.0146  0.3114 -0.7310
 3223TIP3   OH231083   5.211   4.204  11.209 -0.4670  0.5096 -0.3248
 3223TIP3    H131084   5.128   4.170  11.175 -1.6974  2.4653  0.4989
 3223TIP3    H231085   5.185   4.261  11.282  1.6602  0.7774  0.3028
 3224TIP3   OH231086   5.250   2.122  16.169  0.0388  0.3561  0.0024
 3224TIP3    H131087   5.336   2.166  16.165 -0.6685  1.8768  0.6966
 3224TIP3    H231088   5.255   2.066  16.247  0.8962 -0.7288 -0.7990
 3225TIP3   OH231089   3.166   2.276   0.375  0.5211 -0.7527  1.2721
 3225TIP3    H131090   3.189   2.365   0.403  0.2496 -0.0287 -0.6563
 3225TIP3    H231091   3.071   2.278   0.362  0.5527 -1.2193  0.9173
 3226TIP3   OH231092   5.631   4.857   6.610  0.7943 -0.5483  0.5958
 3226TIP3    H131093   5.591   4.824   6.529  3.0503  1.0119 -1.3088
 3226TIP3    H231094   5.636   4.952   6.597  0.8764 -0.1961  2.7819
 3227TIP3   OH231095   6.495   5.713   1.502  0.6939  0.1309  0.4038
 3227TIP3    H131096   6.400   5.701   1.502  0.7778 -0.6109  0.1632
 3227TIP3    H231097   6.520   5.713   1.595  0.6107 -1.0684  0.4403
 3228TIP3   OH231098   6.047   3.999   3.896 -0.0861 -0.6368  0.0333
 3228TIP3    H131099   6.007   3.949   3.825  1.3491 -0.8918 -0.6267
 3228TIP3    H231100   5.987   4.072   3.911 -1.1153 -1.3603 -0.4652
 3229TIP3   OH231101   0.345   3.253   4.997 -0.3506  0.2896 -0.7356
 3229TIP3    H131102   0.301   3.248   5.082 -0.8060  2.1135 -0.8169
 3229TIP3    H231103   0.280   3.221   4.934 -0.2513 -0.4272 -0.4789
 3230TIP3   OH231104   0.627   0.810   5.145 -0.6462  0.2495  0.8783
 3230TIP3    H131105   0.645   0.899   5.114  1.0369  0.0211  1.1180
 3230TIP3    H231106   0.596   0.822   5.235 -0.7928  0.6072  0.7829
 3231TIP3   OH231107   2.685   0.388   1.404 -0.6262  0.0167  0.3673
 3231TIP3    H131108   2.615   0.446   1.435 -1.1780  0.0725 -0.9354
 3231TIP3    H231109   2.641   0.322   1.351  0.2031 -0.5730  0.3814
 3232TIP3   OH231110   2.560   6.089  15.765  0.0958 -0.4816  0.3938
 3232TIP3    H131111   2.528   6.170  15.806  2.0610  0.0889  0.9328
 3232TIP3    H231112   2.547   6.102  15.672  0.3216  0.4572  0.4817
 3233TIP3   OH231113   0.589   1.856   5.372  0.2913  0.3339 -0.0382
 3233TIP3    H131114   0.531   1.783   5.392 -0.6277  0.5546 -1.7330
 3233TIP3    H231115   0.592   1.860   5.276  2.0046  1.2081 -0.0012
 3234TIP3   OH231116   2.626   2.881   4.041 -0.2122  0.9735  0.3310
 3234TIP3    H131117   2.671   2.822   4.102  0.3883  1.0946  0.0194
 3234TIP3    H231118   2.558   2.923   4.094 -1.8771 -1.3126  0.1613
 3235TIP3   OH231119   5.672   3.465   4.813 -0.2803 -0.1363  0.0720
 3235TIP3    H131120   5.615   3.541   4.802  0.1453  0.0735 -0.7415
 3235TIP3    H231121   5.760   3.502   4.825  0.1816 -0.4876 -1.8404
 3236TIP3   OH231122   2.119   2.764  12.675 -0.1551 -0.1270 -0.0739
 3236TIP3    H131123   2.208   2.780  12.645 -0.1257 -1.1898 -0.5657
 3236TIP3    H231124   2.072   2.732  12.598 -0.8817  0.1020  0.2607
 3237TIP3   OH231125   2.152   4.795   3.318  0.4327  0.0517  0.0802
 3237TIP3    H131126   2.222   4.786   3.382  1.5134  1.2038 -0.8986
 3237TIP3    H231127   2.149   4.888   3.298 -1.1616 -0.0229 -0.1494
 3238TIP3   OH231128   2.717   6.465   4.914  0.3244 -0.0343  0.3990
 3238TIP3    H131129   2.730   6.420   4.997  0.7765 -1.9461 -0.6534
 3238TIP3    H231130   2.799   6.512   4.898  0.1821  0.4588  1.0701
 3239TIP3   OH231131   5.036   2.873  15.135 -0.6809  0.1570 -0.5093
 3239TIP3    H131132   5.128   2.901  15.131 -0.4733 -0.1416  1.4606
 3239TIP3    H231133   4.991   2.935  15.077  0.4138  1.8781  0.3640
 3240TIP3   OH231134   5.854   4.651   4.766  0.3175  0.2386 -0.2954
 3240TIP3    H131135   5.822   4.712   4.699 -0.1637  1.1442  0.7363
 3240TIP3    H231136   5.822   4.565   4.737  0.8098  0.4827 -1.6447
 3241TIP3   OH231137   5.155   3.134   4.201  0.3065 -0.1806 -0.1649
 3241TIP3    H131138   5.122   3.166   4.285 -1.1021 -2.7044  0.3687
 3241TIP3    H231139   5.082   3.148   4.140  0.3265 -0.6796 -0.3138
 3242TIP3   OH231140   6.523   4.760   1.834  0.3085  0.2455 -0.1425
 3242TIP3    H131141   6.606   4.718   1.855 -1.0273 -2.1251  0.8618
 3242TIP3    H231142   6.512   4.745   1.740  0.4026 -0.6957 -0.0149
 3243TIP3   OH231143   1.985   5.336   6.417 -0.7062 -0.0795 -0.3395
 3243TIP3    H131144   1.995   5.260   6.475 -1.7314 -0.4653 -0.6455
 3243TIP3    H231145   1.945   5.403   6.473  0.2767  0.2693 -0.0473
 3244TIP3   OH231146   3.376   3.559  16.885 -0.2165  0.0820  0.0197
 3244TIP3    H131147   3.315   3.594  16.820  0.0130  0.1700 -0.1517
 3244TIP3    H231148   3.323   3.546  16.964 -0.3111  0.7832  0.0769
 3245TIP3   OH231149   3.118   4.573   5.613 -0.1611 -0.2402  0.0655
 3245TIP3    H131150   3.097   4.617   5.696  1.6688 -2.0798  1.6336
 3245TIP3    H231151   3.158   4.642   5.559 -0.3600  0.7596  1.1455
 3246TIP3   OH231152   5.303   0.816  12.577  0.0081  0.2828  0.5012
 3246TIP3    H131153   5.261   0.747  12.525  0.8546 -0.6467  1.0285
 3246TIP3    H231154   5.289   0.789  12.668 -0.9775  1.6079  0.7696
 3247TIP3   OH231155   2.789   2.112  16.743  0.0335  0.5615  0.4686
 3247TIP3    H131156   2.700   2.077  16.750 -0.1401  0.6485 -0.8964
 3247TIP3    H231157   2.777   2.206  16.731  0.3020  0.5591  0.1626
 3248TIP3   OH231158   0.753   3.800  12.097 -0.3429 -0.2316  0.2857
 3248TIP3    H131159   0.836   3.791  12.144 -0.3009 -0.0298  0.2508
 3248TIP3    H231160   0.706   3.868  12.145 -0.9981 -1.1877  1.0402
 3249TIP3   OH231161   2.117   3.056   2.695  0.1139  0.6091  0.2387
 3249TIP3    H131162   2.200   3.105   2.693  1.0360 -0.7527  2.1180
 3249TIP3    H231163   2.123   2.998   2.619  0.2724  1.4306 -0.3956
 3250TIP3   OH231164   4.713   5.529  14.549 -0.1135  0.7644  0.0741
 3250TIP3    H131165   4.651   5.591  14.588  0.5164  1.2969  0.2442
 3250TIP3    H231166   4.798   5.552  14.587 -0.0977 -1.2737  1.4476
 3251TIP3   OH231167   1.384   3.763   5.415  0.0987 -0.2435 -0.8710
 3251TIP3    H131168   1.465   3.727   5.381 -0.2356 -0.4780 -1.4349
 3251TIP3    H231169   1.410   3.814   5.492  0.8597  0.2750 -1.4602
 3252TIP3   OH231170   4.735   0.310   2.757 -0.2027  0.2771  0.4604
 3252TIP3    H131171   4.830   0.309   2.750 -0.2910 -0.5864 -1.1006
 3252TIP3    H231172   4.716   0.262   2.838  0.6209 -3.0755 -1.1670
 3253TIP3   OH231173   3.587   2.193  16.139 -0.2760 -0.1764 -0.5438
 3253TIP3    H131174   3.614   2.234  16.057  1.0706  3.6166  1.5398
 3253TIP3    H231175   3.625   2.248  16.207 -1.7342 -2.8057  2.7046
 3254TIP3   OH231176   2.183   6.133   2.302 -0.1767 -0.2705 -1.3159
 3254TIP3    H131177   2.093   6.123   2.333  0.5877 -2.0320  0.6205
 3254TIP3    H231178   2.224   6.191   2.365  0.5319 -1.1262 -0.9601
 3255TIP3   OH231179   1.260   0.833   4.022  0.0475  0.4167 -0.0679
 3255TIP3    H131180   1.307   0.917   4.027 -2.7195  2.0044  1.5329
 3255TIP3    H231181   1.273   0.793   4.108 -0.7307  0.4356  0.0654
 3256TIP3   OH231182   1.224   2.174  13.676  0.2187 -0.1543 -0.5346
 3256TIP3    H131183   1.263   2.130  13.600  2.1074  1.8419 -0.8330
 3256TIP3    H231184   1.151   2.224  13.640  2.2200  2.2935 -1.5504
 3257TIP3   OH231185   6.316   0.773   5.714 -0.2375 -0.1939  0.2042
 3257TIP3    H131186   6.359   0.754   5.631  0.5348  0.6039  0.4054
 3257TIP3    H231187   6.292   0.865   5.708  1.1918  0.3024  1.4265
 3258TIP3   OH231188   5.210   3.665   1.106 -0.4277  0.4524 -0.2476
 3258TIP3    H131189   5.280   3.605   1.130 -1.8332 -1.5723 -0.9244
 3258TIP3    H231190   5.250   3.752   1.110  1.1169 -0.2871  2.8771
 3259TIP3   OH231191   1.341   3.527   6.568  0.8335 -0.7805  0.1749
 3259TIP3    H131192   1.305   3.460   6.627  0.2934 -0.9553 -0.3405
 3259TIP3    H231193   1.367   3.478   6.490  0.3535 -0.3848 -0.2443
 3260TIP3   OH231194   2.404   4.086  16.900 -0.2139  0.2360  0.7377
 3260TIP3    H131195   2.498   4.099  16.886 -0.2668  1.4020  1.2999
 3260TIP3    H231196   2.395   4.083  16.996 -0.8849  1.4369  0.7349
 3261TIP3   OH231197   6.205   6.564  17.265  0.3000 -0.2616 -0.4692
 3261TIP3    H131198   6.216   6.601  17.352 -2.0981 -1.1771  0.2999
 3261TIP3    H231199   6.150   6.627  17.218 -0.7081 -1.0409 -0.3758
 3262TIP3   OH231200   1.904   6.612  16.621  0.4991 -0.3335 -0.5074
 3262TIP3    H131201   1.828   6.610  16.564  0.1038 -1.1496  0.0358
 3262TIP3    H231202   1.897   6.696  16.668  0.2415 -0.1581 -0.8591
 3263TIP3   OH231203   4.307   5.843  12.669  0.0825  0.0997  0.1638
 3263TIP3    H131204   4.375   5.784  12.701 -0.2197 -0.3936 -0.0946
 3263TIP3    H231205   4.232   5.829  12.728  0.0421  0.3016  0.1640
 3264TIP3   OH231206   5.666   3.989   2.924  0.0001 -0.3688  0.2401
 3264TIP3    H131207   5.590   3.995   2.866  0.1670  0.5514  0.1126
 3264TIP3    H231208   5.723   3.925   2.883  0.6814  1.1526 -1.2736
 3265TIP3   OH231209   2.205   3.157  14.835 -0.8532 -0.7090  0.1481
 3265TIP3    H131210   2.285   3.107  14.848 -1.5630 -2.5480 -2.0054
 3265TIP3    H231211   2.235   3.243  14.807  0.3825 -1.1685 -0.0120
 3266TIP3   OH231212   2.905   5.004   1.475 -0.1292  0.4743  0.1611
 3266TIP3    H131213   2.908   4.916   1.437  1.5351  0.4203  0.3534
 3266TIP3    H231214   2.833   5.047   1.429 -2.2145 -1.5222  1.3327
 3267TIP3   OH231215   1.502   1.747   6.167  0.5228  0.3691  0.3115
 3267TIP3    H131216   1.572   1.719   6.225 -0.6025 -1.6980  0.7989
 3267TIP3    H231217   1.431   1.773   6.226  0.4797  1.3844 -0.1675
 3268TIP3   OH231218   4.410   1.715   3.862  0.3032  0.5607  0.2710
 3268TIP3    H131219   4.383   1.744   3.949 -0.1846  1.4580 -0.1659
 3268TIP3    H231220   4.478   1.650   3.878 -0.2913  0.1902  1.3387
 3269TIP3   OH231221   5.502   6.024   5.354  0.2261  0.1821  0.2149
 3269TIP3    H131222   5.485   6.113   5.384 -2.2069  0.4198 -1.5282
 3269TIP3    H231223   5.560   5.986   5.421  1.2132  2.9779  1.0741
 3270TIP3   OH231224   0.968   0.573  12.233 -0.2721 -0.4249 -0.2061
 3270TIP3    H131225   1.063   0.569  12.238 -0.2363  1.0641  1.1543
 3270TIP3    H231226   0.940   0.590  12.323 -1.6026  1.9486 -0.9618
 3271TIP3   OH231227   4.346   2.829  13.687 -0.1782 -0.7581 -0.4525
 3271TIP3    H131228   4.356   2.906  13.630  1.5175  1.2662  2.2875
 3271TIP3    H231229   4.389   2.855  13.769 -1.5065 -3.8631  1.3932
 3272TIP3   OH231230   4.647   4.885  15.764 -0.2513  0.2584 -0.5495
 3272TIP3    H131231   4.603   4.899  15.848  1.7445  0.0837  0.5903
 3272TIP3    H231232   4.653   4.972  15.725  1.1753  0.8170  0.7941
 3273TIP3   OH231233   0.604   2.653   4.493 -0.4773 -0.3256  0.0602
 3273TIP3    H131234   0.590   2.581   4.554  0.4538 -1.1026 -0.6167
 3273TIP3    H231235   0.628   2.610   4.411  1.1230  0.7659 -0.0792
 3274TIP3   OH231236   6.004   0.520   4.924  0.3198  0.2364 -0.4286
 3274TIP3    H131237   5.990   0.524   4.829 -2.2449  1.7336 -0.0637
 3274TIP3    H231238   5.928   0.473   4.958  0.8643  0.3167  0.9714
 3275TIP3   OH231239   4.040   4.117   1.150  0.1777 -0.0543  0.0592
 3275TIP3    H131240   4.006   4.175   1.219  1.0257 -1.0819  1.3964
 3275TIP3    H231241   3.962   4.088   1.102 -0.1760  3.4555 -1.7940
 3276TIP3   OH231242   5.685   2.292   0.770 -0.0051 -0.1231  0.7571
 3276TIP3    H131243   5.695   2.291   0.675 -2.1323  1.4677  0.4439
 3276TIP3    H231244   5.756   2.236   0.802  0.8705 -0.5696 -1.7305
 3277TIP3   OH231245   2.752   1.771   0.758 -0.2243 -0.3155 -0.0112
 3277TIP3    H131246   2.760   1.723   0.840 -0.2980 -1.1316 -0.4740
 3277TIP3    H231247   2.778   1.861   0.780  0.0051 -0.5840  0.8392
 3278TIP3   OH231248   6.782   5.062  14.351 -0.2545  0.2308 -0.4610
 3278TIP3    H131249   6.839   5.138  14.358 -0.5306  0.4710 -0.7632
 3278TIP3    H231250   6.795   5.014  14.433  1.3005 -0.3682 -1.0150
 3279TIP3   OH231251   3.062   2.451  14.779  0.1099 -0.0230  0.8131
 3279TIP3    H131252   3.098   2.529  14.821 -0.4165  0.2477  0.7713
 3279TIP3    H231253   3.128   2.426  14.714 -0.0824  0.8820  0.2504
 3280TIP3   OH231254   0.836   5.299  11.675  0.1126  0.8692 -0.3926
 3280TIP3    H131255   0.911   5.351  11.646 -1.0767  1.8635 -1.8640
 3280TIP3    H231256   0.797   5.352  11.745  0.5714  0.5129  0.1416
 3281TIP3   OH231257   3.702   4.476   0.970  0.2280 -0.3679 -0.1441
 3281TIP3    H131258   3.763   4.540   1.005 -0.8967 -0.2499  1.7083
 3281TIP3    H231259   3.619   4.494   1.014 -0.7452 -1.5447 -1.3961
 3282TIP3   OH231260   1.672   6.748  12.532  0.1360  0.4539  0.1765
 3282TIP3    H131261   1.634   6.749  12.620  1.2237 -1.4232  0.7530
 3282TIP3    H231262   1.621   6.682  12.485 -0.5215  1.5442 -0.6702
 3283TIP3   OH231263   0.854   6.068  14.180  0.0408 -0.0884  0.4818
 3283TIP3    H131264   0.760   6.050  14.186 -0.3353  1.7199  0.6207
 3283TIP3    H231265   0.881   6.026  14.098 -0.8838 -0.5985  0.4177
 3284TIP3   OH231266   0.063   3.715   4.435  0.7729  0.0176  0.0086
 3284TIP3    H131267   0.092   3.731   4.345  0.3976 -0.1538 -0.1480
 3284TIP3    H231268   0.075   3.621   4.448 -0.2693 -0.1735 -0.2776
 3285TIP3   OH231269   3.864   3.907  11.838  0.4817  0.7139  0.5156
 3285TIP3    H131270   3.801   3.953  11.782 -1.2465 -1.6182  0.3953
 3285TIP3    H231271   3.933   3.878  11.779  0.7797  1.7131  0.3430
 3286TIP3   OH231272   6.782   1.514  11.356  0.5393  0.4289  0.0073
 3286TIP3    H131273   6.776   1.506  11.260  0.7305 -2.1310  0.1595
 3286TIP3    H231274   6.717   1.453  11.390 -0.6429  2.4400  1.5869
 3287TIP3   OH231275   2.388   0.033  16.394  0.1993  0.6596  0.0138
 3287TIP3    H131276   2.438   0.114  16.397 -0.8974  1.3467  0.6305
 3287TIP3    H231277   2.307   0.057  16.349  0.6864 -0.5975 -1.6179
 3288TIP3   OH231278   2.406   2.120   6.205 -0.8419  0.1352  0.2034
 3288TIP3    H131279   2.436   2.079   6.286  0.5405 -0.3847 -0.5343
 3288TIP3    H231280   2.392   2.212   6.227  1.5308  0.4516  0.5783
 3289TIP3   OH231281   1.292   1.092   6.141 -0.6494  0.3597 -0.1828
 3289TIP3    H131282   1.313   1.034   6.214 -1.0226 -0.2948 -0.5861
 3289TIP3    H231283   1.291   1.179   6.180  0.8001  0.2149  0.2600
 3290TIP3   OH231284   5.115   2.653  17.100 -0.2937 -0.0591  0.2074
 3290TIP3    H131285   5.180   2.604  17.150 -1.1700  0.6904  2.1606
 3290TIP3    H231286   5.146   2.744  17.105  1.3665 -0.2529 -3.4381
 3291TIP3   OH231287   6.517   2.075   0.180 -0.1159 -0.1057 -0.4579
 3291TIP3    H131288   6.521   1.991   0.134  0.1571  0.7363 -2.0303
 3291TIP3    H231289   6.426   2.083   0.208  0.1461 -1.5357  0.9624
 3292TIP3   OH231290   6.648   2.604   5.299 -0.1391 -0.3524 -0.0201
 3292TIP3    H131291   6.702   2.525   5.305  0.1730 -0.1515 -0.1459
 3292TIP3    H231292   6.685   2.662   5.366 -1.9085 -1.2128  1.8174
 3293TIP3   OH231293   5.876   0.394  12.068  0.0128 -0.9543  0.1759
 3293TIP3    H131294   5.882   0.489  12.063  0.5258 -0.9471  0.8100
 3293TIP3    H231295   5.907   0.363  11.983 -0.2526 -0.5569 -0.0698
 3294TIP3   OH231296   3.934   3.054  13.001 -0.1357  0.4368 -0.1253
 3294TIP3    H131297   4.027   3.037  13.012 -0.0690 -0.2536 -1.4284
 3294TIP3    H231298   3.915   3.130  13.056  1.0790  0.2690  0.5458
 3295TIP3   OH231299   3.123   6.026  12.906  0.2687  0.1662 -0.7965
 3295TIP3    H131300   3.072   5.950  12.878 -0.3890 -0.1188  1.0473
 3295TIP3    H231301   3.214   5.995  12.907 -0.0632 -0.8349  0.5913
 3296TIP3   OH231302   4.407   6.146   2.745  0.1051 -0.0672  0.2086
 3296TIP3    H131303   4.326   6.195   2.733  0.5356  1.1175  1.7664
 3296TIP3    H231304   4.403   6.076   2.680 -1.5508  0.7367 -0.6089
 3297TIP3   OH231305   2.471   3.146  14.063 -0.3627 -0.3448  0.3897
 3297TIP3    H131306   2.546   3.114  14.013 -1.2714 -1.2509 -0.4504
 3297TIP3    H231307   2.494   3.128  14.154  0.3313 -0.8473  0.1266
 3298TIP3   OH231308   2.916   6.774   2.786  0.6027 -0.3474  0.2696
 3298TIP3    H131309   2.861   6.699   2.762  2.4543 -1.6576 -0.1322
 3298TIP3    H231310   2.935   6.817   2.703  0.0575  0.2160  0.4301
 3299TIP3   OH231311   0.306   2.513   1.740  0.0660  0.3504  0.1656
 3299TIP3    H131312   0.257   2.539   1.818 -0.7151  0.5091 -0.3700
 3299TIP3    H231313   0.353   2.434   1.766 -1.5161 -0.5789  0.3001
 3300TIP3   OH231314   6.566   1.026  16.971  0.2126 -0.4483  0.4549
 3300TIP3    H131315   6.659   1.022  16.994  0.8033  2.4131 -0.9719
 3300TIP3    H231316   6.544   0.937  16.943  2.6359 -1.0768  0.3560
 3301TIP3   OH231317   2.039   0.536   2.869  0.1308  0.3005 -0.2677
 3301TIP3    H131318   2.025   0.497   2.783 -0.8412  0.7242 -0.3231
 3301TIP3    H231319   2.119   0.495   2.902  2.5544  2.5482 -2.7821
 3302TIP3   OH231320   0.503   1.388  11.637  0.2814  0.5429  0.7978
 3302TIP3    H131321   0.445   1.464  11.627 -2.5682 -1.6438 -1.1972
 3302TIP3    H231322   0.572   1.403  11.572 -1.6001  0.4394 -1.3976
 3303TIP3   OH231323   0.884   0.965   1.048  0.2554  0.5716 -0.5422
 3303TIP3    H131324   0.820   0.911   1.094  1.1847  1.5426  2.1348
 3303TIP3    H231325   0.959   0.907   1.036 -0.0810  0.2405 -1.0654
 3304TIP3   OH231326   6.076   4.063  15.068  0.1783  0.2757  0.2412
 3304TIP3    H131327   6.011   4.087  15.002 -0.8305 -1.8927  0.3761
 3304TIP3    H231328   6.157   4.105  15.037 -0.9650  2.0125 -0.5763
 3305TIP3   OH231329   0.790   3.180   4.368 -0.3850 -0.7378  0.3367
 3305TIP3    H131330   0.793   3.120   4.442  2.3639 -2.7419 -1.1933
 3305TIP3    H231331   0.879   3.215   4.362 -0.6448 -0.3130 -1.7285
 3306TIP3   OH231332   1.641   2.806  12.764  0.2014  0.0171  0.3275
 3306TIP3    H131333   1.733   2.783  12.755 -0.0337 -0.7065 -0.2826
 3306TIP3    H231334   1.594   2.724  12.750 -0.5569  0.4871  0.0771
 3307TIP3   OH231335   1.133   2.989   3.595  0.0406 -0.1458  0.2806
 3307TIP3    H131336   1.163   2.930   3.526  0.6964  1.0635 -0.4944
 3307TIP3    H231337   1.210   3.005   3.649 -0.3072 -0.5513  0.9110
 3308TIP3   OH231338   3.024   1.580   6.296  0.4807  0.4416  0.7557
 3308TIP3    H131339   2.946   1.636   6.303  0.3617  0.6676 -1.5937
 3308TIP3    H231340   2.990   1.491   6.298  0.1068  0.5415 -0.4881
 3309TIP3   OH231341   2.162   3.900   2.681 -0.5496  0.3003 -0.1985
 3309TIP3    H131342   2.070   3.918   2.699 -0.4750  0.1067  0.3941
 3309TIP3    H231343   2.162   3.849   2.600 -1.0144 -0.3852  0.2313
 3310TIP3   OH231344   0.346   0.768   1.761 -0.4883 -0.2525 -0.0626
 3310TIP3    H131345   0.299   0.842   1.801 -0.0771 -0.6056  1.1211
 3310TIP3    H231346   0.437   0.796   1.759 -0.1083 -1.2271  1.6866
 3311TIP3   OH231347   0.289   1.291  13.140 -0.4046 -0.4178  0.5650
 3311TIP3    H131348   0.251   1.296  13.052 -1.7482 -0.4819  1.1318
 3311TIP3    H231349   0.275   1.379  13.176  2.2062  0.3696 -0.0665
 3312TIP3   OH231350   6.628   6.761   0.664 -0.0836  0.3894 -0.4533
 3312TIP3    H131351   6.664   6.727   0.746 -1.7775 -0.3479  0.0274
 3312TIP3    H231352   6.577   6.689   0.629  0.1990  0.8704 -1.9249
 3313TIP3   OH231353   1.290   3.728   0.642 -0.7620 -0.5336 -0.5752
 3313TIP3    H131354   1.373   3.712   0.598 -0.2744 -0.7941  0.4407
 3313TIP3    H231355   1.269   3.646   0.686  0.1950  0.5448  2.0533
 3314TIP3   OH231356   1.783   0.511  15.618  0.1010 -0.4729  0.3065
 3314TIP3    H131357   1.849   0.462  15.666  0.0175  1.9284  3.1513
 3314TIP3    H231358   1.814   0.510  15.527  2.5490 -1.7415  1.0563
 3315TIP3   OH231359   1.795   5.879  16.448 -0.3965 -1.0564 -0.1774
 3315TIP3    H131360   1.828   5.910  16.532 -0.5284  0.1887 -0.5633
 3315TIP3    H231361   1.703   5.859  16.464 -0.3290 -1.1806  0.0605
 3316TIP3   OH231362   0.726   4.543   3.972 -0.5076  0.1038 -0.2862
 3316TIP3    H131363   0.783   4.483   3.924  0.8952  0.6389  0.6393
 3316TIP3    H231364   0.759   4.540   4.062 -2.9398 -0.7524  0.6739
 3317TIP3   OH231365   2.358   1.968   3.600 -0.1911  0.7697 -0.0943
 3317TIP3    H131366   2.445   1.928   3.591 -0.6887 -0.4652  0.2919
 3317TIP3    H231367   2.353   1.995   3.692 -0.7522 -0.5478  0.2885
 3318TIP3   OH231368   2.269   5.286   6.058  0.4134  0.4890  0.3336
 3318TIP3    H131369   2.280   5.380   6.046 -0.0746  0.6792  1.2775
 3318TIP3    H231370   2.276   5.273   6.153 -0.2410 -0.3230  0.2820
 3319TIP3   OH231371   4.167   6.665   1.937  0.0961 -0.1171 -0.8087
 3319TIP3    H131372   4.182   6.580   1.979  0.0494  0.7966  1.1967
 3319TIP3    H231373   4.074   6.666   1.917  0.2309 -0.8035 -1.5273
 3320TIP3   OH231374   3.789   2.280  15.262 -0.0059  0.1021  0.0333
 3320TIP3    H131375   3.723   2.218  15.292  0.8323  0.3022  2.5022
 3320TIP3    H231376   3.857   2.226  15.222 -0.5069 -0.3234 -0.2495
 3321TIP3   OH231377   0.121   3.498   5.596  0.3301 -0.1180 -0.1554
 3321TIP3    H131378   0.134   3.423   5.654  2.8920 -0.1630 -0.6423
 3321TIP3    H231379   0.068   3.559   5.647  0.7028 -1.0398  1.4075
 3322TIP3   OH231380   6.005   4.040   4.698 -0.2147 -0.0460  0.5797
 3322TIP3    H131381   5.961   4.099   4.759  0.9373  1.4346  0.0489
 3322TIP3    H231382   6.083   4.088   4.670 -0.6604 -0.6666 -2.0288
 3323TIP3   OH231383   4.812   3.057  17.133 -0.1564  0.6407 -0.0232
 3323TIP3    H131384   4.852   3.014  17.209  0.5581  0.9094 -0.2383
 3323TIP3    H231385   4.829   2.997  17.060 -2.2231 -0.4044  0.2626
 3324TIP3   OH231386   6.667   4.402  13.297 -0.4453  0.2507 -0.0600
 3324TIP3    H131387   6.737   4.351  13.337 -0.1026  1.0546  0.3787
 3324TIP3    H231388   6.641   4.351  13.220 -0.2618 -0.6869  0.4836
 3325TIP3   OH231389   0.940   4.709   0.708  0.3071 -0.3357 -0.7846
 3325TIP3    H131390   0.874   4.715   0.777 -0.5409  0.5262 -1.6336
 3325TIP3    H231391   0.982   4.624   0.723 -0.8637 -0.8293 -0.1054
 3326TIP3   OH231392   5.771   0.929  10.625  0.5050  0.2529  0.0811
 3326TIP3    H131393   5.683   0.928  10.587  0.2760 -1.1737  0.5821
 3326TIP3    H231394   5.779   1.015  10.666 -0.7184  0.3305  0.1880
 3327TIP3   OH231395   1.159   2.718  15.658 -0.4752 -0.7096 -0.5453
 3327TIP3    H131396   1.202   2.791  15.614 -1.2774  0.2654  0.2365
 3327TIP3    H231397   1.073   2.753  15.684 -0.2945 -1.4440  1.1772
 3328TIP3   OH231398   3.605   5.672   4.879  0.3790 -0.5854 -0.2333
 3328TIP3    H131399   3.560   5.712   4.953  1.1916 -0.4467  0.1868
 3328TIP3    H231400   3.534   5.636   4.826 -0.2566 -0.0379  0.2237
 3329TIP3   OH231401   5.006   0.614   4.294 -0.0463  0.2644 -0.4862
 3329TIP3    H131402   4.928   0.559   4.291  1.5074 -2.3436  2.0102
 3329TIP3    H231403   5.067   0.573   4.232  0.5191  0.1617  0.1213
 3330TIP3   OH231404   0.266   3.935   2.022 -0.3176  0.5575  0.7963
 3330TIP3    H131405   0.222   3.941   1.937  1.6992  0.2802 -0.3088
 3330TIP3    H231406   0.261   3.842   2.044  0.1694  0.4371  0.4133
 3331TIP3   OH231407   5.515   6.049   2.869 -0.5775 -0.1857 -0.9596
 3331TIP3    H131408   5.537   6.129   2.916 -0.2346  0.4700 -2.1991
 3331TIP3    H231409   5.590   5.991   2.882 -1.9612 -1.4863  2.2983
 3332TIP3   OH231410   4.368   1.711  11.293 -0.1850  0.1786  0.0241
 3332TIP3    H131411   4.272   1.706  11.289 -0.2263 -0.8002  1.4323
 3332TIP3    H231412   4.387   1.805  11.293 -1.2071  0.4020  0.5723
 3333TIP3   OH231413   4.469   2.133  12.075  0.3889  0.0216  0.8415
 3333TIP3    H131414   4.471   2.207  12.135  0.8179  2.1384 -1.5927
 3333TIP3    H231415   4.550   2.085  12.093  0.5452  0.6477  1.8499
 3334TIP3   OH231416   3.054   4.937   1.175  0.2863 -0.3421  0.4366
 3334TIP3    H131417   3.091   5.003   1.234 -2.6789  1.7254  0.2002
 3334TIP3    H231418   3.005   4.988   1.111 -0.1880 -2.7454 -1.2318
 3335TIP3   OH231419   0.005   1.104   5.612  0.2363 -0.5218 -0.0039
 3335TIP3    H131420   0.082   1.075   5.563 -0.3891 -1.5708 -0.4246
 3335TIP3    H231421  -0.051   1.026   5.616 -1.3706  0.5208 -0.8233
 3336TIP3   OH231422   2.365   2.821   0.183  0.2832  0.9444 -0.8016
 3336TIP3    H131423   2.337   2.752   0.243 -0.1474  1.3840 -0.4932
 3336TIP3    H231424   2.367   2.779   0.098  1.5603  0.1279 -0.3943
 3337TIP3   OH231425   4.087   2.126  17.047  0.2593  0.4412  0.4475
 3337TIP3    H131426   4.126   2.113  16.960  1.7159  0.7397  1.0171
 3337TIP3    H231427   4.140   2.071  17.105 -2.2935 -1.8321  0.8410
 3338TIP3   OH231428   6.689   0.464  11.975  0.4352  0.3618  0.2056
 3338TIP3    H131429   6.593   0.463  11.976  0.3307  2.3004 -1.2200
 3338TIP3    H231430   6.714   0.373  11.991 -1.6882 -0.5444 -1.1386
 3339TIP3   OH231431   3.302   2.129   3.227 -0.1342  0.1137  0.5611
 3339TIP3    H131432   3.269   2.119   3.138  0.3172 -0.8681  0.4882
 3339TIP3    H231433   3.374   2.191   3.220  0.3996 -0.5482  0.1019
 3340TIP3   OH231434   1.885   1.949  15.719 -0.1318 -0.1190 -0.3622
 3340TIP3    H131435   1.811   1.970  15.777  1.8588  1.1247  1.8910
 3340TIP3    H231436   1.891   2.024  15.661 -1.0740 -0.5893 -1.1064
 3341TIP3   OH231437   0.048   4.859   1.998 -0.8667  0.8402 -0.5362
 3341TIP3    H131438  -0.002   4.937   2.024 -1.7319  0.5737 -1.3353
 3341TIP3    H231439  -0.008   4.786   2.025  0.6424  0.3943  1.6913
 3342TIP3   OH231440   4.577   1.222   2.171 -0.0457  0.3160  0.4445
 3342TIP3    H131441   4.633   1.167   2.226 -0.1697 -0.8517 -0.5503
 3342TIP3    H231442   4.558   1.168   2.095 -0.1956  1.7375 -0.5798
 3343TIP3   OH231443   2.876   1.158   2.865 -0.3023  0.5699 -0.5302
 3343TIP3    H131444   2.919   1.072   2.859 -0.0832  0.7399 -1.8561
 3343TIP3    H231445   2.946   1.219   2.886 -0.2140  0.5952 -0.8868
 3344TIP3   OH231446   4.850   5.852   6.277 -0.0087  0.1627  0.5204
 3344TIP3    H131447   4.820   5.792   6.208 -1.1931 -1.4553  2.3449
 3344TIP3    H231448   4.941   5.828   6.292  0.5485  1.1330 -1.0266
 3345TIP3   OH231449   4.877   1.295  11.829 -0.5683 -0.0294 -0.0730
 3345TIP3    H131450   4.853   1.224  11.769 -0.7759  0.1220 -0.1737
 3345TIP3    H231451   4.970   1.311  11.813 -0.5451 -0.2137 -0.1189
 3346TIP3   OH231452   6.461   6.382   3.423  0.4472  0.3121  0.6952
 3346TIP3    H131453   6.478   6.429   3.341  0.3569 -1.2729 -0.2846
 3346TIP3    H231454   6.370   6.353   3.416  0.3753  0.3294  1.4638
 3347TIP3   OH231455   1.916   0.306  15.067 -0.5609 -0.0043 -0.3661
 3347TIP3    H131456   1.879   0.389  15.098 -3.1516 -1.2539  0.0936
 3347TIP3    H231457   1.868   0.286  14.987 -0.1614 -1.2119 -0.3245
 3348TIP3   OH231458   0.782   5.518   3.374  0.3841  0.4468  0.2085
 3348TIP3    H131459   0.806   5.456   3.443  1.0774 -0.8475 -1.1106
 3348TIP3    H231460   0.722   5.468   3.318  2.4479  0.2061 -1.9612
 3349TIP3   OH231461   6.045   3.779  16.152 -0.6406 -0.1696 -0.2296
 3349TIP3    H131462   6.078   3.755  16.238 -1.5664 -0.2406  0.1149
 3349TIP3    H231463   6.079   3.712  16.093 -0.1238 -0.2008  0.0985
 3350TIP3   OH231464   6.057   0.757   1.146 -0.0340  0.0331 -0.1711
 3350TIP3    H131465   6.047   0.746   1.052  2.3361 -1.4893 -0.3159
 3350TIP3    H231466   6.038   0.850   1.162 -1.1744  0.1553 -2.0074
 3351TIP3   OH231467   3.417   4.052  15.977 -0.7815 -0.0361 -0.3248
 3351TIP3    H131468   3.486   3.997  15.939  0.4295  0.8628  0.4981
 3351TIP3    H231469   3.425   4.135  15.932 -1.3469  0.0767 -0.2269
 3352TIP3   OH231470   0.476   0.590   0.715 -0.4743  0.0102 -0.8540
 3352TIP3    H131471   0.510   0.664   0.665  0.8085  0.6429  0.8861
 3352TIP3    H231472   0.431   0.629   0.789  0.0149 -0.9392 -0.0347
 3353TIP3   OH231473   5.823   0.347   5.073 -1.0247  0.5569 -0.2029
 3353TIP3    H131474   5.868   0.294   5.007 -0.1207  1.1879 -0.1123
 3353TIP3    H231475   5.730   0.331   5.058 -0.8725  1.3144 -2.1715
 3354TIP3   OH231476   1.789   4.426   0.790  0.3729 -0.2004 -0.0475
 3354TIP3    H131477   1.784   4.512   0.748 -1.1684 -1.0618 -1.7793
 3354TIP3    H231478   1.716   4.425   0.852  1.5745  0.4165  1.4249
 3355TIP3   OH231479   4.376   2.191   3.235  0.3559 -0.6944  0.2827
 3355TIP3    H131480   4.368   2.255   3.164  1.2788  1.4040  1.9654
 3355TIP3    H231481   4.286   2.180   3.267  0.2098 -0.0210  0.1277
 3356TIP3   OH231482   5.698   3.588   3.084  0.7595 -1.6473  0.2601
 3356TIP3    H131483   5.708   3.508   3.032  1.9052 -0.5720 -1.2208
 3356TIP3    H231484   5.741   3.656   3.033 -1.3259  0.2292  0.8645
 3357TIP3   OH231485   0.534   2.728  14.947  0.3229 -0.1000  0.0139
 3357TIP3    H131486   0.533   2.642  14.988 -2.1303  0.1557  0.6853
 3357TIP3    H231487   0.557   2.712  14.856 -0.6796 -1.5526 -0.0050
 3358TIP3   OH231488   1.102   0.645   6.763  0.3847 -0.7954  0.0771
 3358TIP3    H131489   1.109   0.731   6.722 -1.2070 -1.4485 -1.7218
 3358TIP3    H231490   1.175   0.595   6.726 -2.0322 -1.9398 -3.7026
 3359TIP3   OH231491   6.189   0.623  12.910 -0.5092 -0.4607  0.0669
 3359TIP3    H131492   6.165   0.715  12.917 -1.0803 -0.5252 -0.8929
 3359TIP3    H231493   6.284   0.622  12.921  0.1625  0.7786 -3.9153
 3360TIP3   OH231494   4.410   0.814   0.018 -0.5878  0.3913 -0.4487
 3360TIP3    H131495   4.318   0.826   0.041 -0.5160 -0.4155  0.3682
 3360TIP3    H231496   4.432   0.729   0.056  0.2458  0.1458 -1.4483
 3361TIP3   OH231497   0.811   4.486  14.923  0.6203  0.1130  0.3157
 3361TIP3    H131498   0.864   4.539  14.982  1.3932 -0.4330  0.1159
 3361TIP3    H231499   0.862   4.407  14.908 -0.4123 -0.6061  0.4277
 3362TIP3   OH231500   1.894   1.510  16.946  0.3099  0.1100 -0.3505
 3362TIP3    H131501   1.860   1.422  16.933 -0.2029  0.4387 -1.2632
 3362TIP3    H231502   1.851   1.563  16.880  2.0158  0.6964 -1.0382
 3363TIP3   OH231503   0.159   6.038  12.582 -0.0591 -0.1248  0.4186
 3363TIP3    H131504   0.107   6.117  12.597 -0.4640 -0.0599 -1.1891
 3363TIP3    H231505   0.204   6.023  12.665  0.2678  1.9684  0.6648
 3364TIP3   OH231506   6.057   2.510   5.107 -0.1897 -0.8173  0.2827
 3364TIP3    H131507   6.152   2.518   5.114  0.0860 -1.8262 -1.5043
 3364TIP3    H231508   6.037   2.543   5.019 -1.5481 -0.3293  0.7468
 3365TIP3   OH231509   2.015   6.339  14.909 -0.2732 -0.4355 -0.0849
 3365TIP3    H131510   1.975   6.299  14.987  0.8485  1.4927  1.5868
 3365TIP3    H231511   1.958   6.414  14.888 -1.0387 -1.4177 -1.7036
 3366TIP3   OH231512   4.024   4.874   6.137  0.4002 -0.0419 -0.0866
 3366TIP3    H131513   3.993   4.832   6.057  0.4428  1.4857 -0.9479
 3366TIP3    H231514   4.073   4.806   6.182 -1.4080 -1.5626 -0.2917
 3367TIP3   OH231515   2.605   4.840  16.430  0.6940  0.3429 -0.1857
 3367TIP3    H131516   2.561   4.903  16.486  0.2130  0.7244 -0.9672
 3367TIP3    H231517   2.675   4.803  16.484  2.5755  3.2629 -0.4216
 3368TIP3   OH231518   0.536   1.508   2.184  0.4829 -0.4686 -0.6522
 3368TIP3    H131519   0.625   1.486   2.211  0.2575 -1.1491 -0.4395
 3368TIP3    H231520   0.517   1.590   2.229  0.3227 -1.2910  0.8189
 3369TIP3   OH231521   6.471   5.685   1.774  0.7954  0.1078 -0.2108
 3369TIP3    H131522   6.507   5.704   1.860 -0.0704  0.3242  0.1183
 3369TIP3    H231523   6.462   5.590   1.772 -0.3956  0.1880  0.4606
 3370TIP3   OH231524   2.258   4.271   2.046  0.1427 -0.2950  0.0916
 3370TIP3    H131525   2.167   4.300   2.053  0.1767 -0.3677  0.9401
 3370TIP3    H231526   2.299   4.335   1.987 -0.3325  0.0236  0.1006
 3371TIP3   OH231527   1.704   6.651   2.508 -0.0377 -0.1282 -0.3137
 3371TIP3    H131528   1.672   6.585   2.571  0.5339 -0.2975 -0.1939
 3371TIP3    H231529   1.651   6.728   2.526  2.0047  0.8173  2.4326
 3372TIP3   OH231530   3.961   0.378   6.128  0.4099  0.2040  0.3514
 3372TIP3    H131531   3.982   0.462   6.168  1.0225 -1.3271  3.6656
 3372TIP3    H231532   3.879   0.351   6.170 -0.5448 -0.2683 -1.7124
 3373TIP3   OH231533   5.222   5.581   4.439 -0.2790 -0.1035  0.1126
 3373TIP3    H131534   5.241   5.489   4.421 -0.8322 -0.5335  1.5869
 3373TIP3    H231535   5.265   5.628   4.368  0.5603 -1.4483 -0.3225
 3374TIP3   OH231536   1.099   1.021  14.001 -0.0211 -0.2828 -0.0735
 3374TIP3    H131537   1.077   0.940  13.954  1.4625  0.2938 -1.8939
 3374TIP3    H231538   1.124   1.082  13.932 -0.0315  1.3984  1.3470
 3375TIP3   OH231539   6.250   1.720  16.668 -0.8683  0.1561  0.1849
 3375TIP3    H131540   6.224   1.640  16.714 -1.6606 -0.3795 -1.1298
 3375TIP3    H231541   6.171   1.775  16.670 -0.3585  0.8850  0.9959
 3376TIP3   OH231542   1.784   4.933   2.462 -0.1735  0.8904  0.4712
 3376TIP3    H131543   1.710   4.979   2.422 -2.0059 -1.0213  1.4622
 3376TIP3    H231544   1.842   4.912   2.389 -1.5208  0.8825 -0.6347
 3377TIP3   OH231545   0.542   3.861  16.475 -0.1746  0.0231  0.3322
 3377TIP3    H131546   0.559   3.768  16.468 -3.3932 -0.6630 -0.1122
 3377TIP3    H231547   0.540   3.892  16.384 -0.6717  0.1776  0.3929
 3378TIP3   OH231548   4.263   4.404   1.192 -0.4980 -0.1360  0.2052
 3378TIP3    H131549   4.280   4.362   1.277  0.6924  1.8501  1.0026
 3378TIP3    H231550   4.347   4.401   1.146 -1.6799 -3.6675 -2.2256
 3379TIP3   OH231551   2.193   0.699  14.869  0.4033 -0.1208 -0.4810
 3379TIP3    H131552   2.137   0.626  14.894 -0.3536  0.4158 -0.5321
 3379TIP3    H231553   2.218   0.740  14.952 -1.7008  1.3631 -0.4741
 3380TIP3   OH231554   3.406   2.800   2.253  0.2412 -0.8525 -0.2683
 3380TIP3    H131555   3.394   2.872   2.191 -0.6163 -0.4128  0.3782
 3380TIP3    H231556   3.347   2.731   2.221 -1.1429 -0.1724  0.6957
 3381TIP3   OH231557   2.696   5.990  15.298 -0.0251 -0.4297 -0.4475
 3381TIP3    H131558   2.666   6.030  15.216  0.9966 -1.1466 -1.2043
 3381TIP3    H231559   2.772   5.938  15.272  0.4475 -0.5008  1.0028
 3382TIP3   OH231560   0.556   3.517  16.936 -0.4309 -0.7080  0.0246
 3382TIP3    H131561   0.492   3.588  16.936 -0.2397 -0.5322  0.5312
 3382TIP3    H231562   0.548   3.478  17.023 -0.8859 -1.6330 -0.4189
 3383TIP3   OH231563   0.196   5.269   2.725  0.1670  0.0832 -0.2027
 3383TIP3    H131564   0.134   5.338   2.748 -1.7966 -2.0223  1.4217
 3383TIP3    H231565   0.205   5.218   2.806  1.4181 -1.6158 -1.3387
 3384TIP3   OH231566   5.222   5.713   0.278 -0.0225 -0.1449 -0.1185
 3384TIP3    H131567   5.180   5.630   0.302  0.6728 -0.4462  0.0838
 3384TIP3    H231568   5.149   5.775   0.272 -0.4310 -0.4869  0.9541
 3385TIP3   OH231569   2.250   5.126  14.845  0.5163  0.1399  0.5053
 3385TIP3    H131570   2.295   5.118  14.929 -1.0145 -1.1965  1.2624
 3385TIP3    H231571   2.246   5.036  14.811  0.5541  0.5733 -0.7091
 3386TIP3   OH231572   6.741   5.908  11.465  0.1543 -0.1862  0.0974
 3386TIP3    H131573   6.707   5.886  11.552 -2.5879  2.3135 -0.1798
 3386TIP3    H231574   6.824   5.952  11.481  0.1919 -0.6836  1.3614
 3387TIP3   OH231575   6.653   2.768   0.168  0.1986  0.1138  0.0170
 3387TIP3    H131576   6.565   2.761   0.205 -0.7957  1.7897 -1.8537
 3387TIP3    H231577   6.660   2.694   0.108  1.1908 -1.6345  2.1428
 3388TIP3   OH231578   3.876   1.751   0.596 -0.6473  0.2039 -0.1115
 3388TIP3    H131579   3.818   1.808   0.646 -0.7058  0.3511 -0.3429
 3388TIP3    H231580   3.904   1.805   0.521 -0.1994  0.1416  0.0063
 3389TIP3   OH231581   4.116   3.310  13.386  0.0896 -0.1981 -0.1555
 3389TIP3    H131582   4.039   3.340  13.338  1.2365  0.6094 -1.5668
 3389TIP3    H231583   4.163   3.390  13.410  2.2337 -0.6864 -2.3451
 3390TIP3   OH231584   3.955   3.182   2.080  0.0540 -0.0614  0.0501
 3390TIP3    H131585   3.904   3.124   2.137  0.2555 -0.4333 -0.1405
 3390TIP3    H231586   4.022   3.218   2.137  1.2750 -1.6907 -0.2757
 3391TIP3   OH231587   6.527   5.618   5.500 -0.6746 -0.4334  0.2784
 3391TIP3    H131588   6.551   5.606   5.408 -0.9109  0.2018  0.1334
 3391TIP3    H231589   6.480   5.538   5.524  0.1675 -0.9923  0.1062
 3392TIP3   OH231590   1.123   2.874   4.793  0.1628 -0.1701  0.0682
 3392TIP3    H131591   1.206   2.827   4.784  0.8530  0.3162  2.9751
 3392TIP3    H231592   1.149   2.962   4.820 -1.2838  0.3029 -0.0304
 3393TIP3   OH231593   3.387   2.617   0.161  0.1756  0.0489 -0.2156
 3393TIP3    H131594   3.445   2.681   0.202 -1.0758  0.7611  0.4952
 3393TIP3    H231595   3.446   2.558   0.115  1.6158 -0.4727  2.1355
 3394TIP3   OH231596   5.007   0.888   6.415  0.2267 -0.3633 -0.1258
 3394TIP3    H131597   5.023   0.982   6.417 -0.8870 -0.1394 -0.7917
 3394TIP3    H231598   4.930   0.875   6.471  1.0847 -1.0564  0.9424
 3395TIP3   OH231599   2.749   1.679   5.923  0.0447 -0.8396 -0.3923
 3395TIP3    H131600   2.819   1.725   5.969  1.2556 -1.1283 -1.8701
 3395TIP3    H231601   2.794   1.625   5.858 -1.5313 -1.4751 -1.0181
 3396TIP3   OH231602   3.945   5.283   2.079  0.7263  0.2131  0.2395
 3396TIP3    H131603   3.919   5.191   2.068  0.8782  0.3711 -1.8209
 3396TIP3    H231604   3.870   5.333   2.047  0.9903  0.8105  0.5252
 3397TIP3   OH231605   1.714   3.141  12.238 -0.1385  0.1181 -0.1460
 3397TIP3    H131606   1.684   3.144  12.147 -0.7981 -1.4758 -0.0097
 3397TIP3    H231607   1.808   3.124  12.232 -0.2055 -0.1391 -0.5388
 3398TIP3   OH231608   1.257   3.147   0.694 -0.2046  0.1006 -0.0055
 3398TIP3    H131609   1.189   3.163   0.759 -0.2014 -0.6111  0.1802
 3398TIP3    H231610   1.325   3.100   0.741 -1.4788 -3.1823 -1.1082
 3399TIP3   OH231611   6.593   0.817   2.308 -0.6023 -0.7802 -0.1214
 3399TIP3    H131612   6.565   0.751   2.372  1.1614 -0.8370  0.6566
 3399TIP3    H231613   6.687   0.829   2.326 -0.1824 -0.3649 -2.3289
 3400TIP3   OH231614   5.720   3.371   0.956  0.3845 -0.0168  0.4551
 3400TIP3    H131615   5.805   3.381   0.914 -0.8059 -0.1426 -2.1435
 3400TIP3    H231616   5.706   3.276   0.959 -0.8921  0.0362 -1.9117
 3401TIP3   OH231617   0.921   5.216   2.162 -0.3008  0.5410  0.3133
 3401TIP3    H131618   0.964   5.138   2.197 -1.0124  0.0205  0.0637
 3401TIP3    H231619   0.958   5.227   2.075 -0.3360  0.3550  0.2728
 3402TIP3   OH231620   2.497   4.488   0.302  0.2507  0.4408  0.2081
 3402TIP3    H131621   2.544   4.565   0.271  0.4633  0.5912  0.8793
 3402TIP3    H231622   2.426   4.476   0.240 -0.7090  2.0823  0.9351
 3403TIP3   OH231623   4.868   2.216  16.862 -0.7322  0.4892  0.2027
 3403TIP3    H131624   4.956   2.249  16.848 -0.0813 -1.3664 -0.4549
 3403TIP3    H231625   4.815   2.293  16.882  1.0561  1.6194  0.7500
 3404TIP3   OH231626   1.188   2.198   3.543  0.1223 -0.4041  0.5184
 3404TIP3    H131627   1.170   2.108   3.517  0.1167 -0.3455  0.3103
 3404TIP3    H231628   1.176   2.199   3.638 -0.5867 -0.4642  0.4397
 3405TIP3   OH231629   5.507   5.376  12.898  0.4737  0.3045  0.1027
 3405TIP3    H131630   5.526   5.470  12.898 -1.6803  0.8042  1.6940
 3405TIP3    H231631   5.418   5.370  12.862  0.7863 -1.2074 -0.4891
 3406TIP3   OH231632   0.156   0.013  10.879 -0.3564 -0.3526  0.1055
 3406TIP3    H131633   0.146  -0.059  10.815  1.6627  0.2544 -0.9744
 3406TIP3    H231634   0.092   0.078  10.851 -1.2855 -1.1525  0.2951
 3407TIP3   OH231635   3.644   2.696   1.509  0.4268 -0.0627  0.4429
 3407TIP3    H131636   3.693   2.615   1.500  1.8003  0.4972  2.3041
 3407TIP3    H231637   3.710   2.764   1.519 -0.7047  1.2212 -0.3819
 3408TIP3   OH231638   0.774   2.478  13.759  0.0472  0.1698  0.0744
 3408TIP3    H131639   0.747   2.459  13.849 -0.6136 -0.0979 -0.1723
 3408TIP3    H231640   0.819   2.562  13.764 -0.5387  0.4574  0.5523
 3409TIP3   OH231641   2.464   1.464  14.974  0.3832  0.4661  0.4414
 3409TIP3    H131642   2.448   1.495  15.063 -0.3213 -0.3358  0.6030
 3409TIP3    H231643   2.464   1.544  14.921 -1.2964  0.7828  0.8688
 3410TIP3   OH231644   4.827   1.518  16.006  0.2614 -0.7754  0.0223
 3410TIP3    H131645   4.897   1.563  15.959  0.6562 -1.4121 -0.0171
 3410TIP3    H231646   4.867   1.490  16.088 -0.4012  0.2523  0.7180
 3411TIP3   OH231647   0.620   0.654   1.932 -0.1247  0.1550 -0.4067
 3411TIP3    H131648   0.659   0.698   1.857 -0.0285  2.3395  0.8307
 3411TIP3    H231649   0.572   0.580   1.895  1.7386 -0.1754 -2.3600
 3412TIP3   OH231650   6.241   1.553  14.909 -0.0574 -0.2530 -0.0863
 3412TIP3    H131651   6.261   1.544  15.002 -0.8532  1.0201  0.2408
 3412TIP3    H231652   6.315   1.513  14.864  0.6766 -0.2705  1.0892
 3413TIP3   OH231653   6.093   3.134   1.323  0.1075  0.0712  0.1644
 3413TIP3    H131654   6.189   3.130   1.325  0.1535 -0.0225 -1.1282
 3413TIP3    H231655   6.072   3.158   1.232 -1.1448 -1.3618  0.0402
 3414TIP3   OH231656   0.656   1.445  15.242  0.1981 -0.1411 -0.2520
 3414TIP3    H131657   0.580   1.489  15.204 -0.6920 -0.9409  0.5617
 3414TIP3    H231658   0.708   1.516  15.280 -0.9495  0.2760  0.5758
 3415TIP3   OH231659   2.215   1.852   5.715  0.4937  0.2471 -0.2566
 3415TIP3    H131660   2.276   1.876   5.785  0.4971 -1.1248  0.2477
 3415TIP3    H231661   2.129   1.868   5.752  0.5152  0.4726 -0.3044
 3416TIP3   OH231662   6.330   4.456   6.330 -0.4223 -0.1302 -0.7757
 3416TIP3    H131663   6.398   4.505   6.283 -0.4368 -0.3146 -0.9914
 3416TIP3    H231664   6.378   4.403   6.394 -0.4784  0.9900  0.2343
 3417TIP3   OH231665   2.955   5.921   1.697 -0.0342  0.6776  0.1983
 3417TIP3    H131666   2.884   5.889   1.753  0.1090 -0.4025 -0.2204
 3417TIP3    H231667   2.910   5.956   1.619 -0.0737 -1.8408 -0.9939
 3418TIP3   OH231668   0.309   1.418   2.406 -0.1725 -0.0550  0.5061
 3418TIP3    H131669   0.253   1.481   2.362 -1.9397 -1.0543  1.2437
 3418TIP3    H231670   0.252   1.374   2.468  1.5382 -0.8360  1.6056
 3419TIP3   OH231671   6.674   2.399  12.611 -0.2636 -0.3516 -0.3735
 3419TIP3    H131672   6.726   2.393  12.531  1.6441 -1.5150  0.8491
 3419TIP3    H231673   6.655   2.492  12.621  0.3200 -0.0761 -1.6540
 3420TIP3   OH231674   4.059   2.243  12.344  0.0772 -0.2642  0.2802
 3420TIP3    H131675   4.092   2.287  12.266  0.8444  0.5627  1.0532
 3420TIP3    H231676   3.981   2.292  12.370 -1.0980 -1.4660 -0.8216
 3421TIP3   OH231677   2.791   5.288   1.477  0.1908 -0.1494  0.3832
 3421TIP3    H131678   2.762   5.209   1.432  2.4191  0.0319 -1.5989
 3421TIP3    H231679   2.803   5.352   1.407  2.7523  0.5132  1.3044
 3422TIP3   OH231680   0.474   1.068   1.387  0.2735  0.0288  0.0945
 3422TIP3    H131681   0.401   1.008   1.400 -0.0431  0.4859  0.4432
 3422TIP3    H231682   0.524   1.063   1.468  0.2548  0.2269  0.1183
 3423TIP3   OH231683   6.551   1.883   1.976 -0.4912  0.1357  0.3964
 3423TIP3    H131684   6.518   1.817   1.915  0.2334  0.5959 -0.5145
 3423TIP3    H231685   6.512   1.860   2.061 -0.9758 -0.9044 -0.1025
 3424TIP3   OH231686   2.308   5.589  16.273 -0.3008  0.0526  0.1219
 3424TIP3    H131687   2.291   5.658  16.337  0.7712  0.3576  0.0871
 3424TIP3    H231688   2.232   5.592  16.214 -1.7375 -0.7887  1.8391
 3425TIP3   OH231689   0.792   5.237  16.237 -0.3638  0.1175  0.8343
 3425TIP3    H131690   0.875   5.190  16.239  0.1759  1.0444  0.8000
 3425TIP3    H231691   0.726   5.168  16.232  0.1992 -0.8598  4.0127
 3426TIP3   OH231692   2.436   2.472  13.473  0.0022  0.0814  0.0935
 3426TIP3    H131693   2.416   2.432  13.388 -2.9514  0.4465  0.5136
 3426TIP3    H231694   2.404   2.561  13.466 -1.2261 -0.1699  1.8889
 3427TIP3   OH231695   4.094   5.448  16.969 -0.1947  0.0907  0.8260
 3427TIP3    H131696   4.187   5.426  16.975 -0.5489 -1.6525  0.3919
 3427TIP3    H231697   4.081   5.472  16.877 -0.0181  1.1742  1.0729
 3428TIP3   OH231698   5.531   4.151   3.599 -0.5303  0.5195 -0.1253
 3428TIP3    H131699   5.624   4.168   3.581 -0.0599 -2.3196 -0.9033
 3428TIP3    H231700   5.486   4.182   3.520 -0.3016  2.1085  0.3431
 3429TIP3   OH231701   5.005   2.651   5.624 -0.0277  0.0950 -0.1026
 3429TIP3    H131702   4.971   2.565   5.652  0.2731  0.2640  0.8261
 3429TIP3    H231703   4.979   2.658   5.532 -0.9861 -0.5303  0.1009
 3430TIP3   OH231704   4.260   3.354  10.933 -0.0701  0.5717 -0.3497
 3430TIP3    H131705   4.189   3.297  10.903  0.1552  0.3880 -0.5444
 3430TIP3    H231706   4.217   3.422  10.985 -0.3233  0.1294  0.0226
 3431TIP3   OH231707   1.552   3.432   5.675  0.2701 -0.2905  0.4664
 3431TIP3    H131708   1.601   3.399   5.600  0.5491  0.3386  0.3626
 3431TIP3    H231709   1.476   3.476   5.636  0.9933  1.0249  0.4612
 3432TIP3   OH231710   3.519   0.332  11.803  0.2052  0.0630  0.1253
 3432TIP3    H131711   3.488   0.266  11.741  1.1171 -0.2855  0.0230
 3432TIP3    H231712   3.468   0.316  11.883 -1.2333  0.7383 -0.6239
 3433TIP3   OH231713   2.471   4.308  15.515  0.4986  0.3775 -0.0164
 3433TIP3    H131714   2.432   4.395  15.513 -0.8135 -0.2082 -1.4902
 3433TIP3    H231715   2.490   4.288  15.423  0.0917 -1.1864  0.2240
 3434TIP3   OH231716   6.646   3.939   5.593  0.0963  0.4541  0.2942
 3434TIP3    H131717   6.734   3.973   5.610  0.4756 -0.5409  0.3709
 3434TIP3    H231718   6.655   3.844   5.601 -1.0869  0.3678  0.7660
 3435TIP3   OH231719   6.328   4.882  12.069  0.0789  0.4875  0.0209
 3435TIP3    H131720   6.418   4.886  12.100 -0.0438 -1.7595  0.8426
 3435TIP3    H231721   6.331   4.825  11.992 -0.7670 -0.5910  0.7483
 3436TIP3   OH231722   2.781   2.914   2.543  0.6587 -0.5467  0.1748
 3436TIP3    H131723   2.774   2.819   2.530  1.7528 -0.5491 -0.5415
 3436TIP3    H231724   2.720   2.933   2.614  2.4286 -2.2176  2.3172
 3437TIP3   OH231725   2.865   0.668   5.230 -0.1753  0.1334 -0.1939
 3437TIP3    H131726   2.889   0.739   5.289  1.0550  1.1907 -1.8910
 3437TIP3    H231727   2.933   0.667   5.163 -0.5277 -2.2076 -0.6289
 3438TIP3   OH231728   6.532   4.610  16.285  0.3227  0.2626  0.3802
 3438TIP3    H131729   6.509   4.589  16.376  0.6201 -0.9721  0.1877
 3438TIP3    H231730   6.528   4.526  16.239 -2.6183  1.1983 -1.3956
 3439TIP3   OH231731   3.023   6.301   0.779  0.6899  0.2951 -0.5653
 3439TIP3    H131732   3.064   6.299   0.865  0.3710 -1.0437 -0.4362
 3439TIP3    H231733   3.001   6.394   0.765  1.2870  0.6085  0.5198
 3440TIP3   OH231734   0.431   2.412  14.127  0.1453 -1.2717  0.2315
 3440TIP3    H131735   0.385   2.411  14.043  1.7988  0.5715 -0.7803
 3440TIP3    H231736   0.523   2.420  14.104  0.4806  2.4695  2.1395
 3441TIP3   OH231737   4.324   0.249  15.712 -0.1006  0.7716  0.2748
 3441TIP3    H131738   4.398   0.301  15.681 -0.2518  0.6764 -0.2590
 3441TIP3    H231739   4.279   0.306  15.774  0.0605  1.0607  0.1276
 3442TIP3   OH231740   5.734   2.657  11.292  0.1913  0.4348 -0.3635
 3442TIP3    H131741   5.820   2.621  11.315  0.2301 -0.3831 -1.6742
 3442TIP3    H231742   5.715   2.619  11.206 -1.7971  0.0373  0.2111
 3443TIP3   OH231743   6.224   5.069  15.452  0.5465  0.3379  0.1057
 3443TIP3    H131744   6.144   5.077  15.503  1.0180  0.9418  0.7772
 3443TIP3    H231745   6.292   5.050  15.517  1.0197  0.2752 -0.3982
 3444TIP3   OH231746   0.750   6.704  13.027  0.4533  0.0176 -0.4137
 3444TIP3    H131747   0.675   6.644  13.027  0.0750  0.3279  2.6108
 3444TIP3    H231748   0.723   6.776  13.084  2.9843  0.1714  0.7191
 3445TIP3   OH231749   1.708   4.815  16.005  0.5794 -0.5278 -0.8884
 3445TIP3    H131750   1.690   4.827  16.098  2.3662 -0.9282 -0.4616
 3445TIP3    H231751   1.624   4.787  15.968 -0.2365 -0.0531  0.5207
 3446TIP3   OH231752   4.419   3.484   0.716  0.2136 -0.5510 -1.2369
 3446TIP3    H131753   4.333   3.448   0.739  0.9191 -1.4122  0.1690
 3446TIP3    H231754   4.459   3.417   0.660 -0.5566  0.4964 -3.1514
 3447TIP3   OH231755   4.654   1.065   2.560 -0.0002  0.0243 -0.0145
 3447TIP3    H131756   4.647   0.979   2.602 -0.7753 -1.4934 -2.9449
 3447TIP3    H231757   4.585   1.117   2.599 -0.2657 -1.0604  1.0118
 3448TIP3   OH231758   3.254   0.982   0.589  0.0137 -0.2914 -0.7297
 3448TIP3    H131759   3.314   0.913   0.560  0.8823  0.5848 -1.0747
 3448TIP3    H231760   3.169   0.957   0.553  0.1492 -1.5635 -0.2323
 3449TIP3   OH231761   4.404   6.588  11.825 -0.5742 -0.2075 -0.1455
 3449TIP3    H131762   4.409   6.632  11.740 -1.3221 -0.1138 -0.1538
 3449TIP3    H231763   4.462   6.513  11.817  1.0009  0.9477 -0.0066
 3450TIP3   OH231764   4.935   6.573   2.431  0.6694 -0.1354 -0.2048
 3450TIP3    H131765   5.011   6.626   2.456  0.0939  0.0886  1.1503
 3450TIP3    H231766   4.942   6.495   2.485  0.7784 -0.8477 -1.2261
 3451TIP3   OH231767   2.206   5.071  14.074 -0.0766 -0.2032  0.3214
 3451TIP3    H131768   2.216   5.032  14.161  1.6933 -0.5170  0.0183
 3451TIP3    H231769   2.240   5.004  14.014  2.7264  1.5675 -0.2421
 3452TIP3   OH231770   6.732   2.450  16.000  0.0114 -0.0013 -0.5396
 3452TIP3    H131771   6.724   2.364  16.042 -0.6038  0.3234  0.0147
 3452TIP3    H231772   6.645   2.468  15.965  0.1706  0.3501 -0.7611
 3453TIP3   OH231773   0.485   1.866   2.802 -0.6186 -0.0086  0.6368
 3453TIP3    H131774   0.508   1.781   2.763 -0.3252  0.9858 -1.5072
 3453TIP3    H231775   0.536   1.870   2.883 -1.3440 -2.2373  1.2814
 3454TIP3   OH231776   6.658   0.562   1.489  0.4821 -0.0713  0.3094
 3454TIP3    H131777   6.575   0.520   1.510  0.0858  1.3293  1.7466
 3454TIP3    H231778   6.634   0.645   1.447  1.2025 -0.3781 -0.7577
 3455TIP3   OH231779   6.131   1.137  11.529 -0.1113  1.2754 -0.3714
 3455TIP3    H131780   6.132   1.183  11.445 -0.5500  0.2125 -0.9801
 3455TIP3    H231781   6.040   1.142  11.559 -0.2144  0.5972 -0.5651
 3456TIP3   OH231782   5.702   4.644   1.449  0.4734  0.0153  0.6148
 3456TIP3    H131783   5.677   4.553   1.466  1.0572 -0.3211 -0.2675
 3456TIP3    H231784   5.631   4.678   1.395  1.0674 -0.4300 -0.4654
 3457TIP3   OH231785   1.391   4.979  15.747 -0.3705  0.7155  0.5705
 3457TIP3    H131786   1.428   4.978  15.659  0.8033 -0.8414  1.0194
 3457TIP3    H231787   1.425   4.899  15.788 -0.0234  1.9159  2.7827
 3458TIP3   OH231788   5.724   2.196   1.516  0.2892  0.1443  0.0690
 3458TIP3    H131789   5.658   2.224   1.579 -3.0864  0.2763 -3.1392
 3458TIP3    H231790   5.717   2.261   1.445  6.7358  2.4829  0.9735
 3459TIP3   OH231791   4.241   3.386  15.946  0.4743 -0.3067  0.5162
 3459TIP3    H131792   4.225   3.303  15.990 -0.6260 -0.7586 -0.6933
 3459TIP3    H231793   4.155   3.416  15.919  1.0812  0.0751 -1.1010
 3460TIP3   OH231794   1.126   6.102   3.505  0.3421 -0.5664 -0.0032
 3460TIP3    H131795   1.152   6.104   3.413 -0.7903  1.6005 -0.3502
 3460TIP3    H231796   1.030   6.100   3.503  0.2343  1.0726  1.0451
 3461TIP3   OH231797   5.167   1.397  11.483 -0.2617 -0.2455  0.0382
 3461TIP3    H131798   5.103   1.344  11.435  0.2846 -1.2598  0.4005
 3461TIP3    H231799   5.117   1.473  11.515 -1.3220 -1.0940  0.4485
 3462TIP3   OH231800   3.351   2.167  11.239 -0.1494 -0.4866 -0.1185
 3462TIP3    H131801   3.257   2.181  11.254  0.2369  1.2524  0.9311
 3462TIP3    H231802   3.378   2.241  11.186  0.7333 -0.7040  0.0148
 3463TIP3   OH231803   6.737   2.439   0.948  0.0867 -0.2312 -0.1329
 3463TIP3    H131804   6.678   2.478   0.884  0.8623  0.4001 -0.4800
 3463TIP3    H231805   6.814   2.414   0.898  0.5533 -0.0666  0.4884
 3464TIP3   OH231806   4.581   2.988  11.332  0.6206 -0.1130 -0.3310
 3464TIP3    H131807   4.522   3.063  11.320  1.1557  0.0260 -2.5305
 3464TIP3    H231808   4.668   3.027  11.341  0.7570 -0.4299 -0.2635
 3465TIP3   OH231809   2.158   2.575  12.899  0.5253 -0.0147  0.2146
 3465TIP3    H131810   2.173   2.636  12.972  1.5903 -0.9234  0.7773
 3465TIP3    H231811   2.138   2.632  12.824 -0.5889  0.9362  1.1954
 3466TIP3   OH231812   2.799   3.195   0.172 -0.1069 -0.1680  0.0727
 3466TIP3    H131813   2.741   3.236   0.236 -0.3270 -1.0155  0.4333
 3466TIP3    H231814   2.740   3.164   0.103  0.0376 -0.0280 -0.1144
 3467TIP3   OH231815   3.424   1.614  11.008 -0.5788  0.3642 -0.6177
 3467TIP3    H131816   3.388   1.575  10.929 -0.7510  2.8331 -1.8785
 3467TIP3    H231817   3.440   1.706  10.984 -0.7619  1.2584  2.2553
 3468TIP3   OH231818   5.629   2.689  14.187  0.0017  0.0415 -0.4185
 3468TIP3    H131819   5.581   2.607  14.202  1.4288 -1.0407 -1.5298
 3468TIP3    H231820   5.667   2.710  14.272  1.8343 -1.9541 -0.6649
 3469TIP3   OH231821   3.037   2.842   2.595  0.0341  0.1374 -0.1811
 3469TIP3    H131822   2.955   2.827   2.548  0.3830 -3.6729  0.1037
 3469TIP3    H231823   3.015   2.907   2.662 -2.5582 -0.2330 -0.5855
 3470TIP3   OH231824   3.513   4.150  14.470  0.7603 -0.1250  0.0787
 3470TIP3    H131825   3.502   4.219  14.405  0.1704 -0.0234  0.2766
 3470TIP3    H231826   3.493   4.192  14.554 -1.3297 -0.9070  0.0490
 3471TIP3   OH231827   6.750   3.418  11.632 -0.1821 -0.0518 -0.2705
 3471TIP3    H131828   6.795   3.477  11.692  0.6588 -0.7573 -0.1860
 3471TIP3    H231829   6.755   3.461  11.547 -0.2753  0.3635 -0.0657
 3472TIP3   OH231830   5.853   4.014  12.878  0.2209 -0.1592 -0.2253
 3472TIP3    H131831   5.841   4.062  12.960 -0.4199 -0.9172  0.1331
 3472TIP3    H231832   5.795   4.058  12.816 -1.2798 -1.1688  0.4090
 3473TIP3   OH231833   5.069   5.427   2.584  0.2993 -0.0442 -0.2826
 3473TIP3    H131834   5.081   5.517   2.613 -0.2256 -0.4748  1.3732
 3473TIP3    H231835   5.085   5.430   2.489 -1.1136  2.0297 -0.5205
 3474TIP3   OH231836   4.043   0.343   1.750 -0.9962  0.6803 -0.0377
 3474TIP3    H131837   4.112   0.292   1.709 -2.7584 -1.0191 -1.1098
 3474TIP3    H231838   4.065   0.345   1.843 -0.4846 -1.4949 -0.0702
 3475TIP3   OH231839   3.723   4.684   2.487  0.4875  0.6772  0.0535
 3475TIP3    H131840   3.743   4.590   2.485 -0.5864  0.3723  1.7081
 3475TIP3    H231841   3.809   4.726   2.497  1.1426  0.0085 -2.2675
 3476TIP3   OH231842   2.900   1.668   2.201 -0.1491 -0.2692 -0.1744
 3476TIP3    H131843   2.851   1.663   2.283  0.6870  1.8404  0.5156
 3476TIP3    H231844   2.840   1.711   2.140  0.1964  0.7582  0.1835
 3477TIP3   OH231845   0.887   2.888   2.235  0.3012 -0.4683  0.1921
 3477TIP3    H131846   0.931   2.908   2.152  0.6108 -0.2932  0.3954
 3477TIP3    H231847   0.796   2.913   2.221  0.6979  1.2299  0.4740
 3478TIP3   OH231848   0.509   4.529  10.868  0.2450  0.1816 -0.2294
 3478TIP3    H131849   0.584   4.476  10.844 -0.9605 -0.9754 -1.6704
 3478TIP3    H231850   0.521   4.611  10.819  1.0562  0.4400  0.3728
 3479TIP3   OH231851   5.053   5.923  15.803  0.4118  0.0839 -0.0500
 3479TIP3    H131852   4.964   5.928  15.837  1.3288 -1.2657  2.8515
 3479TIP3    H231853   5.070   5.830  15.793  1.7474  0.2816  0.1836
 3480TIP3   OH231854   1.697   0.037  17.046  0.0468 -0.3822  0.6305
 3480TIP3    H131855   1.602   0.033  17.034  0.1289 -2.8901  0.2308
 3480TIP3    H231856   1.733   0.022  16.958  0.8221  0.7669  0.7381
 3481TIP3   OH231857   2.870   6.528  11.910  0.2483  0.1653 -0.6215
 3481TIP3    H131858   2.903   6.511  11.998 -0.2176  0.7294 -0.3288
 3481TIP3    H231859   2.948   6.551  11.859  0.4281  0.5437 -0.1811
 3482TIP3   OH231860   4.460   5.350  15.408  0.5330  0.2607  0.5445
 3482TIP3    H131861   4.510   5.268  15.408 -0.3699 -0.5329 -4.0861
 3482TIP3    H231862   4.523   5.416  15.380  1.2917  1.4523  4.3765
 3483TIP3   OH231863   4.935   2.386   4.488  0.7614  0.1038 -0.5136
 3483TIP3    H131864   4.924   2.396   4.583  0.4940 -0.7659 -0.4468
 3483TIP3    H231865   4.893   2.463   4.451 -1.1219 -0.6490 -0.0292
 3484TIP3   OH231866   2.649   1.831   3.510  0.4167 -0.2329 -0.0231
 3484TIP3    H131867   2.706   1.761   3.479  0.9791  0.3030 -0.2184
 3484TIP3    H231868   2.709   1.900   3.538 -0.0577 -0.5268  1.9075
 3485TIP3   OH231869   3.195   3.281   5.714  0.3050 -0.0187 -0.6914
 3485TIP3    H131870   3.194   3.369   5.749 -1.3284 -0.4372  0.4370
 3485TIP3    H231871   3.277   3.242   5.747  0.3359  0.6170 -0.0029
 3486TIP3   OH231872   0.071   1.263   3.322  0.0578  0.2685  0.7370
 3486TIP3    H131873   0.059   1.282   3.229  0.9834  0.8459  0.7209
 3486TIP3    H231874   0.080   1.349   3.363 -1.4715  0.0685  1.5398
 3487TIP3   OH231875   1.746   6.057   3.146 -0.0364  0.2865 -0.1714
 3487TIP3    H131876   1.750   5.973   3.100  1.2706  1.1402 -1.7601
 3487TIP3    H231877   1.713   6.118   3.081  1.3805  1.4511  0.1521
 3488TIP3   OH231878   2.024   2.372  17.061 -0.3891  0.3347 -0.4065
 3488TIP3    H131879   2.046   2.425  17.138  0.1057  0.6841 -0.7784
 3488TIP3    H231880   2.005   2.437  16.993  0.5683  0.0408 -0.9689
 3489TIP3   OH231881   6.675   1.420  12.154  0.1655  0.0848 -0.1006
 3489TIP3    H131882   6.625   1.343  12.125 -0.1608  0.4519 -0.5377
 3489TIP3    H231883   6.743   1.430  12.088 -0.4381  0.7889 -0.6334
 3490TIP3   OH231884   4.180   3.328  15.313  0.4170  0.2849 -0.2068
 3490TIP3    H131885   4.118   3.298  15.379 -0.1980  0.0461 -0.8787
 3490TIP3    H231886   4.165   3.270  15.238  2.0203 -0.3189 -0.1022
 3491TIP3   OH231887   5.818   1.057   0.931 -0.2165 -0.4909 -0.2621
 3491TIP3    H131888   5.728   1.080   0.953  1.0134  2.6603  2.1027
 3491TIP3    H231889   5.857   1.029   1.013  1.0961 -1.5728 -1.2015
 3492TIP3   OH231890   5.912   4.878  11.848 -0.2871 -0.0894  0.2723
 3492TIP3    H131891   5.939   4.915  11.932 -2.5395  1.2605  0.4912
 3492TIP3    H231892   5.891   4.954  11.794 -2.0692 -0.9507 -0.3262
 3493TIP3   OH231893   3.098   6.669  11.104  0.0786  0.2722 -0.0516
 3493TIP3    H131894   3.128   6.746  11.056 -0.2106 -0.5402 -1.5776
 3493TIP3    H231895   3.003   6.677  11.104 -0.0105 -0.6112 -1.1554
 3494TIP3   OH231896   6.260   1.572  17.111  0.2784 -0.1305  0.5672
 3494TIP3    H131897   6.179   1.623  17.112 -1.1218 -2.0728 -1.9285
 3494TIP3    H231898   6.323   1.627  17.066 -0.3910  0.5055  0.3855
 3495TIP3   OH231899   5.370   2.307  15.179 -0.2420  0.1007 -0.3128
 3495TIP3    H131900   5.408   2.230  15.137 -0.3081  0.6317 -1.3634
 3495TIP3    H231901   5.276   2.296  15.169 -0.2422  0.4851 -0.7934
 3496TIP3   OH231902   3.385   2.420   5.653  0.5534  0.2193  0.1850
 3496TIP3    H131903   3.443   2.438   5.579 -0.2806  0.9021 -0.3115
 3496TIP3    H231904   3.445   2.404   5.726  1.3934  2.5114  0.0648
 3497TIP3   OH231905   1.455   3.549   0.137 -0.2468  0.5563 -0.1161
 3497TIP3    H131906   1.372   3.505   0.120  0.5511 -1.4173  0.8043
 3497TIP3    H231907   1.458   3.559   0.233  0.6683  0.3969 -0.1195
 3498TIP3   OH231908   3.607   2.675   3.194  0.1785  0.2392  0.1541
 3498TIP3    H131909   3.673   2.640   3.134 -0.0350 -0.1557  0.1455
 3498TIP3    H231910   3.524   2.646   3.157  0.0627 -0.2861  0.8130
 3499TIP3   OH231911   6.196   0.503  17.257  0.1989 -0.6049  0.4417
 3499TIP3    H131912   6.187   0.444  17.182  2.3565  0.1451 -0.4675
 3499TIP3    H231913   6.110   0.544  17.265 -0.3602 -1.4214 -0.9912
 3500TIP3   OH231914   3.856   5.904  13.650 -0.3043 -0.0848 -0.2006
 3500TIP3    H131915   3.937   5.900  13.599 -0.0981  1.4678 -0.0624
 3500TIP3    H231916   3.821   5.816  13.646  0.2191 -0.2685 -2.1898
 3501TIP3   OH231917   0.383   0.074  16.485  0.2736  0.9023  0.9110
 3501TIP3    H131918   0.301   0.047  16.526  0.8766 -0.7751  1.0786
 3501TIP3    H231919   0.444   0.002  16.502  0.6880  0.2839 -2.5282
 3502TIP3   OH231920   0.637   2.200  16.305  0.1618 -0.4070  0.1960
 3502TIP3    H131921   0.631   2.183  16.399  0.0712  0.1087  0.2816
 3502TIP3    H231922   0.678   2.121  16.269 -3.0760 -2.2555  0.1787
 3503TIP3   OH231923   6.488   5.930   5.389  0.2437 -0.0003 -0.2101
 3503TIP3    H131924   6.534   5.972   5.462  2.2119 -0.9426 -0.8697
 3503TIP3    H231925   6.485   5.838   5.412 -0.2200 -0.1377 -0.7848
 3504TIP3   OH231926   5.555   5.153  16.964  0.0279  0.5387  0.2986
 3504TIP3    H131927   5.611   5.217  16.921 -0.0247 -0.3651 -1.1986
 3504TIP3    H231928   5.558   5.176  17.057  0.6905  2.1535 -0.0936
 3505TIP3   OH231929   4.614   3.452   5.906 -0.3456  0.2697  0.0040
 3505TIP3    H131930   4.630   3.516   5.976  0.8145 -0.6705  0.6413
 3505TIP3    H231931   4.521   3.460   5.886 -0.6050  0.8544  1.3679
 3506TIP3   OH231932   2.814   0.619  12.931 -0.0598  0.1883  0.0795
 3506TIP3    H131933   2.850   0.564  12.861 -0.2354  1.5092 -1.1054
 3506TIP3    H231934   2.786   0.557  12.998  0.4951 -1.1137 -0.8401
 3507TIP3   OH231935   2.445   4.766   0.163  0.1567  0.8469 -0.0262
 3507TIP3    H131936   2.355   4.777   0.195 -0.3569  0.6062 -1.3300
 3507TIP3    H231937   2.491   4.844   0.194 -0.2969  0.6178  1.2892
 3508TIP3   OH231938   5.959   4.569  16.453 -0.1788 -0.2432 -0.0477
 3508TIP3    H131939   5.957   4.489  16.401  0.3917 -2.0096  2.4978
 3508TIP3    H231940   5.939   4.541  16.542 -2.2984  2.7979  0.6077
 3509TIP3   OH231941   5.444   5.735   3.935 -0.2575  0.1552 -0.6629
 3509TIP3    H131942   5.438   5.641   3.919 -0.7351  0.2538 -1.0871
 3509TIP3    H231943   5.366   5.771   3.894 -0.6109  0.6267  0.3839
 3510TIP3   OH231944   3.636   2.123   4.151 -0.0379  0.0197 -0.5303
 3510TIP3    H131945   3.658   2.213   4.175 -0.3739  0.2678 -1.1484
 3510TIP3    H231946   3.569   2.131   4.084 -1.5428 -0.7033  0.8166
 3511TIP3   OH231947   4.208   5.228  17.170  0.0621  0.1061 -0.3370
 3511TIP3    H131948   4.252   5.304  17.132  1.8734 -0.8512 -0.2428
 3511TIP3    H231949   4.271   5.191  17.232 -1.0356 -1.1050  0.1224
 3512TIP3   OH231950   3.991   1.990  16.313 -0.4411  0.1973 -0.8933
 3512TIP3    H131951   4.047   1.922  16.277 -1.9153 -1.2695 -0.5444
 3512TIP3    H231952   3.903   1.968  16.282 -1.5960 -0.3966  2.3309
 3513TIP3   OH231953   3.616   0.036  16.292  0.0849 -0.1222 -0.0060
 3513TIP3    H131954   3.705   0.010  16.316 -0.1036  0.0947  0.9835
 3513TIP3    H231955   3.584  -0.036  16.238  0.7581 -0.3364 -0.1296
 3514TIP3   OH231956   4.318   3.633  14.811  0.0189 -0.3779 -0.1943
 3514TIP3    H131957   4.413   3.639  14.822  0.2640  1.4225 -2.4714
 3514TIP3    H231958   4.282   3.644  14.899  1.8827  0.6825  0.4819
 3515TIP3   OH231959   3.140   4.271  11.314 -0.4829 -0.4185 -0.3019
 3515TIP3    H131960   3.152   4.181  11.283 -2.5322 -0.8465  0.0233
 3515TIP3    H231961   3.145   4.325  11.235  1.3578 -0.6972 -0.4312
 3516TIP3   OH231962   4.912   1.735   0.314  0.4454  0.0256 -0.2718
 3516TIP3    H131963   4.820   1.719   0.338  0.9361 -0.9658  1.1344
 3516TIP3    H231964   4.908   1.800   0.244 -1.3467 -0.3086 -0.5331
 3517TIP3   OH231965   2.524   5.295   1.956 -0.1145 -0.0921  0.5532
 3517TIP3    H131966   2.468   5.217   1.963 -2.1958  1.3950  1.3956
 3517TIP3    H231967   2.569   5.284   1.872  0.1448 -2.4790  0.9347
 3518TIP3   OH231968   2.800   4.731  12.209  0.2005 -0.2248  0.1572
 3518TIP3    H131969   2.828   4.713  12.120 -0.3535 -0.2867 -0.0095
 3518TIP3    H231970   2.869   4.695  12.264  0.9786  0.5941 -0.2648
 3519TIP3   OH231971   2.567   5.662   5.361 -0.0032  0.5230  0.4105
 3519TIP3    H131972   2.524   5.694   5.282 -1.6794 -1.4637  0.4385
 3519TIP3    H231973   2.533   5.573   5.373  2.6576 -0.4465  1.5915
 3520TIP3   OH231974   6.495   0.323  16.554  0.2869 -0.0165 -0.4906
 3520TIP3    H131975   6.477   0.279  16.637  0.7573  0.0593 -0.3446
 3520TIP3    H231976   6.409   0.338  16.516  0.0569  0.0776  0.0556
 3521TIP3   OH231977   2.881   2.644  16.034  0.1997  0.5120 -0.6301
 3521TIP3    H131978   2.901   2.644  15.940  0.6464 -1.9196 -0.5944
 3521TIP3    H231979   2.935   2.574  16.070  0.0474  1.4047  1.4839
 3522TIP3   OH231980   3.673   4.854   4.459  0.2760  0.1423 -0.1387
 3522TIP3    H131981   3.641   4.902   4.536  0.1191 -1.3755  0.7652
 3522TIP3    H231982   3.730   4.917   4.415 -1.7356  1.9765 -0.2872
 3523TIP3   OH231983   3.957   0.124  11.374 -0.3235 -0.2974  0.5507
 3523TIP3    H131984   3.975   0.203  11.322 -0.0634  0.4201  1.6796
 3523TIP3    H231985   3.968   0.052  11.313  2.1788  0.3583  0.0838
 3524TIP3   OH231986   5.550   5.029  11.869  0.7161 -0.0567  0.0897
 3524TIP3    H131987   5.454   5.026  11.867  0.6083  2.0295 -1.1354
 3524TIP3    H231988   5.574   4.973  11.943 -1.4577 -0.2756  0.7104
 3525TIP3   OH231989   1.002   0.883  17.032  0.1857 -0.1223  0.1800
 3525TIP3    H131990   1.018   0.932  17.112 -0.0154  1.0247 -0.4609
 3525TIP3    H231991   1.003   0.949  16.962 -2.2485 -0.6583 -0.4708
 3526TIP3   OH231992   5.992   3.868  14.092 -0.0584  0.5043  0.1682
 3526TIP3    H131993   5.906   3.904  14.073  0.1164  0.6806 -0.2979
 3526TIP3    H231994   6.024   3.836  14.008  1.6428  3.2642 -0.3672
 3527TIP3   OH231995   5.710   5.602   3.998 -0.8399 -0.4799  0.2477
 3527TIP3    H131996   5.682   5.694   4.001 -0.1634 -0.2807  0.7952
 3527TIP3    H231997   5.652   5.558   4.060 -1.4119 -0.5003 -0.2919
 3528TIP3   OH231998   6.307   3.128  16.684 -0.4248 -0.4355  0.0582
 3528TIP3    H131999   6.329   3.085  16.767 -0.2306  0.3354  0.4087
 3528TIP3    H232000   6.240   3.071  16.645  1.2714 -2.1888 -0.4799
 3529TIP3   OH232001   0.861   6.618  12.802  0.2303  0.8986 -0.2140
 3529TIP3    H132002   0.819   6.615  12.887  0.7989 -1.7676  0.0497
 3529TIP3    H232003   0.794   6.654  12.743 -1.3582 -0.3482  0.7576
 3530TIP3   OH232004   4.865   3.004  11.325  0.1084 -0.2170 -0.1583
 3530TIP3    H132005   4.851   3.012  11.419 -3.3546 -1.2919 -0.4438
 3530TIP3    H232006   4.873   3.095  11.294  1.5912  0.1385  1.1440
 3531TIP3   OH232007   0.004   2.733   5.999  0.1233 -0.2358 -0.3655
 3531TIP3    H132008   0.078   2.767   6.049  1.2733 -1.1577 -1.3655
 3531TIP3    H232009  -0.008   2.797   5.928 -0.2169  0.0539 -0.0471
 3532TIP3   OH232010   0.987   6.388   4.045  0.3856  0.2744 -0.6446
 3532TIP3    H132011   0.961   6.297   4.035  0.0020  0.2141  0.7699
 3532TIP3    H232012   0.908   6.438   4.020  0.1423  0.1752 -0.0954
 3533TIP3   OH232013   0.455   5.635  11.830 -0.2672 -0.0888 -0.3513
 3533TIP3    H132014   0.393   5.664  11.763  0.2987  0.1322 -0.7913
 3533TIP3    H232015   0.525   5.700  11.827  2.0076 -2.3812 -2.7007
 3534TIP3   OH232016   2.554   3.335  16.805  0.0416 -0.1085 -0.0487
 3534TIP3    H132017   2.644   3.357  16.779  0.5027  1.0340  2.2631
 3534TIP3    H232018   2.505   3.416  16.792  0.0155  0.1218  1.3407
 3535TIP3   OH232019   3.926   4.056  11.244  0.3071  0.5775 -0.3299
 3535TIP3    H132020   3.912   4.000  11.168 -0.1311  0.3390 -0.0822
 3535TIP3    H232021   3.844   4.106  11.252  0.0621  0.0974  0.3866
 3536TIP3   OH232022   1.053   1.363  14.760  0.6082  0.0573 -0.3494
 3536TIP3    H132023   1.034   1.279  14.801 -0.5639  0.0242 -0.9260
 3536TIP3    H232024   1.075   1.340  14.669  0.5749  0.3529 -0.4310
 3537TIP3   OH232025   6.194   1.325  13.916  0.3960  0.1367  0.8090
 3537TIP3    H132026   6.133   1.398  13.908 -0.3146 -0.6746 -2.3767
 3537TIP3    H232027   6.275   1.365  13.947 -0.5367  1.8991  1.1310
 3538TIP3   OH232028   3.392   6.312   3.756 -0.5691  0.2438 -0.6031
 3538TIP3    H132029   3.371   6.251   3.826  0.2116  0.3435 -0.2635
 3538TIP3    H232030   3.415   6.256   3.682 -1.9460  0.1350 -0.9763
 3539TIP3   OH232031   5.448   1.738   5.583 -0.1810  0.6646 -0.7869
 3539TIP3    H132032   5.532   1.734   5.536  0.7837 -1.0060  0.9367
 3539TIP3    H232033   5.469   1.784   5.664 -0.4682 -1.2501  0.4358
 3540TIP3   OH232034   3.170   3.593  10.961 -0.1443 -0.7863  0.5114
 3540TIP3    H132035   3.136   3.566  11.046 -0.2966 -3.1124 -0.2170
 3540TIP3    H232036   3.131   3.531  10.899 -0.0597  0.8425 -1.2824
 3541TIP3   OH232037   0.232   0.071  13.170 -0.2479 -0.1605  0.3591
 3541TIP3    H132038   0.205  -0.020  13.161 -0.0878 -0.1065 -0.8710
 3541TIP3    H232039   0.281   0.074  13.252  0.0707 -1.2673  0.2257
 3542TIP3   OH232040   1.257   0.963   4.270 -0.2775 -0.1605  0.1602
 3542TIP3    H132041   1.316   1.017   4.323  0.4529  1.1993 -1.9375
 3542TIP3    H232042   1.202   1.026   4.223  0.3321 -1.1797 -2.0611
 3543TIP3   OH232043   2.354   2.127   4.904 -0.1481  0.0513  0.8582
 3543TIP3    H132044   2.424   2.167   4.956  0.2383 -1.5144  1.6073
 3543TIP3    H232045   2.397   2.056   4.856 -0.9485  0.0202  0.1605
 3544TIP3   OH232046   5.241   3.825   3.349  0.2895 -0.1801 -0.0129
 3544TIP3    H132047   5.301   3.844   3.277  0.6086 -1.8650 -0.2301
 3544TIP3    H232048   5.294   3.835   3.428  0.3686  0.0716 -0.0947
 3545TIP3   OH232049   4.644   2.282   4.583 -0.0689  0.0347 -0.1155
 3545TIP3    H132050   4.724   2.331   4.599 -0.3538  0.6563 -0.5518
 3545TIP3    H232051   4.580   2.348   4.558 -0.5493 -0.5233 -0.3823
 3546TIP3   OH232052   6.675   1.644   5.291  0.3833  0.2807  0.0104
 3546TIP3    H132053   6.636   1.623   5.376 -1.5483 -0.0246 -0.8978
 3546TIP3    H232054   6.610   1.698   5.247  1.1506  0.0778 -1.4508
 3547TIP3   OH232055   3.141   2.890  12.023 -0.2519 -0.9120  0.1867
 3547TIP3    H132056   3.083   2.899  11.948 -0.0401  2.0435  0.2308
 3547TIP3    H232057   3.170   2.799  12.021 -1.0300 -1.1968 -2.7242
 3548TIP3   OH232058   1.611   4.451   5.465  0.3032 -0.7369  0.5556
 3548TIP3    H132059   1.591   4.502   5.387  1.8368 -0.5580  0.2365
 3548TIP3    H232060   1.555   4.373   5.459 -1.0469  0.2233  0.3343
 3549TIP3   OH232061   4.659   3.191   6.193 -0.8264  0.0840  0.2595
 3549TIP3    H132062   4.684   3.099   6.192  1.7890  0.7089 -1.5949
 3549TIP3    H232063   4.694   3.225   6.276 -0.8116 -0.3400  0.4260
 3550TIP3   OH232064   4.127   3.925  14.356 -0.2357 -0.7270  0.3749
 3550TIP3    H132065   4.108   4.017  14.336  1.7445  0.3272  2.7829
 3550TIP3    H232066   4.041   3.886  14.373 -1.0206  1.1148  0.8621
 3551TIP3   OH232067   4.711   0.103  13.194 -0.4210  0.4512  0.0279
 3551TIP3    H132068   4.747   0.127  13.280 -0.5925  1.8160 -0.2443
 3551TIP3    H232069   4.788   0.078  13.143 -0.2856 -0.1021  0.5019
 3552TIP3   OH232070   2.867   4.452  15.945  0.2449  0.1768 -0.6412
 3552TIP3    H132071   2.807   4.421  16.013  0.4340  0.7913 -0.1855
 3552TIP3    H232072   2.954   4.428  15.976  0.3891  1.0852 -0.3095
 3553TIP3   OH232073   4.364   2.104   5.338 -0.3109 -0.2832  0.0961
 3553TIP3    H132074   4.286   2.138   5.383  0.9690  0.5960  1.7556
 3553TIP3    H232075   4.436   2.158   5.371  0.9090 -0.4979 -2.0577
 3554TIP3   OH232076   1.618   6.626  16.217 -0.5758 -0.3679 -0.9244
 3554TIP3    H132077   1.544   6.659  16.269 -0.0274  0.6888 -0.7859
 3554TIP3    H232078   1.695   6.666  16.256 -0.1795  0.8703 -2.8305
 3555TIP3   OH232079   1.420   1.130   4.041 -0.1005 -0.5936  0.3386
 3555TIP3    H132080   1.424   1.080   3.960  0.5076 -2.3410  1.3944
 3555TIP3    H232081   1.348   1.192   4.027  0.0605 -0.7665 -1.5446
 3556TIP3   OH232082   0.627   3.964   2.644  0.1717  0.6890 -0.2103
 3556TIP3    H132083   0.611   4.017   2.566 -0.0498 -0.5717 -1.0468
 3556TIP3    H232084   0.636   4.028   2.715  4.4504  2.2302 -1.8211
 3557TIP3   OH232085   6.472   3.617   0.266 -0.2960  0.2456 -0.3620
 3557TIP3    H132086   6.482   3.634   0.359 -0.6770 -0.5523 -0.1682
 3557TIP3    H232087   6.460   3.522   0.260  0.9229  0.1337 -1.3244
 3558TIP3   OH232088   0.097   3.272   4.315 -0.1051  0.0944 -0.3432
 3558TIP3    H132089   0.128   3.197   4.264 -0.2252 -0.0184 -0.2515
 3558TIP3    H232090   0.017   3.301   4.270  0.8900  1.2750 -1.4207
 3559TIP3   OH232091   3.074   3.855  15.417 -0.2670  0.0664 -0.0939
 3559TIP3    H132092   3.082   3.902  15.500 -0.9672 -1.2159  0.7343
 3559TIP3    H232093   3.125   3.775  15.430  0.4595  0.3095 -1.2770
 3560TIP3   OH232094   5.423   1.096  15.658  0.6325  0.0303  0.0609
 3560TIP3    H132095   5.427   1.075  15.565 -0.1392 -0.2589  0.0865
 3560TIP3    H232096   5.352   1.041  15.692 -0.4531  1.5886  0.4122
 3561TIP3   OH232097   1.666   0.863  15.851 -0.0248 -0.4256  0.4823
 3561TIP3    H132098   1.656   0.770  15.869  0.7993 -0.3432  1.4609
 3561TIP3    H232099   1.709   0.898  15.929  1.2524  0.4603 -0.5726
 3562TIP3   OH232100   6.691   3.043   4.043 -0.3205 -0.1987  0.3284
 3562TIP3    H132101   6.699   3.062   3.950  1.2415 -0.0726  0.4686
 3562TIP3    H232102   6.683   3.129   4.084 -0.7778 -0.2434  0.3391
 3563TIP3   OH232103   1.960   2.768  12.220 -0.0582  0.0844  0.1365
 3563TIP3    H132104   2.018   2.709  12.268 -1.4487 -1.8216 -0.3634
 3563TIP3    H232105   1.896   2.797  12.284  0.7119  1.2509  0.4176
 3564TIP3   OH232106   6.738   5.614  11.777  0.4174  0.3156  0.0094
 3564TIP3    H132107   6.804   5.545  11.773 -0.2789 -0.3164 -0.9222
 3564TIP3    H232108   6.787   5.695  11.758  1.3707  0.2259  1.8169
 3565TIP3   OH232109   4.086   4.411   5.073 -0.1706  0.0513  0.3589
 3565TIP3    H132110   4.098   4.326   5.031  1.8568 -0.0815  1.1048
 3565TIP3    H232111   4.138   4.407   5.153  0.7430  2.3040 -0.0293
 3566TIP3   OH232112   6.448   5.325  15.780  0.1277 -0.6503  0.1421
 3566TIP3    H132113   6.471   5.402  15.831  1.9812  0.1208 -1.7161
 3566TIP3    H232114   6.371   5.350  15.730  1.2112  0.3558 -1.0865
 3567TIP3   OH232115   1.946   3.085  13.186 -0.2378  0.1050 -0.0002
 3567TIP3    H132116   2.011   3.060  13.121 -1.2650 -0.1460 -0.9564
 3567TIP3    H232117   1.871   3.028  13.169 -2.2467  2.9540 -1.5583
 3568TIP3   OH232118   2.484   5.868  15.125 -0.2008  0.3841  0.0726
 3568TIP3    H132119   2.445   5.824  15.050  0.8053 -0.2005 -0.1274
 3568TIP3    H232120   2.424   5.849  15.198 -0.4426 -0.2432 -0.2799
 3569TIP3   OH232121   2.895   6.570   4.324  0.2436  0.0551 -0.6584
 3569TIP3    H132122   2.927   6.644   4.271  1.0278 -1.3538 -2.2374
 3569TIP3    H232123   2.974   6.520   4.344 -0.4622 -1.2778 -1.1135
 3570TIP3   OH232124   5.798   6.594   1.057 -0.5022  0.0759 -0.1882
 3570TIP3    H132125   5.824   6.661   1.120  0.6347 -0.5976  0.0876
 3570TIP3    H232126   5.831   6.512   1.093 -1.4150 -0.5666 -0.7773
 3571TIP3   OH232127   2.220   2.476  12.043 -0.1886 -0.3130  0.1494
 3571TIP3    H132128   2.134   2.489  12.003  0.0816  1.6103  0.0904
 3571TIP3    H232129   2.275   2.446  11.972 -0.4979 -0.2500 -0.1199
 3572TIP3   OH232130   2.418   3.885  15.221 -0.4367  0.4456  0.1540
 3572TIP3    H132131   2.388   3.803  15.181  0.8214  1.0611 -2.2815
 3572TIP3    H232132   2.498   3.861  15.267 -0.1535  0.2781 -0.4232
 3573TIP3   OH232133   0.351   5.659  14.399 -0.8083  0.0586 -0.0272
 3573TIP3    H132134   0.358   5.698  14.312  1.0094  0.7210  0.3632
 3573TIP3    H232135   0.397   5.576  14.393 -0.4935  0.1991  0.3310
 3574TIP3   OH232136   5.520   0.023   3.130  0.6213  0.0663  0.1166
 3574TIP3    H132137   5.588   0.076   3.088  0.0367  1.0913  0.4320
 3574TIP3    H232138   5.561  -0.007   3.211  0.2681  1.9317  1.0636
 3575TIP3   OH232139   2.934   6.166  13.954 -0.3439 -0.5655 -0.2342
 3575TIP3    H132140   2.971   6.250  13.982 -1.8946 -0.5401  2.0963
 3575TIP3    H232141   2.839   6.182  13.951 -0.5165 -1.7198 -1.7599
 3576TIP3   OH232142   0.414   1.658  11.520  0.4225  0.2980  0.3433
 3576TIP3    H132143   0.469   1.735  11.537 -0.3823  1.2008 -1.0066
 3576TIP3    H232144   0.325   1.691  11.520  0.0886 -0.5434 -0.7440
 3577TIP3   OH232145   0.903   5.046  14.881  0.0212 -0.0454 -0.2309
 3577TIP3    H132146   0.993   5.065  14.856  0.3474  2.7711  2.4951
 3577TIP3    H232147   0.851   5.072  14.805  1.3760 -0.4624 -1.3460
 3578TIP3   OH232148   0.183   4.168   3.963  0.1643  0.0624  0.0056
 3578TIP3    H132149   0.131   4.088   3.963 -0.5308  0.3237  3.8948
 3578TIP3    H232150   0.124   4.236   3.995  1.5011  1.5604 -0.5171
 3579TIP3   OH232151   3.341   3.992   3.991 -0.4216  0.0527 -0.2925
 3579TIP3    H132152   3.326   4.054   3.920  2.8643  2.3630  0.7976
 3579TIP3    H232153   3.328   4.043   4.071 -0.4769 -1.4900  0.7330
 3580TIP3   OH232154   1.160   4.217  12.916 -0.3682  0.1155  0.5780
 3580TIP3    H132155   1.231   4.277  12.896 -0.7006  0.3976  0.2236
 3580TIP3    H232156   1.141   4.232  13.008  0.8388 -0.8320  0.9979
 3581TIP3   OH232157   6.373   2.274  15.946 -0.7476 -0.1119  0.0665
 3581TIP3    H132158   6.345   2.198  15.996  2.0738 -1.1307  0.2571
 3581TIP3    H232159   6.391   2.241  15.859 -0.2038  0.4944 -0.0611
 3582TIP3   OH232160   1.656   5.930   5.210  1.0135 -0.0001  0.2119
 3582TIP3    H132161   1.713   5.853   5.216  2.2162  0.6507 -1.8116
 3582TIP3    H232162   1.648   5.946   5.116 -1.4865  0.7315  0.4954
 3583TIP3   OH232163   1.627   5.298   3.347 -0.1101 -0.0486  0.7528
 3583TIP3    H132164   1.533   5.314   3.358  0.0204  0.4939  1.0848
 3583TIP3    H232165   1.665   5.384   3.333  0.0441 -0.4515 -1.7628
 3584TIP3   OH232166   1.327   0.732  10.955 -0.2946 -0.7073 -0.1792
 3584TIP3    H132167   1.281   0.745  10.872  0.9689  3.0595 -0.4736
 3584TIP3    H232168   1.258   0.708  11.017 -1.8065 -0.2743 -1.6206
 3585TIP3   OH232169   2.732   3.077   4.511  0.1654  0.1802 -0.3782
 3585TIP3    H132170   2.820   3.051   4.484 -0.1475 -1.5354  0.1287
 3585TIP3    H232171   2.704   3.140   4.445  0.7661 -1.2660 -2.0832
 3586TIP3   OH232172   5.297   5.561  12.270  0.0895 -0.2241  0.1789
 3586TIP3    H132173   5.237   5.614  12.322  0.0325 -0.1504  0.0366
 3586TIP3    H232174   5.384   5.585  12.302  0.2740  1.9916 -1.7271
 3587TIP3   OH232175   3.337   6.324   1.945 -0.1605  0.0864 -0.1152
 3587TIP3    H132176   3.400   6.336   1.874  0.7361 -2.6289  0.1283
 3587TIP3    H232177   3.286   6.248   1.920 -1.5186  0.5843  1.0203
 3588TIP3   OH232178   5.263   1.227   3.211  0.4686  0.1605 -0.4892
 3588TIP3    H132179   5.293   1.197   3.125  2.3000  2.1905 -0.6533
 3588TIP3    H232180   5.342   1.257   3.255 -0.5218 -0.2637  1.6986
 3589TIP3   OH232181   0.688   1.011  12.276  0.0349 -0.1667  0.4415
 3589TIP3    H132182   0.629   0.952  12.321 -1.0744 -0.2102 -0.9907
 3589TIP3    H232183   0.713   0.964  12.196  0.5727  0.5769  0.1554
 3590TIP3   OH232184   5.913   1.590   0.711  0.5059  0.0734  0.3081
 3590TIP3    H132185   5.926   1.496   0.724 -0.9407 -0.1712  0.1756
 3590TIP3    H232186   5.840   1.612   0.769 -0.4461  0.7003 -1.0605
 3591TIP3   OH232187   2.555   2.881   0.854 -0.1596 -0.4636 -0.1365
 3591TIP3    H132188   2.568   2.838   0.939  0.3980 -0.8586 -0.4180
 3591TIP3    H232189   2.517   2.966   0.876 -0.3904 -0.7212  0.4839
 3592TIP3   OH232190   5.383   3.338  12.243 -0.7833  0.0341 -0.0717
 3592TIP3    H132191   5.472   3.332  12.210 -0.7772 -0.9605  0.0940
 3592TIP3    H232192   5.353   3.248  12.248 -1.7957  0.3560 -0.1032
 3593TIP3   OH232193   4.085   2.277   1.523  0.4177 -0.7153 -0.7549
 3593TIP3    H132194   4.058   2.282   1.614  1.4663 -0.1454 -0.4630
 3593TIP3    H232195   4.142   2.353   1.510  1.8704 -1.8460 -1.3355
 3594TIP3   OH232196   4.512   6.733  12.083 -0.1217 -0.0885  0.3103
 3594TIP3    H132197   4.540   6.652  12.040  0.6802  0.9044 -1.1040
 3594TIP3    H232198   4.591   6.768  12.122 -0.3833  0.2139  0.5717
 3595TIP3   OH232199   6.384   6.021   1.184  0.3392 -0.5757 -0.0297
 3595TIP3    H132200   6.441   6.096   1.200  0.7357 -0.9582  0.3950
 3595TIP3    H232201   6.391   6.005   1.090  0.6892 -0.4211 -0.0320
 3596TIP3   OH232202   2.599   5.007   5.558 -0.7657 -0.1550 -0.3276
 3596TIP3    H132203   2.545   4.989   5.635  0.8214  0.9940  1.1470
 3596TIP3    H232204   2.662   4.935   5.557 -1.2070 -0.5410 -0.9905
 3597TIP3   OH232205   4.612   1.413   4.639  0.6727 -0.2851 -0.3665
 3597TIP3    H132206   4.657   1.379   4.562 -0.2351  0.6671 -1.3501
 3597TIP3    H232207   4.629   1.508   4.636  0.0709 -0.1510  0.2312
 3598TIP3   OH232208   6.030   2.779   3.419 -0.0513  0.4085 -0.0037
 3598TIP3    H132209   5.980   2.797   3.499  0.1025  1.9324 -0.2166
 3598TIP3    H232210   6.068   2.864   3.396  1.4440 -0.4153 -0.6617
 3599TIP3   OH232211   3.361   4.242   4.807 -0.4356 -0.8857  0.8695
 3599TIP3    H132212   3.417   4.290   4.868 -0.5107  0.1107  0.1789
 3599TIP3    H232213   3.293   4.304   4.783  1.0920 -0.2595 -2.3053
 3600TIP3   OH232214   1.987   4.921  12.870 -0.1074  0.1009 -0.0779
 3600TIP3    H132215   2.074   4.884  12.856  0.4096  1.4501 -0.5239
 3600TIP3    H232216   1.955   4.877  12.949 -0.2699 -2.5914 -1.5190
 3601TIP3   OH232217   4.271   4.311  13.599 -0.2785  0.6003 -0.5816
 3601TIP3    H132218   4.356   4.316  13.554  0.1882 -1.7114 -0.1165
 3601TIP3    H232219   4.258   4.398  13.637  2.1737  0.8686 -0.2012
 3602TIP3   OH232220   2.675   6.541  14.084 -0.0484  0.5532  0.6490
 3602TIP3    H132221   2.673   6.452  14.047  2.1492 -0.3149  2.3793
 3602TIP3    H232222   2.582   6.563  14.096 -0.7123 -0.6976 -1.5382
 3603TIP3   OH232223   6.656   4.267   1.511 -0.2083  0.0099 -0.1257
 3603TIP3    H132224   6.582   4.206   1.512  1.8080 -2.7679 -2.5684
 3603TIP3    H232225   6.626   4.340   1.455 -1.8938  0.2368  1.0019
 3604TIP3   OH232226   1.503   2.083   5.712 -0.2001 -0.3342  0.4979
 3604TIP3    H132227   1.542   2.020   5.652 -3.9867 -2.5389  0.0522
 3604TIP3    H232228   1.517   2.046   5.799 -0.1156 -0.3970  0.4576
 3605TIP3   OH232229   2.983   2.780  15.226  0.0152  0.3488  0.1172
 3605TIP3    H132230   2.952   2.691  15.209  1.9036 -0.8359  2.1841
 3605TIP3    H232231   2.911   2.823  15.271 -0.3010 -0.7822  0.7255
 3606TIP3   OH232232   5.268   5.694  13.814  0.5955 -0.4189 -0.4719
 3606TIP3    H132233   5.273   5.724  13.905  0.3727 -0.6972 -0.3656
 3606TIP3    H232234   5.207   5.620  13.817 -0.1284  0.1377 -0.9894
 3607TIP3   OH232235   0.532   2.063   6.404  0.0771  0.1445 -0.6530
 3607TIP3    H132236   0.568   2.151   6.399 -0.2089  0.3802  0.8979
 3607TIP3    H232237   0.501   2.054   6.495 -0.8821 -1.1603 -1.0655
 3608TIP3   OH232238   3.366   0.626  13.831 -0.5072  0.1930  0.0926
 3608TIP3    H132239   3.292   0.655  13.884  0.6592 -0.3846  2.1334
 3608TIP3    H232240   3.410   0.561  13.885  1.7267  0.8027 -0.8998
 3609TIP3   OH232241   5.048   4.094  12.281  0.5191 -0.1573 -0.2625
 3609TIP3    H132242   5.049   4.022  12.344 -1.8734  1.2949  1.6629
 3609TIP3    H232243   5.098   4.164  12.323  0.1770  0.3399 -0.6604
 3610TIP3   OH232244   3.526   0.759   2.247 -0.6616  0.3196  0.2927
 3610TIP3    H132245   3.594   0.785   2.309 -0.3880 -0.3737  0.2875
 3610TIP3    H232246   3.485   0.682   2.287  0.6027 -1.1496 -1.1434
 3611TIP3   OH232247   4.292   4.979  11.412  0.1665 -0.0819  0.1791
 3611TIP3    H132248   4.322   5.064  11.381  0.0722 -0.2383 -0.3624
 3611TIP3    H232249   4.201   4.994  11.439 -0.2554 -0.2554 -1.0576
 3612TIP3   OH232250   4.092   6.624  14.447 -0.1918  0.0974  0.0858
 3612TIP3    H132251   4.169   6.642  14.394 -0.1226 -0.3053  0.0478
 3612TIP3    H232252   4.125   6.623  14.537 -0.6248  2.7512  0.3818
 3613TIP3   OH232253   0.375   0.869   0.704  0.1643 -0.2846 -0.3746
 3613TIP3    H132254   0.334   0.927   0.639 -0.0483 -0.2447 -0.2058
 3613TIP3    H232255   0.301   0.825   0.747  0.1210  1.7864  1.8481
 3614TIP3   OH232256   5.621   1.225  14.605 -0.6110  0.7055  0.3155
 3614TIP3    H132257   5.690   1.177  14.650 -0.0819  0.8193 -0.3673
 3614TIP3    H232258   5.554   1.159  14.588 -2.4336  1.2239  4.2155
 3615TIP3   OH232259   1.274   3.966  15.063 -0.1483  0.3391  0.0251
 3615TIP3    H132260   1.232   3.989  14.981 -0.8930 -0.6968  0.0910
 3615TIP3    H232261   1.213   3.905  15.105 -0.3321  1.7054  1.8926
 3616TIP3   OH232262   2.707   0.143  13.366 -0.4422 -0.6160 -0.5861
 3616TIP3    H132263   2.681   0.079  13.300 -1.3003  0.4862 -1.3505
 3616TIP3    H232264   2.681   0.104  13.449  0.5753 -1.9856 -0.8791
 3617TIP3   OH232265   3.947   6.346  17.117  0.2090 -0.1060 -0.5474
 3617TIP3    H132266   3.906   6.367  17.201  2.0283 -0.6904  0.5392
 3617TIP3    H232267   3.967   6.431  17.078  3.1878  0.3472  1.6262
 3618TIP3   OH232268   0.155   5.801  12.882  0.5797  0.2893  0.3623
 3618TIP3    H132269   0.089   5.799  12.813  1.1640  1.9715 -0.3083
 3618TIP3    H232270   0.124   5.868  12.943  1.3418  0.6712  0.3465
 3619TIP3   OH232271   5.073   3.958  13.012  0.3972  0.0518 -0.1411
 3619TIP3    H132272   5.164   3.989  13.001 -0.2282  2.0927 -0.0015
 3619TIP3    H232273   5.029   3.986  12.932 -0.3117 -0.1776  0.1647
 3620TIP3   OH232274   5.295   0.899   6.519  0.1324  0.3347  0.0945
 3620TIP3    H132275   5.208   0.862   6.503  0.2395  0.1294 -0.0293
 3620TIP3    H232276   5.341   0.830   6.567  0.9055 -0.4145 -1.6479
 3621TIP3   OH232277   1.865   3.977  15.866  0.3086 -0.2099  0.3310
 3621TIP3    H132278   1.918   4.038  15.917  0.9198 -0.2558 -0.2376
 3621TIP3    H232279   1.796   4.031  15.828  1.5735  0.4210 -1.2126
 3622TIP3   OH232280   1.124   5.095  17.192 -0.1422  0.2256  0.2161
 3622TIP3    H132281   1.148   5.114  17.283 -1.0360  1.0965  0.2931
 3622TIP3    H232282   1.184   5.149  17.140 -0.9074  1.2616  0.3645
 3623TIP3   OH232283   6.148   3.937   0.945  0.2207 -0.1016 -0.2467
 3623TIP3    H132284   6.064   3.930   0.898  0.9924 -1.0052 -1.5684
 3623TIP3    H232285   6.139   3.877   1.019  0.0062 -0.8662 -0.8800
 3624TIP3   OH232286   2.558   5.929   3.922 -0.0150  0.9469  0.3083
 3624TIP3    H132287   2.547   5.900   3.832 -2.2226 -0.1372  0.8616
 3624TIP3    H232288   2.653   5.932   3.935  0.3472 -0.9801 -1.3890
 3625TIP3   OH232289   5.803   1.719   3.271  0.3502 -0.2451  0.3307
 3625TIP3    H132290   5.762   1.763   3.197 -0.8616 -0.5695  0.7786
 3625TIP3    H232291   5.850   1.645   3.232 -1.1143 -1.0135 -0.0499
 3626TIP3   OH232292   6.516   1.956   1.483  0.0591  0.4562 -0.4696
 3626TIP3    H132293   6.460   1.964   1.406  0.5057  0.5748 -0.7843
 3626TIP3    H232294   6.490   2.030   1.539 -0.1344  0.4786 -0.5862
 3627TIP3   OH232295   5.823   0.514  16.932  0.4476 -0.1253  0.0364
 3627TIP3    H132296   5.872   0.513  16.850  0.1974  1.0336 -0.1487
 3627TIP3    H232297   5.856   0.439  16.981  1.1437 -0.3835 -0.8062
 3628TIP3   OH232298   6.448   6.654  14.998 -0.0654  0.3211 -0.0294
 3628TIP3    H132299   6.541   6.669  14.982  0.0961 -0.2896  0.2778
 3628TIP3    H232300   6.446   6.576  15.054 -0.6874  1.2624  1.3171
 3629TIP3   OH232301   2.767   2.933  15.342 -0.1570  0.4676 -0.3650
 3629TIP3    H132302   2.697   2.893  15.393  0.2514 -0.9445 -0.8630
 3629TIP3    H232303   2.755   3.027  15.354 -2.3083  0.2723 -0.6902
 3630TIP3   OH232304   4.108   3.568   0.501  0.0480 -0.0837  0.2592
 3630TIP3    H132305   4.023   3.586   0.459 -0.5861 -0.1321  1.4902
 3630TIP3    H232306   4.142   3.655   0.522  0.7298 -0.0202 -1.0102
 3631TIP3   OH232307   5.865   0.792  11.344  0.5870 -0.2327 -0.2567
 3631TIP3    H132308   5.863   0.881  11.309 -0.1952  0.2576  0.9432
 3631TIP3    H232309   5.785   0.786  11.397 -1.0159 -2.6866 -2.7043
 3632TIP3   OH232310   5.768   3.242  12.648 -0.7892 -0.3884 -0.4410
 3632TIP3    H132311   5.825   3.296  12.594 -1.4344  0.6223 -0.1257
 3632TIP3    H232312   5.685   3.289  12.651 -0.5130  0.0493  2.1621
 3633TIP3   OH232313   2.725   2.322  11.723 -0.6335 -0.4008  0.3815
 3633TIP3    H132314   2.672   2.394  11.758  1.4878  0.3926  2.2375
 3633TIP3    H232315   2.681   2.243  11.753 -2.7619  0.0523 -1.3087
 3634TIP3   OH232316   1.980   6.647   6.317 -0.0091 -0.3737  0.0212
 3634TIP3    H132317   2.006   6.739   6.309  1.1439 -0.4590  2.0291
 3634TIP3    H232318   1.976   6.632   6.412 -1.1138 -2.1536 -0.2648
 3635TIP3   OH232319   5.513   0.215  14.302  0.4417  0.4730 -0.5160
 3635TIP3    H132320   5.522   0.308  14.280  0.5656  0.5328 -0.2029
 3635TIP3    H232321   5.427   0.192  14.267  0.4612  0.6735 -0.7040
 3636TIP3   OH232322   3.058   1.329  16.107 -0.4537 -0.2713 -0.2797
 3636TIP3    H132323   3.138   1.296  16.149  0.2335  0.3119 -1.1123
 3636TIP3    H232324   3.031   1.259  16.049  1.3560  0.7564 -2.5224
 3637TIP3   OH232325   6.616   1.226   3.192 -0.1825  0.3459  0.0586
 3637TIP3    H132326   6.611   1.140   3.149  0.0102  0.7542 -0.8014
 3637TIP3    H232327   6.625   1.288   3.120 -2.7129  1.3335  0.4930
 3638TIP3   OH232328   5.323   4.649   2.718 -0.2686 -0.2403 -0.2930
 3638TIP3    H132329   5.349   4.578   2.659  0.5389 -0.3708  0.1955
 3638TIP3    H232330   5.231   4.666   2.697 -1.1379 -2.8228  0.9066
 3639TIP3   OH232331   1.479   2.851  15.720 -0.0663 -0.0438  0.1484
 3639TIP3    H132332   1.452   2.838  15.811 -0.4422 -2.3574 -0.2145
 3639TIP3    H232333   1.505   2.764  15.690 -2.7948 -0.0437 -2.8107
 3640TIP3   OH232334   2.523   6.537   3.322  0.0365  0.3605 -0.5216
 3640TIP3    H132335   2.616   6.545   3.302 -0.1991  0.7507 -1.5116
 3640TIP3    H232336   2.487   6.624   3.306 -0.5506  0.1358 -0.4519
 3641TIP3   OH232337   5.142   3.314  11.462 -0.0839  0.1289 -0.2838
 3641TIP3    H132338   5.084   3.363  11.520 -0.7455  0.7105 -1.4003
 3641TIP3    H232339   5.196   3.381  11.419  1.5559 -0.4022  0.8253
 3642TIP3   OH232340   2.900   4.163  15.722  0.2612  0.1842  0.3611
 3642TIP3    H132341   2.985   4.150  15.681  0.4914  0.7376  0.6514
 3642TIP3    H232342   2.904   4.113  15.803  0.8726  1.4022  1.1123
 3643TIP3   OH232343   2.438   4.040  11.856  0.3351  0.0369  0.2920
 3643TIP3    H132344   2.419   4.052  11.949  0.2659  0.2702  0.2482
 3643TIP3    H232345   2.415   3.949  11.839  1.0771 -0.2307  0.6791
 3644TIP3   OH232346   0.375   5.067  16.462 -0.4009  0.2162  0.2178
 3644TIP3    H132347   0.395   5.159  16.444 -0.2156  0.3845  1.2624
 3644TIP3    H232348   0.284   5.068  16.494  0.5341  0.4479  3.1453
 3645TIP3   OH232349   3.984   1.504  10.954 -0.1643 -0.2623 -0.2345
 3645TIP3    H132350   3.998   1.527  10.862  1.3955  0.4898  0.1451
 3645TIP3    H232351   3.889   1.501  10.965 -0.3881 -1.7659 -2.1852
 3646TIP3   OH232352   2.590   6.734  10.984  0.2038  0.1029  0.0499
 3646TIP3    H132353   2.622   6.710  10.896 -3.5527  1.7107 -1.9825
 3646TIP3    H232354   2.654   6.798  11.015  1.0776  0.3475 -2.0354
 3647TIP3   OH232355   3.024   0.455  13.575  0.6144  1.0080  0.2450
 3647TIP3    H132356   2.980   0.370  13.574  1.1310  0.7344  0.2332
 3647TIP3    H232357   3.106   0.439  13.623  1.2841  1.2134 -0.8081
 3648TIP3   OH232358   2.451   1.060   3.742  0.4310  0.0721 -0.1315
 3648TIP3    H132359   2.370   1.110   3.738 -0.3535 -1.0732  0.7116
 3648TIP3    H232360   2.516   1.115   3.698 -0.8588  0.8933 -1.0794
 3649TIP3   OH232361   0.336   3.644   1.197  0.1365 -0.0527 -0.1927
 3649TIP3    H132362   0.295   3.638   1.284 -1.2423 -1.6389 -0.9013
 3649TIP3    H232363   0.397   3.718   1.205 -1.8340  1.5527  1.3579
 3650TIP3   OH232364   4.796   2.678  14.965 -0.9289  0.0910  0.1429
 3650TIP3    H132365   4.724   2.614  14.961  0.8429 -1.9669 -2.0174
 3650TIP3    H232366   4.827   2.673  15.055 -1.1851 -1.7629  0.1786
 3651TIP3   OH232367   3.825   3.910   4.343 -0.2775  0.1880  0.0897
 3651TIP3    H132368   3.857   3.999   4.335  0.3113  0.0783  1.1335
 3651TIP3    H232369   3.733   3.919   4.371  0.1906  0.4697  1.6101
 3652TIP3   OH232370   2.846   2.172   0.130  0.1706  0.0703 -0.2933
 3652TIP3    H132371   2.877   2.253   0.170  1.0067  0.7161 -2.1365
 3652TIP3    H232372   2.752   2.173   0.143  0.2723  0.9013  0.4520
 3653TIP3   OH232373   2.298   6.542   1.814  0.2159  0.3959 -0.3374
 3653TIP3    H132374   2.215   6.532   1.861 -1.1226 -2.2833 -2.9491
 3653TIP3    H232375   2.278   6.601   1.742  0.3565 -0.7421 -1.3362
 3654TIP3   OH232376   5.476   5.683   1.559  0.4263 -0.2412  0.3711
 3654TIP3    H132377   5.518   5.644   1.483  0.9334  0.0026  0.5208
 3654TIP3    H232378   5.384   5.693   1.534  0.7325  0.5402 -0.5018
 3655TIP3   OH232379   2.872   0.215  13.658  0.0413  0.5746 -0.0298
 3655TIP3    H132380   2.903   0.182  13.742 -0.2087 -0.4783 -0.3345
 3655TIP3    H232381   2.781   0.185  13.652  0.6683 -1.2998 -1.5932
 3656TIP3   OH232382   0.971   6.325  12.876 -0.1863 -0.1113  0.1280
 3656TIP3    H132383   1.066   6.332  12.888 -0.3170 -0.3495  1.5657
 3656TIP3    H232384   0.945   6.409  12.839  0.8049 -0.7324 -2.1111
 3657TIP3   OH232385   0.436   0.047  14.900 -0.3399 -0.0388 -0.1601
 3657TIP3    H132386   0.456  -0.012  14.828  2.1715  0.7696 -0.2108
 3657TIP3    H232387   0.458   0.134  14.867  0.0934  0.4337  1.2978
 3658TIP3   OH232388   1.334   2.388  15.933 -0.5117 -0.5779 -0.6003
 3658TIP3    H132389   1.296   2.431  15.856 -0.9688  1.5365  0.7393
 3658TIP3    H232390   1.422   2.425  15.941 -0.4546 -0.8093 -0.1060
 3659TIP3   OH232391   4.979   5.157  11.594 -0.2335  0.0128 -0.0540
 3659TIP3    H132392   4.893   5.115  11.591 -0.0618 -0.3164 -0.3679
 3659TIP3    H232393   5.015   5.146  11.506 -0.5621  1.6062 -0.4302
 3660TIP3   OH232394   6.047   3.119   5.396 -0.1203  0.2881  0.5705
 3660TIP3    H132395   6.030   3.210   5.421  1.2521  0.7402 -0.0393
 3660TIP3    H232396   6.123   3.093   5.448 -0.3199 -0.4191  0.5263
 3661TIP3   OH232397   2.807   3.211  15.309  0.4467 -0.1285 -0.2085
 3661TIP3    H132398   2.848   3.230  15.224  0.5752 -0.6842 -0.2722
 3661TIP3    H232399   2.769   3.295  15.336  1.2177  0.2890 -0.3725
 3662TIP3   OH232400   6.426   2.827  12.158 -0.4100  0.4868 -0.1277
 3662TIP3    H132401   6.466   2.746  12.126 -0.0498  1.0377 -1.1236
 3662TIP3    H232402   6.463   2.895  12.102  0.0832  1.4728  1.3613
 3663TIP3   OH232403   0.229   5.110  12.229 -0.9641 -0.0405 -0.3132
 3663TIP3    H132404   0.160   5.087  12.166 -2.0957  1.2420  0.4041
 3663TIP3    H232405   0.202   5.195  12.264 -0.1862 -0.5546  1.6524
 3664TIP3   OH232406   2.021   5.981   1.149 -0.8615  0.4757  0.2209
 3664TIP3    H132407   2.092   6.045   1.142  1.6307 -2.1916 -0.7990
 3664TIP3    H232408   2.022   5.954   1.241 -1.7001  1.5426  0.5754
 3665TIP3   OH232409   2.134   1.829  12.729  0.0501  0.0359  0.2007
 3665TIP3    H132410   2.140   1.902  12.668  0.0979 -0.2466 -0.1362
 3665TIP3    H232411   2.211   1.838  12.785 -0.6607  1.0424  1.0694
 3666TIP3   OH232412   4.160   3.605  13.129  0.5104 -0.2956 -0.2737
 3666TIP3    H132413   4.203   3.658  13.063  1.9843  0.8432  1.5049
 3666TIP3    H232414   4.226   3.539  13.152 -0.6914 -1.9049 -1.2591
 3667TIP3   OH232415   4.550   4.649  10.621 -0.0861 -0.4718 -0.1644
 3667TIP3    H132416   4.488   4.714  10.652 -0.6758 -0.4241 -1.3969
 3667TIP3    H232417   4.543   4.651  10.525  0.7279 -1.5219 -0.2784
 3668TIP3   OH232418   6.079   5.278  15.900 -0.1525 -0.2296 -0.8694
 3668TIP3    H132419   6.150   5.215  15.901 -0.5320 -0.7046 -1.8262
 3668TIP3    H232420   6.079   5.318  15.987 -0.7067 -2.4562  0.2140
 3669TIP3   OH232421   6.329   3.942   3.741  1.0001  0.1081 -0.7071
 3669TIP3    H132422   6.248   3.967   3.697  0.8726  0.0078 -0.5350
 3669TIP3    H232423   6.365   4.024   3.775  0.8462  0.1243 -0.5806
 3670TIP3   OH232424   5.239   0.486   0.317  0.6336 -0.2192  0.0946
 3670TIP3    H132425   5.199   0.563   0.276  1.5906  0.8088  1.0264
 3670TIP3    H232426   5.169   0.420   0.317  0.0688  0.3294 -1.5326
 3671TIP3   OH232427   0.824   2.190  14.775  0.7788 -0.4351 -0.1227
 3671TIP3    H132428   0.747   2.162  14.824 -0.2866  0.8622 -0.9737
 3671TIP3    H232429   0.789   2.240  14.701  2.4308 -0.0180 -0.6841
 3672TIP3   OH232430   6.558   1.424  13.327 -0.4050 -0.0458 -0.5414
 3672TIP3    H132431   6.649   1.433  13.355 -0.8507  0.9687  0.6038
 3672TIP3    H232432   6.537   1.507  13.285 -1.1655  0.1826  0.2699
 3673TIP3   OH232433   1.020   4.239   4.554 -0.2487 -0.0572  0.0365
 3673TIP3    H132434   0.929   4.268   4.561 -0.2792  0.1238 -0.9680
 3673TIP3    H232435   1.039   4.240   4.460  0.8776  0.1601  0.2464
 3674TIP3   OH232436   3.986   2.075   2.024 -0.1761  0.7686  0.1310
 3674TIP3    H132437   3.982   2.025   2.106  1.1930  1.0219  0.3821
 3674TIP3    H232438   3.906   2.051   1.977 -0.5392 -0.0814  1.1449
 3675TIP3   OH232439   3.912   5.202  10.648 -0.2318 -0.5552 -0.0243
 3675TIP3    H132440   3.969   5.202  10.724  0.8431 -1.1546 -0.7986
 3675TIP3    H232441   3.824   5.185  10.683  0.1622 -0.3012  1.1159
 3676TIP3   OH232442   0.346   0.000   3.608 -0.2836 -0.2852  0.1082
 3676TIP3    H132443   0.385   0.013   3.694 -0.6096 -1.1583  0.4062
 3676TIP3    H232444   0.264   0.050   3.612  0.1644  0.4838 -0.0591
 3677TIP3   OH232445   5.213   4.253   1.754  0.4704 -0.9451  0.6839
 3677TIP3    H132446   5.243   4.238   1.664 -0.4888 -2.1152  0.5284
 3677TIP3    H232447   5.223   4.347   1.768 -0.3970 -0.5479 -1.0563
 3678TIP3   OH232448   1.664   1.476   3.349  0.4300  0.1926  0.2484
 3678TIP3    H132449   1.706   1.557   3.379 -0.4475  0.7400  0.0671
 3678TIP3    H232450   1.572   1.487   3.375  0.5829 -1.4338  1.6142
 3679TIP3   OH232451   2.208   6.710  13.035 -0.0385  0.2008  0.2117
 3679TIP3    H132452   2.152   6.771  13.083  1.2809  0.1708  1.8846
 3679TIP3    H232453   2.285   6.762  13.011  0.1159 -0.2463 -0.2784
 3680TIP3   OH232454   0.907   6.023   4.976  0.1537 -0.7217  0.4102
 3680TIP3    H132455   0.830   6.013   4.920 -0.1625 -0.0626  0.7168
 3680TIP3    H232456   0.889   5.967   5.052 -0.5872  0.3735  1.0604
 3681TIP3   OH232457   6.258   5.095  13.189 -0.2670 -0.2068  0.0419
 3681TIP3    H132458   6.302   5.074  13.272  0.5481  2.1619  0.2893
 3681TIP3    H232459   6.190   5.028  13.181  1.8791 -2.6524  0.7875
 3682TIP3   OH232460   2.032   1.624  14.725  0.4218 -0.1083  0.5977
 3682TIP3    H132461   2.078   1.643  14.808  1.3599 -1.6408  0.4581
 3682TIP3    H232462   1.967   1.558  14.749  1.3802 -1.3207 -0.0441
 3683TIP3   OH232463   5.527   5.827   2.261 -0.2607 -0.0793  0.7213
 3683TIP3    H132464   5.469   5.803   2.333 -1.2657 -1.4496 -0.4850
 3683TIP3    H232465   5.583   5.750   2.249 -0.1539  0.1036  0.0043
 3684TIP3   OH232466   6.782   1.997   0.818 -0.3820 -0.1269 -0.5483
 3684TIP3    H132467   6.710   1.936   0.804 -1.7101  1.0423  0.8253
 3684TIP3    H232468   6.831   1.961   0.891  0.0569 -0.5862 -1.0619
 3685TIP3   OH232469   4.390   0.686  16.636 -0.1614 -0.4088 -0.5422
 3685TIP3    H132470   4.420   0.646  16.718  1.4307 -1.0101 -1.3697
 3685TIP3    H232471   4.344   0.765  16.663 -0.1029 -0.8563  0.9504
 3686TIP3   OH232472   6.014   0.259   1.823 -0.0667 -0.0878 -0.2003
 3686TIP3    H132473   5.925   0.223   1.817 -1.5194  2.9884  1.0447
 3686TIP3    H232474   6.032   0.294   1.736  0.3918 -1.5895 -0.7386
 3687TIP3   OH232475   5.681   6.463  16.483  0.2021  0.0356 -0.0574
 3687TIP3    H132476   5.716   6.460  16.394  1.3812  0.1300  0.3830
 3687TIP3    H232477   5.588   6.484  16.472  0.4038  0.3606 -1.2501
 3688TIP3   OH232478   5.599   2.151  14.161 -0.0514  0.1832 -0.2150
 3688TIP3    H132479   5.543   2.101  14.102 -0.2722  1.0205 -0.7388
 3688TIP3    H232480   5.559   2.139  14.247  0.0071 -0.6723 -0.2972
 3689TIP3   OH232481   1.585   5.861   1.913  0.4801 -0.3469 -0.2483
 3689TIP3    H132482   1.503   5.816   1.933  0.8487 -0.4779  1.0635
 3689TIP3    H232483   1.647   5.828   1.979  1.0237  1.3426  0.1239
 3690TIP3   OH232484   1.203   1.033   5.846 -0.2242  0.7175 -0.1219
 3690TIP3    H132485   1.201   1.074   5.932  1.2319  0.5046  0.0474
 3690TIP3    H232486   1.296   1.014   5.831 -0.2272  2.0835 -2.3622
 3691TIP3   OH232487   5.712   3.226  10.929 -0.0334  0.2587  0.4489
 3691TIP3    H132488   5.639   3.240  10.870 -1.0998 -1.9307  1.1428
 3691TIP3    H232489   5.781   3.190  10.873 -0.7444 -1.0072  0.3573
 3692TIP3   OH232490   6.699   1.176   4.144 -0.4552 -0.2167 -0.3265
 3692TIP3    H132491   6.770   1.115   4.124 -1.1581 -2.3270  2.8314
 3692TIP3    H232492   6.620   1.122   4.142 -1.2203  0.7159  1.8109
 3693TIP3   OH232493   3.324   3.495   4.447  0.3989 -0.2476 -0.2091
 3693TIP3    H132494   3.231   3.515   4.437  0.4274  0.3119  0.5520
 3693TIP3    H232495   3.365   3.535   4.370  0.2879  1.5571  0.6202
 3694TIP3   OH232496   5.615   3.449  14.409  0.5888  0.5008  0.0548
 3694TIP3    H132497   5.682   3.427  14.474  0.7564  2.3051  0.5487
 3694TIP3    H232498   5.659   3.508  14.348  0.3222 -0.8755 -1.5260
 3695TIP3   OH232499   2.873   6.069   1.468  0.2024 -0.2632  0.1225
 3695TIP3    H132500   2.962   6.102   1.455  1.4359 -2.6848  1.5552
 3695TIP3    H232501   2.854   6.018   1.389  0.7225 -0.9526  0.4320
 3696TIP3   OH232502   4.075   0.189   2.355  0.4534  0.2467 -0.9975
 3696TIP3    H132503   4.039   0.107   2.322 -1.6898  1.6772 -2.5604
 3696TIP3    H232504   4.102   0.170   2.444 -0.5744 -1.9795 -1.0992
 3697TIP3   OH232505   3.649   0.539  12.725  0.2485  0.5190 -0.2225
 3697TIP3    H132506   3.733   0.519  12.767  0.2792  1.8636  0.3952
 3697TIP3    H232507   3.600   0.587  12.792  0.0526  2.1836 -1.5062
 3698TIP3   OH232508   4.772   2.113   3.594 -0.4563 -0.0702  0.2106
 3698TIP3    H132509   4.699   2.069   3.549 -1.0164  0.6873  0.3675
 3698TIP3    H232510   4.813   2.166   3.527  0.1381 -0.7066  0.0556
 3699TIP3   OH232511   6.777   2.960   5.825 -0.6373  0.1270 -0.2920
 3699TIP3    H132512   6.823   2.979   5.744 -0.5863 -2.3848 -0.9293
 3699TIP3    H232513   6.793   3.037   5.880  1.3633  0.8471 -1.7520
 3700TIP3   OH232514   3.686   5.116  13.747  0.3369 -0.3995 -0.4453
 3700TIP3    H132515   3.621   5.143  13.682  0.2302  0.7594  0.1251
 3700TIP3    H232516   3.770   5.120  13.700  0.0187 -2.0800 -1.2367
 3701TIP3   OH232517   5.909   1.073  14.976  0.5084 -0.6652 -0.1356
 3701TIP3    H132518   5.911   1.169  14.980  0.9141 -0.6273 -1.1333
 3701TIP3    H232519   5.847   1.048  15.045  1.0403  0.2672  0.7115
 3702TIP3   OH232520   4.596   6.702   5.595 -0.4307  0.1798 -0.0853
 3702TIP3    H132521   4.673   6.659   5.633 -0.9469 -1.4180 -0.7508
 3702TIP3    H232522   4.542   6.725   5.670 -0.1142 -0.2954  0.2951
 3703TIP3   OH232523   3.609   2.740   4.457 -0.6384 -0.3319 -0.5784
 3703TIP3    H132524   3.645   2.653   4.474  0.5937  0.4985  1.4090
 3703TIP3    H232525   3.538   2.725   4.394  0.2899 -2.6016 -1.1734
 3704TIP3   OH232526   2.846   2.051   1.981  0.5108  0.1115 -0.0263
 3704TIP3    H132527   2.805   2.125   1.935  1.1002  1.0476  0.9021
 3704TIP3    H232528   2.932   2.042   1.939  1.3514  1.4497  1.3138
 3705TIP3   OH232529   2.486   3.195   3.811 -0.4858 -0.7442 -0.5403
 3705TIP3    H132530   2.508   3.215   3.901  1.2054  0.3871 -1.1626
 3705TIP3    H232531   2.446   3.108   3.815 -2.6311  0.2365  1.5317
 3706TIP3   OH232532   0.583   5.915   5.546 -0.3586 -0.6201  0.5898
 3706TIP3    H132533   0.542   5.999   5.524  0.9682 -0.2372 -0.5622
 3706TIP3    H232534   0.513   5.851   5.541 -1.0886  0.2102  0.0108
 3707TIP3   OH232535   1.734   1.840   2.704 -0.4735 -0.7883  0.9956
 3707TIP3    H132536   1.782   1.765   2.740 -1.7330 -2.6568 -0.9867
 3707TIP3    H232537   1.800   1.910   2.700  0.5344 -1.4337  3.7153
 3708TIP3   OH232538   2.298   1.626  14.623  0.4529  0.0761  0.2076
 3708TIP3    H132539   2.204   1.641  14.631  0.4466  0.5932 -0.7038
 3708TIP3    H232540   2.337   1.681  14.691  0.0559 -1.1065  1.4532
 3709TIP3   OH232541   3.401   3.952   1.327 -0.2543 -0.1099 -0.2800
 3709TIP3    H132542   3.332   4.002   1.371  1.6936 -0.0550  3.0095
 3709TIP3    H232543   3.475   4.012   1.322  0.5367 -1.0999 -1.0152
 3710TIP3   OH232544   5.361   6.426  13.483 -0.0784 -0.8264  0.4895
 3710TIP3    H132545   5.340   6.518  13.464  0.7768 -0.8225 -0.5381
 3710TIP3    H232546   5.333   6.414  13.574 -1.9072 -0.0829  0.0820
 3711TIP3   OH232547   3.873   1.168   1.590  0.6620  0.4634  0.1057
 3711TIP3    H132548   3.908   1.158   1.679  1.0683  1.8799  0.1283
 3711TIP3    H232549   3.889   1.260   1.568 -0.1817  0.3397 -1.1242
 3712TIP3   OH232550   0.274   4.000   3.441  0.1734 -0.1243 -0.9366
 3712TIP3    H132551   0.312   3.980   3.356  0.9183 -1.2095 -0.3701
 3712TIP3    H232552   0.312   4.084   3.466 -0.4547  0.4602 -1.8855
 3713TIP3   OH232553   3.403   3.944  16.329  0.5229  0.6982 -0.4284
 3713TIP3    H132554   3.415   3.957  16.423 -1.0911  1.4502 -0.2962
 3713TIP3    H232555   3.491   3.954  16.292  1.0356  1.3075  0.9055
 3714TIP3   OH232556   5.684   2.668  14.905 -0.2991  0.5584 -0.0169
 3714TIP3    H132557   5.722   2.622  14.981 -0.7637  0.8238  0.3783
 3714TIP3    H232558   5.620   2.606  14.870 -0.0105  0.3938 -0.2595
 3715TIP3   OH232559   1.122   5.155  16.783 -0.0157 -0.1672 -0.1596
 3715TIP3    H132560   1.104   5.065  16.810  1.7560 -0.6029 -0.3147
 3715TIP3    H232561   1.215   5.155  16.760  0.1339  1.7978  0.2551
 3716TIP3   OH232562   4.623   0.824   2.668  0.0826  0.5423  0.0249
 3716TIP3    H132563   4.535   0.807   2.701 -0.0011 -1.7673 -1.1665
 3716TIP3    H232564   4.680   0.771   2.725  0.2759 -0.8091 -1.3599
 3717TIP3   OH232565   4.025   5.091  10.396 -0.2592 -0.0980 -0.3722
 3717TIP3    H132566   3.959   5.080  10.327 -0.8248  0.5038  0.0582
 3717TIP3    H232567   3.979   5.140  10.465  0.7716  0.7057 -0.2490
 3718TIP3   OH232568   5.978   2.996  14.729  0.0580 -0.2057  0.0289
 3718TIP3    H132569   5.945   3.077  14.768  0.6742  0.8884 -1.6191
 3718TIP3    H232570   5.900   2.940  14.722 -0.3387  0.1473  1.3693
 3719TIP3   OH232571   1.035   6.119   0.051 -0.2709  0.6579  0.0894
 3719TIP3    H132572   1.115   6.156   0.089  0.2078 -1.2923  1.1189
 3719TIP3    H232573   0.997   6.191   0.001  0.7917  2.3857  1.6369
 3720TIP3   OH232574   2.670   6.222   5.800  0.2718 -0.1000 -0.0437
 3720TIP3    H132575   2.609   6.197   5.870 -0.8998  1.5865 -0.4172
 3720TIP3    H232576   2.686   6.315   5.815  3.4377 -0.6196  0.5096
 3721TIP3   OH232577   5.342   0.458   1.721 -0.0043  0.4807 -0.2487
 3721TIP3    H132578   5.319   0.396   1.790 -0.3178  2.5192  1.5870
 3721TIP3    H232579   5.310   0.542   1.753 -0.5394  1.4693 -3.1041
 3722TIP3   OH232580   0.612   0.982  13.707  0.0645 -0.0882  0.2836
 3722TIP3    H132581   0.674   1.026  13.649 -0.5670 -0.8617 -1.0162
 3722TIP3    H232582   0.630   1.018  13.793  1.9198  0.1222 -0.1637
 3723TIP3   OH232583   5.884   2.355   1.717 -0.6367  0.5249  0.0741
 3723TIP3    H132584   5.839   2.275   1.744 -2.0172  1.2349 -0.0546
 3723TIP3    H232585   5.833   2.387   1.643  1.0865  0.4542 -1.2115
 3724TIP3   OH232586   0.061   0.082  16.561  0.5228  0.0414 -0.2041
 3724TIP3    H132587   0.002   0.045  16.495 -0.9704 -3.4960  2.8114
 3724TIP3    H232588   0.038   0.175  16.563 -0.1732  0.0756 -3.7355
 3725TIP3   OH232589   2.841   0.682   5.610  0.2968 -0.1957  0.0570
 3725TIP3    H132590   2.845   0.733   5.691 -0.1756  0.8564 -0.5609
 3725TIP3    H232591   2.847   0.748   5.540  0.7598 -1.0876 -0.7687
 3726TIP3   OH232592   5.826   2.090  16.500  0.2384  0.0869  0.3008
 3726TIP3    H132593   5.790   2.144  16.430 -1.1791 -1.2744 -0.0686
 3726TIP3    H232594   5.921   2.100  16.493  0.0331  2.0177 -0.1332
 3727TIP3   OH232595   0.416   0.329  16.617 -0.7313  0.4294  0.3369
 3727TIP3    H132596   0.425   0.239  16.585  0.6385  0.0765  1.5840
 3727TIP3    H232597   0.459   0.383  16.552 -1.5287  0.1995 -0.4022
 3728TIP3   OH232598   0.001   5.737  13.996 -0.4627 -0.3377 -0.3844
 3728TIP3    H132599  -0.067   5.685  13.953 -1.0837 -0.5893  0.8493
 3728TIP3    H232600   0.052   5.674  14.046 -0.9748  0.1520  0.7987
 3729TIP3   OH232601   6.007   3.553   3.322  0.2470 -0.6843 -0.2763
 3729TIP3    H132602   5.962   3.633   3.347  0.6701 -0.1454 -1.1806
 3729TIP3    H232603   5.939   3.486   3.322 -0.1470 -0.2953  0.3151
 3730TIP3   OH232604   5.453   5.592   0.122  0.4411  1.1045  0.1494
 3730TIP3    H132605   5.387   5.577   0.189  0.1574  0.2442 -0.3119
 3730TIP3    H232606   5.514   5.653   0.163  0.4613  0.3381  1.3324
 3731TIP3   OH232607   5.704   0.772  12.655  0.0704 -0.3578  0.0692
 3731TIP3    H132608   5.785   0.751  12.700 -0.8779  0.0907  2.1140
 3731TIP3    H232609   5.713   0.864  12.631  0.0625 -0.2105  0.6017
 3732TIP3   OH232610   5.083   0.424  14.394 -0.1606 -0.2639  0.3221
 3732TIP3    H132611   5.009   0.469  14.351  0.8878  1.9508  0.7111
 3732TIP3    H232612   5.132   0.386  14.321 -0.5010  0.1248 -0.1227
 3733TIP3   OH232613   4.506   6.401   4.660  0.4484  0.0373  0.3319
 3733TIP3    H132614   4.551   6.471   4.612 -0.3779  0.4751  0.1773
 3733TIP3    H232615   4.417   6.400   4.624  0.7700 -1.9290 -0.5298
 3734TIP3   OH232616   6.343   0.316   4.814 -0.2720 -0.0540  0.3203
 3734TIP3    H132617   6.333   0.394   4.760  2.7322  0.5222  0.4106
 3734TIP3    H232618   6.298   0.337   4.896 -0.2357  1.2603  0.0214
 3735TIP3   OH232619   1.160   0.384   4.621 -0.1612 -0.6362 -0.1290
 3735TIP3    H132620   1.085   0.340   4.659 -0.7875  0.4640 -0.0435
 3735TIP3    H232621   1.209   0.315   4.576 -1.7656 -1.1920 -1.0810
 3736TIP3   OH232622   1.588   5.080  12.751  0.7935 -0.2081  0.0462
 3736TIP3    H132623   1.519   5.023  12.717  1.2196 -0.3501 -0.5943
 3736TIP3    H232624   1.612   5.041  12.836 -0.4029  0.2535  0.6128
 3737TIP3   OH232625   4.954   3.675  12.075 -0.0378 -0.4487 -0.1462
 3737TIP3    H132626   4.916   3.699  12.159  1.3782 -1.9023  0.9849
 3737TIP3    H232627   4.883   3.687  12.012 -1.1528  0.6124  1.2507
 3738TIP3   OH232628   2.248   3.081   0.211  0.2000 -0.0738  0.5046
 3738TIP3    H132629   2.228   3.102   0.120  0.0710 -0.1290  0.5210
 3738TIP3    H232630   2.285   2.992   0.208 -1.5719 -0.8653  0.7188
 3739TIP3   OH232631   1.700   4.939  16.768 -0.7397  0.4245  0.0195
 3739TIP3    H132632   1.640   4.967  16.836  0.0232  2.9453 -0.2401
 3739TIP3    H232633   1.786   4.968  16.798  0.0201 -0.9967 -0.6990
 3740TIP3   OH232634   0.738   1.022  16.296  0.0533  0.2459 -0.7154
 3740TIP3    H132635   0.657   1.027  16.245 -1.2761  0.3821  1.2932
 3740TIP3    H232636   0.778   1.108  16.288 -0.7557  0.6383 -0.5871
 3741TIP3   OH232637   5.697   1.623   0.862  0.5286 -0.1146  0.7581
 3741TIP3    H132638   5.681   1.702   0.913 -2.4265  0.7735 -1.3261
 3741TIP3    H232639   5.682   1.551   0.924 -1.4990  0.9339  1.5643
 3742TIP3   OH232640   6.292   4.765  16.672  0.0177 -0.2730 -0.0568
 3742TIP3    H132641   6.275   4.826  16.745 -1.0121 -0.3319 -0.2354
 3742TIP3    H232642   6.269   4.679  16.707 -0.9165 -0.2502 -0.5707
 3743TIP3   OH232643   1.898   4.841   0.142 -0.1795 -0.1818 -0.0343
 3743TIP3    H132644   1.832   4.794   0.092  1.0023 -1.6596 -0.2675
 3743TIP3    H232645   1.962   4.869   0.077  0.5658 -0.7396  0.4474
 3744TIP3   OH232646   3.627   6.377  11.696 -0.4453  0.2371 -0.1896
 3744TIP3    H132647   3.685   6.404  11.767 -0.4334 -0.0043 -0.1051
 3744TIP3    H232648   3.686   6.337  11.632 -0.6148 -0.8719  0.3181
 3745TIP3   OH232649   5.968   2.280  15.794 -0.3709 -0.4501 -0.0916
 3745TIP3    H132650   6.037   2.271  15.730  0.1954  0.3909  0.3731
 3745TIP3    H232651   6.013   2.307  15.874 -1.2020 -0.1249  0.2811
 3746TIP3   OH232652   3.172   2.548  16.746  0.1711 -0.0114 -0.6601
 3746TIP3    H132653   3.261   2.515  16.756  0.0337  0.1863  1.8894
 3746TIP3    H232654   3.178   2.641  16.767 -0.5247  0.1824 -1.2690
 3747TIP3   OH232655   3.023   5.599   4.896  0.5246 -0.3686  0.2705
 3747TIP3    H132656   2.968   5.537   4.945  0.0057 -1.7398 -1.8940
 3747TIP3    H232657   2.981   5.684   4.909 -1.2302 -1.1433 -0.0228
 3748TIP3   OH232658   4.312   3.106  16.684  0.1174  0.7832  0.1946
 3748TIP3    H132659   4.279   3.056  16.609  1.5309  1.4833 -0.9638
 3748TIP3    H232660   4.236   3.154  16.717 -1.1744 -1.6830  1.0432
 3749TIP3   OH232661   6.069   5.517  17.017 -0.0730  0.4073 -0.6790
 3749TIP3    H132662   6.028   5.493  16.934 -0.0890  0.9108 -0.8179
 3749TIP3    H232663   5.995   5.536  17.075 -0.0518  0.5479 -0.6986
 3750TIP3   OH232664   5.034   1.059  13.616 -0.1886  0.1475 -0.3198
 3750TIP3    H132665   5.101   0.992  13.629  0.3069  0.8124  0.6381
 3750TIP3    H232666   4.962   1.012  13.573  0.4755 -0.8083 -0.4230
 3751TIP3   OH232667   2.458   1.854   3.922 -0.2355 -0.1374  0.6794
 3751TIP3    H132668   2.450   1.875   4.016  2.0239 -0.3880  0.9913
 3751TIP3    H232669   2.529   1.911   3.891 -0.6982 -0.3310 -0.8088
 3752TIP3   OH232670   0.272   0.621   0.343  0.1208 -0.1090  0.6046
 3752TIP3    H132671   0.309   0.705   0.372  0.0901 -0.5713  2.0151
 3752TIP3    H232672   0.240   0.580   0.423 -0.9718 -0.9400 -0.2379
 3753TIP3   OH232673   4.769   5.673   0.797  0.1033 -0.2388  0.0422
 3753TIP3    H132674   4.710   5.605   0.765 -2.4979  1.9576 -0.2967
 3753TIP3    H232675   4.721   5.755   0.782  3.6524  1.8838 -1.0646
 3754TIP3   OH232676   0.699   4.350   3.559 -0.4314 -0.4154  0.0766
 3754TIP3    H132677   0.684   4.265   3.599 -0.1473  0.1128  1.3699
 3754TIP3    H232678   0.635   4.408   3.601  1.1029  0.5483  1.1891
 3755TIP3   OH232679   3.512   2.700   4.173  0.1192 -0.6989 -0.3732
 3755TIP3    H132680   3.420   2.675   4.164 -1.0453  2.7893  0.1390
 3755TIP3    H232681   3.518   2.784   4.128  2.4291  0.4039  1.7652
 3756TIP3   OH232682   1.544   3.477  16.535 -0.5549 -0.1514 -0.1019
 3756TIP3    H132683   1.479   3.474  16.465 -0.3878 -0.4481 -0.2486
 3756TIP3    H232684   1.557   3.570  16.553  0.5079  0.0077 -1.5109
 3757TIP3   OH232685   2.435   2.773  11.857  0.4547  0.2566  0.5998
 3757TIP3    H132686   2.487   2.829  11.800  0.6255 -1.9439 -1.5352
 3757TIP3    H232687   2.347   2.810  11.854  0.8982  1.3468  0.5975
 3758TIP3   OH232688   1.499   3.556  16.843 -0.5049 -0.3480 -0.6166
 3758TIP3    H132689   1.412   3.535  16.810 -0.8560 -0.3513  0.2897
 3758TIP3    H232690   1.484   3.585  16.933  0.3484  0.3829 -0.6961
 3759TIP3   OH232691   6.488   6.097   3.793 -0.6783 -0.0567  0.7295
 3759TIP3    H132692   6.462   6.083   3.884  0.1681  1.9968  1.3401
 3759TIP3    H232693   6.581   6.075   3.790 -0.9197 -1.1079  0.0726
 3760TIP3   OH232694   4.231   1.596   3.660 -0.1090 -0.5571 -0.0190
 3760TIP3    H132695   4.231   1.502   3.641  1.3669 -0.3870 -1.0030
 3760TIP3    H232696   4.253   1.602   3.753  1.3755 -1.1659 -0.3043
 3761TIP3   OH232697   2.499   3.525  15.750  0.1133  0.2126 -0.1537
 3761TIP3    H132698   2.479   3.578  15.828  1.4649 -1.9018  1.7556
 3761TIP3    H232699   2.579   3.563  15.715  1.1105 -0.5145  1.2382
 3762TIP3   OH232700   5.949   0.444   0.608  0.0261 -0.1154 -0.2327
 3762TIP3    H132701   6.028   0.484   0.646  0.1964 -1.1709  0.5892
 3762TIP3    H232702   5.880   0.461   0.672  0.0157 -0.7665 -0.0572
 3763TIP3   OH232703   6.618   0.053   4.339  0.1846  0.4067 -0.3117
 3763TIP3    H132704   6.614   0.113   4.265 -1.3696  0.6447 -0.0683
 3763TIP3    H232705   6.602   0.109   4.415  0.2085 -0.0803  0.0552
 3764TIP3   OH232706   1.921   3.760   2.910 -0.2054 -0.0587 -0.8569
 3764TIP3    H132707   1.922   3.839   2.857 -0.5392 -0.5192 -1.5637
 3764TIP3    H232708   1.955   3.692   2.852  1.9479 -0.0861  0.3318
 3765TIP3   OH232709   4.419   5.489   0.494  0.2464 -0.3156 -0.0145
 3765TIP3    H132710   4.478   5.478   0.569 -1.3500 -0.4813  1.2749
 3765TIP3    H232711   4.455   5.563   0.445  1.0015  0.1891  1.2592
 3766TIP3   OH232712   1.293   2.782   6.351 -0.0273  0.5428 -0.4798
 3766TIP3    H132713   1.351   2.734   6.293 -0.1966 -0.2307 -0.0276
 3766TIP3    H232714   1.301   2.873   6.324  2.3100  0.6435  0.3330
 3767TIP3   OH232715   3.195   4.174  15.114 -0.5929  0.9096  0.3162
 3767TIP3    H132716   3.216   4.132  15.197  3.3727 -0.8149 -1.2866
 3767TIP3    H232717   3.141   4.111  15.067 -3.8269  2.3559  1.8119
 3768TIP3   OH232718   5.281   6.566   5.775  0.0752 -0.0836  0.0256
 3768TIP3    H132719   5.186   6.578   5.779 -0.1338 -1.6083  0.4764
 3768TIP3    H232720   5.314   6.611   5.853 -0.1093  1.5775 -0.8169
 3769TIP3   OH232721   5.970   2.191   0.103 -0.5144 -0.0116  0.3749
 3769TIP3    H132722   6.040   2.131   0.077 -1.1628 -0.6959  0.1617
 3769TIP3    H232723   5.890   2.149   0.071 -1.0711  0.5109  1.0605
 3770TIP3   OH232724   5.044   5.946  11.461 -0.1200 -0.7706 -0.6014
 3770TIP3    H132725   4.993   5.908  11.533  0.7032 -1.0184 -0.1373
 3770TIP3    H232726   4.995   5.923  11.382 -1.8349  0.7629 -0.0578
 3771TIP3   OH232727   2.578   0.878  12.657  0.0286 -0.0170  0.4729
 3771TIP3    H132728   2.522   0.818  12.607  1.0128  0.0089 -0.6920
 3771TIP3    H232729   2.536   0.963  12.648  0.0078 -0.0772 -0.0360
 3772TIP3   OH232730   2.723   3.925   2.014 -0.7293  0.0421  0.6790
 3772TIP3    H132731   2.778   3.875   2.074 -1.1417 -1.1087  0.1214
 3772TIP3    H232732   2.637   3.884   2.020 -1.1249  0.7966  0.3285
 3773TIP3   OH232733   0.338   4.685  14.299  0.3140  0.1164  0.1635
 3773TIP3    H132734   0.399   4.746  14.258 -0.6276 -0.6316 -2.5097
 3773TIP3    H232735   0.265   4.679  14.238 -0.5518 -2.1558  1.3198
 3774TIP3   OH232736   1.066   3.568  11.089  0.0640  0.3660  0.0805
 3774TIP3    H132737   1.056   3.473  11.081  0.8404  0.4219 -2.0751
 3774TIP3    H232738   1.155   3.580  11.123  0.7123  0.3334 -1.5420
 3775TIP3   OH232739   2.215   0.724  14.217  0.7809  0.5658  0.3197
 3775TIP3    H132740   2.130   0.740  14.259 -0.1243  0.5332 -1.4338
 3775TIP3    H232741   2.196   0.661  14.148  2.1523  0.9323 -0.4163
 3776TIP3   OH232742   6.165   1.905   3.258 -0.5927 -0.3176  0.1214
 3776TIP3    H132743   6.238   1.962   3.283 -0.2751 -0.1297 -1.1839
 3776TIP3    H232744   6.127   1.877   3.341  0.7908 -0.1983  0.8182
 3777TIP3   OH232745   4.172   1.576  15.578  0.9055 -0.2197  0.0938
 3777TIP3    H132746   4.153   1.486  15.604  0.0878  0.8052  3.4695
 3777TIP3    H232747   4.247   1.602  15.630  0.6960  1.2846 -0.3003
 3778TIP3   OH232748   4.117   4.993   0.927  0.3773  0.6281  0.2759
 3778TIP3    H132749   4.151   4.923   0.871 -0.5694 -0.9686  1.6138
 3778TIP3    H232750   4.032   5.016   0.889  0.3006  0.4428  0.3377
 3779TIP3   OH232751   5.665   4.854   5.701 -0.5443 -0.3632  0.2056
 3779TIP3    H132752   5.703   4.768   5.687 -0.6980 -0.4930  0.5675
 3779TIP3    H232753   5.603   4.866   5.628 -0.7391 -0.6818  0.3189
 3780TIP3   OH232754   2.972   4.382   1.904  0.7004 -0.5212  0.2927
 3780TIP3    H132755   3.035   4.314   1.879 -1.1604 -1.3462 -2.7453
 3780TIP3    H232756   2.889   4.335   1.914 -0.5273  1.1681 -1.2923
 3781TIP3   OH232757   0.954   3.301  15.711 -0.2315 -0.6639 -0.1768
 3781TIP3    H132758   1.034   3.251  15.699 -0.7025 -1.4173 -0.2213
 3781TIP3    H232759   0.956   3.328  15.803 -0.4549 -1.6241  0.1210
 3782TIP3   OH232760   0.263   5.938   4.785 -0.0491  0.0838 -0.3079
 3782TIP3    H132761   0.174   5.928   4.819 -0.2039 -0.6578 -0.9167
 3782TIP3    H232762   0.312   5.868   4.828 -0.1946 -0.7171 -1.4191
 3783TIP3   OH232763   5.098   0.771  13.033  0.0474  0.1675 -0.5217
 3783TIP3    H132764   5.119   0.811  13.117 -1.2465  0.4505 -0.3150
 3783TIP3    H232765   5.043   0.695  13.055  0.9209 -0.6411 -1.0278
 3784TIP3   OH232766   5.856   0.928  13.982 -0.0473 -0.2795 -0.0767
 3784TIP3    H132767   5.890   0.882  13.905 -0.5793  1.9613 -1.7476
 3784TIP3    H232768   5.778   0.974  13.951 -0.7988  0.0063  2.0447
 3785TIP3   OH232769   6.066   5.817   3.360 -0.6893 -0.2094  0.1916
 3785TIP3    H132770   6.010   5.787   3.289  2.0988 -1.5752 -1.6009
 3785TIP3    H232771   6.085   5.738   3.411  1.4957 -0.3489 -0.7188
 3786TIP3   OH232772   0.015   1.773   3.023  0.4268  0.0503  0.4056
 3786TIP3    H132773  -0.027   1.687   3.029  0.4977 -0.1047 -1.0191
 3786TIP3    H232774   0.106   1.758   3.048  0.8924 -0.6826 -1.5653
 3787TIP3   OH232775   3.497   3.418  11.879  0.0209  0.1229 -0.0974
 3787TIP3    H132776   3.520   3.506  11.909 -1.1793  0.8541 -1.1869
 3787TIP3    H232777   3.455   3.433  11.794  1.2567 -1.6503 -1.0693
 3788TIP3   OH232778   2.527   6.589   1.020 -0.3735  0.4469 -0.3246
 3788TIP3    H132779   2.467   6.536   1.073 -0.6345 -1.9003 -2.7402
 3788TIP3    H232780   2.610   6.542   1.025  0.3311  1.7139  0.1564
 3789TIP3   OH232781   1.915   6.313  12.103 -0.3707  0.1342 -0.5486
 3789TIP3    H132782   1.980   6.334  12.036 -0.0963 -1.2078 -0.7168
 3789TIP3    H232783   1.831   6.315  12.056 -0.1614 -0.9994 -0.9872
 3790TIP3   OH232784   4.150   2.169  14.886  0.4790  0.4289 -0.0956
 3790TIP3    H132785   4.074   2.134  14.839  0.3070  0.3908  0.2104
 3790TIP3    H232786   4.160   2.258  14.851  1.2432 -0.0889 -1.2660
 3791TIP3   OH232787   6.355   6.666  12.933  0.1974 -0.3330  0.2398
 3791TIP3    H132788   6.414   6.740  12.918  1.5774 -1.3367  0.5609
 3791TIP3    H232789   6.291   6.698  12.996 -0.7220  1.3485 -1.4515
 3792TIP3   OH232790   6.643   2.469  14.038 -0.4564  0.5189  0.0403
 3792TIP3    H132791   6.718   2.524  14.061 -0.3807  0.1268  0.7588
 3792TIP3    H232792   6.639   2.403  14.107 -1.2702  0.3397 -0.1608
 3793TIP3   OH232793   1.320   5.162   1.307  0.2281  0.5235  0.1069
 3793TIP3    H132794   1.227   5.145   1.322 -0.5102  2.8852 -1.1863
 3793TIP3    H232795   1.326   5.178   1.212  2.5423 -2.5176 -0.4233
 3794TIP3   OH232796   5.570   6.428  15.227  0.0949 -1.0079  0.0287
 3794TIP3    H132797   5.630   6.483  15.177  0.2163 -0.8187  0.3869
 3794TIP3    H232798   5.512   6.391  15.160 -0.9426  0.7161 -0.0850
 3795TIP3   OH232799   1.475   2.641   6.184  0.3989 -0.2771 -0.3468
 3795TIP3    H132800   1.484   2.551   6.154  0.5130 -0.3174 -0.1912
 3795TIP3    H232801   1.555   2.659   6.234 -0.7279 -0.9601  1.8566
 3796TIP3   OH232802   1.129   4.759   4.986  0.3882 -0.1976 -0.0595
 3796TIP3    H132803   1.034   4.751   4.972  0.2727 -0.6968  0.9392
 3796TIP3    H232804   1.156   4.670   5.011  1.1698 -0.1163 -0.5955
 3797TIP3   OH232805   4.255   4.205   0.180 -0.0534 -0.2037  0.1210
 3797TIP3    H132806   4.304   4.127   0.206  2.3246  1.3799  0.7222
 3797TIP3    H232807   4.241   4.194   0.086 -0.7052 -1.8057  0.3767
 3798TIP3   OH232808   2.624   5.182   4.485  0.5359 -0.3305  0.4790
 3798TIP3    H132809   2.718   5.200   4.481  0.6882 -1.2361 -0.1863
 3798TIP3    H232810   2.588   5.224   4.407  0.3207  0.3740  0.9526
 3799TIP3   OH232811   0.317   2.932   1.488  0.2627 -0.3477  0.4234
 3799TIP3    H132812   0.312   2.841   1.517  0.4522 -0.7819 -0.8724
 3799TIP3    H232813   0.388   2.970   1.540  0.2597 -0.9546  0.8853
 3800TIP3   OH232814   0.512   4.515  15.805 -0.0603 -0.1591  0.7691
 3800TIP3    H132815   0.457   4.576  15.757 -0.8057 -0.7178  0.8919
 3800TIP3    H232816   0.450   4.454  15.847  0.5867 -0.0843  1.8862
 3801TIP3   OH232817   3.322   3.339  15.489 -0.2181 -0.3773 -0.2669
 3801TIP3    H132818   3.303   3.394  15.566  0.0068 -2.4709  1.3671
 3801TIP3    H232819   3.244   3.348  15.434 -0.7961  0.4516  0.6412
 3802TIP3   OH232820   5.992   1.991  12.881  0.2318 -0.2503  0.5583
 3802TIP3    H132821   6.012   2.026  12.968 -0.3945 -1.5151  1.2558
 3802TIP3    H232822   6.026   2.056  12.820 -1.2571  1.7689  1.7496
 3803TIP3   OH232823   5.544   4.388  12.796 -0.2238  0.0804  0.3864
 3803TIP3    H132824   5.497   4.372  12.878  0.6739 -2.9625  0.4383
 3803TIP3    H232825   5.479   4.373  12.728  0.3363 -3.6217  0.4718
 3804TIP3   OH232826   4.502   1.861   5.105 -0.2933  0.9200 -0.1035
 3804TIP3    H132827   4.417   1.906   5.099 -1.8402 -1.8399 -0.2549
 3804TIP3    H232828   4.483   1.770   5.084  2.8399  0.2724 -0.6451
 3805TIP3   OH232829   2.459   0.456   4.217 -0.3038 -0.2989  0.4391
 3805TIP3    H132830   2.537   0.402   4.213 -0.1726 -0.0639 -1.2515
 3805TIP3    H232831   2.400   0.410   4.277 -0.0095 -2.0719 -0.5606
 3806TIP3   OH232832   6.043   3.456   4.109  0.2582  0.2051 -0.1820
 3806TIP3    H132833   6.038   3.548   4.137 -0.3997  0.0695  0.1581
 3806TIP3    H232834   5.973   3.448   4.043 -1.5907 -0.7294  1.7731
 3807TIP3   OH232835   5.894   4.482  16.734  0.4990  0.3101  0.2011
 3807TIP3    H132836   5.899   4.394  16.770  0.9322 -0.2166 -1.1009
 3807TIP3    H232837   5.802   4.508  16.746  0.3347 -0.3762  0.4413
 3808TIP3   OH232838   2.855   4.708  10.729  0.2312  0.4204 -0.8799
 3808TIP3    H132839   2.827   4.641  10.666 -1.1985  0.8226 -0.6979
 3808TIP3    H232840   2.774   4.752  10.755  1.0560  1.6889 -0.3764
 3809TIP3   OH232841   1.905   3.690   3.591  0.3105  0.5382 -0.1128
 3809TIP3    H132842   1.852   3.676   3.513 -1.9059  0.0014  1.4098
 3809TIP3    H232843   1.987   3.645   3.572 -0.6603 -0.7095 -1.6259
 3810TIP3   OH232844   4.606   5.476   1.636  0.0482  0.1131 -0.3247
 3810TIP3    H132845   4.588   5.568   1.657  0.2420  0.0003  0.3896
 3810TIP3    H232846   4.534   5.428   1.676  0.1780 -0.0769 -0.3183
 3811TIP3   OH232847   6.002   2.382  13.161  0.2576 -0.7173 -0.0903
 3811TIP3    H132848   6.041   2.469  13.151  1.5394 -1.2437  0.1502
 3811TIP3    H232849   6.065   2.322  13.120 -0.7210 -1.5131 -0.4790
 3812TIP3   OH232850   3.077   1.563  15.987  0.4843  0.0300  0.4277
 3812TIP3    H132851   3.171   1.580  15.981  0.4413  0.2281  0.3067
 3812TIP3    H232852   3.070   1.484  16.041  0.8890 -1.8553 -2.1401
 3813TIP3   OH232853   2.855   0.519  13.793 -0.4801 -0.0499 -0.7435
 3813TIP3    H132854   2.813   0.605  13.798 -1.1217 -0.2963 -1.6090
 3813TIP3    H232855   2.939   0.536  13.750  1.2369  0.7351  2.6382
 3814TIP3   OH232856   5.879   5.031   4.497 -1.1518  0.3707 -0.0822
 3814TIP3    H132857   5.968   4.996   4.495 -1.3248 -0.1260  0.4624
 3814TIP3    H232858   5.890   5.124   4.516 -0.8045 -0.0485  2.0212
 3815TIP3   OH232859   3.815   2.044  12.868  0.3558  0.0325 -0.6059
 3815TIP3    H132860   3.857   1.959  12.878 -0.2880 -0.2624 -0.3560
 3815TIP3    H232861   3.876   2.106  12.907  1.0928 -0.2317 -1.3009
 3816TIP3   OH232862   3.759   2.292   0.690  0.1296 -0.3399 -0.3185
 3816TIP3    H132863   3.701   2.278   0.765  1.5127 -1.3671  0.6453
 3816TIP3    H232864   3.761   2.387   0.678 -2.3232 -0.3067 -0.9219
 3817TIP3   OH232865   1.547   3.497   3.509  0.0342 -0.3575  0.1825
 3817TIP3    H132866   1.595   3.431   3.559 -2.0702 -1.1776  1.2225
 3817TIP3    H232867   1.522   3.453   3.428 -0.1000 -0.3584  0.2242
 3818TIP3   OH232868   1.585   3.170   5.187  0.9842 -0.8300 -0.0373
 3818TIP3    H132869   1.523   3.108   5.226 -0.1101 -0.6966 -1.4450
 3818TIP3    H232870   1.544   3.195   5.104  2.6621 -0.2489 -0.7360
 3819TIP3   OH232871   3.586   6.252  12.547  0.3409  0.2666 -0.1518
 3819TIP3    H132872   3.642   6.327  12.565 -0.1242  1.2581 -2.4433
 3819TIP3    H232873   3.607   6.227  12.457  0.0625 -2.0228  0.3546
 3820TIP3   OH232874   3.694   3.350  11.223  0.0428 -0.7170  0.2419
 3820TIP3    H132875   3.682   3.441  11.250 -2.0628 -0.8389 -0.0974
 3820TIP3    H232876   3.778   3.350  11.178  1.1713  0.5599  2.2011
 3821TIP3   OH232877   6.162   2.832   2.111 -0.0813  0.5415 -0.0649
 3821TIP3    H132878   6.120   2.850   2.195 -1.0651 -2.3864  0.2160
 3821TIP3    H232879   6.098   2.776   2.065  0.9082  1.1611 -2.3021
 3822TIP3   OH232880   5.013   3.233  13.800 -0.5321 -0.5517 -0.0828
 3822TIP3    H132881   5.103   3.255  13.825 -0.7988 -2.1368  2.5966
 3822TIP3    H232882   4.987   3.304  13.741  2.5216 -0.1787 -1.1630
 3823TIP3   OH232883   3.782   4.479   5.685 -0.1709  0.1906 -0.8804
 3823TIP3    H132884   3.859   4.535   5.674 -0.1888  0.4238  0.0985
 3823TIP3    H232885   3.726   4.527   5.746 -0.8113 -0.2706 -1.0931
 3824TIP3   OH232886   0.166   3.309  12.712 -0.0059 -0.1622 -0.0737
 3824TIP3    H132887   0.088   3.298  12.767 -0.1717  0.1580 -0.2402
 3824TIP3    H232888   0.169   3.230  12.658 -1.8612  1.0616 -2.1207
 3825TIP3   OH232889   5.195   6.705  11.021 -0.4744  0.3106  0.3869
 3825TIP3    H132890   5.109   6.743  11.007 -1.7030 -1.8784  1.5110
 3825TIP3    H232891   5.231   6.754  11.096 -1.4248  0.1922  0.9318
 3826TIP3   OH232892   1.298   4.551  14.364 -0.1632 -0.0394 -0.4551
 3826TIP3    H132893   1.223   4.501  14.332 -1.7331  2.9347 -1.8361
 3826TIP3    H232894   1.356   4.559  14.288 -1.7637  3.2584 -1.5014
 3827TIP3   OH232895   6.657   6.447  17.260  0.0972  0.1472 -0.3107
 3827TIP3    H132896   6.683   6.372  17.314 -0.8533  0.2011  0.2468
 3827TIP3    H232897   6.562   6.454  17.273  0.2616  1.8637  0.1813
 3828TIP3   OH232898   5.862   2.277  13.708 -0.0122 -0.2123  0.0626
 3828TIP3    H132899   5.788   2.328  13.675  0.1167  1.2391  1.8368
 3828TIP3    H232900   5.822   2.197  13.744 -0.4520 -0.4645 -0.9614
 3829TIP3   OH232901   3.573   6.667   0.567 -0.1526  0.3748 -0.3689
 3829TIP3    H132902   3.655   6.618   0.574  0.6387  1.6116 -0.6833
 3829TIP3    H232903   3.515   6.611   0.515  0.4978 -0.5006 -0.1668
 3830TIP3   OH232904   5.375   3.009  15.540 -0.0088  0.4375 -0.3925
 3830TIP3    H132905   5.421   3.090  15.518 -0.9412  0.9486 -0.4854
 3830TIP3    H232906   5.310   2.998  15.470  0.2248 -0.4922 -0.4796
 3831TIP3   OH232907   1.041   3.670  17.161 -0.0471  0.0907 -0.4166
 3831TIP3    H132908   1.088   3.680  17.244  1.8564 -1.4577 -1.2362
 3831TIP3    H232909   1.090   3.724  17.099  1.4186 -2.3876 -1.5305
 3832TIP3   OH232910   0.821   5.096  13.950  0.2877 -0.2274  0.0681
 3832TIP3    H132911   0.911   5.065  13.939 -0.1580 -0.9363 -2.1202
 3832TIP3    H232912   0.775   5.022  13.988  0.5195 -0.0223  0.7621
 3833TIP3   OH232913   6.617   0.584  15.407 -0.6688 -0.1286  0.2534
 3833TIP3    H132914   6.621   0.589  15.502 -1.5492 -3.5312  0.5892
 3833TIP3    H232915   6.707   0.571  15.379 -0.5704 -0.5578  0.7673
 3834TIP3   OH232916   1.414   6.209  11.705  0.3577 -0.5925 -0.4997
 3834TIP3    H132917   1.397   6.302  11.691 -3.4895 -1.4654 -3.3256
 3834TIP3    H232918   1.458   6.181  11.625 -0.9423 -1.5927 -0.9016
 3835TIP3   OH232919   5.598   0.204   6.521  0.3020  0.0125  0.0939
 3835TIP3    H132920   5.577   0.237   6.608 -0.5246  0.7532 -0.3625
 3835TIP3    H232921   5.516   0.209   6.473  0.9840  0.7659 -1.0688
 3836TIP3   OH232922   1.722   4.575  14.117 -0.1861  0.5894 -0.6341
 3836TIP3    H132923   1.806   4.569  14.162 -0.5765 -0.2675  0.0053
 3836TIP3    H232924   1.723   4.503  14.054 -1.4258 -1.0595  1.1137
 3837TIP3   OH232925   0.457   4.701  13.210  0.2399 -0.0795 -0.9748
 3837TIP3    H132926   0.367   4.681  13.235  0.6941  0.2641  1.1645
 3837TIP3    H232927   0.452   4.725  13.117 -2.5145  3.4591 -0.1496
 3838TIP3   OH232928   0.860   6.567   0.387 -0.3473 -0.1674  0.3874
 3838TIP3    H132929   0.784   6.615   0.421 -0.5364  0.1398 -0.4573
 3838TIP3    H232930   0.934   6.600   0.438 -0.5769  0.5521  0.2638
 3839TIP3   OH232931   2.928   6.446   3.309  0.0425  0.3697  0.3802
 3839TIP3    H132932   2.963   6.365   3.271 -1.4769 -0.1412  0.0323
 3839TIP3    H232933   2.856   6.417   3.365 -0.8127  1.5215 -0.1091
 3840TIP3   OH232934   1.372   0.841  11.293  0.1560 -0.4292  0.1815
 3840TIP3    H132935   1.310   0.913  11.291 -0.0093 -0.5531 -2.9571
 3840TIP3    H232936   1.430   0.861  11.367 -1.5037  1.4667  1.0374
 3841TIP3   OH232937   6.377   3.276   3.125  0.3344 -0.0221 -0.2716
 3841TIP3    H132938   6.471   3.283   3.144  0.4568  0.6074 -1.0607
 3841TIP3    H232939   6.369   3.197   3.073  0.0002 -1.7524  2.2271
 3842TIP3   OH232940   3.434   0.535   5.100  0.2219  0.1002 -0.3630
 3842TIP3    H132941   3.501   0.517   5.035  0.5119  0.0469 -0.0497
 3842TIP3    H232942   3.442   0.464   5.163 -1.4296 -1.0365 -1.3533
 3843TIP3   OH232943   1.130   0.330  12.321 -0.5358  0.1896 -0.0577
 3843TIP3    H132944   1.106   0.259  12.261 -2.6511  1.3634 -0.6966
 3843TIP3    H232945   1.159   0.401  12.264  1.5320 -0.0689  0.5771
 3844TIP3   OH232946   6.695   4.982  16.819  0.6809  0.1196 -0.1534
 3844TIP3    H132947   6.783   4.950  16.837 -0.3619 -2.7911  0.2712
 3844TIP3    H232948   6.678   4.956  16.729 -0.4204 -1.2232  0.3973
 3845TIP3   OH232949   0.468   5.336   1.450  0.0704  0.2917  0.2616
 3845TIP3    H132950   0.516   5.267   1.404  0.1438  0.2670  0.3757
 3845TIP3    H232951   0.529   5.367   1.518  0.0293  0.4522  0.2258
 3846TIP3   OH232952   6.476   5.951  15.307 -0.7036  0.7457  0.4494
 3846TIP3    H132953   6.563   5.983  15.283  0.6604 -2.0057  1.3023
 3846TIP3    H232954   6.455   5.999  15.387  1.6336 -0.8309  2.1573
 3847TIP3   OH232955   2.714   2.358  15.518  0.4195  0.3972  0.6501
 3847TIP3    H132956   2.657   2.434  15.523  0.3408  0.3207  0.9598
 3847TIP3    H232957   2.656   2.286  15.494  0.4532  0.3940  0.5790
 3848TIP3   OH232958   0.455   3.182   4.053  0.2758  0.1199 -0.1716
 3848TIP3    H132959   0.532   3.157   4.002  0.3897 -0.9220  0.4915
 3848TIP3    H232960   0.444   3.276   4.035  0.2853 -0.2220 -2.1299
 3849TIP3   OH232961   3.058   1.505  13.061  0.0090  0.1166  0.1708
 3849TIP3    H132962   3.082   1.412  13.052 -0.6758  0.0038 -0.6310
 3849TIP3    H232963   2.967   1.509  13.030 -0.0045  1.0401  0.3175
 3850TIP3   OH232964   6.121   2.038  12.261  0.5675 -0.5237  0.1668
 3850TIP3    H132965   6.088   1.953  12.232 -1.8513 -0.9063  3.5279
 3850TIP3    H232966   6.066   2.101  12.214  0.0695 -0.9397  0.1702
 3851TIP3   OH232967   3.210   4.032   2.913  0.1198 -0.1506 -0.2425
 3851TIP3    H132968   3.245   3.970   2.977 -1.3618 -0.8695 -0.0731
 3851TIP3    H232969   3.116   4.034   2.931 -0.7701 -2.0597 -3.7136
 3852TIP3   OH232970   3.482   0.939  16.785 -0.4239  0.2212 -0.2413
 3852TIP3    H132971   3.455   0.903  16.869 -0.9088  0.7878 -0.1518
 3852TIP3    H232972   3.574   0.963  16.798 -0.0651 -1.0242 -0.3233
 3853TIP3   OH232973   0.710   0.300   5.415  0.1039 -0.0453  0.3950
 3853TIP3    H132974   0.719   0.269   5.325 -0.6322 -0.0507  0.3112
 3853TIP3    H232975   0.622   0.337   5.419  0.0505 -0.2240  1.1640
 3854TIP3   OH232976   4.334   4.610   0.126 -0.3219  0.2870  0.7135
 3854TIP3    H132977   4.239   4.617   0.138 -0.4332  0.3541 -0.1998
 3854TIP3    H232978   4.368   4.695   0.154 -0.1504 -0.8173  4.3804
 3855TIP3   OH232979   3.614   3.134  16.632  0.2019 -0.4552 -0.4452
 3855TIP3    H132980   3.637   3.054  16.584  0.6388 -0.0893 -0.8624
 3855TIP3    H232981   3.692   3.189  16.625 -0.3660  0.3211 -0.8234
 3856TIP3   OH232982   6.000   6.503   1.508 -0.7775  0.5561  0.1306
 3856TIP3    H132983   6.027   6.564   1.576 -2.1994  0.4210  0.8683
 3856TIP3    H232984   6.027   6.417   1.541 -1.1878  0.5243  0.4001
 3857TIP3   OH232985   1.187   3.302  13.679  0.0848  0.4436  0.2500
 3857TIP3    H132986   1.238   3.312  13.599  0.3280  1.3559  0.5142
 3857TIP3    H232987   1.126   3.231  13.659  1.2243 -0.4479 -0.1777
 3858TIP3   OH232988   3.497   2.510   3.697 -0.2580 -0.7405 -0.1235
 3858TIP3    H132989   3.404   2.486   3.695 -0.3103 -0.5082 -0.3512
 3858TIP3    H232990   3.506   2.581   3.635 -0.5133  1.3565  2.0966
 3859TIP3   OH232991   5.689   6.492   5.158 -0.5852 -0.3285  0.5728
 3859TIP3    H132992   5.722   6.440   5.231  0.3511 -0.1809  0.2700
 3859TIP3    H232993   5.597   6.508   5.179 -0.5738 -1.0885  1.2490
 3860TIP3   OH232994   5.936   1.697  14.130 -0.5106 -0.6965  0.5254
 3860TIP3    H132995   5.977   1.783  14.132  0.0612 -0.9798  1.3583
 3860TIP3    H232996   5.845   1.715  14.103 -0.5774  0.2418  1.3208
 3861TIP3   OH232997   6.737   0.792   2.988  0.4065  0.3685  0.1634
 3861TIP3    H132998   6.766   0.745   2.910 -0.7129  2.0107 -1.3107
 3861TIP3    H232999   6.798   0.866   2.996 -0.0476  0.7404  0.2660
 3862TIP3   OH233000   2.104   6.026  12.748 -0.3342  0.2629 -0.6777
 3862TIP3    H133001   2.042   5.953  12.742 -0.4672  0.3420 -0.2830
 3862TIP3    H233002   2.049   6.104  12.756 -0.2898  0.1094  3.1612
 3863TIP3   OH233003   3.458   2.601  15.993 -0.0136  0.2788 -0.3124
 3863TIP3    H133004   3.374   2.607  15.948  0.1084 -0.2167 -0.6075
 3863TIP3    H233005   3.518   2.563  15.929  1.2100  3.2139 -1.1263
 3864TIP3   OH233006   2.398   4.096   0.632 -0.8870  0.2259  0.3095
 3864TIP3    H133007   2.304   4.084   0.639 -0.9612 -1.8403 -2.4481
 3864TIP3    H233008   2.410   4.186   0.601 -2.3277 -0.5980 -3.0408
 3865TIP3   OH233009   2.298   6.463  14.989  0.0068 -0.0997  0.4137
 3865TIP3    H133010   2.257   6.538  14.946 -0.2854 -0.7236 -0.4306
 3865TIP3    H233011   2.241   6.389  14.967  1.5959 -1.0159 -0.8790
 3866TIP3   OH233012   0.186   3.539  16.755 -0.2295  0.0001  0.3187
 3866TIP3    H133013   0.201   3.530  16.661  1.4642  0.6459  0.4862
 3866TIP3    H233014   0.137   3.460  16.780 -1.4029  0.2101 -1.2219
 3867TIP3   OH233015   3.564   4.866  14.490 -0.0068  0.1128 -0.0991
 3867TIP3    H133016   3.579   4.803  14.560 -0.6399  1.1527  1.0068
 3867TIP3    H233017   3.567   4.951  14.533 -1.3142  0.7399 -1.1707
 3868TIP3   OH233018   5.175   3.214  15.290 -0.0412 -0.5680  0.1942
 3868TIP3    H133019   5.085   3.225  15.262  0.0881 -0.3771 -0.1506
 3868TIP3    H233020   5.178   3.126  15.329 -0.5153 -0.3423  0.7661
 3869TIP3   OH233021   5.360   2.065   3.306  0.0502 -0.6814  0.0102
 3869TIP3    H133022   5.430   2.007   3.338  0.0579 -1.2797 -1.0601
 3869TIP3    H233023   5.309   2.010   3.247 -2.6694 -0.9142  2.3605
 3870TIP3   OH233024   2.422   5.267  16.978 -0.7367  0.1034 -0.0740
 3870TIP3    H133025   2.516   5.254  16.981 -0.6999  0.4180  2.2025
 3870TIP3    H233026   2.386   5.194  17.030 -1.6482  0.6581  0.1031
 3871TIP3   OH233027   6.554   6.786  15.918 -0.8929  0.3855  0.5538
 3871TIP3    H133028   6.636   6.751  15.881 -1.0303  0.6622 -0.0271
 3871TIP3    H233029   6.495   6.710  15.920 -0.4754  0.0712  1.4353
 3872TIP3   OH233030   2.348   0.105  13.559  0.1273 -0.0969  0.3402
 3872TIP3    H133031   2.443   0.106  13.565  0.1203  2.6408  1.2813
 3872TIP3    H233032   2.320   0.053  13.635  0.8572 -0.5261  0.3257
 3873TIP3   OH233033   4.428   6.001   1.620  0.1637 -0.4270 -0.0278
 3873TIP3    H133034   4.381   6.067   1.671  1.2441  0.1200  0.2972
 3873TIP3    H233035   4.394   6.011   1.531 -0.8483 -0.5425  0.3317
 3874TIP3   OH233036   1.245   5.201   5.227  0.1633 -0.1803 -0.6290
 3874TIP3    H133037   1.323   5.213   5.281  0.2924 -0.0485 -0.8422
 3874TIP3    H233038   1.268   5.130   5.167 -0.9689 -2.3237  1.3223
 3875TIP3   OH233039   4.312   1.433  13.751 -0.4786  0.3000  0.1437
 3875TIP3    H133040   4.240   1.456  13.691  0.0966 -1.1426 -1.1618
 3875TIP3    H233041   4.269   1.415  13.834 -1.5612  0.1522 -0.4301
 3876TIP3   OH233042   3.079   3.506   0.044 -0.5481  0.2639  0.2638
 3876TIP3    H133043   3.023   3.458  -0.017 -0.8688  2.6752 -1.4779
 3876TIP3    H233044   3.030   3.586   0.063  0.8210  0.8555  1.4699
 3877TIP3   OH233045   5.768   3.982  14.619  0.0760  0.4075  0.4178
 3877TIP3    H133046   5.777   3.906  14.561 -0.3239  1.0120 -0.4636
 3877TIP3    H233047   5.676   4.006  14.614 -0.0876  0.1317  1.7679
 3878TIP3   OH233048   6.533   4.219  16.590  0.0069 -0.1972  0.0615
 3878TIP3    H133049   6.594   4.215  16.664  0.0390 -0.0986  0.0403
 3878TIP3    H233050   6.551   4.139  16.541  0.5221  0.1110 -0.2611
 3879TIP3   OH233051   2.277   1.347  16.691 -0.4326 -0.4715  0.0838
 3879TIP3    H133052   2.276   1.437  16.659  2.4018 -0.8074 -1.2647
 3879TIP3    H233053   2.326   1.350  16.773 -0.7868 -0.7205  0.3091
 3880TIP3   OH233054   1.419   6.432   6.707 -0.4279  0.2471  0.7249
 3880TIP3    H133055   1.492   6.371   6.702  0.5762  1.4405  0.5069
 3880TIP3    H233056   1.459   6.519   6.708 -1.8908  1.0182 -1.3185
 3881TIP3   OH233057   1.797   4.893  14.712  0.4370  0.0638 -0.3501
 3881TIP3    H133058   1.776   4.800  14.716 -2.0992  0.6355  1.9076
 3881TIP3    H233059   1.844   4.911  14.793  1.9581  0.6119 -1.2955
 3882TIP3   OH233060   6.626   4.973   4.129  0.4993 -0.0165 -0.2438
 3882TIP3    H133061   6.644   4.899   4.186 -0.6180 -0.2034 -0.1116
 3882TIP3    H233062   6.554   5.020   4.172 -0.7215 -0.4508 -1.7106
 3883TIP3   OH233063   1.304   3.908  11.296  0.0790  0.2217  0.6589
 3883TIP3    H133064   1.346   3.822  11.297 -1.7271 -0.7236  0.0377
 3883TIP3    H233065   1.349   3.957  11.227  1.6936  0.1275  1.5871
 3884TIP3   OH233066   3.240   3.510   0.492 -0.6186 -0.2079 -0.9229
 3884TIP3    H133067   3.165   3.571   0.492 -0.6904 -0.2165  1.0790
 3884TIP3    H233068   3.203   3.428   0.460 -1.3660 -0.0867 -0.4141
 3885TIP3   OH233069   0.222   1.615   2.916  0.1207  0.3120 -0.1862
 3885TIP3    H133070   0.279   1.629   2.840  1.0177  0.6023  0.5175
 3885TIP3    H233071   0.146   1.569   2.881  0.1525  1.1355 -1.4010
 3886TIP3   OH233072   6.597   1.968   2.482 -0.6907  0.6170  0.4833
 3886TIP3    H133073   6.587   1.923   2.398  0.8776  1.2617 -0.0873
 3886TIP3    H233074   6.678   1.933   2.519  0.1103  2.2674  0.4155
 3887TIP3   OH233075   3.589   6.257   0.392  0.0651  0.4630 -0.6902
 3887TIP3    H133076   3.600   6.264   0.487 -0.0298  1.4145 -0.7393
 3887TIP3    H233077   3.574   6.164   0.376 -0.2424  0.3397  0.2694
 3888TIP3   OH233078   0.889   2.560   5.620 -0.5408  0.2073 -0.4070
 3888TIP3    H133079   0.823   2.572   5.688 -0.0624  1.8471 -0.1920
 3888TIP3    H233080   0.850   2.497   5.559 -2.1022  0.7727 -0.0370
 3889TIP3   OH233081   4.682   4.343  15.619  0.2781  0.1209  0.1149
 3889TIP3    H133082   4.726   4.415  15.664  0.5739  0.3213 -0.4971
 3889TIP3    H233083   4.723   4.264  15.655  1.5615  0.3189 -0.8735
 3890TIP3   OH233084   2.880   2.273   5.570  0.1158  0.2822 -0.4939
 3890TIP3    H133085   2.897   2.264   5.664  1.8475  2.6105 -0.4738
 3890TIP3    H233086   2.788   2.297   5.564 -0.7186 -2.3759  0.3345
 3891TIP3   OH233087   2.678   4.774   3.354 -0.0564 -0.2790  0.6918
 3891TIP3    H133088   2.722   4.857   3.372  1.2089 -0.7808  0.0214
 3891TIP3    H233089   2.585   4.793   3.366  0.1790  1.3372  0.1524
 3892TIP3   OH233090   3.751   5.905   5.140 -0.6115  1.3594  0.6273
 3892TIP3    H133091   3.722   5.824   5.182  0.8807  0.1713 -0.5365
 3892TIP3    H233092   3.672   5.938   5.096 -0.9225 -0.2518 -0.0976
 3893TIP3   OH233093   3.116   3.625  15.592  0.1432  0.2669 -0.3739
 3893TIP3    H133094   3.210   3.642  15.588 -0.1400  1.7841 -2.2958
 3893TIP3    H233095   3.090   3.654  15.680  1.5609 -1.0134  0.5247
 3894TIP3   OH233096   0.987   2.117  12.066 -0.1703 -0.0909  0.4029
 3894TIP3    H133097   0.955   2.100  12.154 -0.9721  0.1094  0.1541
 3894TIP3    H233098   0.953   2.204  12.045 -0.8086 -0.5436 -0.4784
 3895TIP3   OH233099   5.617   2.761  12.086  0.1821 -0.2251  0.6277
 3895TIP3    H133100   5.638   2.686  12.031  0.3384  0.2889 -0.0367
 3895TIP3    H233101   5.541   2.801  12.042 -0.8421 -0.8237  1.7867
 3896TIP3   OH233102   0.845   2.157  16.716 -0.3967 -0.2206 -0.0746
 3896TIP3    H133103   0.810   2.238  16.753 -0.0682 -0.5610  1.0209
 3896TIP3    H233104   0.901   2.122  16.785  0.5976 -0.6544 -1.0735
 3897TIP3   OH233105   3.271   4.217   3.845  0.2341  0.3814 -0.8580
 3897TIP3    H133106   3.338   4.275   3.883  0.9303 -0.6500 -0.4587
 3897TIP3    H233107   3.289   4.217   3.751  1.2259 -0.3868 -0.6859
 3898TIP3   OH233108   4.872   5.119   0.768 -0.2540 -0.5678  0.1114
 3898TIP3    H133109   4.963   5.125   0.738 -0.7202 -0.6388 -1.3782
 3898TIP3    H233110   4.878   5.073   0.852  1.1678  0.3022  0.5255
 3899TIP3   OH233111   3.342   1.528   4.723 -0.3098 -0.3959  0.0217
 3899TIP3    H133112   3.313   1.619   4.714 -2.7227 -1.3181 -3.5739
 3899TIP3    H233113   3.403   1.515   4.651 -0.2116 -1.6785  0.3189
 3900TIP3   OH233114   6.372   3.293   2.723  0.0705  0.5667 -0.2704
 3900TIP3    H133115   6.359   3.380   2.686  1.8476  0.6249 -0.8945
 3900TIP3    H233116   6.354   3.233   2.651  1.4394  0.5798 -0.6591
 3901TIP3   OH233117   3.232   6.329   5.815  0.2848 -0.0397  0.1574
 3901TIP3    H133118   3.312   6.346   5.866  0.7371 -0.3535 -0.4296
 3901TIP3    H233119   3.237   6.391   5.742 -0.0898  0.0443  0.2043
 3902TIP3   OH233120   4.837   3.997  16.890 -0.2120  0.0932  0.5152
 3902TIP3    H133121   4.921   4.042  16.884 -0.3645  0.2704 -0.6734
 3902TIP3    H233122   4.857   3.913  16.931  0.8628 -0.5587 -1.2167
 3903TIP3   OH233123   4.586   6.779   3.389  1.0758  0.2478  0.8783
 3903TIP3    H133124   4.659   6.758   3.448  0.2979 -0.2563  1.6906
 3903TIP3    H233125   4.518   6.716   3.412  0.6201  0.2811 -0.3280
 3904TIP3   OH233126   3.260   3.376   4.676  0.0107  1.3819 -0.2667
 3904TIP3    H133127   3.298   3.413   4.597 -0.3291  2.4280  0.0497
 3904TIP3    H233128   3.322   3.398   4.746  0.1681  0.7125 -0.1830
 3905TIP3   OH233129   6.053   2.295  14.986 -0.0686  0.5169 -0.1444
 3905TIP3    H133130   6.037   2.390  14.992  0.6593  0.5627  1.5636
 3905TIP3    H233131   6.148   2.286  14.991 -0.1429 -0.3132 -0.1170
 3906TIP3   OH233132   5.229   1.478  14.862 -0.4074  0.7624  0.5855
 3906TIP3    H133133   5.297   1.432  14.910  0.1353 -1.1268 -1.7870
 3906TIP3    H233134   5.185   1.532  14.927  3.3681  2.1689  2.2393
 3907TIP3   OH233135   5.735   2.738   1.688 -0.6483 -0.2329  0.0888
 3907TIP3    H133136   5.805   2.787   1.647 -0.7865 -0.5556 -0.5358
 3907TIP3    H233137   5.777   2.690   1.759  0.4148 -2.9125 -2.1858
 3908TIP3   OH233138   1.719   4.369  12.231  0.4599 -0.2259 -0.5517
 3908TIP3    H133139   1.792   4.325  12.273  1.4830  0.4851 -1.5125
 3908TIP3    H233140   1.713   4.454  12.275  0.1775 -0.3057 -0.4356
 3909TIP3   OH233141   5.739   4.188   2.731  0.3938 -0.1320  0.1346
 3909TIP3    H133142   5.755   4.280   2.750  3.2668  0.2445 -3.1958
 3909TIP3    H233143   5.802   4.141   2.784  0.2399 -0.0498  0.3933
 3910TIP3   OH233144   4.722   6.624   3.032 -0.4138  0.1062  0.1487
 3910TIP3    H133145   4.690   6.601   2.945  0.1332  2.1115 -0.6569
 3910TIP3    H233146   4.647   6.610   3.090 -1.4359  0.6328 -0.9865
 3911TIP3   OH233147   4.473   4.370   5.904 -0.3172 -0.3928  0.2065
 3911TIP3    H133148   4.489   4.460   5.932  2.3390 -0.4882 -0.7090
 3911TIP3    H233149   4.460   4.322   5.985 -0.8578  0.6394  0.7581
 3912TIP3   OH233150   3.327   2.838   5.308  0.8571 -0.5129  0.1595
 3912TIP3    H133151   3.353   2.750   5.337 -0.9896 -1.1152  0.1139
 3912TIP3    H233152   3.301   2.883   5.388 -0.9414 -1.0109 -0.1095
 3913TIP3   OH233153   2.209   5.743   5.564  0.7073  0.5121 -0.1154
 3913TIP3    H133154   2.243   5.819   5.611  1.7871 -0.4031  0.6458
 3913TIP3    H233155   2.196   5.773   5.474  3.6274  0.9433 -0.4848
 3914TIP3   OH233156   2.831   2.248  13.273 -0.0155  0.6913  0.9612
 3914TIP3    H133157   2.818   2.155  13.290  0.6131  0.4817  0.3446
 3914TIP3    H233158   2.743   2.281  13.254  0.0877 -0.4888 -2.1977
 3915TIP3   OH233159   5.561   0.881  12.873 -0.1572 -0.9936 -0.0718
 3915TIP3    H133160   5.466   0.872  12.866 -0.2849 -1.1170  1.4369
 3915TIP3    H233161   5.596   0.830  12.800 -1.2224 -1.8685  0.0017
 3916TIP3   OH233162   3.601   0.569  17.036 -0.1567 -0.1596 -0.0949
 3916TIP3    H133163   3.524   0.624  17.025 -0.0315 -0.0899 -0.6935
 3916TIP3    H233164   3.619   0.536  16.948  1.1863  0.7564 -0.2047
 3917TIP3   OH233165   0.622   4.670  16.100 -0.1627  0.0312 -0.2177
 3917TIP3    H133166   0.534   4.702  16.081 -0.2602 -0.1002  0.0023
 3917TIP3    H233167   0.655   4.636  16.017 -0.2626  0.2181 -0.3335
 3918TIP3   OH233168   6.445   5.390   1.790 -0.3689 -0.4884 -0.5282
 3918TIP3    H133169   6.499   5.337   1.732 -0.5728 -0.8008 -0.4329
 3918TIP3    H233170   6.372   5.334   1.813  0.0953 -0.6380  0.6419
 3919TIP3   OH233171   0.966   1.526   1.668  0.0662  0.5613 -0.2797
 3919TIP3    H133172   0.980   1.607   1.719 -2.3530  1.0731 -0.2848
 3919TIP3    H233173   0.937   1.462   1.733  0.6673  0.0722 -0.4828
 3920TIP3   OH233174   2.416   6.109  12.180  0.1343  0.0154 -0.1929
 3920TIP3    H133175   2.467   6.118  12.100 -1.5214 -0.3990 -1.3436
 3920TIP3    H233176   2.471   6.149  12.248  2.1339 -0.7493 -1.2615
 3921TIP3   OH233177   0.095   2.561   3.937 -0.2935 -0.0249  0.0561
 3921TIP3    H133178   0.129   2.472   3.951 -2.0945 -0.5689  1.2971
 3921TIP3    H233179   0.150   2.596   3.866 -0.0105 -2.3839 -1.0079
 3922TIP3   OH233180   5.071   1.154  15.166  0.4066  0.1537  0.4361
 3922TIP3    H133181   5.083   1.248  15.177 -0.2637  0.3185 -0.1685
 3922TIP3    H233182   4.981   1.138  15.194  0.0352 -0.0675 -0.8143
 3923TIP3   OH233183   2.905   1.658   6.612 -0.0299 -0.5253  0.0614
 3923TIP3    H133184   2.935   1.567   6.613  0.3015 -0.4206  0.8425
 3923TIP3    H233185   2.865   1.671   6.698 -1.7676 -0.4593 -0.7282
 3924TIP3   OH233186   4.942   1.529   4.691 -0.3383 -0.1689  0.0889
 3924TIP3    H133187   4.888   1.514   4.613 -0.5289  0.2466  0.1439
 3924TIP3    H233188   4.980   1.616   4.677 -0.9449  0.2117  0.8105
 3925TIP3   OH233189   3.534   5.987   0.341  0.1116  0.0043 -0.1662
 3925TIP3    H133190   3.492   5.908   0.307 -0.4106  0.6318 -1.0362
 3925TIP3    H233191   3.607   6.003   0.282  0.6389 -0.2070  0.4205
 3926TIP3   OH233192   0.636   1.876  13.453 -0.2634  0.3043 -0.1356
 3926TIP3    H133193   0.585   1.861  13.373  0.8612 -1.9652 -0.5046
 3926TIP3    H233194   0.686   1.955  13.435  0.6020 -0.6215 -2.0812
 3927TIP3   OH233195   1.560   5.421   6.563  0.3185 -0.0287 -0.3353
 3927TIP3    H133196   1.475   5.458   6.540 -1.3279 -1.9102  2.1680
 3927TIP3    H233197   1.566   5.341   6.511 -0.1592 -0.6407  0.5228
 3928TIP3   OH233198   2.797   2.629   4.106  0.0848 -0.3263  0.1838
 3928TIP3    H133199   2.749   2.640   4.188 -1.7913  1.7181 -1.0775
 3928TIP3    H233200   2.729   2.610   4.041  1.3301 -0.2268 -1.1968
 3929TIP3   OH233201   3.050   3.670   4.714 -0.1559  0.3718  0.2737
 3929TIP3    H133202   3.032   3.586   4.756  0.2619  0.8808  1.5157
 3929TIP3    H233203   2.982   3.728   4.747  1.1287  1.1934  1.5668
 3930TIP3   OH233204   4.674   1.132  15.416  0.1590  0.0521 -0.3094
 3930TIP3    H133205   4.689   1.118  15.323 -2.5469  0.9037 -0.9636
 3930TIP3    H233206   4.760   1.120  15.456  1.9058  1.8512 -3.1672
 3931TIP3   OH233207   4.374   5.483   1.190 -0.0324  0.4260  0.1446
 3931TIP3    H133208   4.290   5.439   1.199  1.0966 -1.5388  2.0394
 3931TIP3    H233209   4.424   5.428   1.129  0.1933  1.0746 -0.2695
 3932TIP3   OH233210   3.256   3.517  12.131 -0.0976  0.1785 -0.4286
 3932TIP3    H133211   3.323   3.472  12.080 -0.1870  0.1077 -0.4849
 3932TIP3    H233212   3.242   3.600  12.085  0.2228  0.3615 -0.2038
 3933TIP3   OH233213   4.939   2.439   0.605 -0.4924 -0.4386  0.5939
 3933TIP3    H133214   4.912   2.514   0.552 -0.4252 -0.6012  0.3294
 3933TIP3    H233215   5.022   2.467   0.645  0.4020 -0.9752 -0.8139
 3934TIP3   OH233216   2.008   4.678  13.665 -0.2413 -0.1256 -0.1942
 3934TIP3    H133217   2.081   4.705  13.610  0.7222 -0.5691  0.8263
 3934TIP3    H233218   1.931   4.689  13.610  0.6960 -0.7536 -1.6840
 3935TIP3   OH233219   2.065   1.474  17.172  0.1101  0.5109  0.3615
 3935TIP3    H133220   2.013   1.479  17.092 -2.4648 -0.3767  1.8433
 3935TIP3    H233221   2.032   1.545  17.227 -1.0797 -1.3000  2.1189
 3936TIP3   OH233222   5.527   0.741   6.134  0.6254  0.4534  0.3168
 3936TIP3    H133223   5.434   0.759   6.147  0.6709  0.1348  1.1791
 3936TIP3    H233224   5.572   0.816   6.173  0.7504 -0.0306  1.1222
 3937TIP3   OH233225   3.471   0.156  16.874  0.1713 -0.0741 -0.6532
 3937TIP3    H133226   3.499   0.154  16.966 -0.8604 -1.8161 -0.3338
 3937TIP3    H233227   3.547   0.124  16.825  0.1306 -0.8736 -0.2115
 3938TIP3   OH233228   2.886   0.819   0.837  0.0942  0.2272 -0.3163
 3938TIP3    H133229   2.888   0.908   0.801 -0.1275 -0.0786 -1.1019
 3938TIP3    H233230   2.793   0.796   0.839  0.0482  0.4188  0.9432
 3939TIP3   OH233231   4.891   3.329   0.672 -0.0318 -0.2687  0.5247
 3939TIP3    H133232   4.953   3.324   0.599 -1.7081  0.7127 -1.0584
 3939TIP3    H233233   4.845   3.246   0.671 -0.6262  0.0589 -0.1051
 3940TIP3   OH233234   5.293   6.541  16.998  0.0483 -0.7901 -0.5347
 3940TIP3    H133235   5.332   6.607  16.941 -1.1744 -1.2547 -1.9852
 3940TIP3    H233236   5.199   6.547  16.981 -0.4526 -0.5674  1.8971
 3941TIP3   OH233237   2.387   3.646   4.759  0.9545 -0.1272  0.1657
 3941TIP3    H133238   2.312   3.703   4.743  1.3832  0.4725  0.2451
 3941TIP3    H233239   2.461   3.706   4.765  1.6588 -0.8179 -1.2661
 3942TIP3   OH233240   5.505   3.165   6.576  0.0582 -0.2590 -0.1095
 3942TIP3    H133241   5.520   3.084   6.526  0.8982  0.4158 -0.9869
 3942TIP3    H233242   5.414   3.187   6.559 -0.1380 -0.9469  0.0208
 3943TIP3   OH233243   3.313   0.967   2.363  0.2652  0.6962  0.2691
 3943TIP3    H133244   3.303   1.061   2.347  1.1065  0.7698  0.1193
 3943TIP3    H233245   3.362   0.935   2.287 -1.4307 -0.1855 -0.5057
 3944TIP3   OH233246   0.322   3.046   4.522  0.3932  0.2347 -0.0063
 3944TIP3    H133247   0.356   2.957   4.529 -0.6947 -0.1817  0.2475
 3944TIP3    H233248   0.377   3.088   4.456  0.2648 -0.9502 -0.8949
 3945TIP3   OH233249   3.629   5.386   2.867 -0.0152 -0.0679  0.3747
 3945TIP3    H133250   3.634   5.304   2.817 -0.7570 -0.5606  1.0814
 3945TIP3    H233251   3.544   5.382   2.912 -0.9245  1.9333 -1.0199
 3946TIP3   OH233252   0.096   5.592  17.275 -0.5418 -0.3113 -0.0832
 3946TIP3    H133253   0.161   5.636  17.220 -0.0828 -1.6952 -0.6756
 3946TIP3    H233254   0.116   5.622  17.363  0.3945 -0.1003 -0.3528
 3947TIP3   OH233255   5.107   1.988  14.741 -0.1095  0.3594  0.4213
 3947TIP3    H133256   5.148   1.908  14.708  0.1071  0.5154  0.3069
 3947TIP3    H233257   5.013   1.970  14.737 -0.2456  1.1586 -2.4433
 3948TIP3   OH233258   3.495   0.005  12.129 -0.2225  0.1271  0.4717
 3948TIP3    H133259   3.553   0.042  12.196 -0.2240  0.4781  0.2793
 3948TIP3    H233260   3.423  -0.033  12.179 -0.1734  0.3008  0.6758
 3949TIP3   OH233261   5.905   6.028  15.777  0.1051  0.6406  0.1854
 3949TIP3    H133262   5.899   6.123  15.784  1.8248  0.7608  0.3167
 3949TIP3    H233263   5.880   5.996  15.864 -0.5557  0.9526  0.1172
 3950TIP3   OH233264   3.712   2.507   0.070  0.2986 -0.0210 -0.1748
 3950TIP3    H133265   3.687   2.570   0.002  1.4746  0.5952 -0.0637
 3950TIP3    H233266   3.796   2.471   0.040  1.3873  1.0443  1.4222
 3951TIP3   OH233267   6.265   5.779  15.039  0.0175 -0.1796  0.5360
 3951TIP3    H133268   6.350   5.739  15.021  0.0370  0.2467 -0.3637
 3951TIP3    H233269   6.219   5.714  15.093  0.4029 -1.0230 -0.1186
 3952TIP3   OH233270   3.642   3.760  16.078  0.1311 -0.4402  0.5254
 3952TIP3    H133271   3.735   3.739  16.081  0.0837 -0.5581  2.3903
 3952TIP3    H233272   3.640   3.854  16.058  0.6734 -0.3859  0.6945
 3953TIP3   OH233273   1.917   3.316   5.490 -0.7621  0.1702 -0.5279
 3953TIP3    H133274   1.883   3.268   5.565  0.3320  0.2313  0.0215
 3953TIP3    H233275   1.897   3.260   5.415 -1.1737 -0.2526 -0.1076
 3954TIP3   OH233276   5.072   4.684  14.503  0.3972 -0.1684  0.4698
 3954TIP3    H133277   5.049   4.598  14.539  0.4903 -0.3341  0.1393
 3954TIP3    H233278   5.007   4.743  14.541  0.4174 -0.3600  0.8090
 3955TIP3   OH233279   3.611   5.720   2.367  0.2544 -0.7726 -0.0677
 3955TIP3    H133280   3.617   5.764   2.282  2.5571  3.6327  2.0290
 3955TIP3    H233281   3.534   5.759   2.408  1.3752  0.1762  1.2228
 3956TIP3   OH233282   0.237   3.200   2.516  0.0939  0.0594  0.0111
 3956TIP3    H133283   0.204   3.251   2.442 -0.2045 -0.2042 -0.0370
 3956TIP3    H233284   0.331   3.189   2.499  0.3887  1.4869  0.5318
 3957TIP3   OH233285   2.498   0.414   0.823 -0.5503 -0.0085  0.0031
 3957TIP3    H133286   2.472   0.470   0.750 -0.4107 -1.0542 -0.8639
 3957TIP3    H233287   2.592   0.403   0.813 -0.4753  0.1168  0.5388
 3958TIP3   OH233288   0.653   0.984  14.634 -0.8332 -0.3490  0.1318
 3958TIP3    H133289   0.614   0.898  14.621 -0.4177 -0.5038 -0.1199
 3958TIP3    H233290   0.746   0.971  14.616 -0.7714  0.1570  0.0625
 3959TIP3   OH233291   2.198   0.874   5.805  0.4321 -0.0634 -0.4343
 3959TIP3    H133292   2.174   0.842   5.892 -1.7714  2.5972  0.0996
 3959TIP3    H233293   2.283   0.915   5.817  0.7337 -0.8469  0.1542
 3960TIP3   OH233294   3.880   1.628  13.283  0.4537 -0.0643  0.1253
 3960TIP3    H133295   3.909   1.544  13.318  0.1187 -0.6408 -0.9381
 3960TIP3    H233296   3.810   1.655  13.343  1.3356  0.0405  1.1468
 3961TIP3   OH233297   2.056   1.804  15.221 -0.1500  0.4074 -0.1119
 3961TIP3    H133298   1.969   1.768  15.234 -0.3352  0.9572  0.1752
 3961TIP3    H233299   2.043   1.898  15.214  0.3455  0.4375 -0.7436
 3962TIP3   OH233300   5.431   0.459   0.851  0.3052 -0.0143  0.6526
 3962TIP3    H133301   5.396   0.471   0.763 -0.3628 -0.8479  0.7894
 3962TIP3    H233302   5.354   0.443   0.906  0.7156  0.4588  1.3845
 3963TIP3   OH233303   2.388   1.489  16.302  0.2472 -0.0010 -0.0962
 3963TIP3    H133304   2.437   1.440  16.368  0.9452  0.0963 -0.5193
 3963TIP3    H233305   2.454   1.547  16.262  0.5783 -2.0251 -2.7891
 3964TIP3   OH233306   1.154   2.853   5.723  0.7417  0.4287  0.0744
 3964TIP3    H133307   1.155   2.928   5.664 -0.5252  0.9133  0.6418
 3964TIP3    H233308   1.161   2.891   5.811 -0.2178 -0.0806  0.3865
 3965TIP3   OH233309   4.496   3.963  14.481 -0.0935 -0.6160 -0.1784
 3965TIP3    H133310   4.568   3.908  14.512  0.2721  0.5691  1.1683
 3965TIP3    H233311   4.420   3.932  14.531 -0.2153 -0.8741 -0.5167
 3966TIP3   OH233312   0.300   3.778  16.035 -0.2209  0.6961 -0.3941
 3966TIP3    H133313   0.340   3.797  15.950  2.7625 -0.7784  0.5702
 3966TIP3    H233314   0.235   3.711  16.015  2.3315 -1.6967 -1.2841
 3967TIP3   OH233315   3.676   2.955   3.102 -0.2628 -0.3562  0.0109
 3967TIP3    H133316   3.662   2.869   3.141  0.9334 -1.2784 -1.5130
 3967TIP3    H233317   3.589   2.982   3.072 -1.0131 -0.1110  2.1757
 3968TIP3   OH233318   3.211   2.736   4.083 -0.8025 -0.0858 -0.1318
 3968TIP3    H133319   3.193   2.825   4.114 -1.3845  0.5046 -2.0419
 3968TIP3    H233320   3.295   2.744   4.037 -0.0611 -0.8899  1.0457
 3969TIP3   OH233321   0.438   5.881   1.412  0.3933  0.4975  0.0867
 3969TIP3    H133322   0.417   5.827   1.488  1.9838  0.1304  0.2925
 3969TIP3    H233323   0.427   5.971   1.444 -2.2006  0.3686 -0.2435
 3970TIP3   OH233324   3.759   0.700  10.685  0.2747 -0.7574 -0.2425
 3970TIP3    H133325   3.829   0.743  10.635  0.4829  0.1133  0.7759
 3970TIP3    H233326   3.692   0.768  10.695  0.7531 -0.5270  1.6834
 3971TIP3   OH233327   1.057   1.085  14.855 -0.1117 -0.3324 -0.0177
 3971TIP3    H133328   1.017   1.041  14.929  0.0436 -1.2935 -0.4896
 3971TIP3    H233329   1.140   1.039  14.840  0.9757  1.3065  0.6288
 3972TIP3   OH233330   4.277   4.204  12.368  0.4489 -0.2897 -0.4988
 3972TIP3    H133331   4.257   4.111  12.354 -1.3700  0.2082 -1.5517
 3972TIP3    H233332   4.282   4.214  12.463 -1.1404 -1.1390 -0.2981
 3973TIP3   OH233333   0.332   1.555  13.815  0.5281 -0.0154 -0.2446
 3973TIP3    H133334   0.424   1.531  13.823  0.2152 -1.6727 -0.9934
 3973TIP3    H233335   0.317   1.561  13.720 -0.2887 -0.5161 -0.1556
 3974TIP3   OH233336   2.850   3.456  11.839 -0.2238 -0.1733 -0.4047
 3974TIP3    H133337   2.864   3.362  11.844 -0.7630 -0.2471 -0.1890
 3974TIP3    H233338   2.755   3.467  11.848 -0.0646  0.4533  0.7035
 3975TIP3   OH233339   3.947   3.022   1.853 -0.0563  0.2214 -0.0882
 3975TIP3    H133340   4.030   2.978   1.871  0.6057  0.7425 -1.6377
 3975TIP3    H233341   3.931   3.076   1.930  1.4603  0.7099 -0.0762
 3976TIP3   OH233342   3.458   5.748   0.205 -0.5642  0.2282  0.4510
 3976TIP3    H133343   3.485   5.701   0.126  1.7865  1.6480  0.3094
 3976TIP3    H233344   3.441   5.679   0.269  0.1941 -0.8757 -0.4904
 3977TIP3   OH233345   0.189   5.684   4.379  0.0839  0.5297 -0.1617
 3977TIP3    H133346   0.148   5.599   4.365 -0.0188 -0.0439  3.0070
 3977TIP3    H233347   0.269   5.681   4.326 -1.3633 -0.2549 -2.5038
 3978TIP3   OH233348   3.973   5.857  14.714  0.1493 -0.0943 -0.4850
 3978TIP3    H133349   3.902   5.920  14.726 -0.3259 -0.5076 -1.0601
 3978TIP3    H233350   4.036   5.903  14.658 -0.0043  0.0166 -0.5679
 3979TIP3   OH233351   4.636   6.592  12.936  0.1796  0.3617  0.4288
 3979TIP3    H133352   4.619   6.501  12.912  0.7623  0.5852 -0.9101
 3979TIP3    H233353   4.553   6.624  12.969 -0.2716 -0.4063  0.0623
 3980TIP3   OH233354   4.979   1.346   5.913 -0.0297 -0.1892 -0.7114
 3980TIP3    H133355   5.009   1.332   6.003  0.7915  0.1051 -0.9306
 3980TIP3    H233356   4.975   1.441   5.903 -1.6070 -0.1988 -0.5209
 3981TIP3   OH233357   2.597   3.924  13.750 -0.1762 -0.9120  0.0545
 3981TIP3    H133358   2.604   3.887  13.662 -1.3617 -0.2769 -0.3203
 3981TIP3    H233359   2.604   4.018  13.737 -1.3334 -0.7511  0.5169
 3982TIP3   OH233360   6.469   5.352   6.461  0.2377  0.1447 -0.0403
 3982TIP3    H133361   6.532   5.292   6.421  0.6067  0.6345 -0.2065
 3982TIP3    H233362   6.391   5.299   6.476  1.1208 -0.8255  1.4000
 3983TIP3   OH233363   6.564   3.202   2.894 -0.0856 -0.2972  0.2769
 3983TIP3    H133364   6.495   3.224   2.832 -0.3650 -0.5757  0.4823
 3983TIP3    H233365   6.533   3.122   2.937 -0.7838  0.8814  2.1028
 3984TIP3   OH233366   6.326   3.963  11.642  0.1946 -0.3355  0.1978
 3984TIP3    H133367   6.419   3.942  11.634  0.6386  1.0785  1.2464
 3984TIP3    H233368   6.281   3.893  11.595  1.7362 -1.5703  0.4915
 3985TIP3   OH233369   0.038   5.812   5.582 -1.1520  0.6822  0.1201
 3985TIP3    H133370   0.054   5.903   5.608 -1.3426  1.0955 -1.1517
 3985TIP3    H233371  -0.004   5.819   5.496 -1.7460 -0.5970  0.2929
 3986TIP3   OH233372   5.936   1.630   4.591  0.6799 -0.1670 -0.8016
 3986TIP3    H133373   5.842   1.625   4.570  0.5314 -0.6394 -0.0469
 3986TIP3    H233374   5.971   1.545   4.564  0.9079  0.0308 -1.1387
 3987TIP3   OH233375   3.061   3.171   2.316 -0.3883 -0.2259  0.4007
 3987TIP3    H133376   3.036   3.260   2.339 -0.9697 -0.6193  1.3199
 3987TIP3    H233377   3.116   3.141   2.388  3.1356  0.6960 -1.6534
 3988TIP3   OH233378   2.124   1.345   3.371  0.5893 -0.2052  0.3920
 3988TIP3    H133379   2.204   1.294   3.359  1.0598  0.3830  0.9937
 3988TIP3    H233380   2.102   1.376   3.283  0.4174 -1.2396  0.0501
 3989TIP3   OH233381   1.229   0.160  11.058 -0.3341 -0.3851  0.1662
 3989TIP3    H133382   1.160   0.201  11.110 -0.2162 -0.9681  0.7937
 3989TIP3    H233383   1.194   0.074  11.034  0.5832 -1.1439  1.4338
 3990TIP3   OH233384   4.808   5.024  12.857 -0.1349  0.2131  0.0577
 3990TIP3    H133385   4.740   5.087  12.879  1.2183  2.3386 -1.5060
 3990TIP3    H233386   4.822   4.974  12.938 -3.4097 -0.2583  0.4545
 3991TIP3   OH233387   4.517   5.037   2.687  0.2063  0.2920 -0.1709
 3991TIP3    H133388   4.612   5.043   2.690  0.1230  2.1533 -0.2411
 3991TIP3    H233389   4.496   5.024   2.594  0.3296  2.3262 -0.5270
 3992TIP3   OH233390   1.918   5.798   4.748  0.4908 -0.1354  0.1202
 3992TIP3    H133391   1.834   5.754   4.757  1.9104 -3.6832 -2.0281
 3992TIP3    H233392   1.934   5.804   4.654  2.4853  0.8174  0.4414
 3993TIP3   OH233393   5.587   2.463  12.259  0.1222  0.2572 -0.4256
 3993TIP3    H133394   5.520   2.531  12.265 -0.4445 -0.4144  1.1508
 3993TIP3    H233395   5.593   2.444  12.165 -1.1219  1.0680 -0.6896
 3994TIP3   OH233396   3.299   0.409   2.957 -0.0544  0.6322  0.4140
 3994TIP3    H133397   3.273   0.439   3.044  1.0750 -0.2014  1.0714
 3994TIP3    H233398   3.375   0.354   2.973 -1.3081 -1.5901 -0.8636
 3995TIP3   OH233399   2.372   5.162  10.388 -0.2458 -0.0875  0.1533
 3995TIP3    H133400   2.360   5.230  10.322  2.8993  2.5095  1.9429
 3995TIP3    H233401   2.319   5.191  10.462  0.6497  0.1831  0.7136
 3996TIP3   OH233402   1.719   5.053  11.770 -0.4926  0.3139 -0.3559
 3996TIP3    H133403   1.648   5.114  11.752  0.4703  1.9292  1.0852
 3996TIP3    H233404   1.784   5.071  11.702  0.7569  2.5506  1.3208
 3997TIP3   OH233405   1.893   3.220   1.060 -0.2035  0.1875 -0.2232
 3997TIP3    H133406   1.921   3.133   1.089  0.7749  0.5438 -0.0743
 3997TIP3    H233407   1.891   3.213   0.964  0.3450  0.1298 -0.2376
 3998TIP3   OH233408   2.420   0.791   0.407  0.2569 -0.1698  0.6324
 3998TIP3    H133409   2.445   0.860   0.468  2.2753 -0.5081  0.2679
 3998TIP3    H233410   2.325   0.799   0.399  0.0623  0.5349  2.9920
 3999TIP3   OH233411   1.176   1.403  16.603  0.0083  0.3288  0.0077
 3999TIP3    H133412   1.092   1.381  16.643  0.8484 -0.6425  1.3309
 3999TIP3    H233413   1.241   1.377  16.668  1.3485  0.8760 -1.0640
 4000TIP3   OH233414   0.634   2.518  15.690 -0.4112  0.0250 -0.3383
 4000TIP3    H133415   0.724   2.500  15.665  0.3837  1.2761  1.3991
 4000TIP3    H233416   0.582   2.451  15.645  1.5553 -1.8369  0.0265
 4001TIP3   OH233417   5.513   0.073  13.889 -0.4212 -0.0322  0.1340
 4001TIP3    H133418   5.522   0.044  13.980  2.0067 -0.1957 -0.0712
 4001TIP3    H233419   5.471  -0.000  13.845 -0.9788 -0.2436  0.9896
 4002TIP3   OH233420   2.869   3.192   5.941  0.2334  0.1154  0.1630
 4002TIP3    H133421   2.933   3.126   5.967  0.9741  0.3555 -0.9707
 4002TIP3    H233422   2.809   3.144   5.883  0.8116  0.4175 -0.7171
 4003TIP3   OH233423   1.507   0.902  14.639 -0.0507  0.2353  0.3970
 4003TIP3    H133424   1.574   0.915  14.572 -1.8592 -0.8569 -1.7353
 4003TIP3    H233425   1.535   0.823  14.686 -0.3498 -0.8687 -1.2044
 4004TIP3   OH233426   1.358   0.328   0.046  0.1139  0.1342 -0.8327
 4004TIP3    H133427   1.306   0.272  -0.012 -1.3319 -0.5232  0.9759
 4004TIP3    H233428   1.419   0.267   0.089 -0.7138  0.1017  0.3342
 4005TIP3   OH233429   5.389   5.106  12.881  0.2950  0.0293 -0.1055
 4005TIP3    H133430   5.334   5.182  12.865  0.9953  0.3638 -1.0123
 4005TIP3    H233431   5.329   5.031  12.875 -0.9973  0.5542  3.5912
 4006TIP3   OH233432   3.065   5.471  12.093 -0.5288  0.0355 -0.7579
 4006TIP3    H133433   3.097   5.443  12.178 -0.9734 -0.9169 -0.9001
 4006TIP3    H233434   2.970   5.475  12.103 -0.6760 -1.1368 -1.5055
 4007TIP3   OH233435   4.828   0.442   3.716  0.2383  0.1034  0.4027
 4007TIP3    H133436   4.743   0.464   3.677  1.7983  2.3229 -2.1725
 4007TIP3    H233437   4.831   0.492   3.797 -0.1518  1.8061 -0.5655
 4008TIP3   OH233438   5.803   3.239   4.102  0.2436 -0.0442  0.3637
 4008TIP3    H133439   5.797   3.191   4.019  2.1920 -1.6929  1.0679
 4008TIP3    H233440   5.785   3.330   4.079  0.8207 -0.4412 -1.8952
 4009TIP3   OH233441   0.871   2.478  14.341 -0.3444 -0.4847  0.1927
 4009TIP3    H133442   0.911   2.464  14.255  0.8506  0.5904  0.5520
 4009TIP3    H233443   0.800   2.541  14.325  0.1864  0.0867  0.0676
 4010TIP3   OH233444   4.021   6.352  13.536  0.1539 -0.4356 -0.0123
 4010TIP3    H133445   4.029   6.365  13.442  0.7224 -1.7174 -0.1669
 4010TIP3    H233446   3.945   6.294  13.546 -0.9053  0.9955  0.4561
 4011TIP3   OH233447   3.435   2.762   1.668 -0.4491 -0.2498  0.1349
 4011TIP3    H133448   3.400   2.678   1.699 -2.1924 -0.6547 -2.5414
 4011TIP3    H233449   3.524   2.742   1.639  0.1372 -0.4995  1.9762
 4012TIP3   OH233450   6.330   1.851  10.952 -0.1662 -0.4972 -0.4872
 4012TIP3    H133451   6.331   1.834  10.857  2.8543  2.4007 -1.1265
 4012TIP3    H233452   6.250   1.902  10.966 -1.0333 -1.5705 -1.2686
 4013TIP3   OH233453   4.760   2.504   5.893  0.9020 -0.2757 -0.0271
 4013TIP3    H133454   4.736   2.493   5.985  0.9355  1.8184  0.2661
 4013TIP3    H233455   4.770   2.414   5.860 -2.1032 -1.1962  1.1938
 4014TIP3   OH233456   0.362   6.284   3.059 -0.0143 -0.7063 -0.1352
 4014TIP3    H133457   0.367   6.339   3.137 -0.9565  0.9810 -1.1887
 4014TIP3    H233458   0.450   6.290   3.020  0.3136 -1.1605  0.5249
 4015TIP3   OH233459   4.019   5.483  17.268 -0.2812  0.4671  0.1420
 4015TIP3    H133460   3.946   5.422  17.269  0.3494 -0.4174 -2.1231
 4015TIP3    H233461   4.081   5.445  17.205  1.5500  1.8371  1.0467
 4016TIP3   OH233462   2.377   6.666  11.454 -0.0870  0.2670 -0.2050
 4016TIP3    H133463   2.299   6.657  11.400  0.1417 -0.2882 -0.4591
 4016TIP3    H233464   2.345   6.665  11.544 -0.2151 -2.5458 -0.1900
 4017TIP3   OH233465   3.079   0.523  15.731  0.1795 -0.0146 -0.2537
 4017TIP3    H133466   3.035   0.482  15.657  0.0123  1.7531 -1.1956
 4017TIP3    H233467   3.028   0.495  15.807 -2.4213  1.6010 -1.2673
 4018TIP3   OH233468   0.596   1.561   1.545 -0.4157 -0.6066  0.0571
 4018TIP3    H133469   0.647   1.640   1.561 -1.9312  0.5779 -0.7313
 4018TIP3    H233470   0.661   1.490   1.545  1.1876  0.7959 -0.7564
 4019TIP3   OH233471   1.899   2.781   0.412 -0.1603 -0.0362  0.2688
 4019TIP3    H133472   1.832   2.744   0.470  0.9770 -1.6705  0.5987
 4019TIP3    H233473   1.959   2.708   0.395  1.4324  1.3183 -0.1827
 4020TIP3   OH233474   5.922   0.904   3.582  0.6462 -0.1679  1.1413
 4020TIP3    H133475   5.922   0.996   3.606  0.4276  0.0189  0.4626
 4020TIP3    H233476   6.001   0.894   3.529 -0.8581  0.3669 -1.3824
 4021TIP3   OH233477   5.188   1.491   0.119  0.2537  0.3755 -0.2214
 4021TIP3    H133478   5.161   1.581   0.137 -0.3822  0.2075 -0.2995
 4021TIP3    H233479   5.112   1.438   0.143  0.0149 -0.0058 -1.6980
 4022TIP3   OH233480   1.509   2.431  11.503 -0.2976  0.3602 -0.1667
 4022TIP3    H133481   1.538   2.342  11.520  0.9872  0.7885  0.0230
 4022TIP3    H233482   1.488   2.467  11.589 -0.2930  0.4006 -0.1823
 4023TIP3   OH233483   1.514   1.186   5.342  0.3928  0.0746  0.3617
 4023TIP3    H133484   1.534   1.274   5.311 -0.6444 -0.1016 -0.9160
 4023TIP3    H233485   1.549   1.128   5.273  0.1499 -0.4601  0.6828
 4024TIP3   OH233486   4.319   1.162  10.925  0.3081 -0.0273  1.1692
 4024TIP3    H133487   4.391   1.164  10.862 -0.4754 -2.1175  0.1366
 4024TIP3    H233488   4.243   1.192  10.875 -0.4756 -2.4214  0.8031
 4025TIP3   OH233489   6.260   3.946  11.956  0.0778  0.1998 -0.0362
 4025TIP3    H133490   6.286   4.038  11.958  1.7529 -0.2121 -1.2374
 4025TIP3    H233491   6.265   3.921  11.864  0.0843 -1.2156  0.3206
 4026TIP3   OH233492   5.096   4.049  15.537  0.0863  0.2812 -0.6024
 4026TIP3    H133493   5.188   4.067  15.520  0.0837 -0.1841 -1.1697
 4026TIP3    H233494   5.094   3.956  15.561 -0.0044  0.7479  1.3368
 4027TIP3   OH233495   5.563   4.841   1.259 -0.4689  0.0877  0.7471
 4027TIP3    H133496   5.487   4.896   1.278  0.7024  1.3523  1.9432
 4027TIP3    H233497   5.527   4.769   1.206 -2.5560  0.4472  1.5552
 4028TIP3   OH233498   4.936   3.104   4.025 -0.4170  0.3055 -0.3507
 4028TIP3    H133499   4.844   3.127   4.015 -0.6094 -0.9888 -2.0521
 4028TIP3    H233500   4.958   3.057   3.945  1.5660  0.0230  0.2933
 4029TIP3   OH233501   3.097   2.262  16.747  0.1866  0.1023 -0.1279
 4029TIP3    H133502   3.056   2.251  16.833 -0.5114 -1.7089 -0.6550
 4029TIP3    H233503   3.120   2.355  16.744 -0.8720  0.4670  1.5177
 4030TIP3   OH233504   0.326   4.339  15.839  0.1945 -0.8056 -0.3670
 4030TIP3    H133505   0.364   4.255  15.814 -1.1164 -1.1734 -1.2234
 4030TIP3    H233506   0.239   4.317  15.873  0.0109  0.1680 -0.1681
 4031TIP3   OH233507   1.462   1.228  15.718  0.1196 -0.6414 -0.3765
 4031TIP3    H133508   1.450   1.136  15.739  1.0219 -1.0561 -1.5946
 4031TIP3    H233509   1.520   1.261  15.786  0.6526 -1.2344 -0.5380
 4032TIP3   OH233510   3.390   3.624  14.950 -0.6204  0.2850  0.4842
 4032TIP3    H133511   3.347   3.556  14.897 -0.0664 -0.6540  1.1999
 4032TIP3    H233512   3.321   3.659  15.006 -0.8831  0.2245  0.2000
 4033TIP3   OH233513   5.902   2.052   4.776 -1.0194  0.1849  0.0357
 4033TIP3    H133514   5.967   1.984   4.758 -1.5834 -0.6206  0.9595
 4033TIP3    H233515   5.824   2.004   4.803 -0.8681  1.1880  2.5595
 4034TIP3   OH233516   0.411   3.119   6.632  0.4572  0.1763  0.1517
 4034TIP3    H133517   0.316   3.116   6.644  0.7090 -0.1351  2.5258
 4034TIP3    H233518   0.440   3.030   6.653  1.4238  0.7660  1.4783
 4035TIP3   OH233519   5.002   3.794  14.452  0.4118 -0.1136 -0.3849
 4035TIP3    H133520   4.960   3.747  14.380 -0.2335 -0.8961  0.4866
 4035TIP3    H233521   4.939   3.861  14.478  0.3594 -0.2717 -0.1014
 4036TIP3   OH233522   6.582   2.086  16.375 -0.6419 -0.0017 -0.0592
 4036TIP3    H133523   6.629   2.003  16.385 -0.2606 -0.1377 -2.4245
 4036TIP3    H233524   6.527   2.074  16.298 -1.7449  1.4430  0.4523
 4037TIP3   OH233525   0.648   5.626   3.610 -0.8441 -0.2354 -0.1193
 4037TIP3    H133526   0.648   5.606   3.517  2.2852  2.2517 -0.8576
 4037TIP3    H233527   0.583   5.696   3.620 -2.6607 -1.8749  0.0510
 4038TIP3   OH233528   0.524   3.321   5.727 -0.4759 -0.2725  0.5650
 4038TIP3    H133529   0.469   3.377   5.672  0.7745 -0.8737 -1.4404
 4038TIP3    H233530   0.605   3.310   5.676  0.3753 -1.6984  2.1100
 4039TIP3   OH233531   6.238   4.645   5.534 -0.2142  0.1293  0.2262
 4039TIP3    H133532   6.305   4.652   5.602  1.4564 -0.3912 -1.2579
 4039TIP3    H233533   6.214   4.552   5.533  1.0521 -0.2366 -0.9526
 4040TIP3   OH233534   3.187   5.177   0.352  0.4551 -0.0581 -0.0890
 4040TIP3    H133535   3.137   5.096   0.339  3.0981 -1.7020 -0.8281
 4040TIP3    H233536   3.176   5.225   0.270 -1.1368  0.4116  0.3535
 4041TIP3   OH233537   4.187   5.281   2.689  0.7333  0.0583  0.2434
 4041TIP3    H133538   4.123   5.324   2.746 -0.2516 -0.2150 -0.6265
 4041TIP3    H233539   4.206   5.198   2.732 -1.7150 -1.1626 -0.9051
 4042TIP3   OH233540   3.748   5.155   1.775 -0.1901  0.5933 -0.6560
 4042TIP3    H133541   3.803   5.115   1.843  0.4592  1.0755 -0.8874
 4042TIP3    H233542   3.808   5.170   1.702 -0.8331  0.2800 -1.2666
 4043TIP3   OH233543   5.006   3.047   4.506 -0.6470 -0.3580  0.4646
 4043TIP3    H133544   4.938   3.053   4.573  0.0302 -0.4868  1.1844
 4043TIP3    H233545   4.993   3.124   4.450 -3.6855 -2.2181 -1.6900
 4044TIP3   OH233546   5.384   4.850   5.195  0.3363 -0.1192  0.2167
 4044TIP3    H133547   5.317   4.783   5.207 -0.3716  0.7849  1.5705
 4044TIP3    H233548   5.442   4.814   5.129 -1.2619 -1.1064 -0.7265
 4045TIP3   OH233549   3.745   1.920   3.201  0.3719 -0.2524 -0.7698
 4045TIP3    H133550   3.744   1.958   3.289  0.8463  0.5197 -1.0873
 4045TIP3    H233551   3.714   1.991   3.145 -0.4095 -0.8994 -1.1716
 4046TIP3   OH233552   3.596   6.134   2.581  0.2545 -0.1648 -0.3603
 4046TIP3    H133553   3.635   6.187   2.650 -0.1921 -0.2229 -0.0581
 4046TIP3    H233554   3.503   6.129   2.603  0.0360  0.1266 -1.1682
 4047TIP3   OH233555   5.699   4.791  12.310 -0.0292  0.6510 -0.6768
 4047TIP3    H133556   5.768   4.848  12.341  3.4556 -2.9266 -1.0443
 4047TIP3    H233557   5.658   4.757  12.390  1.7679 -0.5110 -0.1727
 4048TIP3   OH233558   3.290   3.776  15.891  0.1413  0.0536 -0.0740
 4048TIP3    H133559   3.306   3.683  15.906 -0.7994  0.0495  0.9964
 4048TIP3    H233560   3.264   3.810  15.976  0.2101  1.2490 -0.5123
 4049TIP3   OH233561   6.020   1.954  14.102  0.1375 -0.5532  0.0973
 4049TIP3    H133562   6.082   2.024  14.121  1.4914 -2.2043  2.4340
 4049TIP3    H233563   5.943   1.976  14.155  0.8047 -1.0933  1.3323
 4050TIP3   OH233564   4.858   2.638  17.222  0.1894 -0.4805  0.0795
 4050TIP3    H133565   4.826   2.548  17.231 -0.3144 -0.2958  0.1680
 4050TIP3    H233566   4.942   2.629  17.176 -0.8179 -0.8516 -1.7718
 4051TIP3   OH233567   2.738   5.042   4.218  0.0731 -0.0942 -0.2377
 4051TIP3    H133568   2.800   4.975   4.187 -1.0404 -0.9815 -0.6027
 4051TIP3    H233569   2.760   5.054   4.310  0.7682 -0.4195 -0.3517
 4052TIP3   OH233570   2.693   2.997   5.821  0.1803  0.8913 -0.3191
 4052TIP3    H133571   2.748   2.923   5.844 -1.2598  0.5168  2.2935
 4052TIP3    H233572   2.682   2.990   5.726  2.3149 -0.5745 -0.5201
 4053TIP3   OH233573   2.155   3.542  12.579  0.2878 -0.3664 -0.0804
 4053TIP3    H133574   2.065   3.532  12.608  0.5909 -0.3701  0.8863
 4053TIP3    H233575   2.151   3.534  12.484 -0.7614 -0.1188 -0.0646
 4054TIP3   OH233576   2.021   1.384   5.157  0.5182  0.1420  0.4826
 4054TIP3    H133577   2.059   1.470   5.140  0.4145  0.3154  1.1099
 4054TIP3    H233578   2.086   1.340   5.213  0.7584 -0.3397 -0.1610
 4055TIP3   OH233579   4.834   0.822  15.027  0.0529 -0.2888  0.9169
 4055TIP3    H133580   4.888   0.749  14.996 -1.9058 -2.4624  2.3378
 4055TIP3    H233581   4.778   0.844  14.952  0.5101 -0.3817  0.5432
 4056TIP3   OH233582   2.960   3.169  15.967  0.3291  0.3895  0.1274
 4056TIP3    H133583   3.012   3.103  15.922 -2.6671 -1.7528 -0.4723
 4056TIP3    H233584   2.915   3.217  15.897 -1.8891 -0.8309  0.6115
 4057TIP3   OH233585   0.732   3.136   2.997 -0.2733  0.1377  0.7992
 4057TIP3    H133586   0.651   3.163   3.039 -0.2306 -0.3850  1.2174
 4057TIP3    H233587   0.747   3.202   2.929  0.2449  1.6691  2.3264
 4058TIP3   OH233588   5.408   3.628   4.277  0.6984  1.0966 -0.3239
 4058TIP3    H133589   5.387   3.557   4.337  2.4687  1.4305  0.7544
 4058TIP3    H233590   5.467   3.685   4.326  2.0179  1.5317 -2.2727
 4059TIP3   OH233591   5.946   2.790  17.088  0.2936  0.5605 -0.0479
 4059TIP3    H133592   5.876   2.851  17.062  0.1151  1.0362  1.4546
 4059TIP3    H233593   5.904   2.731  17.150  0.3130 -1.5430 -1.9017
 4060TIP3   OH233594   2.697   6.687  13.215  0.3024 -0.0252 -0.0387
 4060TIP3    H133595   2.706   6.700  13.120  1.0348 -2.2227 -0.3104
 4060TIP3    H233596   2.641   6.610  13.224  0.7719 -0.2356  1.3059
 4061TIP3   OH233597   5.849   6.490  12.780 -0.0578 -0.0847 -0.3621
 4061TIP3    H133598   5.900   6.551  12.727 -0.4579  0.7331  0.1693
 4061TIP3    H233599   5.914   6.433  12.820  0.2949 -0.2569 -1.1659
 4062TIP3   OH233600   3.217   6.052   0.792 -0.8164  0.0028 -0.5298
 4062TIP3    H133601   3.169   6.080   0.714 -0.9685 -0.2877 -0.5441
 4062TIP3    H233602   3.240   5.960   0.774 -2.9516 -0.8446  0.7495
 4063TIP3   OH233603   3.820   3.070   1.156 -0.5663 -0.2052  0.4633
 4063TIP3    H133604   3.895   3.097   1.102 -1.9217  1.6362 -0.6220
 4063TIP3    H233605   3.786   2.992   1.112  0.9069 -1.2776  1.1799
 4064TIP3   OH233606   1.580   1.226   1.226  0.2135 -0.4688 -0.0007
 4064TIP3    H133607   1.558   1.163   1.157 -0.2349 -0.4787  0.1525
 4064TIP3    H233608   1.519   1.298   1.213  2.7626  1.5363 -2.2776
 4065TIP3   OH233609   1.614   6.021  13.749  0.0752  0.4259 -0.4769
 4065TIP3    H133610   1.570   6.038  13.666 -0.8087  0.3958 -0.0228
 4065TIP3    H233611   1.560   6.065  13.814 -0.8915 -1.9503  0.4419
 4066TIP3   OH233612   2.843   3.566  10.836 -0.1346 -0.2278  0.0601
 4066TIP3    H133613   2.930   3.587  10.802 -0.1213  0.1573  0.3266
 4066TIP3    H233614   2.795   3.649  10.833 -0.6841 -0.5530 -0.6349
 4067TIP3   OH233615   1.526   1.652   1.568 -0.2774 -0.2504  0.2203
 4067TIP3    H133616   1.485   1.739   1.562 -1.6431 -0.9134 -0.6048
 4067TIP3    H233617   1.470   1.596   1.515  1.2720 -1.4030 -0.2548
 4068TIP3   OH233618   0.152   5.557   5.373 -0.4612 -0.0374  0.6508
 4068TIP3    H133619   0.207   5.519   5.304  1.4011  1.6000  1.1261
 4068TIP3    H233620   0.103   5.626   5.329 -1.0071 -0.4792  0.5456
 4069TIP3   OH233621   5.917   4.722   4.187  0.5390  0.0896  0.4151
 4069TIP3    H133622   5.906   4.817   4.188  0.3525  0.0682  0.3182
 4069TIP3    H233623   5.953   4.703   4.101 -0.5666 -0.0576 -0.0317
 4070TIP3   OH233624   6.770   0.094  13.126  0.0786  0.5718 -0.0426
 4070TIP3    H133625   6.779   0.014  13.075 -1.9914 -0.4411  1.0760
 4070TIP3    H233626   6.852   0.102  13.174 -1.1015 -3.2771  3.0663
 4071TIP3   OH233627   3.989   0.287   0.955 -0.4946  0.2841  0.1674
 4071TIP3    H133628   3.903   0.247   0.968 -0.3504 -0.9607 -2.1714
 4071TIP3    H233629   4.022   0.302   1.043 -3.1016  0.8629  1.1523
 4072TIP3   OH233630   1.482   0.998  17.271 -0.5721 -0.0988 -0.3927
 4072TIP3    H133631   1.435   1.079  17.254 -0.1147 -0.1603 -2.2213
 4072TIP3    H233632   1.557   1.024  17.325 -1.5214  0.3436  0.7313
 4073TIP3   OH233633   1.235   2.956   1.967  0.2243 -0.1711  0.9463
 4073TIP3    H133634   1.282   2.979   1.887  0.4114 -0.9473  0.8253
 4073TIP3    H233635   1.201   3.039   2.000  2.1059  0.5132  1.3017
 4074TIP3   OH233636   4.186   1.501   0.397  0.0288 -0.3561 -0.3075
 4074TIP3    H133637   4.232   1.545   0.326  1.6350  1.1341  1.5241
 4074TIP3    H233638   4.134   1.433   0.354  0.6792  0.6607 -2.8885
 4075TIP3   OH233639   5.033   1.500  12.882 -0.3340  0.2026  0.0194
 4075TIP3    H133640   5.012   1.588  12.852 -2.5119 -0.1955  0.2000
 4075TIP3    H233641   4.987   1.492  12.966  0.4674 -0.8469  0.3781
 4076TIP3   OH233642   4.891   4.481  14.949  0.4077  0.0825 -0.6300
 4076TIP3    H133643   4.899   4.385  14.953  1.9527  0.2251  0.6278
 4076TIP3    H233644   4.817   4.501  15.007 -0.3210 -0.3655 -1.3799
 4077TIP3   OH233645   3.480   2.291   5.861 -0.0845 -0.0027 -0.2557
 4077TIP3    H133646   3.525   2.325   5.937  1.5386 -0.7357 -0.8384
 4077TIP3    H233647   3.387   2.293   5.884  0.2630  1.2142  1.1212
 4078TIP3   OH233648   4.253   1.239  11.465  0.1050  0.5833 -0.4827
 4078TIP3    H133649   4.223   1.264  11.552  0.3370  0.2925 -0.3181
 4078TIP3    H233650   4.320   1.304  11.444  0.2892  0.4539 -0.3018
 4079TIP3   OH233651   2.066   3.802   1.531 -0.0177  0.1989  0.0313
 4079TIP3    H133652   2.056   3.780   1.438  0.7453  2.2181 -0.5761
 4079TIP3    H233653   2.113   3.727   1.568 -1.3398 -1.1663 -0.9174
 4080TIP3   OH233654   3.578   4.582  15.042 -0.2450 -0.4078  0.4692
 4080TIP3    H133655   3.610   4.498  15.007  1.9011  0.8152 -0.7086
 4080TIP3    H233656   3.491   4.593  15.004  0.7564 -0.6109 -2.0453
 4081TIP3   OH233657   5.708   6.256  10.880  0.3281 -0.3813  0.4973
 4081TIP3    H133658   5.740   6.292  10.963  3.3201 -0.7878 -0.3601
 4081TIP3    H233659   5.760   6.177  10.867 -2.1567 -1.9809 -0.3908
 4082TIP3   OH233660   0.661   4.239   3.098 -0.7877 -0.4840  1.1688
 4082TIP3    H133661   0.715   4.275   3.168 -0.4739 -0.9755  1.1864
 4082TIP3    H233662   0.621   4.315   3.056 -0.6657 -0.1640  1.6295
 4083TIP3   OH233663   6.189   5.748  12.820 -0.0572  0.2861  0.1290
 4083TIP3    H133664   6.265   5.766  12.875 -1.7209 -0.2512  2.7777
 4083TIP3    H233665   6.173   5.654  12.832 -1.0587  0.3617 -0.4961
 4084TIP3   OH233666   6.681   2.375  15.441 -0.4806 -0.1442 -0.0589
 4084TIP3    H133667   6.695   2.355  15.533 -1.2389 -2.0017 -0.3059
 4084TIP3    H233668   6.615   2.444  15.441  0.5421  0.8694  0.7896
 4085TIP3   OH233669   2.302   5.043   1.290  0.5831  0.0074  0.6301
 4085TIP3    H133670   2.353   4.962   1.283 -0.2257 -0.4184 -0.5453
 4085TIP3    H233671   2.330   5.096   1.216 -0.3694 -0.0652  0.2044
 4086TIP3   OH233672   2.662   3.356  11.550 -0.2250 -0.3311 -0.2635
 4086TIP3    H133673   2.717   3.318  11.481  0.4049  1.7568 -0.9869
 4086TIP3    H233674   2.575   3.365  11.509 -0.1248 -0.1149 -0.4357
 4087TIP3   OH233675   5.242   4.720   2.963 -0.0849 -0.3777 -0.6942
 4087TIP3    H133676   5.232   4.648   3.026 -2.5283 -0.3734 -0.9934
 4087TIP3    H233677   5.282   4.679   2.886  1.5858 -0.6856  0.2943
 4088TIP3   OH233678   5.926   4.261  14.669  0.3190 -0.4024 -0.1794
 4088TIP3    H133679   5.833   4.276  14.688  0.0551 -1.6330 -0.4043
 4088TIP3    H233680   5.954   4.198  14.736  0.8301 -0.5163 -0.4942
 4089TIP3   OH233681   3.351   6.526   4.399  0.2025  0.0803  0.1875
 4089TIP3    H133682   3.281   6.552   4.339  1.6128 -0.1193 -1.6297
 4089TIP3    H233683   3.325   6.439   4.429 -0.6731  0.3088  0.1343
 4090TIP3   OH233684   0.806   6.165   2.714 -0.1482 -0.2952 -0.2034
 4090TIP3    H133685   0.857   6.084   2.710 -0.2071 -0.3317 -0.2244
 4090TIP3    H233686   0.870   6.235   2.700  0.3464 -0.1735  2.3093
 4091TIP3   OH233687   0.926   4.402  14.496  0.2074  1.1425 -0.0218
 4091TIP3    H133688   1.012   4.377  14.462  0.1152 -0.1403  0.6284
 4091TIP3    H233689   0.904   4.332  14.557 -1.7589  0.9207 -0.9335
 4092TIP3   OH233690   1.173   2.072   3.908 -0.8038 -0.0488 -0.5915
 4092TIP3    H133691   1.212   1.985   3.901  1.8359  0.8113  1.7100
 4092TIP3    H233692   1.118   2.068   3.986 -1.3769  0.1241 -0.9808
 4093TIP3   OH233693   0.824   2.752   3.934  0.4110  0.0338  0.1274
 4093TIP3    H133694   0.829   2.804   4.015  0.5679 -0.0028  0.1401
 4093TIP3    H233695   0.911   2.714   3.924  0.1776 -0.5744  0.3461
 4094TIP3   OH233696   6.149   5.247   2.442 -0.0852  0.1884  0.5207
 4094TIP3    H133697   6.147   5.161   2.483 -0.8042  1.0496  2.4276
 4094TIP3    H233698   6.190   5.304   2.507 -0.4791  1.4647 -0.2989
 4095TIP3   OH233699   5.015   2.213  16.090  0.0513  0.1428  0.5815
 4095TIP3    H133700   5.109   2.201  16.097  0.3246  1.1578 -0.9840
 4095TIP3    H233701   5.001   2.306  16.108 -0.4192  0.4033 -1.0331
 4096TIP3   OH233702   5.365   3.103   5.795 -0.2094 -0.7056 -0.4606
 4096TIP3    H133703   5.436   3.040   5.784 -0.2050 -0.8551  0.3592
 4096TIP3    H233704   5.336   3.091   5.886 -0.3208  0.3602 -0.3404
 4097TIP3   OH233705   3.755   1.648  16.400  0.1060  0.2950 -0.0949
 4097TIP3    H133706   3.704   1.727  16.419 -0.0314 -0.1283  1.4035
 4097TIP3    H233707   3.711   1.609  16.324 -1.4640  0.2543  0.7953
 4098TIP3   OH233708   1.128   5.374   0.513 -0.8972 -0.0610 -0.7315
 4098TIP3    H133709   1.107   5.434   0.442 -0.3355  0.3949 -0.5126
 4098TIP3    H233710   1.114   5.287   0.475  0.3742  0.1421 -1.7184
 4099TIP3   OH233711   2.020   5.530   5.169 -0.1761 -0.5928  0.1256
 4099TIP3    H133712   1.938   5.486   5.195  0.8409 -2.7716 -0.0900
 4099TIP3    H233713   2.047   5.483   5.089 -0.4518  2.3718 -1.8817
 4100TIP3   OH233714   2.355   0.619  12.160 -0.3157 -0.1591  0.3006
 4100TIP3    H133715   2.419   0.554  12.132  0.0051 -0.1902  1.0867
 4100TIP3    H233716   2.282   0.609  12.100  0.9107  0.7187 -1.4291
 4101TIP3   OH233717   3.101   6.002   3.454  0.1346 -0.0284 -0.3369
 4101TIP3    H133718   3.108   5.967   3.365 -0.8038 -3.5205  0.7999
 4101TIP3    H233719   3.188   5.987   3.492  0.6327  1.7503 -0.6735
 4102TIP3   OH233720   4.171   3.201   0.281  0.6822  0.0440 -0.0885
 4102TIP3    H133721   4.236   3.271   0.278 -0.3793  1.1460  1.3508
 4102TIP3    H233722   4.089   3.241   0.251  0.4382 -1.0942 -1.0592
 4103TIP3   OH233723   2.472   1.013  16.079  0.1864  0.0185  0.0153
 4103TIP3    H133724   2.549   0.991  16.027  1.3181  0.4645  1.4295
 4103TIP3    H233725   2.433   1.088  16.035  0.5361 -0.2173 -0.7172
 4104TIP3   OH233726   2.028   4.693  11.687  0.2321  0.2451 -0.4842
 4104TIP3    H133727   2.007   4.704  11.595 -2.5937  1.3263  0.1910
 4104TIP3    H233728   1.960   4.635  11.721  0.9066  0.2833  1.0301
 4105TIP3   OH233729   2.035   1.892  15.972 -0.0341  0.1565 -0.1069
 4105TIP3    H133730   2.024   1.974  16.021  1.0014  0.7680 -0.8696
 4105TIP3    H233731   2.006   1.913  15.884 -0.9770 -0.6769 -0.0064
 4106TIP3   OH233732   3.459   2.168  12.108 -0.5588  0.9077 -0.4078
 4106TIP3    H133733   3.384   2.189  12.164 -0.7773 -0.2704 -0.2228
 4106TIP3    H233734   3.429   2.094  12.056  0.7708 -0.2035  0.3434
 4107TIP3   OH233735   5.901   5.342   2.863 -0.2978 -0.0246 -0.3667
 4107TIP3    H133736   5.896   5.433   2.835  0.4711 -0.3004 -1.4516
 4107TIP3    H233737   5.823   5.301   2.825 -0.7143  0.2063  0.2336
 4108TIP3   OH233738   4.154   6.563  16.062  0.1747 -0.1112 -0.4141
 4108TIP3    H133739   4.234   6.510  16.065 -0.3616 -1.0234  3.7369
 4108TIP3    H233740   4.184   6.650  16.036  2.1366 -0.8796 -0.9743
 4109TIP3   OH233741   6.290   5.712   3.635 -0.1754  0.2677  0.0580
 4109TIP3    H133742   6.314   5.729   3.726  2.4794  1.2355 -0.7371
 4109TIP3    H233743   6.263   5.797   3.602  0.2612  0.2138 -0.4380
 4110TIP3   OH233744   1.252   0.365   0.346  0.1542 -0.1845  0.0429
 4110TIP3    H133745   1.347   0.356   0.334  0.3354  1.8449 -0.4018
 4110TIP3    H233746   1.215   0.284   0.309  1.7609 -1.7749  1.6697
 4111TIP3   OH233747   2.259   5.128  12.441 -0.5369  0.2168  0.0124
 4111TIP3    H133748   2.224   5.079  12.516  0.5550 -0.2567  0.2328
 4111TIP3    H233749   2.191   5.122  12.374 -0.1560 -2.2272 -0.2238
 4112TIP3   OH233750   3.541   5.880   5.382 -0.1652 -0.2331 -0.3135
 4112TIP3    H133751   3.616   5.832   5.347  1.0634 -1.1829  3.2778
 4112TIP3    H233752   3.475   5.813   5.399 -0.8012  0.2334 -0.8717
 4113TIP3   OH233753   1.969   2.271   1.651 -0.1065  0.3938  0.1466
 4113TIP3    H133754   1.896   2.235   1.601 -0.1692 -0.9974  1.1865
 4113TIP3    H233755   1.956   2.365   1.648 -0.4837  0.3326 -1.8600
 4114TIP3   OH233756   5.794   0.750   0.216 -0.0867  0.3100 -0.1858
 4114TIP3    H133757   5.768   0.841   0.224 -0.1326  0.1464  2.4087
 4114TIP3    H233758   5.832   0.728   0.301 -0.3206 -2.1545 -0.6365
 4115TIP3   OH233759   3.052   3.644   5.469  0.9755 -0.2905  0.7205
 4115TIP3    H133760   3.045   3.707   5.541 -0.4000 -0.5855  0.8769
 4115TIP3    H233761   2.967   3.649   5.425  1.4443 -0.8414 -0.2760
 4116TIP3   OH233762   2.482   4.586   2.675 -0.2700  0.0330  0.3515
 4116TIP3    H133763   2.565   4.567   2.632 -1.0497 -0.0950 -1.1361
 4116TIP3    H233764   2.455   4.670   2.640 -2.0678 -1.1504 -1.2643
 4117TIP3   OH233765   1.587   4.779   1.876  0.2554 -0.1130  0.2009
 4117TIP3    H133766   1.618   4.837   1.946  0.4858 -0.2136  0.1836
 4117TIP3    H233767   1.612   4.824   1.795  1.0306 -0.5540  0.1909
 4118TIP3   OH233768   4.227   6.427   3.848  0.0769  0.1667  0.0187
 4118TIP3    H133769   4.240   6.353   3.906 -0.6160 -0.3470 -0.4629
 4118TIP3    H233770   4.219   6.389   3.761 -0.8954  0.7318 -0.1612
 4119TIP3   OH233771   3.348   6.772   1.420  0.1084  0.6945  0.2163
 4119TIP3    H133772   3.403   6.744   1.492  0.5170  0.5426 -0.1522
 4119TIP3    H233773   3.402   6.834   1.371 -0.5569  1.6735  0.6676
 4120TIP3   OH233774   2.685   0.192   3.038  0.1464  1.3326  0.6500
 4120TIP3    H133775   2.624   0.129   3.075  1.3982 -0.6643 -0.5117
 4120TIP3    H233776   2.765   0.142   3.021  0.4524  2.6279 -2.5251
 4121TIP3   OH233777   3.544   5.197  16.071  0.2983  0.0456 -0.1785
 4121TIP3    H133778   3.574   5.265  16.011 -1.0037  0.9392  0.1378
 4121TIP3    H233779   3.517   5.124  16.014 -0.4953  0.7060 -0.6687
 4122TIP3   OH233780   1.276   1.216   2.411 -0.0092 -0.3382  0.0456
 4122TIP3    H133781   1.320   1.155   2.470  0.9971  1.7317  1.5658
 4122TIP3    H233782   1.338   1.288   2.401 -0.9275  0.2255 -2.1180
 4123TIP3   OH233783   5.405   3.486   1.182 -0.0106  0.2912 -0.5714
 4123TIP3    H133784   5.407   3.391   1.171  0.6044  0.3080 -0.6372
 4123TIP3    H233785   5.488   3.516   1.146  0.3975  0.7267  0.6748
 4124TIP3   OH233786   1.915   4.186   0.801  0.0140 -0.2499  0.4745
 4124TIP3    H133787   1.876   4.272   0.819  2.0777  0.8685 -0.1617
 4124TIP3    H233788   1.898   4.171   0.708 -0.8267 -0.8282  0.7056
 4125TIP3   OH233789   4.635   0.481   0.981 -0.1965  0.1358 -0.1257
 4125TIP3    H133790   4.566   0.468   1.045 -0.2614 -0.1212 -0.2474
 4125TIP3    H233791   4.704   0.420   1.007 -0.4992 -0.4517 -0.6950
 4126TIP3   OH233792   2.173   6.082   4.727  0.9123  0.1865 -0.3823
 4126TIP3    H133793   2.242   6.073   4.793  2.2282 -1.3486 -1.8949
 4126TIP3    H233794   2.146   5.993   4.708  1.3438  0.4685 -2.6714
 4127TIP3   OH233795   5.951   4.373   4.085  0.0994  0.4536  0.2340
 4127TIP3    H133796   5.962   4.287   4.127 -1.6652  0.5554  1.0029
 4127TIP3    H233797   5.990   4.435   4.146  0.2130  0.3207  0.2979
 4128TIP3   OH233798   3.750   6.438  13.161 -0.2108  0.1808 -0.2887
 4128TIP3    H133799   3.750   6.413  13.068 -1.7666 -0.3579 -0.1611
 4128TIP3    H233800   3.792   6.524  13.162  2.0578 -0.8345 -1.1620
 4129TIP3   OH233801   1.164   1.501   1.132  0.8104  0.6763 -0.0110
 4129TIP3    H133802   1.152   1.555   1.210  1.3798  1.2328 -0.3040
 4129TIP3    H233803   1.098   1.532   1.071 -0.5106 -0.6224  0.6790
 4130TIP3   OH233804   4.037   2.616   2.602  0.0131 -0.2830  0.1617
 4130TIP3    H133805   4.006   2.706   2.612 -0.5699 -0.1574 -2.2519
 4130TIP3    H233806   4.124   2.616   2.643  0.2106  1.4901 -0.1763
 4131TIP3   OH233807   3.253   0.218   1.290  0.3143  0.1087 -0.1853
 4131TIP3    H133808   3.180   0.159   1.269  2.1127 -3.0666  1.6253
 4131TIP3    H233809   3.245   0.233   1.384 -0.1472  3.0594 -0.6004
 4132TIP3   OH233810   1.045   1.031  12.689 -0.5059  0.2468 -0.0357
 4132TIP3    H133811   1.119   1.008  12.634 -0.9415  0.2872 -0.6507
 4132TIP3    H233812   0.970   1.033  12.629 -1.2485 -1.0955  0.7845
 4133TIP3   OH233813   0.968   5.707   2.013  0.5540  0.3448 -0.3625
 4133TIP3    H133814   1.038   5.667   1.961 -0.5638 -4.6446  1.4629
 4133TIP3    H233815   0.893   5.712   1.953  0.4606 -1.3226 -0.4222
 4134TIP3   OH233816   2.064   1.457   1.614  0.5164 -0.2397 -0.2123
 4134TIP3    H133817   2.159   1.458   1.613  0.5699  1.3302  1.1439
 4134TIP3    H233818   2.039   1.547   1.635 -1.2938 -0.4888 -1.0464
 4135TIP3   OH233819   1.143   2.743  16.126 -0.1312 -0.2268 -0.1621
 4135TIP3    H133820   1.103   2.810  16.072 -0.4861  0.6288  1.1176
 4135TIP3    H233821   1.109   2.660  16.091  1.2625  0.1219 -2.5282
 4136TIP3   OH233822   0.022   2.294   4.663  0.1989  0.3456  0.3419
 4136TIP3    H133823   0.043   2.200   4.664 -2.6133 -0.3717  0.0823
 4136TIP3    H233824   0.073   2.330   4.736  0.9251 -1.4673  0.7981
 4137TIP3   OH233825   2.367   0.450  13.002  0.3362 -0.0694  0.0738
 4137TIP3    H133826   2.448   0.491  12.970 -0.1883  0.8480 -0.1045
 4137TIP3    H233827   2.298   0.513  12.981 -0.1468  0.1897  2.2560
 4138TIP3   OH233828   3.447   2.695  14.285  0.3785  0.1103  0.0846
 4138TIP3    H133829   3.453   2.610  14.240  1.4495 -0.9352  2.0143
 4138TIP3    H233830   3.497   2.755  14.230  1.2740 -1.0055 -0.3772
 4139TIP3   OH233831   1.131   3.437  15.259 -0.4935  0.0067  0.3581
 4139TIP3    H133832   1.164   3.451  15.171 -0.5452 -0.1507  0.3147
 4139TIP3    H233833   1.051   3.489  15.264 -0.2463  0.3821  0.4616
 4140TIP3   OH233834   2.307   5.074  13.669 -0.4806 -0.7810 -0.1440
 4140TIP3    H133835   2.293   4.987  13.705 -1.7617 -0.3951  0.3278
 4140TIP3    H233836   2.269   5.070  13.581 -0.4676 -0.7163 -0.1523
 4141TIP3   OH233837   0.743   4.306   2.664 -0.0054 -0.4184 -0.0411
 4141TIP3    H133838   0.738   4.226   2.717 -1.1876 -0.6119 -0.4079
 4141TIP3    H233839   0.670   4.360   2.695  0.6906  0.4703  0.1054
 4142TIP3   OH233840   4.030   6.393   1.749 -0.6604  0.3912  0.3075
 4142TIP3    H133841   4.063   6.378   1.837 -0.7922  0.2927  0.3403
 4142TIP3    H233842   4.069   6.477   1.723  1.6144 -0.8450 -0.5989
 4143TIP3   OH233843   3.945   3.903  16.303 -0.1429 -0.4333  0.5082
 4143TIP3    H133844   3.951   3.828  16.244 -2.0546 -1.3679  1.4008
 4143TIP3    H233845   3.966   3.867  16.389 -1.4839 -0.0816  1.0080
 4144TIP3   OH233846   0.691   6.426  12.086 -0.3903 -0.7628 -0.0322
 4144TIP3    H133847   0.702   6.402  11.994 -0.0415 -0.4892 -0.0614
 4144TIP3    H233848   0.636   6.504  12.084 -0.6306 -0.9285  0.0098
 4145TIP3   OH233849   0.920   5.713  13.719  0.5129  0.5866 -0.4719
 4145TIP3    H133850   0.974   5.779  13.762 -0.2736  0.1129  1.3282
 4145TIP3    H233851   0.939   5.724  13.626  1.6148  2.2497 -0.0983
 4146TIP3   OH233852   4.287   2.245  15.625  0.0857 -0.0425 -0.3317
 4146TIP3    H133853   4.307   2.151  15.615 -0.2498 -0.2874  1.1321
 4146TIP3    H233854   4.225   2.263  15.554 -0.0127 -0.9878 -0.5106
 4147TIP3   OH233855   2.815   3.601   3.238  0.9876  0.1467 -0.2261
 4147TIP3    H133856   2.834   3.616   3.331 -1.3654  1.4466  0.1039
 4147TIP3    H233857   2.857   3.675   3.193  3.3246 -1.2017 -0.4445
 4148TIP3   OH233858   0.560   6.237  12.781  0.7722  0.2292  0.2118
 4148TIP3    H133859   0.492   6.292  12.743  2.6863  0.9480 -2.4084
 4148TIP3    H233860   0.528   6.148  12.768  0.4684  0.5417 -1.3125
 4149TIP3   OH233861   1.473   1.446  13.607  1.0269  0.0338  0.0267
 4149TIP3    H133862   1.389   1.405  13.627  0.8641  0.8774  1.1890
 4149TIP3    H233863   1.507   1.398  13.532  0.6325 -1.9027  1.0391
 4150TIP3   OH233864   4.681   1.298   4.875  0.3695 -0.4519 -0.1615
 4150TIP3    H133865   4.601   1.290   4.928  0.4386 -2.4253 -0.2692
 4150TIP3    H233866   4.649   1.328   4.790 -0.3053 -1.2194 -0.2065
 4151TIP3   OH233867   4.983   2.019  16.322  0.0586 -0.6332 -0.4355
 4151TIP3    H133868   4.990   2.075  16.245 -0.8190  0.3522  0.1719
 4151TIP3    H233869   5.049   2.053  16.382 -0.5128 -0.2058 -0.0439
 4152TIP3   OH233870   3.480   1.420  15.600 -0.3788 -1.0233 -0.1964
 4152TIP3    H133871   3.572   1.397  15.611  0.2698  0.9694 -0.9548
 4152TIP3    H233872   3.464   1.413  15.506 -2.3972 -5.8527  0.2481
 4153TIP3   OH233873   2.641   3.732  12.042  0.0488  0.4011 -0.2112
 4153TIP3    H133874   2.647   3.821  12.078 -0.4796  0.7101 -0.8564
 4153TIP3    H233875   2.732   3.703  12.035  0.2265  0.8682  0.0546
 4154TIP3   OH233876   5.751   5.031   5.352  0.2945  0.0917 -0.4832
 4154TIP3    H133877   5.842   5.060   5.354  1.0251 -1.9801 -0.7471
 4154TIP3    H233878   5.755   4.939   5.323 -1.6340 -0.8428  1.8001
 4155TIP3   OH233879   1.084   4.841   3.181  0.6436 -0.6018  0.8290
 4155TIP3    H133880   1.155   4.790   3.221 -0.7736 -1.5553  2.2619
 4155TIP3    H233881   1.091   4.823   3.087  2.3395 -0.5760  0.9188
 4156TIP3   OH233882   6.640   6.314  12.710 -0.5544 -0.0628 -0.5922
 4156TIP3    H133883   6.572   6.322  12.776 -0.1074 -0.5300 -0.0651
 4156TIP3    H233884   6.602   6.257  12.643 -0.6323 -0.4362 -0.2330
 4157TIP3   OH233885   2.748   4.066   3.779  0.0508  0.0863  0.0947
 4157TIP3    H133886   2.690   4.079   3.705  1.0417  1.3909 -0.4868
 4157TIP3    H233887   2.716   4.127   3.846  0.5497  0.5781 -0.1108
 4158TIP3   OH233888   4.666   2.546   2.045 -0.2586  0.0311  0.4347
 4158TIP3    H133889   4.627   2.633   2.045  0.3456  0.3150  1.3619
 4158TIP3    H233890   4.594   2.487   2.066 -0.9475  0.1433 -1.4110
 4159TIP3   OH233891   0.727   5.122  14.651  0.5424 -0.1678 -0.4525
 4159TIP3    H133892   0.712   5.151  14.561 -0.3863  0.7976 -0.0146
 4159TIP3    H233893   0.641   5.127  14.692  1.1286  0.3682  0.7611
 4160TIP3   OH233894   5.868   5.440   5.070  0.0476  0.0911 -0.2244
 4160TIP3    H133895   5.797   5.378   5.086  1.2351 -1.7201 -1.4299
 4160TIP3    H233896   5.948   5.388   5.084  1.1158  1.6824 -0.1878
 4161TIP3   OH233897   2.325   2.125  12.476  0.8657  0.0667 -0.7587
 4161TIP3    H133898   2.302   2.116  12.383  1.3446 -0.7248 -0.8076
 4161TIP3    H233899   2.250   2.088  12.522  1.2074 -0.8184 -0.8769
 4162TIP3   OH233900   2.700   6.498   5.842 -0.3873  0.2955 -0.0955
 4162TIP3    H133901   2.678   6.573   5.788 -0.3581 -0.3902 -1.0925
 4162TIP3    H233902   2.796   6.497   5.844 -0.3804  0.0906 -0.3834
 4163TIP3   OH233903   5.801   1.739  15.110 -0.5609 -0.2813  0.0061
 4163TIP3    H133904   5.841   1.662  15.070  0.7497 -0.5358  1.6994
 4163TIP3    H233905   5.829   1.812  15.055  0.4546 -0.7222 -0.0921
 4164TIP3   OH233906   3.229   1.710   0.546 -0.5929  0.5107 -0.1511
 4164TIP3    H133907   3.245   1.628   0.499 -4.1155 -0.8706  0.7588
 4164TIP3    H233908   3.196   1.770   0.479 -0.6624  0.2612 -0.3433
 4165TIP3   OH233909   1.189   6.611   0.776  0.1015  0.0010  0.0646
 4165TIP3    H133910   1.253   6.618   0.847  0.6747 -0.3225 -0.4018
 4165TIP3    H233911   1.125   6.679   0.794 -0.0353 -0.3976  1.1629
 4166TIP3   OH233912   1.629   2.896   3.119  0.0511 -0.1028 -0.1096
 4166TIP3    H133913   1.534   2.881   3.125 -0.1124  0.8881 -0.0798
 4166TIP3    H233914   1.652   2.935   3.203  0.4573 -0.1828 -0.1832
 4167TIP3   OH233915   2.698   3.592   1.577 -0.0565  0.2424  0.2569
 4167TIP3    H133916   2.719   3.637   1.659 -0.8979  0.8440  0.1632
 4167TIP3    H233917   2.680   3.663   1.515 -0.6581 -0.2163 -0.1000
 4168TIP3   OH233918   1.810   1.863  11.866 -0.0247 -0.6247 -0.3631
 4168TIP3    H133919   1.765   1.926  11.810 -1.2687 -0.2794  0.9617
 4168TIP3    H233920   1.865   1.813  11.807  0.2590  1.0642 -1.5938
 4169TIP3   OH233921   4.658   5.356   4.604 -0.1303 -0.0016  0.1901
 4169TIP3    H133922   4.583   5.362   4.662  0.5697 -2.3500  1.4733
 4169TIP3    H233923   4.653   5.268   4.568  1.9891 -0.2185  0.3146
 4170TIP3   OH233924   4.906   2.988   1.860  0.1310 -0.3789  0.7824
 4170TIP3    H133925   4.930   2.937   1.938  0.8821  0.6270  1.2315
 4170TIP3    H233926   4.868   3.068   1.895 -0.6646 -0.4458  0.0881
 4171TIP3   OH233927   1.906   5.026   1.188 -0.3494 -0.3619 -0.5152
 4171TIP3    H133928   1.932   4.947   1.235 -1.2740 -0.6210 -0.4100
 4171TIP3    H233929   1.810   5.024   1.189 -0.3877  0.7377 -0.5551
 4172TIP3   OH233930   0.727   6.337   2.357  0.2256 -0.2365 -0.4829
 4172TIP3    H133931   0.736   6.242   2.370  0.8237 -0.0654  0.4225
 4172TIP3    H233932   0.804   6.361   2.304  3.1171  0.5159  3.5816
 4173TIP3   OH233933   2.137   5.700   0.800 -0.3249  0.3496  0.0483
 4173TIP3    H133934   2.122   5.605   0.805  0.4306  0.2049 -0.3656
 4173TIP3    H233935   2.049   5.738   0.810 -0.7214 -0.4147 -0.4284
 4174TIP3   OH233936   0.377   5.063   2.822 -0.3211  0.3142  0.2975
 4174TIP3    H133937   0.334   5.052   2.906 -3.8214 -0.6680 -1.4048
 4174TIP3    H233938   0.412   5.152   2.824 -2.7182  1.3193  1.8801
 4175TIP3   OH233939   0.975   4.929  15.470  0.4414 -0.2925  0.5042
 4175TIP3    H133940   0.892   4.881  15.473  0.2261  0.1104  1.4666
 4175TIP3    H233941   0.962   4.993  15.400 -0.3827  0.3063  1.1804
 4176TIP3   OH233942   5.228   0.406  16.470  0.5143  0.5871  0.4062
 4176TIP3    H133943   5.211   0.362  16.553  0.9290  1.2881  0.8749
 4176TIP3    H233944   5.162   0.372  16.410  0.0159  0.3087  1.1095
 4177TIP3   OH233945   2.405   6.307  15.842  0.2562 -0.1497  0.0283
 4177TIP3    H133946   2.313   6.335  15.844 -0.0340 -1.0714  1.3566
 4177TIP3    H233947   2.454   6.384  15.870  0.1019  0.8997 -2.3572
 4178TIP3   OH233948   1.007   4.975   0.684  0.0623  0.2895 -0.4447
 4178TIP3    H133949   0.977   4.884   0.684  1.3129 -0.1403  0.0858
 4178TIP3    H233950   1.101   4.970   0.702  0.3467  1.6318 -1.3797
 4179TIP3   OH233951   2.005   5.655  16.455  0.0416 -0.1636  0.1053
 4179TIP3    H133952   1.917   5.692  16.452 -0.9221 -2.3151 -0.0256
 4179TIP3    H233953   2.037   5.659  16.364 -0.2974 -0.2413 -0.0154
 4180TIP3   OH233954   3.622   1.827  11.579  0.5736  0.0743 -0.2676
 4180TIP3    H133955   3.568   1.758  11.541  1.6940 -1.5341  0.9157
 4180TIP3    H233956   3.626   1.894  11.511 -3.4004  0.6254 -0.1866
 4181TIP3   OH233957   3.863   1.723  11.684 -0.1767  0.0387  0.6441
 4181TIP3    H133958   3.774   1.756  11.673 -0.5075 -0.7393  0.9517
 4181TIP3    H233959   3.919   1.795  11.654 -0.9399 -0.3635 -2.0175
 4182TIP3   OH233960   4.822   0.450   1.480  0.4923 -0.3850 -0.0334
 4182TIP3    H133961   4.861   0.483   1.399  1.4319 -1.5883 -0.0917
 4182TIP3    H233962   4.895   0.413   1.529 -0.4771 -2.2119  0.1158
 4183TIP3   OH233963   0.780   5.086   4.098  0.3481 -0.5997  0.3780
 4183TIP3    H133964   0.699   5.076   4.147  0.3145 -1.8160  0.1121
 4183TIP3    H233965   0.765   5.038   4.016  1.3572 -0.9280  0.3651
 4184TIP3   OH233966   3.383   3.662   6.017 -0.2643 -0.1819 -0.4171
 4184TIP3    H133967   3.384   3.646   6.111 -0.9269  0.8199 -0.2155
 4184TIP3    H233968   3.471   3.642   5.988  0.2407  0.4861  0.6054
 4185TIP3   OH233969   4.836   4.378   5.125  0.0664  0.0212 -0.3558
 4185TIP3    H133970   4.755   4.372   5.177  0.1587 -0.5065 -0.2757
 4185TIP3    H233971   4.906   4.357   5.187  0.0393 -2.7986 -1.1656
 4186TIP3   OH233972   0.466   1.763   0.847 -0.1273 -1.1507 -0.3227
 4186TIP3    H133973   0.470   1.857   0.830 -1.8711 -1.1729 -1.0285
 4186TIP3    H233974   0.539   1.747   0.907 -0.0300  0.7116  0.1301
 4187TIP3   OH233975   4.615   1.187  12.093 -0.0423  0.7922 -0.0299
 4187TIP3    H133976   4.699   1.154  12.124  0.6691  1.0127 -1.6178
 4187TIP3    H233977   4.550   1.128  12.132  1.0052 -0.7489 -0.5310
 4188TIP3   OH233978   2.953   0.018   5.244 -0.4205  0.3896  0.0945
 4188TIP3    H133979   3.001   0.066   5.311  0.3640  1.1733 -0.9901
 4188TIP3    H233980   2.862   0.019   5.274  0.0157  0.0073  1.5355
 4189TIP3   OH233981   4.385   3.043  11.044  0.0135  0.4541  0.7964
 4189TIP3    H133982   4.298   3.008  11.026 -0.4271  1.4753  0.8664
 4189TIP3    H233983   4.445   2.984  10.998 -0.6641 -0.5676  1.1885
 4190TIP3   OH233984   3.182   2.515  12.326  0.1759 -0.6583 -0.5083
 4190TIP3    H133985   3.226   2.519  12.411 -0.8417 -0.1355  0.0215
 4190TIP3    H233986   3.234   2.572  12.270  0.1211  0.0516  0.1390
 4191TIP3   OH233987   3.299   2.371   1.902  0.2075  0.0826  0.1681
 4191TIP3    H133988   3.331   2.447   1.853  0.3155  0.1980  0.4184
 4191TIP3    H233989   3.232   2.333   1.845 -1.9781  2.0375  1.2438
 4192TIP3   OH233990   6.789   2.116  14.015 -0.2892  0.8701 -0.1607
 4192TIP3    H133991   6.697   2.130  14.039 -0.4687  0.5198 -0.6223
 4192TIP3    H233992   6.786   2.093  13.922  0.0562 -1.1807  0.2751
 4193TIP3   OH233993   4.801   1.547  15.191  0.1456 -0.1144 -0.1018
 4193TIP3    H133994   4.769   1.458  15.207 -2.2453  0.7071  0.1369
 4193TIP3    H233995   4.749   1.577  15.116  1.5929  0.7858 -0.7861
 4194TIP3   OH233996   2.288   2.884   2.217 -0.1757 -0.0200 -0.3960
 4194TIP3    H133997   2.372   2.915   2.250 -0.0838 -1.3638  0.7279
 4194TIP3    H233998   2.252   2.959   2.169  1.5264  0.6622 -0.6863
 4195TIP3   OH233999   0.351   0.319  14.811 -0.2628 -0.1011 -0.0226
 4195TIP3    H134000   0.374   0.327  14.904  0.3732  0.3707 -0.2143
 4195TIP3    H234001   0.375   0.403  14.773 -0.4988 -0.3008 -0.6252
 4196TIP3   OH234002   0.522   2.871  11.964 -0.1813  0.0092 -0.5802
 4196TIP3    H134003   0.471   2.944  11.930 -0.9781 -1.0228 -1.6679
 4196TIP3    H234004   0.579   2.846  11.891  0.6980  0.0626  0.0681
 4197TIP3   OH234005   5.642   5.963   5.016  0.1332 -0.0140 -0.4554
 4197TIP3    H134006   5.670   6.054   5.028 -1.2427  0.3828 -0.0311
 4197TIP3    H234007   5.630   5.930   5.105 -1.0368 -0.0447 -0.6006
 4198TIP3   OH234008   4.455   6.527   0.023  0.3511  0.2145 -0.0337
 4198TIP3    H134009   4.511   6.449   0.021 -0.4360 -0.5429  2.4829
 4198TIP3    H234010   4.375   6.500  -0.022  0.0070 -0.5703  0.9931
 4199TIP3   OH234011   5.264   0.424  13.990 -0.4535 -0.4366 -0.3260
 4199TIP3    H134012   5.249   0.510  13.952 -0.4521 -0.8091 -1.1910
 4199TIP3    H234013   5.351   0.399  13.959 -0.2137 -0.5068  0.3931
 4200TIP3   OH234014   4.811   6.551   5.634 -0.0355  0.0671 -0.1054
 4200TIP3    H134015   4.846   6.470   5.597  0.0484  0.0418  0.0265
 4200TIP3    H234016   4.882   6.584   5.691 -1.3365 -1.6492  2.7277
 4201TIP3   OH234017   0.069   5.208   4.132  0.1983 -0.1209  0.5048
 4201TIP3    H134018   0.069   5.294   4.174  0.5381  0.4674 -0.6515
 4201TIP3    H234019   0.004   5.214   4.063  0.3370 -0.7504  0.3056
 4202TIP3   OH234020   6.402   2.321  16.412  0.2354 -0.1626 -0.5112
 4202TIP3    H134021   6.363   2.349  16.495  0.3321  0.9149 -0.8145
 4202TIP3    H234022   6.426   2.230  16.426  0.6325  0.1225  0.7892
 4203TIP3   OH234023   1.644   6.099  12.632 -0.0958  0.1761  0.6996
 4203TIP3    H134024   1.625   6.065  12.544  0.2100  0.9649  0.3224
 4203TIP3    H234025   1.569   6.155  12.653  0.1532  0.5316  0.6511
 4204TIP3   OH234026   2.743   6.412   3.802  0.6180 -0.1866  0.3722
 4204TIP3    H134027   2.830   6.451   3.793  0.4861  0.4896  1.7422
 4204TIP3    H234028   2.721   6.423   3.895 -0.2255 -1.8607  0.4074
 4205TIP3   OH234029   1.561   0.629   2.566 -0.0775  0.2364  0.3881
 4205TIP3    H134030   1.655   0.640   2.573  0.0319 -1.0159  1.2906
 4205TIP3    H234031   1.539   0.663   2.479  1.2409  0.2877  0.0530
 4206TIP3   OH234032   1.655   2.520  12.245  0.0481 -0.1625 -0.2863
 4206TIP3    H134033   1.702   2.594  12.284 -0.5540  1.4110 -2.3819
 4206TIP3    H234034   1.565   2.532  12.274  0.0523 -0.3631 -0.1963
 4207TIP3   OH234035   4.394   0.061   2.998  0.0121  0.3215  0.7785
 4207TIP3    H134036   4.440   0.070   2.914  0.9776 -0.2551  1.2243
 4207TIP3    H234037   4.433   0.128   3.054  0.2051 -0.0582  1.1078
 4208TIP3   OH234038   2.497   2.944   2.393  0.1385  0.4898 -0.6119
 4208TIP3    H134039   2.580   2.980   2.360  0.5132  1.2075  1.0184
 4208TIP3    H234040   2.524   2.871   2.448 -0.5182 -1.1334 -2.3474
 4209TIP3   OH234041   0.470   1.272   0.527  0.2723 -0.9609 -0.3618
 4209TIP3    H134042   0.551   1.254   0.574 -0.2621 -1.3909  0.4275
 4209TIP3    H234043   0.421   1.189   0.532 -1.5464  0.1193  1.9226
 4210TIP3   OH234044   4.431   6.412  14.448 -0.5889  0.0013  0.5472
 4210TIP3    H134045   4.395   6.487  14.401 -1.4278 -0.2359  0.7919
 4210TIP3    H234046   4.370   6.397  14.520 -1.3604 -1.9070 -0.4271
 4211TIP3   OH234047   0.223   6.005   1.940 -0.4387  0.5127 -0.0909
 4211TIP3    H134048   0.157   5.936   1.944 -2.0651  1.9252 -1.1082
 4211TIP3    H234049   0.202   6.054   1.860  2.2228  0.6820 -0.7774
 4212TIP3   OH234050   0.660   6.363  12.546  0.5800 -0.3888  0.7226
 4212TIP3    H134051   0.591   6.427  12.529  2.3848  0.9945 -2.1376
 4212TIP3    H234052   0.628   6.312  12.620 -2.2732  1.8951  1.2237
 4213TIP3   OH234053   6.438   6.791  16.227  0.0045 -0.0730 -0.1674
 4213TIP3    H134054   6.446   6.791  16.131  2.5563  1.9953 -0.0507
 4213TIP3    H234055   6.346   6.813  16.242 -0.9003 -2.1233 -2.0730
 4214TIP3   OH234056   4.549   4.943  14.830 -0.2453 -0.0590 -0.4179
 4214TIP3    H134057   4.513   4.855  14.830  0.9482 -0.6277 -2.3380
 4214TIP3    H234058   4.644   4.930  14.837 -0.0951  1.1158 -0.0530
 4215TIP3   OH234059   1.261   6.097  13.201 -0.1177  0.4514 -0.1816
 4215TIP3    H134060   1.256   6.190  13.223  0.5136  0.4377  0.0339
 4215TIP3    H234061   1.277   6.053  13.285  0.7940  0.2587 -0.4493
 4216TIP3   OH234062   4.495   0.222  11.035  0.3487 -0.0285  0.0178
 4216TIP3    H134063   4.504   0.312  11.002 -0.4466  0.3840  0.8877
 4216TIP3    H234064   4.441   0.178  10.969 -0.7133  0.6236  0.4214
 4217TIP3   OH234065   0.660   5.875   0.380 -0.3732 -0.1335  0.1592
 4217TIP3    H134066   0.621   5.954   0.342  0.4318  0.6852  1.0043
 4217TIP3    H234067   0.722   5.845   0.314  0.9027  1.1902  0.7068
 4218TIP3   OH234068   4.465   2.955   5.387 -0.5497  0.7663  0.1485
 4218TIP3    H134069   4.490   2.957   5.479  0.0344 -3.1265  0.2607
 4218TIP3    H234070   4.534   3.004   5.342  1.5545 -0.7683  1.4835
 4219TIP3   OH234071   6.445   5.585  13.718  0.3909  0.1642 -0.0758
 4219TIP3    H134072   6.369   5.638  13.694  0.1682  0.0188  0.2996
 4219TIP3    H234073   6.475   5.623  13.801  0.9439  0.4421 -0.3946
 4220TIP3   OH234074   4.686   1.912   2.949  0.0982 -0.0378 -0.4134
 4220TIP3    H134075   4.655   1.836   2.998 -1.4791  0.7465 -0.1210
 4220TIP3    H234076   4.721   1.875   2.867 -0.6463 -1.0798 -0.2851
 4221TIP3   OH234077   0.289   0.525  11.659  0.6342 -0.1522  0.3711
 4221TIP3    H134078   0.315   0.564  11.576  0.0558  1.4771  0.9109
 4221TIP3    H234079   0.265   0.435  11.637 -0.8924  0.6407 -1.5202
 4222TIP3   OH234080   0.751   3.858  15.417  0.1759 -0.0776 -0.6861
 4222TIP3    H134081   0.737   3.827  15.327 -2.0357 -3.6586  0.6456
 4222TIP3    H234082   0.800   3.787  15.459 -0.6245  0.5400  1.4123
 4223TIP3   OH234083   2.500   1.130   4.842 -0.2833 -0.2182  0.1150
 4223TIP3    H134084   2.589   1.164   4.851  0.2908 -1.3249 -1.1631
 4223TIP3    H234085   2.510   1.035   4.837 -1.6540 -0.4483  1.1474
 4224TIP3   OH234086   5.199   5.518  14.535  0.0846 -0.4012  0.4841
 4224TIP3    H134087   5.232   5.603  14.506 -1.4217 -0.0732 -0.3687
 4224TIP3    H234088   5.259   5.491  14.604  0.2438  1.6567  1.2109
 4225TIP3   OH234089   0.977   4.755  12.155  0.3816 -0.0361  0.0919
 4225TIP3    H134090   1.028   4.743  12.235 -0.6673 -0.5911  0.6987
 4225TIP3    H234091   1.041   4.784  12.090  0.9704  2.5293  1.6309
 4226TIP3   OH234092   4.110   0.577  12.590  0.1891  0.5889 -0.0532
 4226TIP3    H134093   4.122   0.482  12.588  2.0144  0.6858  2.0005
 4226TIP3    H234094   4.015   0.590  12.587 -0.0435 -1.1532 -2.4644
 4227TIP3   OH234095   5.290   0.670  16.567  0.0472 -0.5141  0.0298
 4227TIP3    H134096   5.375   0.701  16.537 -0.7401  0.2016 -1.5471
 4227TIP3    H234097   5.298   0.574  16.565  0.4329 -0.4666 -1.2488
 4228TIP3   OH234098   1.486   6.088   6.168  0.0032 -0.1035 -0.5950
 4228TIP3    H134099   1.539   6.009   6.153 -1.0477 -0.5586 -2.1107
 4228TIP3    H234100   1.523   6.126   6.248  3.2279  0.1358 -2.0610
 4229TIP3   OH234101   0.595   0.591   1.553  0.4312 -0.1825 -0.2016
 4229TIP3    H134102   0.569   0.564   1.465 -0.9014 -0.6166  0.2995
 4229TIP3    H234103   0.519   0.570   1.608  1.3275 -0.1540  1.0927
 4230TIP3   OH234104   3.586   4.675   3.523 -0.4266 -0.3040 -0.4972
 4230TIP3    H134105   3.625   4.725   3.595  0.1270 -1.6326  0.1481
 4230TIP3    H234106   3.660   4.630   3.481 -0.8747 -0.3514 -1.2563
 4231TIP3   OH234107   2.456   1.422  13.200  0.0352  0.5060  0.0129
 4231TIP3    H134108   2.534   1.448  13.248 -0.0346 -1.5538  1.3466
 4231TIP3    H234109   2.485   1.351  13.142 -0.7398  0.0343  0.1864
 4232TIP3   OH234110   4.300   1.824   4.623  0.2617 -0.0177  0.2293
 4232TIP3    H134111   4.336   1.759   4.683 -1.0843 -0.5177  0.5263
 4232TIP3    H234112   4.292   1.904   4.675  0.8404  0.0668  0.1878
 4233TIP3   OH234113   0.944   6.296   4.407  0.1281 -0.2334 -0.0501
 4233TIP3    H134114   0.884   6.270   4.477 -1.6571  1.1099 -0.9946
 4233TIP3    H234115   1.027   6.314   4.452 -0.7230 -0.2197  1.5836
 4234TIP3   OH234116   5.993   0.240   2.749 -0.1358 -0.2775  0.1804
 4234TIP3    H134117   6.071   0.259   2.698 -0.1081  0.3902  0.4658
 4234TIP3    H234118   6.006   0.286   2.832 -0.2655 -1.1858  0.7238
 4235TIP3   OH234119   2.430   4.436   1.052 -0.4247 -0.7732 -0.2018
 4235TIP3    H134120   2.456   4.527   1.063  0.0007 -1.0315  1.0828
 4235TIP3    H234121   2.394   4.432   0.963  0.6293  0.3825 -0.7150
 4236TIP3   OH234122   2.633   3.053  14.677  0.5028  0.4615 -0.4636
 4236TIP3    H134123   2.721   3.050  14.715  0.7609 -1.3850 -1.0877
 4236TIP3    H234124   2.575   3.056  14.753  1.0664 -1.0599  0.0873
 4237TIP3   OH234125   2.164   5.909  13.687 -0.7539 -0.2694  0.3931
 4237TIP3    H134126   2.081   5.954  13.703  0.7173  3.1610 -0.6868
 4237TIP3    H234127   2.181   5.921  13.593  0.5182 -1.7534  0.3848
 4238TIP3   OH234128   5.050   0.828   0.286 -0.5498  0.0665  0.0668
 4238TIP3    H134129   5.102   0.895   0.240 -0.8961 -1.0945 -2.1859
 4238TIP3    H234130   4.979   0.877   0.327  0.3869  1.3055  0.2717
 4239TIP3   OH234131   6.331   6.510  12.407  0.5329  0.4868  0.1836
 4239TIP3    H134132   6.326   6.569  12.482 -1.3586  0.3432  0.2147
 4239TIP3    H234133   6.299   6.562  12.333 -1.1784 -0.4456  0.2175
 4240TIP3   OH234134   2.026   3.954   6.233  0.1907  0.5465  0.6712
 4240TIP3    H134135   2.012   3.973   6.326  0.6892  0.0440  0.8591
 4240TIP3    H234136   2.047   3.860   6.231 -1.4968  0.1588 -0.1356
 4241TIP3   OH234137   6.137   0.967   3.426  0.2093 -0.3897 -0.2430
 4241TIP3    H134138   6.187   0.999   3.501 -0.2109  1.1845 -0.5813
 4241TIP3    H234139   6.201   0.920   3.373  0.4561 -1.7667  1.1935
 4242TIP3   OH234140   1.189   0.159   2.397  0.2628 -0.4516  0.2237
 4242TIP3    H134141   1.157   0.234   2.448 -0.6057  0.1057 -1.0804
 4242TIP3    H234142   1.284   0.161   2.407  0.3009  1.1680 -0.2070
 4243TIP3   OH234143   4.725   6.447  16.310  0.3404 -0.3826 -0.8997
 4243TIP3    H134144   4.649   6.479  16.359 -0.2114 -1.1401 -1.2447
 4243TIP3    H234145   4.734   6.509  16.237 -0.4389 -0.7334 -1.3071
 4244TIP3   OH234146   2.553   6.059   0.435  0.0197  0.7684  0.1526
 4244TIP3    H134147   2.567   6.142   0.390  0.4660  0.5556 -0.1024
 4244TIP3    H234148   2.587   6.073   0.523  0.5207  0.7092 -0.0307
 4245TIP3   OH234149   2.669   1.208  14.945  0.2474  0.0615  0.1016
 4245TIP3    H134150   2.680   1.257  15.027  2.3950 -0.9661  0.5146
 4245TIP3    H234151   2.699   1.119  14.967  0.3761 -0.3575 -1.6642
 4246TIP3   OH234152   3.760   6.151  12.012 -0.5821 -0.0840 -0.0238
 4246TIP3    H134153   3.837   6.112  11.970 -0.7276  0.5312 -0.8922
 4246TIP3    H234154   3.768   6.245  11.994 -1.3305  0.0329  0.2166
 4247TIP3   OH234155   1.551   4.301  11.791  0.1831  0.2066  0.1102
 4247TIP3    H134156   1.583   4.238  11.727  1.1271  2.0067 -1.2643
 4247TIP3    H234157   1.468   4.264  11.822  0.8304 -1.8002 -0.4524
 4248TIP3   OH234158   2.600   5.452  12.902  0.6867  0.2402  0.2784
 4248TIP3    H134159   2.516   5.438  12.948  0.2968  0.2866 -0.4090
 4248TIP3    H234160   2.596   5.543  12.873  1.1469  0.3557  0.5804
 4249TIP3   OH234161   2.585   0.805  13.178 -0.0815  0.1621  0.8112
 4249TIP3    H134162   2.536   0.799  13.260  1.2342 -0.9353  1.5495
 4249TIP3    H234163   2.656   0.742  13.187 -2.2205 -3.2608 -2.8423
 4250TIP3   OH234164   2.301   0.738  13.770  0.6668  0.3399 -0.1857
 4250TIP3    H134165   2.227   0.780  13.814 -0.0649 -0.9646 -0.1070
 4250TIP3    H234166   2.372   0.801  13.776 -1.0484  2.7069 -2.3585
 4251TIP3   OH234167   0.007   3.319   6.545 -0.6039 -0.2459  0.7510
 4251TIP3    H134168  -0.084   3.294   6.558 -0.8675 -0.0086 -0.5580
 4251TIP3    H234169   0.004   3.387   6.478  0.5429 -0.2390  0.6908
 4252TIP3   OH234170   3.187   3.981   0.047 -0.3461  0.0794 -0.0731
 4252TIP3    H134171   3.257   3.940   0.098  0.5212  0.7019 -0.7343
 4252TIP3    H234172   3.113   3.920   0.054  0.6550 -1.2062 -0.3825
 4253TIP3   OH234173   2.672   0.549  12.096 -0.0349  0.2422 -0.6228
 4253TIP3    H134174   2.601   0.520  12.038 -0.4582 -1.7475  0.7952
 4253TIP3    H234175   2.713   0.468  12.126  1.0927  1.2678  0.7207
 4254TIP3   OH234176   6.670   2.665  11.935  0.0501 -0.0240  0.4665
 4254TIP3    H134177   6.706   2.720  11.865 -1.4575  0.9308  0.3985
 4254TIP3    H234178   6.700   2.577  11.914  1.9627  0.6531  0.1934
 4255TIP3   OH234179   0.939   2.832   1.468  0.0755  0.5099  0.2897
 4255TIP3    H134180   1.001   2.855   1.537 -0.0879  2.4624 -0.1600
 4255TIP3    H234181   0.977   2.868   1.388 -0.6863 -0.0138 -0.3273
 4256TIP3   OH234182   1.291   0.941  14.828  0.3478  0.5857 -0.1275
 4256TIP3    H134183   1.354   0.915  14.760  0.8235  0.1516  0.4619
 4256TIP3    H234184   1.346   0.975  14.899 -0.1023  0.4367  0.2939
 4257TIP3   OH234185   5.685   1.219   4.614  0.0574  0.0545 -0.0548
 4257TIP3    H134186   5.670   1.310   4.638 -1.7035  0.2752 -1.7627
 4257TIP3    H234187   5.631   1.169   4.675  0.2072  0.2157  0.2113
 4258TIP3   OH234188   5.785   6.762  16.192 -0.2121  0.2850  0.1415
 4258TIP3    H134189   5.734   6.768  16.111  1.0501  0.6842 -0.6505
 4258TIP3    H234190   5.866   6.717  16.166  0.0434  0.0609  1.2745
 4259TIP3   OH234191   1.283   0.068  16.526 -0.3750 -0.2938  0.3081
 4259TIP3    H134192   1.296   0.101  16.615 -2.3811  1.5964 -0.0258
 4259TIP3    H234193   1.245   0.142  16.478 -1.7254 -2.0374 -1.4518
 4260TIP3   OH234194   1.512   4.629  13.492  0.2886 -0.1929 -0.0106
 4260TIP3    H134195   1.574   4.669  13.552 -0.0992  0.2261  0.1156
 4260TIP3    H234196   1.443   4.593  13.548 -0.7728  1.3771 -0.2315
 4261TIP3   OH234197   3.815   4.676  11.367  0.3641 -0.2445 -1.0693
 4261TIP3    H134198   3.736   4.703  11.320  2.0790  2.7927 -2.5073
 4261TIP3    H234199   3.792   4.687  11.460 -1.1539 -0.3133 -1.4068
 4262TIP3   OH234200   3.682   0.165   2.591  0.4025 -0.2973  0.5466
 4262TIP3    H134201   3.751   0.117   2.637  0.0486 -0.8317  0.5187
 4262TIP3    H234202   3.645   0.102   2.529  0.5741  0.2831 -0.1639
 4263TIP3   OH234203   4.429   0.990  15.280 -0.5323  0.9266  0.8084
 4263TIP3    H134204   4.345   1.027  15.307 -1.1579 -0.9172  1.5536
 4263TIP3    H234205   4.467   1.057  15.223 -3.1138  1.2741 -0.6614
 4264TIP3   OH234206   3.514   2.265   0.566 -0.1892 -0.0035 -0.0458
 4264TIP3    H134207   3.497   2.353   0.599 -1.8353  0.1163 -1.1135
 4264TIP3    H234208   3.569   2.278   0.489  1.0507 -0.0729  0.7901
 4265TIP3   OH234209   4.632   1.697   3.166 -0.1083  0.4086  0.6620
 4265TIP3    H134210   4.553   1.751   3.170 -0.6641 -0.3574  0.3566
 4265TIP3    H234211   4.616   1.625   3.228 -0.2723 -0.5296 -0.4333
 4266TIP3   OH234212   5.519   2.697  10.496  0.1513  0.1168  0.4236
 4266TIP3    H134213   5.431   2.727  10.475  0.0430 -0.4450  0.0295
 4266TIP3    H234214   5.577   2.765  10.462 -0.1061  0.1626  0.0714
 4267TIP3   OH234215   3.880   4.758   0.653  0.3677  0.4607  0.1734
 4267TIP3    H134216   3.816   4.692   0.629  0.9845 -0.5976  1.3086
 4267TIP3    H234217   3.828   4.831   0.688 -0.2803  0.2332 -0.3062
 4268TIP3   OH234218   4.362   1.300   2.374 -0.1130  0.2142  0.1775
 4268TIP3    H134219   4.409   1.269   2.451 -2.4407 -1.5705  0.9889
 4268TIP3    H234220   4.431   1.333   2.316  2.2031 -2.5455  1.1094
 4269TIP3   OH234221   5.885   4.239  11.406  0.1693 -0.3106  0.5178
 4269TIP3    H134222   5.911   4.225  11.497  0.1717 -1.6316  0.3379
 4269TIP3    H234223   5.942   4.309  11.375  0.1250  0.1940  1.5475
 4270TIP3   OH234224   3.750   4.739  13.168 -0.0643  0.2971 -0.1749
 4270TIP3    H134225   3.837   4.704  13.154  0.1811  0.1280  1.5285
 4270TIP3    H234226   3.735   4.798  13.094  1.6830  0.7032 -0.2424
 4271TIP3   OH234227   4.947   5.302  13.211 -0.3352  0.0146 -0.1647
 4271TIP3    H134228   4.940   5.353  13.292 -0.7158 -0.6400  0.2249
 4271TIP3    H234229   5.018   5.240  13.229 -0.5486 -0.2556 -0.2647
 4272TIP3   OH234230   4.163   0.241   5.543  0.1086 -0.1672  0.3238
 4272TIP3    H134231   4.224   0.201   5.606 -0.2886 -0.7002  0.3796
 4272TIP3    H234232   4.220   0.287   5.481  0.6667 -1.6503 -0.3166
 4273TIP3   OH234233   5.699   6.484   2.940  0.5159 -0.2235  0.1739
 4273TIP3    H134234   5.742   6.561   2.901  1.5708 -0.8252  0.1074
 4273TIP3    H234235   5.646   6.448   2.869  0.1746  0.3306  0.1469
 4274TIP3   OH234236   4.744   5.378  12.575 -0.6970 -0.4562  0.0484
 4274TIP3    H134237   4.751   5.459  12.525 -0.3618 -0.9255 -0.6723
 4274TIP3    H234238   4.740   5.308  12.509 -0.5103 -1.0616  0.6619
 4275TIP3   OH234239   3.844   2.133  15.562  0.1847 -0.3791  0.3005
 4275TIP3    H134240   3.908   2.064  15.582  0.6089  0.1413  0.7641
 4275TIP3    H234241   3.765   2.107  15.609  0.2540 -0.6992  0.2396
 4276TIP3   OH234242   0.538   3.341   4.661 -0.3330 -0.2785  0.2083
 4276TIP3    H134243   0.520   3.266   4.604 -1.3873  2.3193 -3.2411
 4276TIP3    H234244   0.476   3.408   4.633  0.2440  1.7958  3.4124
 4277TIP3   OH234245   3.738   1.373  14.976 -0.5310  0.2003 -0.2747
 4277TIP3    H134246   3.775   1.339  14.895  0.5606 -0.9293  0.6524
 4277TIP3    H234247   3.697   1.296  15.017  0.4268  0.3523  1.0334
 4278TIP3   OH234248   2.772   4.982   1.799  0.3561 -0.8118 -0.8679
 4278TIP3    H134249   2.763   4.954   1.890  0.3995 -3.5261 -1.5912
 4278TIP3    H234250   2.862   4.959   1.776  0.0292 -1.1364 -1.8757
 4279TIP3   OH234251   2.106   4.314  14.533 -0.2991 -0.0195  0.6442
 4279TIP3    H134252   2.108   4.224  14.502 -0.6798  0.4701 -0.8740
 4279TIP3    H234253   2.157   4.313  14.614  2.0555 -1.0981 -0.7457
 4280TIP3   OH234254   1.486   1.711   2.662 -0.2433  0.4887 -0.6291
 4280TIP3    H134255   1.440   1.706   2.746  0.5791  0.1679 -0.1855
 4280TIP3    H234256   1.573   1.743   2.685  0.6970 -1.5942 -1.0832
 4281TIP3   OH234257   3.944   2.970   4.005 -0.0076  0.1440  0.1582
 4281TIP3    H134258   4.037   2.992   4.010 -0.3201  1.3027  1.2808
 4281TIP3    H234259   3.938   2.882   4.043  0.6690 -0.1404 -0.3633
 4282TIP3   OH234260   5.262   1.932   5.189  0.2937  0.7120  0.2146
 4282TIP3    H134261   5.299   1.970   5.269  0.3330  0.3010  0.3940
 4282TIP3    H234262   5.169   1.920   5.209  0.1807  1.1555 -0.0142
 4283TIP3   OH234263   2.404   1.871  12.783 -0.0477 -0.0515 -0.0011
 4283TIP3    H134264   2.453   1.946  12.751  0.3127 -0.5884 -0.7446
 4283TIP3    H234265   2.399   1.884  12.877  0.0819  0.8573 -0.1125
 4284TIP3   OH234266   1.927   2.475  16.214 -0.2074  0.0522 -0.3177
 4284TIP3    H134267   1.943   2.420  16.290 -0.0977  1.0162  0.3806
 4284TIP3    H234268   1.983   2.552  16.228  0.3663 -0.0883 -1.7402
 4285TIP3   OH234269   3.002   3.405   3.887 -0.0709 -0.3745 -0.9016
 4285TIP3    H134270   2.933   3.342   3.908  0.5296 -0.2264  1.9372
 4285TIP3    H234271   3.083   3.364   3.921  0.3618  1.7338  0.8063
 4286TIP3   OH234272   4.077   3.732   3.952  0.0915  0.5283  0.3274
 4286TIP3    H134273   4.160   3.704   3.989  0.7029  2.0492  0.1836
 4286TIP3    H234274   4.050   3.806   4.007 -0.1150  1.3688 -0.8590
 4287TIP3   OH234275   6.388   0.773  11.684 -0.5769  0.1520  0.9679
 4287TIP3    H134276   6.438   0.795  11.605  0.5748  1.7659  2.0796
 4287TIP3    H234277   6.379   0.677  11.681  1.7020 -0.0950  0.1647
 4288TIP3   OH234278   4.070   6.144  12.707 -0.0716 -0.0017  0.5607
 4288TIP3    H134279   4.033   6.088  12.775 -1.7459 -1.7148 -1.6558
 4288TIP3    H234280   4.033   6.112  12.625  2.9377  1.0489 -1.3892
 4289TIP3   OH234281   4.196   1.731  13.504 -0.1249  0.1176 -0.2549
 4289TIP3    H134282   4.185   1.638  13.526  2.4304 -0.4160 -0.9564
 4289TIP3    H234283   4.209   1.732  13.409 -0.7282  1.2871 -0.3456
 4290TIP3   OH234284   6.052   6.583  11.857  0.4784 -0.2682 -0.9591
 4290TIP3    H134285   6.092   6.670  11.864  0.5352 -0.3835  0.2853
 4290TIP3    H234286   6.125   6.522  11.858  0.4152 -0.6863  4.2948
 4291TIP3   OH234287   5.022   4.046   1.353  0.0375 -0.1084  0.0539
 4291TIP3    H134288   5.072   4.004   1.283  1.0850 -0.6475  1.0823
 4291TIP3    H234289   4.961   3.978   1.382 -0.1272 -0.0156 -0.0752
 4292TIP3   OH234290   2.960   6.652  17.136 -0.3972  0.1823 -0.4852
 4292TIP3    H134291   2.953   6.736  17.091 -0.9529  0.1950 -0.3842
 4292TIP3    H234292   2.872   6.636  17.169 -0.1000 -0.0479  0.1999
 4293TIP3   OH234293   6.391   6.297  14.589  0.1208  0.4016  0.2733
 4293TIP3    H134294   6.313   6.261  14.631 -1.1340  1.1026 -1.3622
 4293TIP3    H234295   6.416   6.372  14.644  0.0156 -0.1817  1.1277
 4294TIP3   OH234296   6.574   4.031   4.845  0.2062  0.1095 -0.2293
 4294TIP3    H134297   6.527   4.013   4.763 -2.0088 -0.4322  1.0712
 4294TIP3    H234298   6.596   4.123   4.840 -1.0250  0.3985 -0.9448
 4295TIP3   OH234299   4.411   6.623   3.881  0.4679  0.0630  0.1077
 4295TIP3    H134300   4.374   6.668   3.805  0.2281 -0.1287  0.1061
 4295TIP3    H234301   4.347   6.553   3.900  0.4118  0.2527  0.6232
 4296TIP3   OH234302   2.077   5.715   1.643  0.4204 -0.1455  0.1929
 4296TIP3    H134303   2.149   5.659   1.671  0.2412 -0.5191 -0.0834
 4296TIP3    H234304   2.088   5.796   1.694  0.1915 -0.7495  1.2083
 4297TIP3   OH234305   0.086   0.427  10.679  0.6044  0.1060  0.2326
 4297TIP3    H134306   0.013   0.382  10.722 -0.2554 -0.3937 -1.6528
 4297TIP3    H234307   0.062   0.520  10.682 -1.1056 -0.1975 -2.0323
 4298TIP3   OH234308   5.272   6.032  14.575 -0.1608  0.1859  0.2458
 4298TIP3    H134309   5.292   6.048  14.483 -0.0934  0.1289  0.2512
 4298TIP3    H234310   5.357   6.035  14.619 -0.2085  0.3660  0.3293
 4299TIP3   OH234311   6.254   3.474   6.057 -0.0920  0.2139 -0.0432
 4299TIP3    H134312   6.303   3.550   6.025 -2.4220  1.5022 -0.8291
 4299TIP3    H234313   6.297   3.399   6.017  1.2890  1.2389 -0.5753
 4300TIP3   OH234314   2.802   2.501   3.488 -0.0034  0.1611  0.0754
 4300TIP3    H134315   2.733   2.558   3.522 -0.7272 -1.3925  1.3644
 4300TIP3    H234316   2.757   2.443   3.427  0.3134 -0.3710  0.3407
 4301TIP3   OH234317   4.947   1.112  17.122 -0.0478  0.4279 -0.0053
 4301TIP3    H134318   4.907   1.115  17.208  2.6562 -0.4869  1.4066
 4301TIP3    H234319   4.959   1.018  17.104 -0.4955  0.6067 -1.3445
 4302TIP3   OH234320   3.460   0.218  16.011  0.1568  0.1414 -0.2938
 4302TIP3    H134321   3.525   0.153  15.981 -0.3418  0.4416 -2.1355
 4302TIP3    H234322   3.408   0.171  16.077  1.8901 -0.2573  0.8712
 4303TIP3   OH234323   1.116   2.594   5.274 -0.1956 -0.0743  0.7918
 4303TIP3    H134324   1.184   2.550   5.326  0.2709 -0.3061 -0.0018
 4303TIP3    H234325   1.069   2.648   5.337 -0.1423 -0.9520  1.6048
 4304TIP3   OH234326   5.968   1.958   2.289  0.5802 -0.1807  0.0028
 4304TIP3    H134327   6.040   2.004   2.331 -0.4360  1.4464  0.0344
 4304TIP3    H234328   5.991   1.955   2.196  0.4142  0.8905 -0.0798
 4305TIP3   OH234329   3.599   0.848   0.253  0.5537  0.9028 -0.6624
 4305TIP3    H134330   3.593   0.807   0.167 -1.3241  1.1731 -0.7065
 4305TIP3    H234331   3.691   0.839   0.278  0.5640 -1.8432 -1.3832
 4306TIP3   OH234332   0.947   3.374  15.981  0.1474 -0.1752 -0.0463
 4306TIP3    H134333   0.865   3.390  16.027 -0.4210 -2.0430 -0.3293
 4306TIP3    H234334   0.994   3.457  15.985 -0.1034 -0.0731  3.3753
 4307TIP3   OH234335   5.220   3.141   1.851  0.1301 -0.3039 -0.5846
 4307TIP3    H134336   5.152   3.076   1.830  0.8117 -1.4474  0.5580
 4307TIP3    H234337   5.254   3.112   1.936  0.6381  1.4342 -0.1649
 4308TIP3   OH234338   1.335   1.323   5.836  0.1114 -0.1574 -0.2521
 4308TIP3    H134339   1.274   1.259   5.871 -2.6113  1.9661 -0.7118
 4308TIP3    H234340   1.280   1.399   5.814  3.0916  2.3951  0.3653
 4309TIP3   OH234341   0.781   2.892  15.039  0.3113 -0.5620 -0.2014
 4309TIP3    H134342   0.792   2.963  14.976 -0.4608  0.3560  0.6674
 4309TIP3    H234343   0.695   2.855  15.019 -1.5562  1.9518  2.3641
 4310TIP3   OH234344   6.563   3.626  11.187  0.5298  0.7985  0.5110
 4310TIP3    H134345   6.585   3.573  11.111 -2.5848  1.2903 -0.8737
 4310TIP3    H234346   6.534   3.709  11.151  0.9671  1.8405  2.4085
 4311TIP3   OH234347   1.352   5.889  14.519  0.3689  0.3040  0.4387
 4311TIP3    H134348   1.376   5.862  14.430 -1.9342  2.5585 -1.0329
 4311TIP3    H234349   1.405   5.834  14.576  1.3564 -1.8337 -2.2989
 4312TIP3   OH234350   0.858   5.436   2.802 -0.4449 -0.6800 -0.3632
 4312TIP3    H134351   0.837   5.406   2.713 -0.2890  0.1926 -0.7046
 4312TIP3    H234352   0.946   5.473   2.794 -2.2207  4.0448 -1.0816
 4313TIP3   OH234353   2.736   5.844  14.220  0.2540 -1.0830 -0.2723
 4313TIP3    H134354   2.656   5.847  14.167 -1.6417  2.2937  2.3855
 4313TIP3    H234355   2.727   5.764  14.272 -2.4922  0.0971  1.2783
 4314TIP3   OH234356   2.199   0.534   1.058 -0.2275 -0.3571 -0.7444
 4314TIP3    H134357   2.125   0.571   1.106 -0.6828 -2.2668  0.0957
 4314TIP3    H234358   2.199   0.441   1.080  2.7426 -0.3422 -0.2983
 4315TIP3   OH234359   6.410   4.983   5.763  0.3556 -0.1709  0.0132
 4315TIP3    H134360   6.441   4.987   5.673  1.2122 -0.2923  0.2907
 4315TIP3    H234361   6.486   5.009   5.816 -0.1672  0.0277  0.6960
 4316TIP3   OH234362   1.700   2.728  13.178 -0.1187  0.0420 -0.4573
 4316TIP3    H134363   1.609   2.701  13.169  0.2670 -0.9906 -1.5156
 4316TIP3    H234364   1.702   2.816  13.141 -0.7223  0.1470 -0.2570
 4317TIP3   OH234365   3.438   1.985  16.076 -0.6660  0.4765  0.2911
 4317TIP3    H134366   3.463   1.915  16.137  1.8020 -0.6138 -1.8252
 4317TIP3    H234367   3.498   2.057  16.096  0.5953 -0.1249 -1.2130
 4318TIP3   OH234368   0.209   1.472  14.781  0.5545 -0.4663  0.4448
 4318TIP3    H134369   0.132   1.414  14.778  1.1954 -1.2919 -0.8280
 4318TIP3    H234370   0.174   1.556  14.811 -1.3947 -0.0745 -2.5015
 4319TIP3   OH234371   0.617   4.444  17.092  0.0584 -0.4734 -0.0994
 4319TIP3    H134372   0.649   4.521  17.045  0.4995 -1.3374 -1.2714
 4319TIP3    H234373   0.693   4.386  17.097  0.2921 -0.0520  2.5490
 4320TIP3   OH234374   4.072   1.556   1.721  0.1504 -0.4227 -0.1418
 4320TIP3    H134375   4.158   1.532   1.755  0.3817  0.0231 -0.4088
 4320TIP3    H234376   4.053   1.640   1.761 -0.6270 -1.0003  0.7366
 4321TIP3   OH234377   4.383   6.190  12.000  0.0956  0.0569  0.4817
 4321TIP3    H134378   4.300   6.237  12.002 -1.1090 -1.8897 -0.1714
 4321TIP3    H234379   4.370   6.121  11.934  2.8183  0.6730 -0.8332
 4322TIP3   OH234380   2.373   2.742   3.611 -0.4709  0.1698  0.0891
 4322TIP3    H134381   2.297   2.730   3.667 -1.5916 -2.2556 -1.8244
 4322TIP3    H234382   2.338   2.751   3.523  1.3226  2.6602 -0.5028
 4323TIP3   OH234383   4.789   3.231   6.427 -0.0072 -0.1553  0.2387
 4323TIP3    H134384   4.849   3.292   6.469  1.3404  0.0423 -1.8214
 4323TIP3    H234385   4.771   3.165   6.495  0.2287  1.3191  1.8077
 4324TIP3   OH234386   2.287   6.738   1.603 -0.3242 -0.1513  0.5158
 4324TIP3    H134387   2.246   6.726   1.518 -1.0001  0.2185  0.7826
 4324TIP3    H234388   2.350   6.809   1.589 -1.4296  0.8932  0.6375
 4325TIP3   OH234389   1.117   4.254   4.282 -0.5944 -0.0161  0.5980
 4325TIP3    H134390   1.053   4.234   4.213 -1.5264  1.9130  0.8244
 4325TIP3    H234391   1.179   4.181   4.279 -1.2646 -0.5880 -1.4869
 4326TIP3   OH234392   6.450   2.851  12.757 -0.2580  0.6135  0.0800
 4326TIP3    H134393   6.453   2.887  12.668 -0.2238  0.1353 -0.1132
 4326TIP3    H234394   6.357   2.853  12.780 -0.2508  0.8769  0.0922
 4327TIP3   OH234395   4.525   1.097  11.471 -0.0251 -0.3627 -0.0852
 4327TIP3    H134396   4.593   1.148  11.425  1.3467 -2.3129 -0.3566
 4327TIP3    H234397   4.455   1.087  11.406 -0.1906  0.8966 -0.1191
 4328TIP3   OH234398   6.365   1.120  14.130  0.6615 -0.3674 -0.3090
 4328TIP3    H134399   6.312   1.132  14.209  0.3311 -2.6576 -0.1145
 4328TIP3    H234400   6.340   1.192  14.073  0.0906  0.6997  1.2389
 4329TIP3   OH234401   4.514   1.090   1.934  0.2733  0.0810 -0.4528
 4329TIP3    H134402   4.541   1.067   1.845 -0.8489  0.3904 -0.8912
 4329TIP3    H234403   4.474   1.011   1.969  0.0835  0.1682 -0.4740
 4330TIP3   OH234404   6.278   4.998  10.613  0.3357 -0.7448 -0.7754
 4330TIP3    H134405   6.246   4.908  10.625  3.5502 -1.7462  1.5367
 4330TIP3    H234406   6.258   5.042  10.696  2.2385 -0.5736 -0.3596
 4331TIP3   OH234407   2.602   4.591   1.289 -0.8501 -0.2328 -0.1255
 4331TIP3    H134408   2.554   4.508   1.285 -1.0156 -0.1016 -1.0628
 4331TIP3    H234409   2.693   4.565   1.304 -1.1905 -0.4779  1.8735
 4332TIP3   OH234410   6.061   6.149   5.039 -0.0388  0.2660 -0.2704
 4332TIP3    H134411   6.088   6.058   5.050  0.5727  0.6486  1.8623
 4332TIP3    H234412   6.011   6.169   5.118  0.4375  1.9781 -0.3656
 4333TIP3   OH234413   6.261   3.298  15.661 -0.0282  0.5551 -0.0766
 4333TIP3    H134414   6.286   3.372  15.606  2.1048  0.7673  1.0820
 4333TIP3    H234415   6.193   3.333  15.719 -0.1085  1.1648 -0.5291
 4334TIP3   OH234416   4.616   2.486   0.474  0.4353 -0.0498  0.0699
 4334TIP3    H134417   4.632   2.543   0.549 -0.2086 -0.6654  0.6736
 4334TIP3    H234418   4.575   2.408   0.510  0.1776 -0.3833 -0.9126
 4335TIP3   OH234419   4.850   4.677  13.254 -1.0707  0.0718  0.0089
 4335TIP3    H134420   4.932   4.662  13.207 -0.3021  1.2059  0.8938
 4335TIP3    H234421   4.874   4.742  13.321 -2.8500  0.9557 -0.1618
 4336TIP3   OH234422   2.499   3.546   4.326  0.2181  0.6755  0.5438
 4336TIP3    H134423   2.441   3.533   4.252 -0.4035  0.0060  1.1426
 4336TIP3    H234424   2.556   3.619   4.299 -0.5964  1.0441 -0.2165
 4337TIP3   OH234425   4.716   0.373   5.567 -0.1658  0.2877  0.2484
 4337TIP3    H134426   4.694   0.444   5.506 -0.6002 -0.0776 -0.0282
 4337TIP3    H234427   4.751   0.304   5.512 -0.2048  0.1007  0.4575
 4338TIP3   OH234428   2.972   1.613   1.185 -0.0541 -0.3317  0.1239
 4338TIP3    H134429   2.976   1.683   1.120 -0.0900  0.1328  0.6195
 4338TIP3    H234430   3.021   1.540   1.145  0.2964  0.0977 -0.2377
 4339TIP3   OH234431   0.000   6.695   2.853 -0.1895 -0.4788  0.0537
 4339TIP3    H134432   0.031   6.765   2.912  0.3524 -3.6669  4.0303
 4339TIP3    H234433   0.080   6.651   2.826 -0.6166 -0.7624 -0.7560
 4340TIP3   OH234434   2.979   5.121  11.902 -0.0881 -0.4639  0.4842
 4340TIP3    H134435   3.073   5.108  11.894  0.0461  0.0665  1.0569
 4340TIP3    H234436   2.942   5.033  11.897  0.3840 -0.6226 -0.3315
 4341TIP3   OH234437   5.087   4.284   3.743  0.0464 -0.1759 -0.4145
 4341TIP3    H134438   4.994   4.290   3.766  0.0863 -0.5001 -0.1667
 4341TIP3    H234439   5.102   4.191   3.726 -0.0595  0.0841 -2.1276
 4342TIP3   OH234440   5.025   2.597  11.241  0.0631 -0.4939 -0.1813
 4342TIP3    H134441   5.089   2.622  11.308  0.5899  0.3023 -0.9641
 4342TIP3    H234442   4.942   2.633  11.273  0.5460  1.0391 -0.5710
 4343TIP3   OH234443   1.177   4.162  14.549  0.3321 -0.1987  0.1753
 4343TIP3    H134444   1.226   4.080  14.557  1.0509  0.3432  1.8493
 4343TIP3    H234445   1.109   4.156  14.616  0.3270  0.5190  0.2423
 4344TIP3   OH234446   3.743   4.848  13.794 -0.3598  0.0460  0.2575
 4344TIP3    H134447   3.716   4.816  13.879  0.0782  0.7107  0.6559
 4344TIP3    H234448   3.743   4.943  13.803  1.7313  0.0965  0.1668
 4345TIP3   OH234449   4.123   4.383  16.501 -0.0765 -0.3590 -0.0307
 4345TIP3    H134450   4.218   4.390  16.492  0.0729 -2.3218 -0.3105
 4345TIP3    H234451   4.091   4.378  16.411 -0.1455 -2.5699  0.0603
 4346TIP3   OH234452   1.947   1.953   3.716 -0.2739 -1.2515  0.3235
 4346TIP3    H134453   1.883   1.995   3.774  1.4319  0.1264  1.3032
 4346TIP3    H234454   1.944   1.861   3.740  1.1579 -0.6131  3.5540
 4347TIP3   OH234455   6.352   4.469  12.286  0.3814 -0.4806 -0.4996
 4347TIP3    H134456   6.336   4.447  12.378  1.1181 -2.0611 -0.7166
 4347TIP3    H234457   6.405   4.397  12.253  0.9098  0.5173 -1.9358
 4348TIP3   OH234458   2.794   1.794  10.825  0.2315  0.1976 -0.7503
 4348TIP3    H134459   2.722   1.781  10.887  0.7705 -0.0897 -0.1773
 4348TIP3    H234460   2.812   1.888  10.829  0.1010  0.2196 -0.6605
 4349TIP3   OH234461   1.633   3.847  10.444 -0.0305  0.2987  0.0529
 4349TIP3    H134462   1.670   3.936  10.446 -0.1659  0.3481  1.5647
 4349TIP3    H234463   1.558   3.851  10.504 -0.2594 -0.7535 -0.1462
 4350TIP3   OH234464   0.324   3.102   6.204 -0.0497 -0.0928  0.5846
 4350TIP3    H134465   0.413   3.068   6.195  0.3994  1.0808  0.3131
 4350TIP3    H234466   0.333   3.174   6.267 -0.8901 -0.2455  0.8849
 4351TIP3   OH234467   0.811   3.538  16.788  0.0515  0.5176  0.1721
 4351TIP3    H134468   0.871   3.464  16.786  0.2223  0.6515 -1.5480
 4351TIP3    H234469   0.732   3.505  16.830  0.9057  0.0145  1.4295
 4352TIP3   OH234470   3.991   3.830  12.731  0.1553  0.2051  0.3340
 4352TIP3    H134471   3.926   3.761  12.742 -1.0992  1.3292  0.2686
 4352TIP3    H234472   3.973   3.866  12.644  2.2942 -0.8501 -0.6090
 4353TIP3   OH234473   4.891   4.862   2.830 -0.7207  0.1300 -0.4081
 4353TIP3    H134474   4.831   4.862   2.904  0.0882  0.6388  0.2639
 4353TIP3    H234475   4.857   4.929   2.770  0.1658  1.7707  0.8259
 4354TIP3   OH234476   1.143   3.511   5.013 -0.0365 -0.0661 -0.7313
 4354TIP3    H134477   1.164   3.465   4.931  0.8173 -0.3105 -0.3911
 4354TIP3    H234478   1.051   3.537   5.004 -0.3771 -1.3468 -1.1778
 4355TIP3   OH234479   6.733   1.260  14.298 -0.2220  0.2046  0.0862
 4355TIP3    H134480   6.761   1.234  14.386 -3.8894  0.1437  1.4142
 4355TIP3    H234481   6.711   1.178  14.254 -1.5829  0.3632  0.4073
 4356TIP3   OH234482   3.200   4.349   3.037  0.0675 -0.3373 -0.2669
 4356TIP3    H134483   3.140   4.385   3.103  0.4074 -0.2426 -0.0067
 4356TIP3    H234484   3.223   4.263   3.071 -1.0256 -0.9738 -1.0649
 4357TIP3   OH234485   4.763   4.989   5.349  0.1856  0.1955  0.0082
 4357TIP3    H134486   4.841   5.023   5.306  0.1013  0.2259 -0.1189
 4357TIP3    H234487   4.786   4.899   5.373 -0.4715 -0.5333 -1.9234
 4358TIP3   OH234488   4.559   2.295   3.744  0.6741 -0.4210 -0.4268
 4358TIP3    H134489   4.557   2.201   3.730 -1.5584 -0.2492 -1.5960
 4358TIP3    H234490   4.649   2.321   3.723  1.3793 -2.2758  0.1221
 4359TIP3   OH234491   3.738   1.562  14.520  0.0368 -0.6137 -0.4854
 4359TIP3    H134492   3.689   1.630  14.475  0.3176 -0.3457 -0.3861
 4359TIP3    H234493   3.799   1.529  14.455  0.2814 -0.3885 -0.3699
 4360TIP3   OH234494   2.994   6.345  17.174 -0.3275  0.3883 -0.1349
 4360TIP3    H134495   2.934   6.354  17.249 -0.9712  0.4166 -0.6461
 4360TIP3    H234496   3.049   6.423  17.178 -0.3830  0.4066  0.2898
 4361TIP3   OH234497   1.346   2.311   5.945 -0.3430  0.3920  0.2328
 4361TIP3    H134498   1.361   2.244   6.012 -0.1056 -0.6409 -0.8184
 4361TIP3    H234499   1.413   2.377   5.962 -0.3377  0.1909  1.0587
 4362TIP3   OH234500   4.324   1.980   6.667  0.8608  0.3871  0.3707
 4362TIP3    H134501   4.245   1.930   6.687  1.2140 -0.2569  0.1910
 4362TIP3    H234502   4.308   2.016   6.580  1.0715 -0.3965 -0.0064
 4363TIP3   OH234503   5.780   2.602  17.213  0.2708 -0.0452 -0.3986
 4363TIP3    H134504   5.770   2.626  17.305 -1.3688  0.7570 -0.7370
 4363TIP3    H234505   5.829   2.520  17.215  1.4181  0.6268  1.1028
 4364TIP3   OH234506   2.370   2.434   0.467  0.3962  0.0237 -0.2151
 4364TIP3    H134507   2.393   2.381   0.391 -0.5920 -0.6234 -0.0878
 4364TIP3    H234508   2.414   2.391   0.541 -3.1991 -2.9741  0.5249
 4365TIP3   OH234509   1.770   6.374  17.219 -0.1118  0.1054 -0.0087
 4365TIP3    H134510   1.772   6.395  17.313  1.5394 -0.7809  0.1805
 4365TIP3    H234511   1.841   6.425  17.181 -1.0261  0.7784 -0.8910
 4366TIP3   OH234512   4.667   2.726   6.400 -0.1316 -0.3195 -0.7487
 4366TIP3    H134513   4.600   2.697   6.463 -0.3689 -1.7183 -1.5962
 4366TIP3    H234514   4.619   2.780   6.337  0.3470  2.2845  0.9502
 4367TIP3   OH234515   6.688   4.369   5.669  0.7460 -0.0820 -0.0405
 4367TIP3    H134516   6.682   4.351   5.763  0.5847 -2.4176 -0.4475
 4367TIP3    H234517   6.781   4.356   5.648  1.0387  1.6785 -0.0317
 4368TIP3   OH234518   1.160   2.089  15.222 -0.7123  0.2178 -0.5344
 4368TIP3    H134519   1.230   2.024  15.211 -1.3583 -0.3487 -1.4287
 4368TIP3    H234520   1.175   2.152  15.151  0.6052  1.7477  1.0075
 4369TIP3   OH234521   3.242   5.698   4.274 -0.5270 -0.2196 -0.2275
 4369TIP3    H134522   3.307   5.659   4.333 -0.4537  1.2036  0.6734
 4369TIP3    H234523   3.293   5.731   4.200 -0.5692 -1.5995 -0.9090
 4370TIP3   OH234524   5.924   1.634  15.769 -0.2783  0.0239 -0.3422
 4370TIP3    H134525   5.936   1.576  15.693 -0.2385  0.5262 -0.7259
 4370TIP3    H234526   5.842   1.606  15.809  0.1611 -0.8473 -0.0310
 4371TIP3   OH234527   3.410   3.787   5.158 -0.0916  0.3048  0.3971
 4371TIP3    H134528   3.457   3.838   5.225  0.5458 -0.8342  0.8594
 4371TIP3    H234529   3.470   3.783   5.084 -0.0191  0.0043  0.4693
 4372TIP3   OH234530   0.643   3.309   3.373 -0.8010 -0.5301  0.3260
 4372TIP3    H134531   0.731   3.273   3.388 -1.5043 -1.5438  2.3316
 4372TIP3    H234532   0.645   3.340   3.283  1.6897 -0.3230  0.3813
 4373TIP3   OH234533   5.588   1.066  17.028 -0.1824 -0.8123 -0.1394
 4373TIP3    H134534   5.547   1.123  17.094 -0.8856 -1.7581  0.2788
 4373TIP3    H234535   5.653   1.121  16.985 -1.4198  0.5596 -0.3475
 4374TIP3   OH234536   0.117   3.025  14.378  0.0300 -0.0113  0.4138
 4374TIP3    H134537   0.175   3.056  14.449  1.4701  2.3578 -1.6334
 4374TIP3    H234538   0.176   2.983  14.316 -0.7100  0.6176 -0.7547
 4375TIP3   OH234539   4.514   1.541   6.178 -0.1253  0.0324  0.5364
 4375TIP3    H134540   4.465   1.613   6.137  0.7829 -0.1785 -0.9963
 4375TIP3    H234541   4.450   1.470   6.186 -0.1121 -0.2949 -1.5884
 4376TIP3   OH234542   2.145   0.198  15.153  0.2487 -0.4844  0.0121
 4376TIP3    H134543   2.161   0.137  15.081 -1.4015 -1.2119  0.2241
 4376TIP3    H234544   2.060   0.237  15.133 -0.1123 -0.5110  1.4368
 4377TIP3   OH234545   5.084   2.910   5.671 -0.2615 -0.0196 -0.4814
 4377TIP3    H134546   5.021   2.945   5.734  1.5890  0.3206  1.2688
 4377TIP3    H234547   5.059   2.818   5.661 -0.1610 -0.2823  1.3620
 4378TIP3   OH234548   0.773   3.481   3.107 -0.4433  0.0729 -0.0716
 4378TIP3    H134549   0.699   3.468   3.048 -1.3027 -0.8520  1.1569
 4378TIP3    H234550   0.844   3.431   3.067 -1.5722 -2.2568  0.6190
 4379TIP3   OH234551   3.821   5.228  11.082  0.4773  0.9914 -0.0506
 4379TIP3    H134552   3.879   5.166  11.037 -1.3986  0.2485 -1.6171
 4379TIP3    H234553   3.854   5.314  11.057  0.9047  0.5805 -0.9387
 4380TIP3   OH234554   1.378   5.072   5.945 -0.0123 -0.1329 -0.3223
 4380TIP3    H134555   1.470   5.060   5.972 -0.2436 -1.3559  0.0063
 4380TIP3    H234556   1.360   4.995   5.890 -0.7864  0.1968 -0.5348
 4381TIP3   OH234557   1.539   5.015   2.407 -0.1621 -0.1135 -0.4329
 4381TIP3    H134558   1.479   5.029   2.480 -1.2639  0.0849 -1.3296
 4381TIP3    H234559   1.484   5.029   2.329  0.7132 -1.2987 -1.2988
 4382TIP3   OH234560   4.284   2.947   3.221  0.0654  0.1844  1.0293
 4382TIP3    H134561   4.210   2.961   3.281 -1.0001  3.9420 -0.8573
 4382TIP3    H234562   4.343   3.020   3.239 -0.0507  1.1482 -1.9644
 4383TIP3   OH234563   6.545   5.532  16.681  0.0271  0.0924 -0.1514
 4383TIP3    H134564   6.586   5.476  16.747 -0.6211  0.9867  1.0485
 4383TIP3    H234565   6.453   5.537  16.706 -0.2904  0.2789 -1.2659
 4384TIP3   OH234566   0.099   5.349  12.309  0.3268 -0.2553  0.0348
 4384TIP3    H134567   0.100   5.415  12.378  0.5883  0.6232 -0.7839
 4384TIP3    H234568   0.007   5.337  12.288  0.3054  0.3140 -0.2250
 4385TIP3   OH234569   4.584   3.482  13.559  0.7241  0.2445 -0.2123
 4385TIP3    H134570   4.501   3.440  13.535  0.7261 -0.4316  0.9180
 4385TIP3    H234571   4.601   3.454  13.648  1.0030  2.2365  0.4276
 4386TIP3   OH234572   5.243   5.228  16.312  0.5606 -0.3085 -0.1359
 4386TIP3    H134573   5.263   5.180  16.231 -2.4507 -1.0327 -0.5984
 4386TIP3    H234574   5.239   5.319  16.284  1.8066 -0.2836 -0.2756
 4387TIP3   OH234575   3.309   0.610  16.671  0.4493  0.0389 -0.0121
 4387TIP3    H134576   3.347   0.549  16.608  0.5441 -0.7658  0.8087
 4387TIP3    H234577   3.225   0.570  16.694 -0.7556  1.5824 -1.4964
 4388TIP3   OH234578   1.945   5.610  12.606  0.5401 -0.4159 -0.1960
 4388TIP3    H134579   1.973   5.597  12.516  1.0013 -1.7447  0.1158
 4388TIP3    H234580   1.951   5.523  12.646  0.1603  0.1098  1.0595
 4389TIP3   OH234581   6.566   6.010  16.024  0.0374 -1.3548  0.4820
 4389TIP3    H134582   6.563   6.094  15.979  2.2883 -1.9004 -0.8394
 4389TIP3    H234583   6.560   6.031  16.117 -1.1829  0.0768  0.1141
 4390TIP3   OH234584   5.156   5.068   3.288 -0.1039 -0.4488 -0.6938
 4390TIP3    H134585   5.114   5.027   3.212 -4.5871 -0.9849  1.7096
 4390TIP3    H234586   5.128   5.159   3.284  2.7128  0.4965 -1.4413
 4391TIP3   OH234587   5.086   6.598  14.128  0.1504 -0.3251 -0.3907
 4391TIP3    H134588   5.100   6.521  14.072  0.5802 -0.4115 -0.1661
 4391TIP3    H234589   4.990   6.605  14.136  0.1151 -1.8521  0.9774
 4392TIP3   OH234590   4.759   2.414  12.253  0.1741 -0.3901 -0.5963
 4392TIP3    H134591   4.801   2.355  12.316  0.8183  0.2867 -0.3729
 4392TIP3    H234592   4.668   2.418  12.281  0.5078  0.1288  0.4880
 4393TIP3   OH234593   2.184   5.668  16.689 -0.1973  0.4362  0.7616
 4393TIP3    H134594   2.116   5.683  16.623 -1.7474 -0.6189  2.0625
 4393TIP3    H234595   2.224   5.754  16.702 -0.7745  0.9315 -0.5460
 4394TIP3   OH234596   6.464   4.033   1.441  0.4559 -0.0027 -0.1856
 4394TIP3    H134597   6.403   3.975   1.486 -1.8120  1.2976 -1.4386
 4394TIP3    H234598   6.527   3.974   1.399  0.1545 -1.3741  1.1899
 4395TIP3   OH234599   0.949   1.734  15.702  0.1890 -0.2748  0.4093
 4395TIP3    H134600   0.872   1.745  15.647 -0.2513 -0.7806  0.9124
 4395TIP3    H234601   1.018   1.706  15.642  0.5754  2.1634 -0.4220
 4396TIP3   OH234602   0.851   2.476   1.386  0.4636 -0.6152  0.2457
 4396TIP3    H134603   0.799   2.399   1.361  0.6158 -0.4077 -0.7635
 4396TIP3    H234604   0.786   2.544   1.403  0.3565 -0.6695  0.0641
 4397TIP3   OH234605   1.634   3.508  14.297 -0.3244  0.8318 -0.0248
 4397TIP3    H134606   1.584   3.431  14.322  0.8250  0.0447 -0.0844
 4397TIP3    H234607   1.609   3.575  14.361  1.2325 -0.6250  2.2607
 4398TIP3   OH234608   6.273   0.249   2.864  0.4208 -0.3744 -0.3995
 4398TIP3    H134609   6.231   0.228   2.781 -0.6206  1.6589 -0.4545
 4398TIP3    H234610   6.366   0.258   2.844  0.2671 -0.5669 -1.2088
 4399TIP3   OH234611   2.970   5.114  12.810 -0.1583  0.0650  0.2096
 4399TIP3    H134612   3.005   5.122  12.898 -1.1780 -0.8309  0.7258
 4399TIP3    H234613   3.046   5.124  12.752  1.3820 -3.5884  1.2877
 4400TIP3   OH234614   3.710   1.609   4.934  0.3510  0.1141 -0.3980
 4400TIP3    H134615   3.731   1.638   4.846  0.3885 -0.6872 -0.6627
 4400TIP3    H234616   3.648   1.675   4.967 -0.9033 -0.4013 -1.6126
 4401TIP3   OH234617   0.503   2.496  15.085 -0.0116  0.4377  0.1066
 4401TIP3    H134618   0.547   2.420  15.124 -0.4912 -0.0403 -0.2634
 4401TIP3    H234619   0.434   2.458  15.031  0.6325  1.0893 -1.2018
 4402TIP3   OH234620   2.930   5.392  13.855 -0.7061 -0.1978  0.2022
 4402TIP3    H134621   2.885   5.391  13.940 -1.1743  0.5864 -0.0182
 4402TIP3    H234622   2.910   5.479  13.820 -0.1916 -0.3785 -0.5378
 4403TIP3   OH234623   0.849   3.073  11.853  0.2727 -0.2037  0.1029
 4403TIP3    H134624   0.941   3.076  11.879  0.5780 -0.4180 -0.9105
 4403TIP3    H234625   0.814   3.158  11.880  0.8195 -0.0292  0.2859
 4404TIP3   OH234626   0.853   5.751  16.373 -0.5353 -0.5904 -0.0032
 4404TIP3    H134627   0.782   5.780  16.430 -2.4845 -0.7669 -2.2081
 4404TIP3    H234628   0.834   5.790  16.288  1.5190 -1.4030 -0.9126
 4405TIP3   OH234629   2.360   6.487   1.210 -0.4391 -0.2499 -0.5706
 4405TIP3    H134630   2.401   6.431   1.275 -0.0056 -1.3124 -1.7093
 4405TIP3    H234631   2.302   6.545   1.260  1.6671  0.6172  0.9759
 4406TIP3   OH234632   0.723   1.297   3.117  0.1151 -0.4610 -0.1222
 4406TIP3    H134633   0.719   1.356   3.192  1.0421  0.3230 -0.6550
 4406TIP3    H234634   0.631   1.281   3.093 -0.2470  3.0616 -1.6786
 4407TIP3   OH234635   5.307   4.324  16.536 -0.0941  0.0793  0.3061
 4407TIP3    H134636   5.238   4.304  16.473  0.3406  0.2296 -0.2266
 4407TIP3    H234637   5.261   4.354  16.614 -0.6075  1.7362 -0.5861
 4408TIP3   OH234638   2.828   2.963   6.159  0.6463 -0.3927  0.2122
 4408TIP3    H134639   2.920   2.990   6.155  0.7263 -0.6083  0.5656
 4408TIP3    H234640   2.784   3.035   6.206  0.3255  0.4999 -1.3679
 4409TIP3   OH234641   2.366   1.984   6.444 -0.3270  0.0129 -0.0010
 4409TIP3    H134642   2.284   1.972   6.492 -0.6385 -1.5016 -0.8448
 4409TIP3    H234643   2.417   1.905   6.462  0.4765  0.4240 -0.4031
 4410TIP3   OH234644   3.403   1.674  13.035 -0.4038 -0.0951 -0.5492
 4410TIP3    H134645   3.445   1.759  13.034  0.3964 -0.4672  0.2123
 4410TIP3    H234646   3.313   1.692  13.063 -0.3985  0.5536 -0.9350
 4411TIP3   OH234647   3.570   1.595   1.525  0.3496  0.0120 -0.1080
 4411TIP3    H134648   3.551   1.644   1.444  0.5304  1.3335  0.6112
 4411TIP3    H234649   3.657   1.625   1.551  0.4121 -0.6169  0.4219
 4412TIP3   OH234650   1.836   4.196   3.689  0.0985  0.8272  0.9829
 4412TIP3    H134651   1.756   4.218   3.643 -1.3773  0.7489  3.3733
 4412TIP3    H234652   1.826   4.104   3.711  0.6755  0.9180  1.6441
 4413TIP3   OH234653   0.453   6.068  12.369  0.0420 -0.0731  0.3790
 4413TIP3    H134654   0.477   6.124  12.295  5.1625 -1.7124  0.3937
 4413TIP3    H234655   0.432   5.984  12.330  2.3549 -0.8273  0.6187
 4414TIP3   OH234656   2.528   6.026   2.262 -0.2897 -0.4468 -0.5626
 4414TIP3    H134657   2.583   5.951   2.284 -0.0338 -0.0811  0.0487
 4414TIP3    H234658   2.442   6.005   2.299  0.2390  0.3462  1.1829
 4415TIP3   OH234659   5.627   1.316  17.213  0.3557  0.0155 -0.2387
 4415TIP3    H134660   5.577   1.396  17.232 -0.5163 -0.9303  1.7687
 4415TIP3    H234661   5.718   1.341  17.229  0.2732  1.0142 -1.2137
 4416TIP3   OH234662   5.711   6.367  15.457  0.4819  0.5106 -0.2877
 4416TIP3    H134663   5.676   6.371  15.368  1.4982  0.3073 -0.7105
 4416TIP3    H234664   5.680   6.283  15.491 -0.0612  0.6712 -0.3864
 4417TIP3   OH234665   3.971   1.690   0.846 -0.7882 -0.1413  0.2445
 4417TIP3    H134666   3.952   1.673   0.754 -1.6440  0.6444  0.2581
 4417TIP3    H234667   4.031   1.765   0.845 -0.4659 -0.3972  0.3151
 4418TIP3   OH234668   5.815   1.195  13.366  0.2103  0.1169  0.3035
 4418TIP3    H134669   5.837   1.257  13.436 -1.0868  0.0521  0.8137
 4418TIP3    H234670   5.889   1.198  13.306  0.4399  1.7268  0.6240
 4419TIP3   OH234671   0.338   4.551  14.522 -0.3070 -0.3970  0.7954
 4419TIP3    H134672   0.412   4.575  14.578 -1.3797  0.5779  1.8590
 4419TIP3    H234673   0.346   4.610  14.447 -0.6986  0.6060  1.5160
 4420TIP3   OH234674   4.560   6.590  10.932 -0.2319  0.7053  0.1961
 4420TIP3    H134675   4.592   6.591  10.841  0.7696  1.7951  0.5256
 4420TIP3    H234676   4.505   6.513  10.937  1.4197 -0.6158 -0.7626
 4421TIP3   OH234677   6.523   0.050   0.171  0.3344  0.5609  0.1788
 4421TIP3    H134678   6.570  -0.031   0.189  1.5046  1.4639  1.3992
 4421TIP3    H234679   6.584   0.119   0.196 -1.0960  1.8154  0.3595
 4422TIP3   OH234680   3.127   0.251   3.620 -0.1996 -0.2005 -0.5829
 4422TIP3    H134681   3.082   0.333   3.640  0.4821  0.0406  0.0016
 4422TIP3    H234682   3.114   0.239   3.526 -1.5965 -0.2209 -0.3985
 4423TIP3   OH234683   5.028   1.047   4.615  0.2990  0.6270  0.5962
 4423TIP3    H134684   4.946   1.056   4.566  0.4241  0.7127  0.4025
 4423TIP3    H234685   5.060   1.136   4.625  0.9127  0.5214 -0.2642
 4424TIP3   OH234686   3.147   0.751   0.797  0.4176 -0.1007 -0.0076
 4424TIP3    H134687   3.168   0.709   0.714 -0.2687  2.2563 -1.4499
 4424TIP3    H234688   3.051   0.746   0.803  0.4348  0.0488  0.4774
 4425TIP3   OH234689   0.738   6.124   5.322 -0.1701  0.4872  0.1586
 4425TIP3    H134690   0.680   6.197   5.342 -1.4261  0.2719 -2.3016
 4425TIP3    H234691   0.699   6.083   5.244  0.2499 -3.0288  1.5910
 4426TIP3   OH234692   2.552   4.772  14.154 -0.0549  0.1438  0.1240
 4426TIP3    H134693   2.610   4.841  14.186  1.0876 -0.7312  0.0062
 4426TIP3    H234694   2.582   4.693  14.200 -1.0380 -0.3623 -0.0840
 4427TIP3   OH234695   0.679   1.879   1.346 -0.3054 -0.5396  0.1144
 4427TIP3    H134696   0.738   1.943   1.385 -2.4285  2.3126 -1.0465
 4427TIP3    H234697   0.616   1.860   1.415  0.1677 -1.2284  0.3700
 4428TIP3   OH234698   0.855   3.618   2.223  0.1756  0.6733 -0.0621
 4428TIP3    H134699   0.787   3.625   2.156  1.6191 -0.3817 -1.7213
 4428TIP3    H234700   0.824   3.547   2.281 -1.3015  1.9043  0.7242
 4429TIP3   OH234701   0.787   5.409   3.810  0.3880 -0.3670 -0.2897
 4429TIP3    H134702   0.839   5.396   3.731  0.3461  1.7355 -0.7206
 4429TIP3    H234703   0.841   5.375   3.881  1.1058 -0.8049 -1.0377
 4430TIP3   OH234704   4.591   3.462   4.090  0.4654  0.2046 -0.2705
 4430TIP3    H134705   4.534   3.428   4.160  0.0568  2.1464  0.3966
 4430TIP3    H234706   4.678   3.429   4.112  0.6480  2.0737  2.1158
 4431TIP3   OH234707   0.392   5.399   1.776 -0.3655 -0.3378 -0.5171
 4431TIP3    H134708   0.385   5.346   1.856 -1.8309 -0.0078 -0.4055
 4431TIP3    H234709   0.339   5.352   1.712 -3.7439  2.0506  0.2155
 4432TIP3   OH234710   2.272   2.212   3.173  0.0479 -0.0772 -0.1755
 4432TIP3    H134711   2.315   2.190   3.256  0.2210 -1.0037 -0.5059
 4432TIP3    H234712   2.342   2.209   3.108 -0.4292 -1.2872 -0.6674
 4433TIP3   OH234713   3.623   3.335  15.984 -0.4417  0.3362  0.1174
 4433TIP3    H134714   3.532   3.334  16.014 -1.3292 -0.3142 -2.3058
 4433TIP3    H234715   3.617   3.365  15.893  1.5313 -1.4855 -0.6954
 4434TIP3   OH234716   1.250   1.148  12.871 -0.0275 -0.5256 -0.1128
 4434TIP3    H134717   1.163   1.135  12.835 -0.0027 -2.4286  0.4309
 4434TIP3    H234718   1.256   1.243  12.885 -1.9268 -0.3363 -0.3299
 4435TIP3   OH234719   0.698   4.347   1.355  0.7442  0.2975 -0.5871
 4435TIP3    H134720   0.646   4.390   1.286  0.1239 -1.4756 -1.2678
 4435TIP3    H234721   0.789   4.356   1.325  0.5221  0.0466 -1.3511
 4436TIP3   OH234722   4.717   1.212   3.069  0.1023 -0.4645 -0.0952
 4436TIP3    H134723   4.787   1.277   3.076  0.9601 -1.2224 -1.1739
 4436TIP3    H234724   4.727   1.157   3.147  1.2997 -1.0855 -0.6499
 4437TIP3   OH234725   0.895   3.666  14.195 -0.1918  0.3155  0.2848
 4437TIP3    H134726   0.846   3.688  14.275  0.7186  1.3394  0.5879
 4437TIP3    H234727   0.966   3.610  14.225  1.0382  1.9072  0.4642
 4438TIP3   OH234728   2.387   4.652  13.981  0.5542 -0.8952  0.0171
 4438TIP3    H134729   2.446   4.703  14.036  0.6706 -1.3237  0.2955
 4438TIP3    H234730   2.415   4.561  13.993 -0.5618 -1.1839  0.6773
 4439TIP3   OH234731   4.316   2.281   0.346  0.2932  0.2532  0.7237
 4439TIP3    H134732   4.362   2.309   0.267  1.8939  2.2147  2.2540
 4439TIP3    H234733   4.385   2.246   0.402 -0.7949 -0.9692  1.3337
 4440TIP3   OH234734   1.382   2.933  15.212 -0.0134  0.6061 -0.2151
 4440TIP3    H134735   1.452   2.899  15.269 -2.1854  0.3028  2.5148
 4440TIP3    H234736   1.369   3.022  15.243 -1.0378  0.5381 -0.4470
 4441TIP3   OH234737   6.758   3.448  13.196  0.2731 -0.1548  0.0215
 4441TIP3    H134738   6.674   3.437  13.150  0.0131  0.5426  0.3095
 4441TIP3    H234739   6.811   3.500  13.135  1.6705 -3.1648 -1.5483
 4442TIP3   OH234740   5.782   5.257   4.347 -0.3882 -0.2386  0.2128
 4442TIP3    H134741   5.738   5.212   4.419  0.8442 -0.9788  0.5175
 4442TIP3    H234742   5.803   5.343   4.382 -3.3155  0.9322 -0.5704
 4443TIP3   OH234743   3.998   6.265   1.121  0.0654 -0.4874 -0.3245
 4443TIP3    H134744   3.922   6.244   1.066 -0.1068  1.5621 -0.9470
 4443TIP3    H234745   4.073   6.232   1.071 -0.1805  0.3799 -1.3163
 4444TIP3   OH234746   5.938   6.783   1.955 -0.1654  0.3412  0.2586
 4444TIP3    H134747   5.854   6.829   1.954  0.4270  1.4739 -1.6996
 4444TIP3    H234748   5.985   6.821   2.029 -0.9156  0.5466  0.6401
 4445TIP3   OH234749   0.945   3.332   0.090 -0.2834 -0.2155  0.1886
 4445TIP3    H134750   0.926   3.366   0.177  0.3230 -0.7742  0.5484
 4445TIP3    H234751   0.873   3.364   0.035 -0.6447  0.1748  0.8816
 4446TIP3   OH234752   1.864   1.078   4.150 -0.0614 -0.1355  0.0593
 4446TIP3    H134753   1.847   1.162   4.108  0.8626 -0.2908 -0.6742
 4446TIP3    H234754   1.787   1.025   4.129 -0.5105  0.4224  0.2706
 4447TIP3   OH234755   1.112   5.908  13.783  0.0663 -0.3117  0.4975
 4447TIP3    H134756   1.127   5.949  13.697 -0.3935 -1.0421  0.0573
 4447TIP3    H234757   1.198   5.876  13.809  0.5150  1.2018  1.0152
 4448TIP3   OH234758   1.024   0.576   1.810 -0.3337  0.4556 -0.4886
 4448TIP3    H134759   1.028   0.665   1.774 -0.1104 -0.7019 -3.6122
 4448TIP3    H234760   1.072   0.582   1.892 -0.1495  3.1795 -0.6964
 4449TIP3   OH234761   0.420   6.589  13.280  0.2948 -0.0082  0.3256
 4449TIP3    H134762   0.417   6.652  13.351  0.2905 -0.3582  0.6396
 4449TIP3    H234763   0.364   6.517  13.308  1.3529 -0.7608  0.5754
 4450TIP3   OH234764   3.554   5.298   3.618 -0.3209  0.0574  0.0059
 4450TIP3    H134765   3.641   5.338   3.615 -0.1873 -0.1415  0.9336
 4450TIP3    H234766   3.568   5.208   3.591  0.1331 -0.5454  2.0874
 4451TIP3   OH234767   2.147   0.423  14.942  0.1489  0.0287 -0.4421
 4451TIP3    H134768   2.167   0.394  14.853 -0.6954 -0.8541 -0.3551
 4451TIP3    H234769   2.092   0.354  14.979 -0.4086  0.8893  0.3988
 4452TIP3   OH234770   4.499   6.308   6.173  0.3648 -0.0384  0.1109
 4452TIP3    H134771   4.578   6.338   6.128  0.5057 -0.8358 -0.1736
 4452TIP3    H234772   4.443   6.273   6.104 -0.2907  0.6016  0.2986
 4453TIP3   OH234773   4.069   0.357  15.042  0.4245  0.2715  0.8630
 4453TIP3    H134774   4.063   0.262  15.031 -1.2568  0.3111  1.1356
 4453TIP3    H234775   4.148   0.370  15.095  1.5489 -0.8305 -0.4665
 4454TIP3   OH234776   4.037   6.241  14.851 -0.1430  0.0918 -0.5901
 4454TIP3    H134777   4.112   6.281  14.807 -0.2969 -0.6562 -1.5818
 4454TIP3    H234778   3.963   6.259  14.792 -0.4796 -0.3735 -0.3152
 4455TIP3   OH234779   4.626   2.565  13.997 -0.3989 -0.7257 -0.3815
 4455TIP3    H134780   4.712   2.527  14.014 -0.0479  0.3361  0.3172
 4455TIP3    H234781   4.617   2.562  13.902  1.5873  1.5224 -0.7410
 4456TIP3   OH234782   0.056   1.374  16.560 -0.3409 -0.1567  0.1145
 4456TIP3    H134783   0.106   1.454  16.546 -0.7358  0.3679  1.5392
 4456TIP3    H234784  -0.001   1.368  16.484  0.4622  0.3128 -0.5468
 4457TIP3   OH234785   2.419   5.816   1.916  0.5419  0.6177  0.0850
 4457TIP3    H134786   2.436   5.910   1.920  0.9869  0.5636 -0.4267
 4457TIP3    H234787   2.334   5.809   1.871 -0.2823  0.8334  1.5478
 4458TIP3   OH234788   5.508   4.634   3.078  0.3038  0.3512 -0.1315
 4458TIP3    H134789   5.513   4.578   2.999 -1.2489  0.4439 -0.3315
 4458TIP3    H234790   5.523   4.573   3.150  2.6156  0.4076 -0.4820
 4459TIP3   OH234791   1.438   4.267   0.693  0.5778  0.5391  0.0912
 4459TIP3    H134792   1.510   4.312   0.738  0.3030  1.5671 -0.4708
 4459TIP3    H234793   1.452   4.174   0.713  0.9869  0.8854  1.5179
 4460TIP3   OH234794   2.569   6.205   3.669  0.0692 -0.6696 -0.1691
 4460TIP3    H134795   2.623   6.134   3.634 -1.2831 -0.8107 -2.1481
 4460TIP3    H234796   2.631   6.273   3.693  1.3948 -2.4081  1.6195
 4461TIP3   OH234797   1.087   5.823  16.109 -0.1032 -0.3974  0.6238
 4461TIP3    H134798   1.115   5.912  16.087 -3.0257  0.3971 -0.3008
 4461TIP3    H234799   1.115   5.810  16.200 -0.2304  1.7593  1.0070
 4462TIP3   OH234800   4.160   5.444  14.481 -0.2367 -0.4221 -0.0449
 4462TIP3    H134801   4.083   5.455  14.537 -0.4106 -0.5910 -0.2520
 4462TIP3    H234802   4.151   5.357  14.444 -1.0948  0.3439 -1.7810
 4463TIP3   OH234803   1.571   4.362  12.669  0.0896 -0.4022  0.5682
 4463TIP3    H134804   1.509   4.297  12.634  0.9842 -0.5654 -0.7544
 4463TIP3    H234805   1.528   4.395  12.748 -1.3271 -1.0930  0.1216
 4464TIP3   OH234806   5.614   0.124  12.280  0.6980 -0.1134 -0.0644
 4464TIP3    H134807   5.645   0.211  12.308 -0.0655  0.5996 -1.3336
 4464TIP3    H234808   5.613   0.129  12.184  0.6680 -1.5549 -0.1578
 4465TIP3   OH234809   3.401   5.126   4.590 -0.7630  0.4002  0.1862
 4465TIP3    H134810   3.459   5.084   4.653 -0.9424 -1.2546 -0.6674
 4465TIP3    H234811   3.372   5.054   4.534 -0.0744  1.8597 -2.2077
 4466TIP3   OH234812   5.909   6.328   4.243  0.1829  0.2658  0.2381
 4466TIP3    H134813   5.950   6.242   4.258  0.2704  0.6302  2.4572
 4466TIP3    H234814   5.834   6.309   4.187  0.8190 -1.0754 -0.2144
 4467TIP3   OH234815   4.753   0.971   0.734 -0.3064  0.6322  0.5932
 4467TIP3    H134816   4.763   0.899   0.796  2.2298  2.2084  2.1917
 4467TIP3    H234817   4.780   0.935   0.650 -0.6201 -0.6697  1.0340
 4468TIP3   OH234818   0.791   6.778   1.828 -0.3188  0.3661 -0.0708
 4468TIP3    H134819   0.753   6.733   1.903 -0.7623  0.6476 -0.1226
 4468TIP3    H234820   0.807   6.709   1.763 -1.0504  0.2869 -0.1765
 4469TIP3   OH234821   6.136   2.193   4.919  0.3915 -0.0396 -0.2058
 4469TIP3    H134822   6.102   2.198   5.009 -1.3855 -0.2280 -0.8356
 4469TIP3    H234823   6.058   2.193   4.864  1.4766  1.3068 -1.8303
 4470TIP3   OH234824   0.846   1.280   5.083  0.5869 -0.4700  0.5256
 4470TIP3    H134825   0.925   1.329   5.058  0.9481 -1.2492  0.1201
 4470TIP3    H234826   0.831   1.305   5.174  1.2134 -0.1998  0.5610
 4471TIP3   OH234827   4.933   5.855  11.704 -0.4023  0.8163  0.1572
 4471TIP3    H134828   4.845   5.828  11.678  0.0901 -1.8010  0.9406
 4471TIP3    H234829   4.936   5.840  11.798  1.0964  0.1791  0.0334
 4472TIP3   OH234830   4.795   3.607  11.169 -0.1169  0.2039 -0.4137
 4472TIP3    H134831   4.788   3.693  11.128  0.0501  0.3776 -0.0888
 4472TIP3    H234832   4.752   3.618  11.254 -0.5670 -0.1829 -0.5873
 4473TIP3   OH234833   1.969   6.543  10.690  0.0469  0.0334  0.3793
 4473TIP3    H134834   1.912   6.557  10.766 -2.4042 -1.8497 -0.9979
 4473TIP3    H234835   2.042   6.491  10.725 -1.1084 -0.9396  1.4391
 4474TIP3   OH234836   5.751   2.716   4.766  0.0331  0.0908  0.4931
 4474TIP3    H134837   5.730   2.762   4.848 -1.8419 -1.7346  1.1210
 4474TIP3    H234838   5.714   2.772   4.698 -1.8549 -0.2070  1.2063
 4475TIP3   OH234839   6.174   4.850   0.509 -0.3090 -0.3934  0.2133
 4475TIP3    H134840   6.172   4.758   0.535 -1.8433 -0.1518  1.0710
 4475TIP3    H234841   6.207   4.895   0.586 -1.2303 -0.0641  0.4304
 4476TIP3   OH234842   1.030   1.423   6.088  0.0192  0.1377 -0.5141
 4476TIP3    H134843   1.107   1.464   6.128 -0.7241  1.6700 -0.5780
 4476TIP3    H234844   1.017   1.343   6.138  2.8067 -1.2419 -1.7527
 4477TIP3   OH234845   2.101   0.071  16.151 -0.1189 -0.0654  0.3162
 4477TIP3    H134846   2.085   0.088  16.244  0.4279  1.8909  0.0945
 4477TIP3    H234847   2.059   0.144  16.106  1.3836  0.1170 -0.8479
 4478TIP3   OH234848   2.638   5.508  16.093  0.2362  0.3273  0.8677
 4478TIP3    H134849   2.547   5.484  16.076  1.0946 -4.1144  1.4238
 4478TIP3    H234850   2.642   5.519  16.188  0.5726 -1.4374  1.0906
 4479TIP3   OH234851   6.530   0.515   4.966  0.5716  1.2835  0.0678
 4479TIP3    H134852   6.528   0.585   4.901 -0.0248 -1.0755 -2.7102
 4479TIP3    H234853   6.437   0.499   4.986  0.6907  1.1611  0.5192
 4480TIP3   OH234854   3.235   0.844  11.679 -0.6389  0.0302 -0.1628
 4480TIP3    H134855   3.216   0.881  11.593  0.9558  1.1882 -0.0635
 4480TIP3    H234856   3.269   0.918  11.730 -0.8961 -0.7890  1.2520
 4481TIP3   OH234857   4.993   0.613   4.898  0.1972 -0.0103 -0.7095
 4481TIP3    H134858   4.996   0.707   4.916  0.9234  0.0284 -1.0100
 4481TIP3    H234859   4.982   0.573   4.984 -2.4701  0.4331 -0.7662
 4482TIP3   OH234860   2.444   5.067  15.831 -0.7123  0.4066  0.0589
 4482TIP3    H134861   2.360   5.041  15.869 -0.3308  0.4118  0.9077
 4482TIP3    H234862   2.503   4.994  15.850 -1.1745 -0.9316 -2.9747
 4483TIP3   OH234863   6.706   0.694  14.061  0.2090 -0.8731  0.0516
 4483TIP3    H134864   6.667   0.607  14.068 -0.7571 -0.3147  2.5842
 4483TIP3    H234865   6.673   0.728  13.977  0.2009 -2.7053 -0.7411
 4484TIP3   OH234866   2.692   0.770   1.276  0.0262 -0.4191 -0.0210
 4484TIP3    H134867   2.606   0.729   1.289  0.9195 -2.6083 -0.6207
 4484TIP3    H234868   2.749   0.698   1.250  1.9586  1.0713 -0.0943
 4485TIP3   OH234869   3.366   4.328  14.621  0.5269  0.2006  0.3802
 4485TIP3    H134870   3.279   4.289  14.628  0.5258 -0.3862 -2.0831
 4485TIP3    H234871   3.350   4.422  14.617 -0.0147  0.0984 -0.0772
 4486TIP3   OH234872   2.355   2.438  16.320  0.1149  0.3912  0.4260
 4486TIP3    H134873   2.389   2.505  16.379  1.9736 -0.1280  0.0103
 4486TIP3    H234874   2.424   2.372  16.316 -0.9042 -0.6730 -0.6004
 4487TIP3   OH234875   5.199   0.751  10.405 -0.4270  0.2903  0.0630
 4487TIP3    H134876   5.199   0.741  10.500 -2.8805  0.9221  0.1850
 4487TIP3    H234877   5.208   0.845  10.391 -0.7795  0.2726 -0.3013
 4488TIP3   OH234878   2.251   4.144   5.469  0.0054  0.1195  0.0812
 4488TIP3    H134879   2.246   4.188   5.384  0.1938 -1.0484 -0.5573
 4488TIP3    H234880   2.336   4.100   5.469 -0.5037 -0.9109  0.3432
 4489TIP3   OH234881   6.632   0.598   2.506  0.3740 -0.0017  0.0827
 4489TIP3    H134882   6.688   0.625   2.578  1.1402  1.5521 -1.0261
 4489TIP3    H234883   6.691   0.590   2.431 -0.8296  2.1616 -1.2457
 4490TIP3   OH234884   4.454   3.344   4.303 -0.0307 -0.7447  0.7671
 4490TIP3    H134885   4.522   3.297   4.352  0.6246  0.1763  0.7743
 4490TIP3    H234886   4.384   3.359   4.367 -1.0541 -3.2230  0.3325
 4491TIP3   OH234887   0.129   2.594   1.066 -0.1471  0.2299  0.1925
 4491TIP3    H134888   0.099   2.610   0.977  1.4138 -1.4268 -0.7074
 4491TIP3    H234889   0.127   2.499   1.075  2.9752  0.1170  0.6644
 4492TIP3   OH234890   1.430   2.099  12.955  0.2119 -0.4083  0.3261
 4492TIP3    H134891   1.472   2.090  13.041 -0.9015 -1.1518  0.8137
 4492TIP3    H234892   1.367   2.027  12.951 -0.1009 -0.0952 -0.9230
 4493TIP3   OH234893   3.775   3.397  16.184  0.1869  0.2191  0.0393
 4493TIP3    H134894   3.715   3.359  16.248  1.3773 -0.8846  0.5473
 4493TIP3    H234895   3.736   3.376  16.099 -0.0308 -0.7026  0.3557
 4494TIP3   OH234896   2.928   3.452  15.504 -0.2172 -0.0671  0.8672
 4494TIP3    H134897   2.986   3.521  15.537  2.2961 -2.6464  2.1955
 4494TIP3    H234898   2.984   3.394  15.454 -2.3837 -0.9143 -0.7525
 4495TIP3   OH234899   6.418   0.266  13.497  0.3160  0.5262  0.0056
 4495TIP3    H134900   6.454   0.288  13.411  0.2612  0.3493 -0.0649
 4495TIP3    H234901   6.354   0.196  13.479 -0.3515  1.1087  0.0784
 4496TIP3   OH234902   3.466   3.268   2.927 -0.6346  0.0432 -0.2402
 4496TIP3    H134903   3.377   3.236   2.914  0.1641 -2.6239  0.2337
 4496TIP3    H234904   3.472   3.283   3.021  0.1347 -2.4621  0.1888
 4497TIP3   OH234905   1.515   5.894   4.253  0.2229  0.0172  0.0833
 4497TIP3    H134906   1.450   5.826   4.232  0.5987 -0.5761  0.7961
 4497TIP3    H234907   1.523   5.891   4.348  2.0829 -0.6723 -0.0549
 4498TIP3   OH234908   5.079   0.671  14.551 -0.8497  0.1346 -0.2232
 4498TIP3    H134909   5.080   0.576  14.548 -0.8870  0.1463 -0.6660
 4498TIP3    H234910   5.044   0.698  14.466 -2.0312  0.5227  0.3664
 4499TIP3   OH234911   3.587   3.323  15.474 -0.5739 -0.3819  0.1272
 4499TIP3    H134912   3.602   3.238  15.431  0.4223  0.8087 -2.0164
 4499TIP3    H234913   3.494   3.339  15.464 -0.5555 -0.6687 -0.5870
 4500TIP3   OH234914   3.411   6.255   3.496 -1.1957 -0.3536  0.8232
 4500TIP3    H134915   3.333   6.305   3.475 -0.9127 -0.8435 -1.7304
 4500TIP3    H234916   3.442   6.222   3.411  1.8536 -0.0754  1.7129
 4501TIP3   OH234917   4.063   0.534   4.036  0.1473  0.4826  0.5044
 4501TIP3    H134918   3.991   0.527   4.098 -0.4272 -0.4080 -0.2401
 4501TIP3    H234919   4.139   0.500   4.084  0.2779  2.1635  1.5620
 4502TIP3   OH234920   2.097   4.798   2.670 -0.8915  0.6417  0.2579
 4502TIP3    H134921   2.185   4.829   2.691 -0.1261 -2.0210  1.3721
 4502TIP3    H234922   2.070   4.851   2.594  1.6327  1.5335 -0.0985
 4503TIP3   OH234923   0.607   1.147  12.934 -0.1771  0.1186 -0.2802
 4503TIP3    H134924   0.595   1.171  12.842 -1.2487  0.0852 -0.1642
 4503TIP3    H234925   0.550   1.071  12.946  1.1332 -0.8413  0.0361
 4504TIP3   OH234926   2.884   0.967   5.783  0.0914  0.0269  0.0525
 4504TIP3    H134927   2.815   0.945   5.721  1.3799 -0.5971 -1.2334
 4504TIP3    H234928   2.936   1.034   5.738  3.3024 -3.1113 -1.3708
 4505TIP3   OH234929   1.596   4.845   3.761 -0.0025 -0.1377  0.2948
 4505TIP3    H134930   1.554   4.836   3.675 -1.5635  0.7760  0.9217
 4505TIP3    H234931   1.607   4.940   3.772 -0.7710 -0.1791  1.5325
 4506TIP3   OH234932   4.737   4.411   6.147 -0.0827  0.4611 -0.5087
 4506TIP3    H134933   4.649   4.387   6.177  0.1990  0.9642  0.7973
 4506TIP3    H234934   4.780   4.328   6.129 -1.0298  0.2227 -1.8368
 4507TIP3   OH234935   6.000   5.020  15.041 -0.0397 -0.4141 -0.1090
 4507TIP3    H134936   5.912   5.010  15.006 -0.9152 -1.2051  2.1411
 4507TIP3    H234937   6.053   4.959  14.989 -1.0670 -0.9072 -0.6163
 4508TIP3   OH234938   3.991   2.911   0.661 -0.4734  0.4093  0.5981
 4508TIP3    H134939   3.907   2.939   0.697 -1.6711  0.1680 -1.7768
 4508TIP3    H234940   3.997   2.958   0.578 -0.2600 -2.6096 -1.2306
 4509TIP3   OH234941   6.359   4.715  11.859  0.1798 -0.7655  0.4629
 4509TIP3    H134942   6.361   4.626  11.892 -0.1311 -1.3827 -1.1071
 4509TIP3    H234943   6.278   4.720  11.807  0.9836 -0.0883 -0.7827
 4510TIP3   OH234944   1.342   0.849   2.711 -0.1843 -0.4525  0.2354
 4510TIP3    H134945   1.360   0.872   2.620 -2.4381  0.1625 -0.1163
 4510TIP3    H234946   1.419   0.879   2.759  0.0337  1.4197 -1.1631
 4511TIP3   OH234947   1.362   5.816   0.952 -0.0870  0.1583  0.2704
 4511TIP3    H134948   1.411   5.745   0.993 -1.7595 -0.0780  2.0040
 4511TIP3    H234949   1.270   5.788   0.956 -0.6077  1.5466 -0.8292
 4512TIP3   OH234950   1.185   6.023  13.556  0.3851  0.5396 -0.3704
 4512TIP3    H134951   1.172   6.105  13.602  0.7972 -0.3294  1.3681
 4512TIP3    H234952   1.102   6.007  13.511 -1.6052 -0.4880  3.2651
 4513TIP3   OH234953   2.571   0.619   5.548 -0.2391 -0.0568 -0.2993
 4513TIP3    H134954   2.649   0.603   5.600 -0.9417 -0.0714  0.7872
 4513TIP3    H234955   2.498   0.597   5.606 -1.0581 -0.2919 -1.3612
 4514TIP3   OH234956   6.178   5.770   2.274  0.1986 -0.0658  0.5433
 4514TIP3    H134957   6.254   5.788   2.329  0.6205 -0.0153 -0.0467
 4514TIP3    H234958   6.207   5.700   2.216 -0.4079 -0.4693  0.7209
 4515TIP3   OH234959   1.905   3.486  12.088  0.1177  0.3131  0.2039
 4515TIP3    H134960   1.812   3.495  12.109 -0.0038 -0.6464  0.1385
 4515TIP3    H234961   1.910   3.489  11.993 -0.1733 -1.9715  0.0451
 4516TIP3   OH234962   5.426   0.823   0.221 -0.0350  0.5436  0.5841
 4516TIP3    H134963   5.355   0.887   0.229 -1.8498 -0.9955 -1.6512
 4516TIP3    H234964   5.471   0.848   0.140  1.7430  1.2123  1.7266
 4517TIP3   OH234965   3.308   5.834  12.937 -0.5880  0.2852  0.6310
 4517TIP3    H134966   3.329   5.848  13.030  0.7227  0.8532  0.2666
 4517TIP3    H234967   3.388   5.857  12.891 -1.3921  0.4967 -0.6907
 4518TIP3   OH234968   1.751   3.731   3.351 -0.0490 -0.2876  0.1922
 4518TIP3    H134969   1.752   3.798   3.283 -0.5248 -0.1640  0.3019
 4518TIP3    H234970   1.734   3.649   3.304  1.6242 -0.5146 -0.0822
 4519TIP3   OH234971   2.627   5.264  11.428  0.6073 -0.1110  0.2585
 4519TIP3    H134972   2.621   5.172  11.404 -2.0547  0.0453  0.0338
 4519TIP3    H234973   2.658   5.308  11.349 -2.8397 -0.2939 -1.3825
 4520TIP3   OH234974   0.603   6.491   0.281  0.0201  0.1068  0.0759
 4520TIP3    H134975   0.628   6.565   0.226  0.3262  0.7292  1.0172
 4520TIP3    H234976   0.685   6.466   0.325 -0.2849 -0.1552  0.4976
 4521TIP3   OH234977   0.993   2.665   0.077 -0.8592  0.3266 -0.2228
 4521TIP3    H134978   0.949   2.676  -0.007 -3.3669 -2.4020  0.5539
 4521TIP3    H234979   1.028   2.576   0.075 -1.1049  0.1304  1.5980
 4522TIP3   OH234980   5.349   1.334  12.593  0.3634  0.3490 -0.1030
 4522TIP3    H134981   5.395   1.357  12.513  1.4131  0.0765  0.4098
 4522TIP3    H234982   5.383   1.248  12.616 -0.3258  0.1898  0.3568
 4523TIP3   OH234983   6.568   3.137  15.991  0.5742  0.1057  0.4024
 4523TIP3    H134984   6.630   3.068  15.966 -1.2888 -2.7031  2.8210
 4523TIP3    H234985   6.555   3.187  15.911  1.6709 -2.7053 -1.7230
 4524TIP3   OH234986   1.939   5.022  14.935  0.8007  1.1359 -0.6041
 4524TIP3    H134987   1.959   5.106  14.895  1.7210  2.7580  2.8256
 4524TIP3    H234988   2.024   4.987  14.962  0.2007  0.8617  1.0755
 4525TIP3   OH234989   1.145   4.839  13.541  0.1026 -0.5351  0.5712
 4525TIP3    H134990   1.070   4.826  13.483 -1.1801  4.1977  0.7334
 4525TIP3    H234991   1.216   4.866  13.483 -0.8650  3.0889  0.8308
 4526TIP3   OH234992   6.134   0.271  11.268 -0.4167  0.1635  0.0235
 4526TIP3    H134993   6.088   0.351  11.295  0.2148  0.9214 -1.0597
 4526TIP3    H234994   6.185   0.245  11.345  1.1185  2.0923 -0.2782
 4527TIP3   OH234995   3.862   3.791   1.780  0.3569 -0.1339 -0.5913
 4527TIP3    H134996   3.880   3.738   1.857 -0.0628  1.1273  0.4213
 4527TIP3    H234997   3.796   3.742   1.731 -0.3250 -0.3606  0.5237
 4528TIP3   OH234998   5.588   5.697   5.863 -0.0168  0.4825  0.3249
 4528TIP3    H134999   5.495   5.720   5.870 -0.0602  0.3862  0.0749
 4528TIP3    H235000   5.616   5.679   5.953 -0.0917  1.0991  0.4791
 4529TIP3   OH235001   5.883   1.946  16.965  0.5498 -0.6963 -0.2221
 4529TIP3    H135002   5.797   1.909  16.945  0.2211 -0.4054  0.5954
 4529TIP3    H235003   5.914   1.896  17.041 -1.2400  2.4731  2.9166
 4530TIP3   OH235004   0.629   5.404   1.923 -0.7582  0.1904  0.1188
 4530TIP3    H135005   0.553   5.424   1.868 -0.9470 -1.5644 -0.3078
 4530TIP3    H235006   0.629   5.309   1.931  1.0461  0.1934  0.6204
 4531TIP3   OH235007   4.561   1.192  16.267 -0.7724  0.2853 -0.3295
 4531TIP3    H135008   4.629   1.184  16.333 -0.6646  2.9840 -0.0256
 4531TIP3    H235009   4.547   1.102  16.236  0.4921 -0.7908  1.9902
 4532TIP3   OH235010   2.158   2.146   1.833 -0.1627 -0.2787  0.7529
 4532TIP3    H135011   2.109   2.202   1.773 -0.3164 -1.4194 -0.2266
 4532TIP3    H235012   2.123   2.167   1.919 -2.5105 -1.1172  0.0775
 4533TIP3   OH235013   1.008   2.890  10.645  0.4349  0.4983 -0.0179
 4533TIP3    H135014   1.001   2.980  10.676 -0.9419  0.7591 -0.9556
 4533TIP3    H235015   1.084   2.854  10.690  1.3685  2.3081 -0.0593
 4534TIP3   OH235016   3.712   6.420  14.254 -0.0967  0.6354 -0.3361
 4534TIP3    H135017   3.634   6.367  14.241  0.8108 -1.0088  0.5859
 4534TIP3    H235018   3.679   6.509  14.269 -1.6789  0.2601 -1.3975
 4535TIP3   OH235019   5.953   1.895   5.264 -0.3343 -0.6963  0.0955
 4535TIP3    H135020   5.935   1.985   5.293  1.1493 -0.5843  0.7784
 4535TIP3    H235021   5.892   1.880   5.192  0.0620  1.2205 -0.6935
 4536TIP3   OH235022   2.026   0.647  16.791  0.1262 -0.2356  0.7393
 4536TIP3    H135023   2.092   0.580  16.775  0.8157  0.4057  0.8474
 4536TIP3    H235024   2.002   0.679  16.704 -0.8389 -1.1946  0.6229
 4537TIP3   OH235025   5.047   5.685   3.583 -0.2650 -0.1303  0.0695
 4537TIP3    H135026   4.974   5.742   3.559 -0.8947 -0.7100  0.5846
 4537TIP3    H235027   5.022   5.599   3.551  0.6999 -0.1386 -0.7315
 4538TIP3   OH235028   1.551   1.615  14.580 -0.2921 -0.4700 -0.7913
 4538TIP3    H135029   1.511   1.539  14.623  1.4301 -1.7542 -1.3637
 4538TIP3    H235030   1.642   1.590  14.566  0.0891  1.3463 -1.8765
 4539TIP3   OH235031   5.424   4.917   0.546  0.1813  0.2627 -0.0328
 4539TIP3    H135032   5.420   5.013   0.551  0.3137  0.3737 -1.5185
 4539TIP3    H235033   5.515   4.898   0.524 -0.1513 -0.0915 -1.1979
 4540TIP3   OH235034   1.682   6.228   0.205 -0.3661  0.1255  0.3963
 4540TIP3    H135035   1.736   6.166   0.156 -0.1885  0.2633  0.4186
 4540TIP3    H235036   1.698   6.206   0.297  0.2015  0.6250  0.4257
 4541TIP3   OH235037   5.863   5.548   2.051 -0.1133  0.6706 -0.2968
 4541TIP3    H135038   5.896   5.479   1.993 -0.0408  1.3400 -1.0792
 4541TIP3    H235039   5.912   5.536   2.132  0.1221 -0.0073 -0.5271
 4542TIP3   OH235040   2.999   4.354  16.761 -0.0801  0.7117  0.2941
 4542TIP3    H135041   3.075   4.381  16.814 -0.4010 -1.9254  2.3097
 4542TIP3    H235042   3.000   4.259  16.765 -3.1031  0.5658 -0.2094
 4543TIP3   OH235043   4.679   1.759  15.355 -0.0443 -0.3428 -0.1048
 4543TIP3    H135044   4.682   1.833  15.293 -0.7786 -0.6779 -0.5510
 4543TIP3    H235045   4.684   1.681  15.299  0.5688 -0.6384  0.3557
 4544TIP3   OH235046   2.172   3.042   4.465  0.5767 -0.2904  0.2014
 4544TIP3    H135047   2.176   2.965   4.522 -2.0490 -1.8391 -1.4942
 4544TIP3    H235048   2.081   3.071   4.471  1.3114  2.2078  0.1246
 4545TIP3   OH235049   1.300   0.726   0.905  0.3515  0.9415 -0.4136
 4545TIP3    H135050   1.205   0.716   0.894  0.2474 -1.0812  1.5278
 4545TIP3    H235051   1.311   0.761   0.994  1.4210  0.0587 -0.1708
 4546TIP3   OH235052   4.694   3.626  16.211  0.0667  0.1723 -0.2700
 4546TIP3    H135053   4.666   3.708  16.172  0.2786  0.0436 -0.7048
 4546TIP3    H235054   4.774   3.603  16.164  0.5094  0.1785  0.4643
 4547TIP3   OH235055   1.666   2.258   5.318 -0.4208 -0.0486 -0.5694
 4547TIP3    H135056   1.732   2.208   5.367 -0.2739  1.6095  1.0053
 4547TIP3    H235057   1.594   2.196   5.305  0.3776 -1.1189 -0.0301
 4548TIP3   OH235058   3.989   6.687   0.638 -0.0133 -0.4731  0.2108
 4548TIP3    H135059   3.920   6.629   0.605 -0.0554 -0.2692 -0.0654
 4548TIP3    H235060   4.005   6.657   0.728  0.9400 -1.7892 -0.3797
 4549TIP3   OH235061   0.189   3.064  15.917  0.2575  0.4572 -0.0837
 4549TIP3    H135062   0.119   3.021  15.967  0.2789  1.8334  1.2182
 4549TIP3    H235063   0.158   3.063  15.827 -1.4303  0.9367  0.4483
 4550TIP3   OH235064   5.790   5.276  12.680 -0.1967 -1.0513 -0.0656
 4550TIP3    H135065   5.749   5.192  12.700  0.4884 -1.1942  0.7528
 4550TIP3    H235066   5.721   5.341  12.695 -0.3740 -1.3631  0.4582
 4551TIP3   OH235067   3.696   1.401   1.826  0.5222 -0.5764 -0.3326
 4551TIP3    H135068   3.711   1.415   1.732 -3.0283 -0.8691 -1.0669
 4551TIP3    H235069   3.725   1.483   1.867 -1.1173  1.0353 -2.1742
 4552TIP3   OH235070   1.977   2.856  16.138 -0.5275 -0.0179 -0.2205
 4552TIP3    H135071   2.044   2.916  16.104 -0.4677 -0.5523 -1.0507
 4552TIP3    H235072   2.027   2.789  16.185 -0.4384 -0.6373 -1.1755
 4553TIP3   OH235073   0.909   0.618   0.403  0.0923  0.1331  0.4263
 4553TIP3    H135074   0.891   0.568   0.482  0.5912 -1.0646 -0.2049
 4553TIP3    H235075   1.000   0.647   0.413  0.5550 -1.0423 -0.2362
 4554TIP3   OH235076   6.429   0.205  16.801  0.1168 -0.0925 -0.6098
 4554TIP3    H135077   6.345   0.250  16.803 -0.5389 -1.2769  0.9842
 4554TIP3    H235078   6.408   0.114  16.825  1.6078 -0.8668 -1.9986
 4555TIP3   OH235079   4.784   5.648  14.916  0.4230  0.3873 -0.4043
 4555TIP3    H135080   4.812   5.714  14.980  1.7604  1.0253 -1.5736
 4555TIP3    H235081   4.838   5.571  14.935  1.3804  0.8350 -1.1996
 4556TIP3   OH235082   0.343   4.296  15.119 -1.1921 -0.3544  0.1325
 4556TIP3    H135083   0.366   4.231  15.184 -2.0169 -0.9336 -0.1378
 4556TIP3    H235084   0.275   4.255  15.066 -1.3463  0.5220 -0.3836
 4557TIP3   OH235085   1.119   4.072  15.464 -0.2392  0.7434 -0.0273
 4557TIP3    H135086   1.143   4.139  15.528  0.3692  0.2831  0.2426
 4557TIP3    H235087   1.029   4.093  15.439 -0.1142  1.5476  0.1882
 4558TIP3   OH235088   2.306   0.798  11.016  0.5794 -0.0996  0.2671
 4558TIP3    H135089   2.273   0.766  10.932 -2.4671 -2.4792  2.1696
 4558TIP3    H235090   2.277   0.889  11.019 -0.1800 -0.2790 -0.8565
 4559TIP3   OH235091   4.166   1.385  15.074  0.2502  0.3067  0.1442
 4559TIP3    H135092   4.158   1.461  15.015  0.2697 -1.5738 -2.4495
 4559TIP3    H235093   4.083   1.385  15.123 -1.2173  0.2113 -2.1673
 4560TIP3   OH235094   1.140   6.185  17.015 -1.2184  0.4805  0.0563
 4560TIP3    H135095   1.200   6.188  16.940 -1.6426  0.0250 -0.3074
 4560TIP3    H235096   1.197   6.194  17.092 -0.5196 -1.2638 -0.2257
 4561TIP3   OH235097   6.327   0.617   4.703 -1.0158  0.0422 -0.2073
 4561TIP3    H135098   6.315   0.681   4.633 -1.0190  0.6361  0.3261
 4561TIP3    H235099   6.375   0.665   4.771  1.4562 -1.2865 -0.8955
 4562TIP3   OH235100   2.512   6.255   5.120 -0.0354 -0.0329 -0.2678
 4562TIP3    H135101   2.497   6.230   5.211  0.3122  2.9949  0.7225
 4562TIP3    H235102   2.607   6.258   5.111 -0.0632  0.9911 -0.3053
 4563TIP3   OH235103   4.563   2.252   5.426  0.6585  0.8223 -0.9083
 4563TIP3    H135104   4.622   2.327   5.427  1.0898  0.4893 -0.4051
 4563TIP3    H235105   4.577   2.210   5.511  1.1330 -0.3749 -1.5524
 4564TIP3   OH235106   4.067   0.297  16.757 -0.4406  0.2435  0.5484
 4564TIP3    H135107   4.148   0.324  16.801  0.2136 -1.4623  0.4805
 4564TIP3    H235108   4.043   0.215  16.800  0.2996 -1.5842 -2.2771
 4565TIP3   OH235109   4.779   6.185   3.966 -0.5026  0.6676 -0.0635
 4565TIP3    H135110   4.802   6.265   4.013  1.0594  0.7730 -0.9456
 4565TIP3    H235111   4.700   6.207   3.917 -1.1197  1.0986  1.0997
 4566TIP3   OH235112   4.565   3.942   3.049 -0.2483  0.2712  0.5289
 4566TIP3    H135113   4.612   3.891   2.984  0.0349  0.1554  0.8257
 4566TIP3    H235114   4.505   3.880   3.090  0.5485  0.0190  1.3367
 4567TIP3   OH235115   4.150   0.940   4.067 -0.3522 -0.2391 -0.8434
 4567TIP3    H135116   4.177   0.926   3.976  0.4098 -1.4348 -0.4515
 4567TIP3    H235117   4.120   0.855   4.097 -1.9391  0.4506 -0.3801
 4568TIP3   OH235118   2.661   3.901   5.020  0.0497  0.7830  0.0083
 4568TIP3    H135119   2.578   3.881   5.064  0.1915  1.1263  0.4365
 4568TIP3    H235120   2.657   3.995   5.003  0.1140  0.7023 -0.4708
 4569TIP3   OH235121   5.025   0.066   3.145 -0.2900 -0.3879  0.3837
 4569TIP3    H135122   5.002   0.053   3.053 -0.7456 -0.5115  0.5105
 4569TIP3    H235123   5.120   0.056   3.148  0.3451  3.6003 -0.7757
 4570TIP3   OH235124   3.704   3.590   2.892 -0.5362 -0.2491  0.4705
 4570TIP3    H135125   3.687   3.679   2.859  1.9782  0.9601  2.1325
 4570TIP3    H235126   3.709   3.600   2.987 -0.3066 -2.2002  0.6980
 4571TIP3   OH235127   1.887   4.599  12.125 -0.1247  0.0176  0.7019
 4571TIP3    H135128   1.969   4.592  12.077 -0.0023 -1.7204  1.1154
 4571TIP3    H235129   1.825   4.546  12.074 -0.6332  0.1959  1.1274
 4572TIP3   OH235130   6.667   2.103  15.404 -0.0302  0.3925  0.0666
 4572TIP3    H135131   6.687   2.196  15.392  0.9350  0.3795  1.3338
 4572TIP3    H235132   6.728   2.074  15.472 -0.5604 -1.0884 -0.0493
 4573TIP3   OH235133   4.701   0.407  11.423  0.1427  0.3801 -0.5733
 4573TIP3    H135134   4.727   0.386  11.513 -0.4689  1.9625  0.0005
 4573TIP3    H235135   4.612   0.372  11.415  0.6510 -0.8700 -0.9989
 4574TIP3   OH235136   3.767   5.957  13.116  0.0689  0.1179 -0.2803
 4574TIP3    H135137   3.745   5.955  13.209  1.2258 -0.9289  0.0139
 4574TIP3    H235138   3.748   6.046  13.087 -0.1111  0.5064  1.0146
 4575TIP3   OH235139   2.746   5.919  12.698  0.3878  0.2203 -0.4161
 4575TIP3    H135140   2.655   5.931  12.672  0.1180 -1.8438 -0.5692
 4575TIP3    H235141   2.766   5.997  12.750 -1.1785  1.1279 -1.0957
 4576TIP3   OH235142   2.113   0.029   3.866 -0.5110 -0.4025 -1.0123
 4576TIP3    H135143   2.200   0.023   3.905 -0.6114  1.3740 -0.4268
 4576TIP3    H235144   2.128   0.013   3.773  0.6116  0.7409 -1.0612
 4577TIP3   OH235145   6.719   2.846  15.669  0.0306  0.1350 -0.7726
 4577TIP3    H135146   6.654   2.871  15.603  0.1153 -1.0795 -1.3402
 4577TIP3    H235147   6.691   2.759  15.698 -0.0580  0.6902  0.8857
 4578TIP3   OH235148   2.278   3.834  13.095  0.1903  0.0799  0.0882
 4578TIP3    H135149   2.221   3.889  13.150  0.1855  0.9810 -0.8008
 4578TIP3    H235150   2.251   3.853  13.006  0.0752 -1.5152 -0.2550
 4579TIP3   OH235151   6.655   5.955  16.620 -0.3978 -0.2735  0.2855
 4579TIP3    H135152   6.659   5.895  16.694  1.3066  0.1600  0.5798
 4579TIP3    H235153   6.680   6.040  16.656  0.9278 -0.1512 -0.8467
 4580TIP3   OH235154   4.147   4.513  13.310  0.0809 -0.0647  0.3142
 4580TIP3    H135155   4.110   4.435  13.350 -0.3117 -0.2147 -0.3255
 4580TIP3    H235156   4.150   4.578  13.380 -2.2426  0.2399  0.1864
 4581TIP3   OH235157   3.403   0.069  13.576 -0.1064 -0.5983 -1.3831
 4581TIP3    H135158   3.361   0.131  13.516  0.5080  1.2788  0.0386
 4581TIP3    H235159   3.394   0.110  13.663  0.1065 -2.6400 -0.3418
 4582TIP3   OH235160   3.298   0.065   4.704  0.4041 -0.4056  0.0214
 4582TIP3    H135161   3.355   0.141   4.717  0.2081 -0.4947  1.5835
 4582TIP3    H235162   3.211   0.095   4.728  0.4715 -1.3486  1.5511
 4583TIP3   OH235163   3.456   6.056  10.775 -0.6382 -0.2823  0.0256
 4583TIP3    H135164   3.390   6.118  10.806 -2.1791 -2.3053  1.0646
 4583TIP3    H235165   3.539   6.090  10.809 -1.6216  0.4453  1.8277
 4584TIP3   OH235166   4.534   0.779   4.124 -0.6649  0.1823  0.4460
 4584TIP3    H135167   4.527   0.687   4.150  0.4308 -0.2171 -0.5602
 4584TIP3    H235168   4.517   0.778   4.029  0.7233  0.7962  0.1704
 4585TIP3   OH235169   4.204   5.144   1.882 -0.4540  0.1897  0.2724
 4585TIP3    H135170   4.209   5.233   1.915 -0.6176  0.4602 -0.4176
 4585TIP3    H235171   4.287   5.104   1.909 -1.1074 -0.0081  2.1180
 4586TIP3   OH235172   0.854   1.911   4.758  0.0306 -0.3468  0.4704
 4586TIP3    H135173   0.837   1.975   4.689 -1.7277 -0.1227  1.0558
 4586TIP3    H235174   0.879   1.831   4.711  0.0187  0.1282 -0.3650
 4587TIP3   OH235175   2.228   4.972  12.663 -0.3581 -0.2318  0.0243
 4587TIP3    H135176   2.261   4.980  12.753  2.4395  1.0398 -0.9777
 4587TIP3    H235177   2.248   4.882  12.638 -1.3819 -0.6678  0.7214
 4588TIP3   OH235178   5.039   2.890   2.722 -0.5565  0.3180 -0.5992
 4588TIP3    H135179   5.115   2.832   2.723 -0.7320  0.0810  0.3070
 4588TIP3    H235180   4.978   2.848   2.662  0.1542  0.7002 -1.6203
 4589TIP3   OH235181   2.280   5.008   5.692 -0.1343  0.5655 -0.1889
 4589TIP3    H135182   2.340   4.934   5.694  0.4760  1.0491  0.9903
 4589TIP3    H235183   2.271   5.030   5.600  0.1654 -0.5765 -0.5053
 4590TIP3   OH235184   1.119   0.571   2.127  0.0357 -0.0222  0.4878
 4590TIP3    H135185   1.097   0.663   2.142 -0.2303  0.3971 -2.0221
 4590TIP3    H235186   1.160   0.542   2.208  2.9165  3.1688  0.3735
 4591TIP3   OH235187   5.951   5.659  12.499  0.1609  0.1044  0.4949
 4591TIP3    H135188   5.959   5.565  12.514  2.5447  0.6935  3.9716
 4591TIP3    H235189   5.879   5.686  12.556 -1.3155  0.3177 -1.3795
 4592TIP3   OH235190   4.323   6.404   5.824  0.3980 -0.1250  0.1455
 4592TIP3    H135191   4.310   6.316   5.861 -1.0801 -0.6689 -1.5197
 4592TIP3    H235192   4.417   6.417   5.828  0.5912 -1.4987  1.0591
 4593TIP3   OH235193   5.663   6.505  15.770 -0.3996  0.0841 -0.2498
 4593TIP3    H135194   5.687   6.567  15.701  0.6551  0.1376  0.1421
 4593TIP3    H235195   5.612   6.438  15.725  1.3976 -0.6039 -1.3924
 4594TIP3   OH235196   1.609   3.322  12.425 -0.1313 -0.5088 -0.0793
 4594TIP3    H135197   1.659   3.267  12.365 -1.4887 -0.0081 -1.7818
 4594TIP3    H235198   1.527   3.339  12.378 -0.7332  0.9661  1.4104
 4595TIP3   OH235199   0.291   6.481  12.029 -0.0667 -0.4253 -0.0328
 4595TIP3    H135200   0.262   6.455  11.941 -1.3667  0.7392  0.0198
 4595TIP3    H235201   0.210   6.484  12.081  0.5612 -0.1093  0.9423
 4596TIP3   OH235202   2.406   2.931   3.829  0.0670 -0.4947 -0.1417
 4596TIP3    H135203   2.478   2.895   3.881  0.5136  0.7407  0.1252
 4596TIP3    H235204   2.410   2.882   3.746  1.6887  0.0382 -0.4126
 4597TIP3   OH235205   6.351   0.951  12.631  0.2937  0.9533 -0.0904
 4597TIP3    H135206   6.406   0.978  12.558  2.1335 -0.3616  0.7320
 4597TIP3    H235207   6.319   0.864  12.607  0.8585  0.5390  0.6309
 4598TIP3   OH235208   2.545   4.348  16.936  0.7019 -0.0259 -0.5649
 4598TIP3    H135209   2.563   4.417  17.000  1.7815 -0.4177 -0.4267
 4598TIP3    H235210   2.458   4.317  16.959  1.1198 -0.2584  0.8242
 4599TIP3   OH235211   1.858   6.532   0.411 -0.5482 -0.1899 -0.2750
 4599TIP3    H135212   1.798   6.460   0.431 -0.1462 -1.1472 -2.2772
 4599TIP3    H235213   1.945   6.495   0.423 -0.3340  0.3352 -0.1867
 4600TIP3   OH235214   4.298   2.252  12.476 -0.2452  0.3572  0.4863
 4600TIP3    H135215   4.275   2.161  12.459 -0.4409  0.3699  0.6825
 4600TIP3    H235216   4.216   2.301  12.463  0.0906  0.6504 -0.6804
 4601TIP3   OH235217   0.783   2.836   5.999  0.2636 -0.3535  0.0483
 4601TIP3    H135218   0.779   2.785   6.079  1.3349 -0.6929 -0.0968
 4601TIP3    H235219   0.837   2.912   6.021  0.6504 -0.5000 -0.3745
 4602TIP3   OH235220   5.843   6.014  10.869  0.3602 -0.0491 -0.3099
 4602TIP3    H135221   5.932   6.023  10.835  0.0188  0.8228 -0.9967
 4602TIP3    H235222   5.838   5.923  10.900  1.5320 -0.0608 -0.1139
 4603TIP3   OH235223   5.309   1.575  12.717  0.1990 -0.3746 -0.3417
 4603TIP3    H135224   5.384   1.520  12.696 -0.0389 -0.7406 -0.2474
 4603TIP3    H235225   5.327   1.658  12.673  0.5723 -0.5202 -0.4684
 4604TIP3   OH235226   2.845   4.882  12.720 -0.1242  0.6390  0.1934
 4604TIP3    H135227   2.761   4.883  12.675  0.2590  1.3283 -0.5397
 4604TIP3    H235228   2.847   4.965  12.769  0.2098  0.7227  0.0444
 4605TIP3   OH235229   3.215   4.899   0.951 -0.3102 -0.6333 -0.1164
 4605TIP3    H135230   3.136   4.850   0.928  0.0324 -1.1194 -0.2714
 4605TIP3    H235231   3.210   4.910   1.046 -0.0699 -1.5450  0.0084
 4606TIP3   OH235232   5.597   6.326  12.435  0.2179  0.0167  0.2706
 4606TIP3    H135233   5.668   6.314  12.371 -1.2143 -0.5704 -1.2783
 4606TIP3    H235234   5.586   6.421  12.441  1.8979  0.1966  1.4793
 4607TIP3   OH235235   2.446   1.073  14.587  0.6619 -0.0877  0.6092
 4607TIP3    H135236   2.536   1.061  14.558  1.3593  2.4672  1.4410
 4607TIP3    H235237   2.453   1.129  14.664 -1.6391  0.4605  0.4994
 4608TIP3   OH235238   3.717   1.997  12.382  0.2658 -0.0081  0.0637
 4608TIP3    H135239   3.772   2.038  12.315  1.4655 -0.4910  0.7334
 4608TIP3    H235240   3.652   1.948  12.332  1.8390 -1.3026 -0.8016
 4609TIP3   OH235241   4.748   2.643  12.488  0.3592 -0.4319 -0.4667
 4609TIP3    H135242   4.755   2.583  12.562 -2.9232 -2.3634 -1.4987
 4609TIP3    H235243   4.693   2.714  12.520 -4.7277 -3.3009 -1.8240
 4610TIP3   OH235244   0.442   3.477  14.086  0.1247 -0.7403 -0.1647
 4610TIP3    H135245   0.439   3.567  14.054  1.0175 -1.5862 -2.7992
 4610TIP3    H235246   0.350   3.450  14.090 -0.1877  0.4033  1.1799
 4611TIP3   OH235247   2.815   0.281  16.119  0.2121 -0.3354  0.0637
 4611TIP3    H135248   2.841   0.243  16.035  1.0250  0.9216 -0.2767
 4611TIP3    H235249   2.768   0.210  16.164  1.6454 -1.7343 -0.5360
 4612TIP3   OH235250   3.876   6.788  11.779  0.0695 -0.2461  0.2358
 4612TIP3    H135251   3.785   6.775  11.755  0.0143  0.4198  0.0423
 4612TIP3    H235252   3.891   6.882  11.766  0.5331 -0.1825  1.1255
 4613TIP3   OH235253   3.094   6.484  14.831  0.2129 -0.0898  0.4028
 4613TIP3    H135254   3.070   6.428  14.905  0.2012 -0.2863  0.2520
 4613TIP3    H235255   3.123   6.566  14.871  1.8292 -0.7680  0.7031
 4614TIP3   OH235256   5.322   0.492  13.679 -0.6575 -0.0550 -0.0394
 4614TIP3    H135257   5.268   0.534  13.613 -1.2392 -1.4291 -0.4826
 4614TIP3    H235258   5.372   0.563  13.719 -0.1797  0.8018 -2.0464
 4615TIP3   OH235259   4.356   1.995   5.949 -0.2345  0.6234  0.0792
 4615TIP3    H135260   4.303   2.051   6.006 -0.0856  0.8132  0.0317
 4615TIP3    H235261   4.444   2.032   5.954 -0.1779  0.5149 -0.1108
 4616TIP3   OH235262   4.454   0.282  11.298 -0.4656 -0.1947 -0.0805
 4616TIP3    H135263   4.488   0.265  11.210  0.5621 -0.7601  0.4037
 4616TIP3    H235264   4.439   0.195  11.335  0.8265 -0.0157  0.9260
 4617TIP3   OH235265   1.164   0.655  11.202 -0.0299  0.0286 -0.3009
 4617TIP3    H135266   1.131   0.574  11.239 -2.0181  1.0703  0.3700
 4617TIP3    H235267   1.227   0.687  11.266 -1.6663  0.6099  1.0927
 4618TIP3   OH235268   3.208   3.332   4.188  0.2441 -0.3643 -0.5443
 4618TIP3    H135269   3.114   3.317   4.186  0.2289 -0.2218 -1.1053
 4618TIP3    H235270   3.232   3.346   4.096  0.6025  0.8959 -0.2820
 4619TIP3   OH235271   5.137   5.966   3.679  0.0231 -0.2151 -0.0184
 4619TIP3    H135272   5.178   5.880   3.674 -0.3242 -0.3992  0.2764
 4619TIP3    H235273   5.043   5.948   3.680 -0.1115  0.2453 -1.5519
 4620TIP3   OH235274   4.934   2.669  13.374  0.1909  0.8542  0.4946
 4620TIP3    H135275   4.882   2.647  13.297  0.3589  1.6138  0.1608
 4620TIP3    H235276   4.999   2.598  13.379 -0.1837  0.4922  0.2782
 4621TIP3   OH235277   3.669   6.540   5.007 -0.3038 -0.1264  0.1830
 4621TIP3    H135278   3.711   6.467   4.962 -0.5929 -0.3316  0.2436
 4621TIP3    H235279   3.668   6.611   4.943  0.2859 -0.0633  0.2333
 4622TIP3   OH235280   4.531   4.929  13.958  0.1600  0.0054  0.5829
 4622TIP3    H135281   4.582   4.861  14.001 -0.8832 -0.0583  1.7824
 4622TIP3    H235282   4.440   4.906  13.977 -0.3355  0.2178 -1.3295
 4623TIP3   OH235283   1.922   3.734  12.923  0.2591  0.1872  0.0201
 4623TIP3    H135284   1.842   3.707  12.877 -0.3290 -0.6309  1.4186
 4623TIP3    H235285   1.915   3.829  12.930  0.9370  0.4781 -2.5073
 4624TIP3   OH235286   6.549   6.596  11.374  0.2802 -0.2130 -0.4168
 4624TIP3    H135287   6.607   6.576  11.449  0.7224 -0.7845 -0.9036
 4624TIP3    H235288   6.461   6.597  11.412  0.6536  1.5228  0.5135
 4625TIP3   OH235289   2.885   6.693  14.978  0.2192 -0.1303 -0.3499
 4625TIP3    H135290   2.798   6.725  15.005 -0.2093  0.4993 -2.2465
 4625TIP3    H235291   2.940   6.705  15.055 -1.2283  0.0811  0.7036
 4626TIP3   OH235292   6.534   0.255   2.787 -0.6902 -0.4956  0.1100
 4626TIP3    H135293   6.594   0.235   2.859 -1.2649  1.0044  1.0542
 4626TIP3    H235294   6.589   0.292   2.718 -0.4375  0.2874  0.7260
 4627TIP3   OH235295   6.027   4.040  16.098 -0.3374  0.8692  0.6479
 4627TIP3    H135296   6.043   3.950  16.125 -0.9238  0.0946 -1.4356
 4627TIP3    H235297   6.100   4.062  16.041 -1.3095  0.9049 -0.6346
 4628TIP3   OH235298   5.325   4.180   0.670  0.5381 -0.1562 -0.6217
 4628TIP3    H135299   5.247   4.227   0.699  0.6922 -1.2352  1.7078
 4628TIP3    H235300   5.397   4.226   0.711  0.9115 -0.7685 -0.5863
 4629TIP3   OH235301   1.802   4.627   2.594  0.2207 -0.2412  0.2242
 4629TIP3    H135302   1.720   4.660   2.556  0.6489  1.1603  0.4534
 4629TIP3    H235303   1.790   4.636   2.688  0.6966  0.1375  0.2523
 4630TIP3   OH235304   3.948   0.285  15.777 -0.1040 -0.6838 -0.2809
 4630TIP3    H135305   4.016   0.241  15.827 -0.1942 -0.1493  0.3196
 4630TIP3    H235306   3.963   0.378  15.791 -0.6420 -0.5451 -0.5676
 4631TIP3   OH235307   5.614   2.932  14.973  0.2125 -0.5869  0.3947
 4631TIP3    H135308   5.677   2.975  15.031  0.6058 -0.2414 -0.2735
 4631TIP3    H235309   5.644   2.841  14.969 -1.2398 -1.2664  2.6686
 4632TIP3   OH235310   1.317   3.137   1.103 -0.1655  0.3420  0.0650
 4632TIP3    H135311   1.342   3.045   1.110  0.3420  0.5690  1.7155
 4632TIP3    H235312   1.251   3.149   1.171 -0.3143  1.1770 -0.2123
 4633TIP3   OH235313   2.776   6.051   5.340 -0.4898  0.2562 -0.5252
 4633TIP3    H135314   2.814   6.076   5.424  1.1043  0.6458 -1.3179
 4633TIP3    H235315   2.695   6.101   5.335 -1.5475 -1.1104  1.5163
 4634TIP3   OH235316   2.607   4.107   2.362 -0.2140 -0.0705  0.3671
 4634TIP3    H135317   2.614   4.197   2.329  0.1392 -0.5105 -0.7928
 4634TIP3    H235318   2.666   4.105   2.437 -0.3527  0.7076  0.5102
 4635TIP3   OH235319   2.325   5.067  11.697  0.3039 -0.0193 -0.1323
 4635TIP3    H135320   2.251   5.108  11.652  0.8224  1.7762  0.5673
 4635TIP3    H235321   2.368   5.015  11.630  0.1609  1.3513 -1.3269
 4636TIP3   OH235322   4.341   1.295   5.010  0.2700 -1.0455 -0.6078
 4636TIP3    H135323   4.329   1.330   4.922  0.5124 -0.2781 -0.3490
 4636TIP3    H235324   4.258   1.254   5.032 -2.0320  3.6997  0.9916
 4637TIP3   OH235325   5.803   1.292   2.812 -0.0461 -0.3739  0.1276
 4637TIP3    H135326   5.894   1.319   2.800 -0.7149  1.6306 -0.8510
 4637TIP3    H235327   5.774   1.265   2.725 -0.7869  0.3966  0.1269
 4638TIP3   OH235328   1.030   3.341   6.457 -0.1684 -0.5165 -0.5395
 4638TIP3    H135329   1.037   3.255   6.416  1.9561 -0.0507 -1.3273
 4638TIP3    H235330   1.093   3.338   6.529  1.6463  1.0030 -1.9399
 4639TIP3   OH235331   6.285   5.148  16.812  0.4070  0.1502 -0.0499
 4639TIP3    H135332   6.218   5.079  16.811  0.0270  0.4994  0.6019
 4639TIP3    H235333   6.286   5.179  16.902  1.3315  0.2771 -0.0874
 4640TIP3   OH235334   2.479   1.469  12.846 -0.5788 -0.0341 -0.0595
 4640TIP3    H135335   2.443   1.383  12.867 -0.1103 -0.2714 -0.2013
 4640TIP3    H235336   2.573   1.461  12.864 -0.8928  1.3154  2.7058
 4641TIP3   OH235337   1.832   0.593  14.287  0.3199  0.1715 -0.1990
 4641TIP3    H135338   1.816   0.498  14.287  0.0681  0.2073  0.3157
 4641TIP3    H235339   1.786   0.625  14.209 -2.1406  0.2453  1.1679
 4642TIP3   OH235340   4.701   2.164   6.358  0.2639  0.2572 -0.1643
 4642TIP3    H135341   4.665   2.223   6.292 -0.6845  0.3636  0.4438
 4642TIP3    H235342   4.633   2.158   6.425  0.3948 -1.3951 -0.1391
 4643TIP3   OH235343   4.947   0.522  16.626 -0.4663  0.0641 -0.1862
 4643TIP3    H135344   4.932   0.452  16.563  0.1721 -0.4821  0.2506
 4643TIP3    H235345   4.903   0.598  16.589  0.4231 -0.0770 -1.5990
 4644TIP3   OH235346   3.652   1.159  13.717  0.2521 -0.4313 -0.2863
 4644TIP3    H135347   3.586   1.099  13.751 -0.0042 -0.4711 -0.8377
 4644TIP3    H235348   3.601   1.225  13.669  0.3621  1.2375  1.7316
 4645TIP3   OH235349   3.813   2.815  12.128 -0.3610  0.3058  0.5665
 4645TIP3    H135350   3.882   2.818  12.062 -1.2368  1.2108 -0.3465
 4645TIP3    H235351   3.758   2.741  12.102 -0.2735  0.1770  0.7425
 4646TIP3   OH235352   4.919   0.342   1.095 -0.6677 -0.3467  0.0092
 4646TIP3    H135353   4.840   0.290   1.083 -1.2736  0.7427 -0.9154
 4646TIP3    H235354   4.888   0.427   1.126  0.0825  0.2741 -0.8718
 4647TIP3   OH235355   3.992   5.791   4.176 -0.2193  0.1220 -0.3255
 4647TIP3    H135356   3.986   5.749   4.090 -2.0626 -0.8348  0.2214
 4647TIP3    H235357   4.022   5.880   4.157 -0.5536 -0.0798 -1.9561
 4648TIP3   OH235358   5.299   3.485   5.067  0.0851  0.3803 -0.1681
 4648TIP3    H135359   5.226   3.424   5.082 -0.0429  0.3336 -0.9714
 4648TIP3    H235360   5.274   3.564   5.116  0.5872 -0.4392  1.4876
 4649TIP3   OH235361   1.837   3.152   5.275 -0.0625  0.1512  0.2333
 4649TIP3    H135362   1.881   3.072   5.244  1.7019  0.0202  2.7579
 4649TIP3    H235363   1.744   3.136   5.258  0.5694 -0.1008 -4.1992
 4650TIP3   OH235364   6.066   3.726   5.297  0.1406 -0.2303  0.3796
 4650TIP3    H135365   5.990   3.689   5.253 -0.6030 -0.1749  1.5536
 4650TIP3    H235366   6.051   3.708   5.390  1.4598 -0.0265  0.6582
 4651TIP3   OH235367   1.963   1.224  13.823 -0.3036  0.2919 -0.1795
 4651TIP3    H135368   1.880   1.176  13.825  0.5222 -1.2032  0.5096
 4651TIP3    H235369   2.029   1.157  13.804  1.0021  0.9874  1.5469
 4652TIP3   OH235370   2.622   0.364  13.780  0.3727 -0.0567  0.0889
 4652TIP3    H135371   2.561   0.395  13.713 -1.4209  0.6315  1.8991
 4652TIP3    H235372   2.703   0.411  13.763 -0.5693  1.4017 -0.5957
 4653TIP3   OH235373   4.119   0.847  13.147  0.0915  0.2468 -0.0440
 4653TIP3    H135374   4.213   0.863  13.134 -0.4494  2.3440 -2.0986
 4653TIP3    H235375   4.093   0.909  13.215  0.3074 -0.8616  1.0681
 4654TIP3   OH235376   5.717   3.494  11.025  0.0071  0.7719 -0.4022
 4654TIP3    H135377   5.726   3.404  10.991 -2.9849  0.5786 -0.9214
 4654TIP3    H235378   5.665   3.539  10.959  0.6287  2.6412  0.3346
 4655TIP3   OH235379   5.227   2.675  16.485 -0.5894  0.2995 -0.4711
 4655TIP3    H135380   5.287   2.614  16.527  0.0057  1.0230 -0.2439
 4655TIP3    H235381   5.170   2.620  16.431  0.5133 -0.3644 -0.9967
 4656TIP3   OH235382   3.151   0.962   3.011 -0.0948  0.2384  0.1880
 4656TIP3    H135383   3.236   0.987   2.974 -0.0611  1.8478  1.2640
 4656TIP3    H235384   3.126   0.884   2.962  1.9376 -0.1976 -0.2429
 4657TIP3   OH235385   4.997   3.753  13.675  0.1672  0.4226 -0.5628
 4657TIP3    H135386   5.073   3.701  13.650  0.7739  1.0295 -0.0273
 4657TIP3    H235387   4.922   3.705  13.640  0.8377  0.1852 -1.7214
 4658TIP3   OH235388   0.995   1.056  11.581 -0.3805 -0.3155  0.0232
 4658TIP3    H135389   0.955   0.985  11.530 -1.4901  0.1244  0.2608
 4658TIP3    H235390   0.951   1.052  11.666 -1.7022  1.6974 -0.4987
 4659TIP3   OH235391   2.777   6.451  16.743  0.1446 -0.1676  0.1157
 4659TIP3    H135392   2.806   6.524  16.798 -0.0581 -0.7038  0.9474
 4659TIP3    H235393   2.829   6.376  16.771  0.6681 -0.2578 -1.0445
 4660TIP3   OH235394   0.109   5.113   1.827 -0.1651 -0.1215 -0.2095
 4660TIP3    H135395   0.137   5.145   1.741 -1.2286  0.1570 -0.4670
 4660TIP3    H235396   0.085   5.022   1.813  0.2872 -0.2675 -0.0579
 4661TIP3   OH235397   2.144   0.287   3.170 -0.0867 -0.3100 -0.0043
 4661TIP3    H135398   2.228   0.251   3.200  0.2531  0.8663  0.5162
 4661TIP3    H235399   2.079   0.236   3.218  0.4060  0.2680  1.3323
 4662TIP3   OH235400   2.494   4.198   3.004 -0.2849  0.0651  0.1875
 4662TIP3    H135401   2.529   4.283   2.977 -0.0569 -0.0387  0.1462
 4662TIP3    H235402   2.415   4.186   2.952 -0.0246  0.0122 -0.1944
 4663TIP3   OH235403   4.100   0.222  12.193  0.3599 -0.4738  0.4179
 4663TIP3    H135404   4.114   0.316  12.203  0.9571 -0.2805 -1.6455
 4663TIP3    H235405   4.168   0.194  12.131  0.7888 -2.4627  1.6991
 4664TIP3   OH235406   4.483   5.648   4.810 -0.0355 -0.6424 -1.0224
 4664TIP3    H135407   4.426   5.714   4.849 -0.0863 -0.4407 -1.4326
 4664TIP3    H235408   4.532   5.695   4.743 -1.2551 -1.3480 -2.4581
 4665TIP3   OH235409   6.120   2.458  15.190 -0.0601 -0.4047  0.6019
 4665TIP3    H135410   6.049   2.394  15.184  0.1010 -0.4983 -0.8125
 4665TIP3    H235411   6.120   2.501  15.104  0.3329  0.9575  1.2591
 4666TIP3   OH235412   1.270   1.910  10.976 -0.0459  0.0717 -0.1639
 4666TIP3    H135413   1.232   1.831  10.938 -1.5088  0.7561 -0.2079
 4666TIP3    H235414   1.316   1.952  10.903  2.2358 -1.5294  0.2340
 4667TIP3   OH235415   2.535   6.747  16.927 -0.6460 -0.0337 -0.0612
 4667TIP3    H135416   2.520   6.658  16.959 -2.4218 -0.2343 -1.2681
 4667TIP3    H235417   2.458   6.796  16.956 -0.1529  0.8601 -0.2294
 4668TIP3   OH235418   0.344   1.093  13.610 -0.0288 -0.5101 -0.8221
 4668TIP3    H135419   0.432   1.131  13.605 -0.0360 -0.4699 -0.6597
 4668TIP3    H235420   0.324   1.092  13.704  0.4600 -2.0191 -0.6969
 4669TIP3   OH235421   0.781   6.031   1.088 -0.7318 -0.1967  0.1697
 4669TIP3    H135422   0.733   6.077   1.157  0.4120 -0.0329  0.8878
 4669TIP3    H235423   0.722   5.961   1.060 -1.5846  0.3031  0.6556
 4670TIP3   OH235424   5.017   0.192  12.613  0.0050  0.3050 -0.2682
 4670TIP3    H135425   5.113   0.185  12.618  0.0312  1.0087  0.4180
 4670TIP3    H235426   5.001   0.280  12.579 -0.4019 -0.0696 -1.0819
 4671TIP3   OH235427   1.296   3.950   2.320 -0.2448 -0.6144  0.5251
 4671TIP3    H135428   1.281   3.917   2.408  1.3964  0.2595  1.1606
 4671TIP3    H235429   1.378   3.907   2.292  2.6200  3.4340  1.7940
 4672TIP3   OH235430   5.735   6.261   4.059  0.0218  0.5594 -0.7353
 4672TIP3    H135431   5.735   6.290   3.968 -3.7566  1.3270 -0.6784
 4672TIP3    H235432   5.717   6.167   4.054 -1.4810  0.8293 -0.8328
 4673TIP3   OH235433   5.103   4.103   3.318 -0.2109  0.0363  0.1576
 4673TIP3    H135434   5.070   4.193   3.310 -0.2930 -0.0374 -0.3716
 4673TIP3    H235435   5.057   4.054   3.249  0.3329 -0.2603 -0.0026
 4674TIP3   OH235436   0.602   4.251   5.400  0.7474  0.2986 -0.0521
 4674TIP3    H135437   0.562   4.180   5.450  3.0616 -1.2903 -0.3202
 4674TIP3    H235438   0.575   4.234   5.309 -1.0931  1.5383  0.1968
 4675TIP3   OH235439   3.629   0.923  10.772  0.7542 -0.1812  0.1872
 4675TIP3    H135440   3.606   0.852  10.832  0.4687 -0.8160 -0.6535
 4675TIP3    H235441   3.552   0.980  10.771  1.4954  0.9392  1.9410
 4676TIP3   OH235442   5.145   0.642  12.394  0.3310 -0.6349 -0.0774
 4676TIP3    H135443   5.163   0.719  12.340  0.4142  0.2029  1.1038
 4676TIP3    H235444   5.229   0.597  12.401  1.0339  0.8052  1.6538
 4677TIP3   OH235445   4.137   5.585  15.052 -0.2318 -0.1860  0.3543
 4677TIP3    H135446   4.170   5.498  15.075 -0.1978 -0.6660 -1.4065
 4677TIP3    H235447   4.146   5.635  15.133  0.6003 -1.5552  1.1602
 4678TIP3   OH235448   6.054   0.710  11.682 -0.0964  0.0845 -0.3370
 4678TIP3    H135449   6.083   0.650  11.751  0.3691 -0.1471 -0.7304
 4678TIP3    H235450   6.135   0.741  11.641 -0.2224  2.2669  0.9115
 4679TIP3   OH235451   4.078   1.134  16.554 -0.0855 -0.0655  0.3079
 4679TIP3    H135452   4.044   1.125  16.465  1.0958  1.3411 -0.3227
 4679TIP3    H235453   4.077   1.045  16.588 -1.5894 -0.4836 -0.7050
 4680TIP3   OH235454   4.110   3.086   1.038  0.4485 -0.3391 -0.4648
 4680TIP3    H135455   4.059   3.086   0.957  0.1280  3.9660 -0.5011
 4680TIP3    H235456   4.126   3.179   1.056  0.0775 -0.9969  4.6962
 4681TIP3   OH235457   6.459   5.037   1.424 -0.3902  0.0731 -0.2647
 4681TIP3    H135458   6.462   5.124   1.464 -0.0707  0.7442 -1.6798
 4681TIP3    H235459   6.495   5.050   1.336 -0.5168 -1.4582 -0.5684
 4682TIP3   OH235460   6.375   4.386  14.737  0.2895  0.1626 -0.3178
 4682TIP3    H135461   6.340   4.475  14.727  0.3831  0.1470 -0.8053
 4682TIP3    H235462   6.392   4.377  14.830  2.0269  1.3220 -0.4790
 4683TIP3   OH235463   0.768   5.650   5.888  0.8525  0.3092 -0.2040
 4683TIP3    H135464   0.859   5.679   5.889  0.4622  1.6360 -0.8753
 4683TIP3    H235465   0.718   5.730   5.905 -0.2179 -0.2229 -0.8045
 4684TIP3   OH235466   1.525   0.164  16.697  0.2666 -0.0033 -0.4517
 4684TIP3    H135467   1.485   0.118  16.771 -0.3817  0.5325 -0.4511
 4684TIP3    H235468   1.618   0.171  16.720 -0.1063  1.1332  0.8599
 4685TIP3   OH235469   3.360   2.807   6.280 -0.2280 -0.3372  0.3364
 4685TIP3    H135470   3.405   2.778   6.200 -1.1341  1.1699 -0.7746
 4685TIP3    H235471   3.400   2.892   6.300 -1.8670  0.5923 -0.1364
 4686TIP3   OH235472   4.039   0.062  12.425 -0.4010 -0.0651  0.2355
 4686TIP3    H135473   4.062   0.115  12.349  0.9885 -1.6606 -0.5355
 4686TIP3    H235474   4.025  -0.026  12.390  2.9679 -1.5090  2.0055
 4687TIP3   OH235475   2.609   5.190  14.514  0.0414 -0.4395 -0.5972
 4687TIP3    H135476   2.694   5.228  14.491  0.4365 -0.7678  0.2516
 4687TIP3    H235477   2.545   5.254  14.484  0.5778 -0.2575 -1.3881
 4688TIP3   OH235478   5.359   5.846  15.971 -0.0558 -0.2345  0.0162
 4688TIP3    H135479   5.395   5.758  15.960 -1.7950 -0.9932  0.0411
 4688TIP3    H235480   5.401   5.880  16.050 -0.4774 -1.6718  0.9022
 4689TIP3   OH235481   5.078   4.542   3.465 -0.0990 -0.3901  0.3314
 4689TIP3    H135482   4.993   4.581   3.485  0.3715 -0.5180  2.8284
 4689TIP3    H235483   5.126   4.610   3.418 -1.1432  0.0767 -0.0930
 4690TIP3   OH235484   6.639   4.215  16.903 -0.1181  0.2944 -0.1005
 4690TIP3    H135485   6.644   4.301  16.945 -0.8223 -0.4496  1.5731
 4690TIP3    H235486   6.730   4.187  16.893  0.0592  0.2776  1.4147
 4691TIP3   OH235487   2.282   3.166  14.513  0.2726 -0.5635 -0.3058
 4691TIP3    H135488   2.191   3.173  14.485  0.0070 -1.0469  0.4012
 4691TIP3    H235489   2.319   3.253  14.499  0.4872 -1.0200 -3.1800
 4692TIP3   OH235490   4.284   3.986   3.486  0.3033 -0.2089 -0.1850
 4692TIP3    H135491   4.328   4.042   3.550  0.8198 -0.1869 -0.5476
 4692TIP3    H235492   4.349   3.975   3.416  0.2544 -1.3596 -0.0702
 4693TIP3   OH235493   2.245   2.074   0.706  0.3396 -0.9096  0.1516
 4693TIP3    H135494   2.257   2.072   0.801 -0.1116 -0.2463  0.2320
 4693TIP3    H235495   2.174   2.013   0.689 -0.3716 -0.1746  0.3857
 4694TIP3   OH235496   0.409   4.593  11.936  0.1428 -0.0143  0.2289
 4694TIP3    H135497   0.395   4.594  12.030  0.7099  1.3979  0.3170
 4694TIP3    H235498   0.322   4.576  11.899 -0.3704  0.9125  0.9672
 4695TIP3   OH235499   5.051   4.414  11.517 -0.0573  0.4964 -0.3309
 4695TIP3    H135500   5.004   4.348  11.567 -0.3032  0.6557 -0.3479
 4695TIP3    H235501   4.987   4.485  11.505 -0.4538 -0.1048 -2.0436
 4696TIP3   OH235502   3.467   3.109  14.038  0.6218 -0.0377  0.3805
 4696TIP3    H135503   3.473   3.200  14.009  0.2197  0.1814  0.9877
 4696TIP3    H235504   3.511   3.060  13.968 -0.6203  0.4487 -0.8092
 4697TIP3   OH235505   0.442   0.296  16.297  0.4092  0.0671 -0.2118
 4697TIP3    H135506   0.438   0.229  16.365 -2.6257  0.8369  0.5419
 4697TIP3    H235507   0.390   0.260  16.225  2.5174 -0.1955 -1.6988
 4698TIP3   OH235508   2.632   4.941  14.435 -0.0015  1.2576  0.1324
 4698TIP3    H135509   2.612   4.970  14.524 -2.3408  1.9037 -0.5163
 4698TIP3    H235510   2.665   5.019  14.391 -1.4409  1.6720 -0.2563
 4699TIP3   OH235511   1.401   6.110   4.995 -0.3738 -0.1084 -0.0321
 4699TIP3    H135512   1.385   6.203   4.980 -2.1393 -0.4162 -0.2914
 4699TIP3    H235513   1.370   6.095   5.085 -0.7867 -0.5730 -0.2451
 4700TIP3   OH235514   4.036   6.054   0.724 -0.9935 -0.7548 -0.5654
 4700TIP3    H135515   4.017   5.977   0.778 -0.5735  0.1247  0.9119
 4700TIP3    H235516   4.112   6.028   0.671  0.9969 -0.5232  1.9643
 4701TIP3   OH235517   4.049   3.424  12.085 -0.6382 -0.2130  0.1415
 4701TIP3    H135518   4.072   3.501  12.137 -0.0603  0.1655 -0.6586
 4701TIP3    H235519   4.001   3.458  12.010 -0.6959 -0.6732 -0.0372
 4702TIP3   OH235520   4.552   5.649  16.185  0.3310 -0.4831  0.2371
 4702TIP3    H135521   4.583   5.739  16.200 -2.3366  0.5056  0.4289
 4702TIP3    H235522   4.565   5.634  16.091 -1.3660  1.0849 -0.3065
 4703TIP3   OH235523   3.291   5.566  13.033  0.1981 -0.0981  0.2221
 4703TIP3    H135524   3.209   5.550  12.985  0.4662 -0.7586 -0.0241
 4703TIP3    H235525   3.319   5.653  13.004 -0.7403  0.4134  0.7899
 4704TIP3   OH235526   3.727   4.229  11.227  0.2606  0.6449 -0.0442
 4704TIP3    H135527   3.688   4.156  11.178 -0.5032  1.3010 -0.4412
 4704TIP3    H235528   3.654   4.289  11.241  0.0682 -0.1503  3.1994
 4705TIP3   OH235529   1.195   3.195  16.418 -0.4861  0.0474 -0.6521
 4705TIP3    H135530   1.284   3.161  16.427 -0.5010 -0.4018 -2.0002
 4705TIP3    H235531   1.180   3.199  16.323 -2.4092 -1.3047 -0.4563
 4706TIP3   OH235532   5.398   0.872   2.041  0.1041  0.4206 -0.0491
 4706TIP3    H135533   5.337   0.894   2.112  0.4032 -0.8613  0.6404
 4706TIP3    H235534   5.484   0.878   2.081  0.2054 -1.9236  0.2058
 4707TIP3   OH235535   6.170   0.077   3.040  0.3583 -0.1948  0.6693
 4707TIP3    H135536   6.170  -0.005   2.990  2.2830 -1.0449  1.9530
 4707TIP3    H235537   6.218   0.139   2.985  2.5444 -1.1456  1.4273
 4708TIP3   OH235538   0.033   1.164  15.277  0.3559  0.0865  0.1448
 4708TIP3    H135539  -0.011   1.080  15.284  1.2971 -0.5298 -0.9467
 4708TIP3    H235540   0.082   1.173  15.358  0.7717 -0.7343 -0.0061
 4709TIP3   OH235541   3.513   0.123   5.887 -0.5540 -0.1628  0.1183
 4709TIP3    H135542   3.486   0.041   5.845  0.7748 -1.1899  1.2066
 4709TIP3    H235543   3.594   0.148   5.843 -0.7946  0.4410 -0.0052
 4710TIP3   OH235544   5.996   2.957   0.359 -0.1109 -0.0332 -0.7849
 4710TIP3    H135545   5.960   3.011   0.429  0.0581  0.5731 -1.1602
 4710TIP3    H235546   6.004   2.870   0.398 -0.2539  0.2404 -0.1305
 4711TIP3   OH235547   5.807   2.379  14.803  0.3064 -0.4401 -0.3773
 4711TIP3    H135548   5.757   2.389  14.722 -1.1930 -1.4237  0.3784
 4711TIP3    H235549   5.872   2.312  14.782  1.1841  0.6635 -1.2969
 4712TIP3   OH235550   3.469   3.386   4.851 -0.0065 -0.0813 -0.3469
 4712TIP3    H135551   3.556   3.423   4.834 -0.4572  1.7035  0.9716
 4712TIP3    H235552   3.451   3.409   4.942 -0.9631 -2.3562  0.0974
 4713TIP3   OH235553   1.991   1.435  15.918  0.2547 -0.3749 -0.1701
 4713TIP3    H135554   2.086   1.433  15.906  0.2450 -1.1907 -0.1948
 4713TIP3    H235555   1.957   1.464  15.834  0.5465  1.6805  0.3678
 4714TIP3   OH235556   5.412   0.457   0.574 -0.6687  0.0082  0.0498
 4714TIP3    H135557   5.355   0.445   0.498 -1.1704 -1.5144  0.6400
 4714TIP3    H235558   5.470   0.529   0.548  0.0374 -1.2975 -2.2903
 4715TIP3   OH235559   4.423   1.725  16.900  0.0306  0.1259  0.0809
 4715TIP3    H135560   4.365   1.674  16.843  0.1914 -1.6498  1.4253
 4715TIP3    H235561   4.511   1.695  16.877  0.1489 -0.0103  0.7090
 4716TIP3   OH235562   5.667   5.235  13.407  0.4263 -0.4048 -0.1719
 4716TIP3    H135563   5.758   5.209  13.423 -0.0158 -1.8093  0.2140
 4716TIP3    H235564   5.672   5.299  13.336  1.6190 -1.4515 -1.0675
 4717TIP3   OH235565   6.063   1.547   4.307 -0.3242  0.0879 -0.3042
 4717TIP3    H135566   6.086   1.550   4.214 -2.0093 -0.0706 -0.7639
 4717TIP3    H235567   5.992   1.612   4.316 -0.9005 -0.6509  0.6387
 4718TIP3   OH235568   6.724   6.489  14.642  0.1627 -0.2304  0.3869
 4718TIP3    H135569   6.800   6.535  14.678  0.5244 -0.1130 -0.5133
 4718TIP3    H235570   6.712   6.526  14.555 -1.0662 -0.1050  0.5876
 4719TIP3   OH235571   4.055   4.398   6.011 -0.1247  0.2726 -0.1550
 4719TIP3    H135572   4.058   4.479   5.960 -0.7711  0.2082 -0.2953
 4719TIP3    H235573   4.121   4.412   6.080  2.0359 -0.3175 -1.9706
 4720TIP3   OH235574   1.377   5.530  16.793  0.3334 -0.2622  0.8351
 4720TIP3    H135575   1.358   5.612  16.747  0.6728  0.4258  1.8653
 4720TIP3    H235576   1.459   5.500  16.755 -0.1563 -0.5073 -0.0450
 4721TIP3   OH235577   4.049   1.789  13.953  0.0882 -0.6549 -0.3757
 4721TIP3    H135578   3.985   1.832  13.896 -0.4295 -0.2243  0.5093
 4721TIP3    H235579   4.032   1.696  13.941 -0.6184 -0.5496 -0.2551
 4722TIP3   OH235580   5.989   5.575  14.986 -0.2739 -0.1579 -0.5514
 4722TIP3    H135581   5.966   5.567  14.894 -0.2699  0.2843 -0.5930
 4722TIP3    H235582   5.991   5.485  15.018 -1.3235 -0.2582 -0.7226
 4723TIP3   OH235583   4.802   6.164   1.183 -0.7487 -0.2195  0.4419
 4723TIP3    H135584   4.882   6.121   1.215 -0.8719  0.8541  2.4012
 4723TIP3    H235585   4.829   6.255   1.166 -1.0872 -0.3720 -1.0126
 4724TIP3   OH235586   0.077   5.843  15.205  0.1542 -0.5395  0.2991
 4724TIP3    H135587   0.068   5.853  15.300 -0.6938 -1.0211  0.2778
 4724TIP3    H235588   0.065   5.932  15.171  0.4358 -0.3688  0.6347
 4725TIP3   OH235589   5.731   3.642  12.094  0.4122 -0.6276  0.5418
 4725TIP3    H135590   5.641   3.674  12.102  0.6834  0.0401  1.0491
 4725TIP3    H235591   5.739   3.616  12.002 -0.1071 -0.0827  0.3328
 4726TIP3   OH235592   3.216   6.167  14.491 -0.0722  0.2659  0.6780
 4726TIP3    H135593   3.127   6.187  14.519 -0.8413  0.8009 -1.8899
 4726TIP3    H235594   3.210   6.156  14.396  2.3858 -0.9411  0.5619
 4727TIP3   OH235595   5.419   5.776  15.421 -0.0183  0.1549 -0.9317
 4727TIP3    H135596   5.421   5.770  15.325  0.7533  1.5544 -1.0261
 4727TIP3    H235597   5.396   5.867  15.439  1.9723  0.4894  0.1936
 4728TIP3   OH235598   3.111   4.312  13.710  0.1212 -0.2450  0.2031
 4728TIP3    H135599   3.163   4.392  13.701 -0.4902  0.2090  0.6219
 4728TIP3    H235600   3.063   4.323  13.792  0.7818 -1.4938  0.8012
 4729TIP3   OH235601   0.767   3.643   6.335 -0.6881  0.2496 -0.1669
 4729TIP3    H135602   0.684   3.677   6.300 -0.4801  1.0036  0.0420
 4729TIP3    H235603   0.824   3.720   6.340 -0.4933  0.0416  1.2196
 4730TIP3   OH235604   5.354   5.738  14.440  0.3544  0.3892 -0.0404
 4730TIP3    H135605   5.406   5.811  14.406 -0.8762  1.0084 -0.6473
 4730TIP3    H235606   5.402   5.660  14.414  1.6741  0.9660  0.5832
 4731TIP3   OH235607   5.623   4.524   5.519  1.2236  0.2028  0.2027
 4731TIP3    H135608   5.669   4.441   5.518  0.1534 -0.4157  0.4995
 4731TIP3    H235609   5.580   4.527   5.605 -2.0962 -0.8914 -1.2451
 4732TIP3   OH235610   0.553   4.433   1.551  0.7751  0.5905 -0.0203
 4732TIP3    H135611   0.611   4.384   1.493 -2.3743  0.1417 -3.1427
 4732TIP3    H235612   0.490   4.368   1.583 -0.7956  1.7434 -0.6041
 4733TIP3   OH235613   3.520   3.142   4.505 -0.1838 -0.5303 -0.4361
 4733TIP3    H135614   3.535   3.195   4.584 -2.2458 -0.1721 -0.2235
 4733TIP3    H235615   3.592   3.079   4.504  0.4082  0.0629  1.2012
 4734TIP3   OH235616   0.971   4.350  16.372 -0.2934 -0.2903 -0.0487
 4734TIP3    H135617   1.012   4.363  16.287  0.5522 -2.7241 -0.1008
 4734TIP3    H235618   0.889   4.306  16.352 -0.4101 -0.2628  0.3640
 4735TIP3   OH235619   4.409   4.044   4.520 -0.4774  0.6375  0.0342
 4735TIP3    H135620   4.456   4.042   4.437  0.4435  1.7148  0.4877
 4735TIP3    H235621   4.321   4.013   4.500 -0.3124  1.0319 -1.3714
 4736TIP3   OH235622   6.177   1.748  12.386  0.5796  0.1293 -0.1514
 4736TIP3    H135623   6.101   1.704  12.347 -0.2180  0.8566  0.5197
 4736TIP3    H235624   6.182   1.832  12.341  1.5185 -0.2475 -0.7733
 4737TIP3   OH235625   6.670   0.234  15.564 -0.0517  0.1503 -0.1440
 4737TIP3    H135626   6.643   0.234  15.472  1.5606 -0.4771 -0.6738
 4737TIP3    H235627   6.681   0.141  15.585 -0.9815  0.2595  0.8810
 4738TIP3   OH235628   4.587   4.695  13.325  0.1062  0.1830 -0.7125
 4738TIP3    H135629   4.677   4.667  13.306  0.3891 -0.7577  1.6651
 4738TIP3    H235630   4.534   4.616  13.309 -0.1338  0.3867 -0.9290
 4739TIP3   OH235631   1.316   5.941   6.531  0.0988  0.1238  0.4117
 4739TIP3    H135632   1.314   6.037   6.533 -2.8280  0.1910 -0.8279
 4739TIP3    H235633   1.240   5.914   6.583 -0.6038 -1.4066 -1.3033
 4740TIP3   OH235634   1.200   6.717   1.439 -0.1099 -0.3024 -0.2886
 4740TIP3    H135635   1.250   6.792   1.471 -0.2172 -1.5471  3.2036
 4740TIP3    H235636   1.266   6.660   1.398  0.7886 -0.3407  1.1427
 4741TIP3   OH235637   1.385   6.004   2.783  0.4661 -0.0331 -0.1721
 4741TIP3    H135638   1.424   5.917   2.792  0.1169 -0.3245 -1.2530
 4741TIP3    H235639   1.376   6.016   2.688  1.0641  1.4433 -0.0656
 4742TIP3   OH235640   2.921   3.666   5.936 -0.2766 -0.0798 -0.1636
 4742TIP3    H135641   2.834   3.628   5.929 -1.0199  1.2513  1.3354
 4742TIP3    H235642   2.981   3.592   5.919 -1.6497 -1.6636  1.4559
 4743TIP3   OH235643   2.973   1.044  12.636  0.8942 -0.1172  0.0542
 4743TIP3    H135644   2.906   0.976  12.643  1.6117 -0.9349 -0.8103
 4743TIP3    H235645   2.931   1.122  12.672  0.3768 -1.2117  1.9817
 4744TIP3   OH235646   4.089   0.927   5.420 -0.6312 -0.1757 -0.7076
 4744TIP3    H135647   4.115   1.007   5.465 -1.7502  0.0912 -0.5138
 4744TIP3    H235648   4.084   0.860   5.489  3.6216 -1.3866 -1.2500
 4745TIP3   OH235649   1.800   4.255   4.243  0.2072  0.1433 -0.6074
 4745TIP3    H135650   1.844   4.339   4.227 -0.3786  0.1701 -2.3650
 4745TIP3    H235651   1.750   4.269   4.323  1.5842  0.8494  0.1628
 4746TIP3   OH235652   4.389   0.658   2.746  0.0004 -0.0172  0.6565
 4746TIP3    H135653   4.308   0.674   2.698  0.9013  0.9371 -0.6100
 4746TIP3    H235654   4.426   0.579   2.706 -0.2324 -0.4013  1.1752
 4747TIP3   OH235655   3.401   4.273  15.802 -0.5857  0.4848 -0.6626
 4747TIP3    H135656   3.487   4.312  15.818 -0.1761 -0.9461  0.9961
 4747TIP3    H235657   3.350   4.343  15.761  0.3999  2.4348  1.2221
 4748TIP3   OH235658   3.274   3.506  14.705 -0.0420 -0.4539  0.0998
 4748TIP3    H135659   3.183   3.528  14.683 -0.3402 -1.5873  0.1359
 4748TIP3    H235660   3.324   3.528  14.626  0.0746  2.4455  0.8644
 4749TIP3   OH235661   2.402   1.616   1.057  0.2293 -0.1112  0.1966
 4749TIP3    H135662   2.318   1.649   1.090  0.6059  1.6162 -0.4637
 4749TIP3    H235663   2.467   1.660   1.111  0.7461 -0.3883 -0.1959
 4750TIP3   OH235664   6.725   5.431   4.951  0.5976  0.4364  0.0862
 4750TIP3    H135665   6.663   5.502   4.931  1.6521  1.3550 -0.0128
 4750TIP3    H235666   6.671   5.363   4.990 -0.6199  0.8654 -0.7841
 4751TIP3   OH235667   6.107   3.717  17.261  0.1713  0.7086  0.0585
 4751TIP3    H135668   6.119   3.641  17.205  0.1271  1.3783 -0.8828
 4751TIP3    H235669   6.064   3.781  17.205  0.7791  1.6528  0.6438
 4752TIP3   OH235670   4.274   6.457  15.050 -0.7317  1.1818 -0.3254
 4752TIP3    H135671   4.265   6.367  15.079  2.3353  0.1258 -2.1325
 4752TIP3    H235672   4.187   6.481  15.017 -1.6183 -1.0837  0.2221
 4753TIP3   OH235673   2.688   3.337  13.488 -0.0420  0.1622 -0.5312
 4753TIP3    H135674   2.674   3.370  13.399  0.8905  0.4123 -0.5924
 4753TIP3    H235675   2.778   3.362  13.509  0.0919 -0.8023  0.0933
 4754TIP3   OH235676   5.356   4.244  14.093  0.4496  0.6529  0.6997
 4754TIP3    H135677   5.429   4.184  14.110  0.0142  0.1923  0.9556
 4754TIP3    H235678   5.331   4.227  14.002  1.3911  1.6159  0.2363
 4755TIP3   OH235679   4.512   2.348  15.462  0.3327 -0.0185  0.1367
 4755TIP3    H135680   4.532   2.261  15.426  2.4890  1.0356 -1.3574
 4755TIP3    H235681   4.430   2.334  15.510 -0.5648 -2.4043 -1.8206
 4756TIP3   OH235682   3.020   2.257   2.567  0.6283 -0.1784 -0.0619
 4756TIP3    H135683   2.986   2.333   2.521  3.8509  1.3701 -0.1698
 4756TIP3    H235684   3.019   2.283   2.660  0.1233 -0.7256  0.0913
 4757TIP3   OH235685   6.190   3.675   5.020 -0.5292  0.4182  0.3132
 4757TIP3    H135686   6.188   3.757   4.971  0.7689  0.2672 -0.0266
 4757TIP3    H235687   6.118   3.624   4.984 -0.9437  1.1488  0.0795
 4758TIP3   OH235688   6.055   4.680   0.935  0.7099 -0.0103  0.2865
 4758TIP3    H135689   5.976   4.632   0.909  0.8653  0.6142 -1.4620
 4758TIP3    H235690   6.104   4.617   0.988 -0.5982 -0.6688  0.7677
 4759TIP3   OH235691   1.034   4.709  12.837  0.2174  0.2626  0.0598
 4759TIP3    H135692   0.986   4.669  12.910  1.0566  0.4358  0.7252
 4759TIP3    H235693   1.127   4.698  12.860  0.5262 -0.5421 -1.4462
 4760TIP3   OH235694   3.259   0.292  14.602  0.1384 -0.5866  0.4505
 4760TIP3    H135695   3.248   0.374  14.651  0.5940 -1.7136  2.5568
 4760TIP3    H235696   3.173   0.251  14.604  0.2548 -0.8233  0.6862
 4761TIP3   OH235697   0.232   5.791  15.674 -0.1704  0.3501  0.4495
 4761TIP3    H135698   0.189   5.853  15.733  1.3140  0.3231  1.6148
 4761TIP3    H235699   0.321   5.782  15.708  0.5875 -0.0984 -1.4842
 4762TIP3   OH235700   6.725   2.711   1.632  0.3092 -0.4923  0.6242
 4762TIP3    H135701   6.683   2.791   1.603  0.8714 -0.3874  0.0764
 4762TIP3    H235702   6.655   2.662   1.676  0.4855  1.3058  3.1125
 4763TIP3   OH235703   5.114   6.505   4.187  0.5002 -0.3470  0.4933
 4763TIP3    H135704   5.165   6.428   4.212  0.8123 -0.0471  0.7942
 4763TIP3    H235705   5.053   6.473   4.120  2.2778 -0.3499 -1.2073
 4764TIP3   OH235706   1.312   3.456  15.850  0.0332  0.4880  1.0497
 4764TIP3    H135707   1.244   3.485  15.911  0.9696  1.3448  1.7306
 4764TIP3    H235708   1.315   3.524  15.783 -1.7287 -0.9712 -0.6217
 4765TIP3   OH235709   4.354   5.921   0.421  0.4177 -0.4232 -0.0757
 4765TIP3    H135710   4.331   5.982   0.491 -2.7364 -0.2652 -1.1175
 4765TIP3    H235711   4.360   5.975   0.342  0.4107 -1.0791 -0.5355
 4766TIP3   OH235712   4.783   6.034  13.313  0.3772 -0.4257 -0.1716
 4766TIP3    H135713   4.790   6.119  13.356  0.7201 -0.6462  0.2113
 4766TIP3    H235714   4.692   6.006  13.331  0.1055  0.0842 -0.7327
 4767TIP3   OH235715   4.596   1.280  13.838  0.6265 -0.0968 -0.2715
 4767TIP3    H135716   4.551   1.247  13.760 -0.2287  3.6729 -1.5694
 4767TIP3    H235717   4.677   1.318  13.804  0.7459  0.6725  0.8289
 4768TIP3   OH235718   6.068   0.324  15.575 -0.0480  0.4619  0.1706
 4768TIP3    H135719   6.104   0.349  15.660  2.6810  1.9932 -1.2884
 4768TIP3    H235720   5.975   0.346  15.580 -0.5591 -1.7890  3.5003
 4769TIP3   OH235721   4.905   5.213  17.050 -0.0622  0.0995  0.2415
 4769TIP3    H135722   4.969   5.185  16.984  0.1955  1.1328  0.0412
 4769TIP3    H235723   4.922   5.306  17.062 -0.5159  0.0519  1.3306
 4770TIP3   OH235724   2.353   6.045   3.792  0.0160  0.2966  0.4376
 4770TIP3    H135725   2.430   6.099   3.776 -0.0101  0.0605 -0.6145
 4770TIP3    H235726   2.379   5.984   3.860  1.0037 -0.2320 -0.3826
 4771TIP3   OH235727   0.270   6.320  14.681  0.4079 -0.0916  0.1586
 4771TIP3    H135728   0.279   6.350  14.772  2.0604  0.2806 -0.0948
 4771TIP3    H235729   0.349   6.267  14.666  0.6484  0.6595 -1.3561
 4772TIP3   OH235730   1.292   4.559  14.809  0.4631 -0.6334 -0.1989
 4772TIP3    H135731   1.385   4.576  14.826  0.6205 -0.1400 -1.4625
 4772TIP3    H235732   1.260   4.519  14.890  2.0119 -1.7231 -0.0672
 4773TIP3   OH235733   5.820   4.288  16.905 -0.2567 -0.3235  0.0005
 4773TIP3    H135734   5.915   4.282  16.907 -0.2284  0.1934  0.1360
 4773TIP3    H235735   5.792   4.261  16.993 -0.3222 -1.8620 -0.4511
 4774TIP3   OH235736   2.992   2.773  16.281  0.3715 -0.1902 -0.6364
 4774TIP3    H135737   2.944   2.743  16.203  1.8571  0.8198 -2.0042
 4774TIP3    H235738   3.064   2.825  16.246  1.4445 -0.1958  1.4205
 4775TIP3   OH235739   2.453   0.512  11.574 -0.0530 -0.9101 -0.3576
 4775TIP3    H135740   2.525   0.450  11.559 -0.2642 -0.6853 -2.5825
 4775TIP3    H235741   2.385   0.487  11.511 -0.8603  0.4745 -0.0883
 4776TIP3   OH235742   6.692   6.667  15.182  0.0417 -0.1883 -0.5772
 4776TIP3    H135743   6.787   6.672  15.175  0.3055 -3.0557 -0.4489
 4776TIP3    H235744   6.676   6.642  15.274 -0.8272  0.1237 -0.6343
 4777TIP3   OH235745   2.405   5.495   4.519  0.0660 -0.2258 -0.2579
 4777TIP3    H135746   2.379   5.432   4.451  0.8796 -1.5000  0.5685
 4777TIP3    H235747   2.322   5.520   4.560 -0.3379 -0.1780 -1.0662
 4778TIP3   OH235748   0.665   0.493   2.735 -0.1088  0.3648 -0.6139
 4778TIP3    H135749   0.571   0.507   2.729 -0.3123 -0.0056  1.0938
 4778TIP3    H235750   0.698   0.570   2.781  0.3648  0.3213 -0.8758
 4779TIP3   OH235751   0.559   1.150   1.993  0.2684 -0.0457 -0.0468
 4779TIP3    H135752   0.478   1.195   2.016 -0.3457  0.0453 -2.1259
 4779TIP3    H235753   0.617   1.163   2.068 -0.6941  2.2259  0.3859
 4780TIP3   OH235754   5.905   1.036  11.268 -0.0603  0.8846 -0.7057
 4780TIP3    H135755   5.922   1.119  11.313  1.3216  1.1267 -1.6243
 4780TIP3    H235756   5.896   1.060  11.176 -0.9330  0.1552 -0.8261
 4781TIP3   OH235757   0.078   3.429  17.081 -0.2583 -0.0042  0.2642
 4781TIP3    H135758   0.139   3.359  17.058 -1.1004 -0.7562  0.2859
 4781TIP3    H235759   0.051   3.409  17.171  0.5661  1.1400  0.7941
 4782TIP3   OH235760   4.656   0.305  12.963 -0.2812 -0.1110 -0.5130
 4782TIP3    H135761   4.687   0.276  12.877  0.3277 -1.3793  0.1087
 4782TIP3    H235762   4.686   0.237  13.023 -1.5996  0.2304  0.5710
 4783TIP3   OH235763   5.224   4.491   3.109  0.3172 -0.2204 -0.7104
 4783TIP3    H135764   5.272   4.474   3.190  0.9321 -0.0540 -1.0285
 4783TIP3    H235765   5.252   4.420   3.050  0.6514  0.2216 -1.0972
 4784TIP3   OH235766   3.885   0.435  12.823  0.4637 -0.0015  0.0250
 4784TIP3    H135767   3.833   0.422  12.903  1.4052 -0.2963  0.6031
 4784TIP3    H235768   3.970   0.395  12.842  0.5605 -0.4788 -1.3006
 4785TIP3   OH235769   6.055   0.763  14.338 -0.4895 -0.1883  0.2494
 4785TIP3    H135770   6.045   0.801  14.426  0.7628  0.3226  0.2042
 4785TIP3    H235771   6.093   0.677  14.354 -0.3382 -0.1277  0.2241
 4786TIP3   OH235772   2.268   3.685  14.057  0.3054  0.1459  0.1742
 4786TIP3    H135773   2.205   3.643  13.999 -1.2817  1.7476  0.6264
 4786TIP3    H235774   2.314   3.747  14.002 -0.4530  0.9003  0.3579
 4787TIP3   OH235775   4.146   4.512   3.383  0.7398 -0.1347  0.1959
 4787TIP3    H135776   4.149   4.437   3.441  1.5497  0.4997  1.0081
 4787TIP3    H235777   4.202   4.488   3.309 -0.3861 -0.9901 -0.4152
 4788TIP3   OH235778   0.383   6.572   1.446 -0.4104  0.1435 -0.3252
 4788TIP3    H135779   0.339   6.521   1.514  0.9270 -0.5795  0.0158
 4788TIP3    H235780   0.338   6.547   1.365 -1.3559  0.2717  0.1353
 4789TIP3   OH235781   5.694   1.672  15.994  0.0655 -0.5019 -0.4510
 4789TIP3    H135782   5.745   1.752  15.993  0.8561 -0.9944 -0.5614
 4789TIP3    H235783   5.755   1.605  16.026 -0.0405 -1.4031 -2.0654
 4790TIP3   OH235784   1.450   3.176  10.763 -0.4087 -0.2109 -0.1725
 4790TIP3    H135785   1.537   3.212  10.779 -0.7643  0.0696  1.3640
 4790TIP3    H235786   1.449   3.093  10.811 -1.0924 -0.0410  0.1269
 4791TIP3   OH235787   3.590   3.923  15.457 -0.1625  0.3089 -0.3236
 4791TIP3    H135788   3.526   3.852  15.456  0.1200  0.0426  0.0909
 4791TIP3    H235789   3.550   3.990  15.512 -0.3913  0.4333 -0.6417
 4792TIP3   OH235790   5.286   2.697  12.376  0.3048 -0.6790 -0.4365
 4792TIP3    H135791   5.213   2.746  12.338 -0.2654 -1.0746  0.1373
 4792TIP3    H235792   5.263   2.605  12.364 -1.2034 -0.9267  3.1436
 4793TIP3   OH235793   6.229   0.862  17.149  0.0634  0.1349  0.0752
 4793TIP3    H135794   6.180   0.941  17.171 -1.5207 -0.4969 -1.0337
 4793TIP3    H235795   6.173   0.790  17.177  1.5564 -0.6478  1.2226
 4794TIP3   OH235796   1.902   5.392  10.680  0.2704 -0.0473 -0.3014
 4794TIP3    H135797   1.922   5.470  10.733  2.6357 -0.9276  0.2314
 4794TIP3    H235798   1.807   5.385  10.682  0.1616  1.1055  2.1844
 4795TIP3   OH235799   3.175   3.043   1.787  0.8754  0.0824 -0.4032
 4795TIP3    H135800   3.084   3.065   1.804  0.5703  0.1158 -1.9356
 4795TIP3    H235801   3.216   3.039   1.874 -0.5066  0.3487  0.2805
 4796TIP3   OH235802   2.011   2.520   3.141 -0.5729  0.2702 -0.4033
 4796TIP3    H135803   1.975   2.581   3.077  0.6007 -0.6431 -2.0485
 4796TIP3    H235804   1.947   2.448   3.144 -0.4293  0.1108 -0.9264
 4797TIP3   OH235805   4.776   3.030  16.713 -0.6182 -0.0116  0.4272
 4797TIP3    H135806   4.723   3.109  16.715 -0.0718  0.3874 -0.4229
 4797TIP3    H235807   4.739   2.977  16.643 -0.8716 -0.4369  0.8752
 4798TIP3   OH235808   2.924   0.832   4.053  1.0439 -0.2492  0.3763
 4798TIP3    H135809   2.882   0.796   4.131  1.6605 -1.0145  0.3679
 4798TIP3    H235810   2.864   0.809   3.981  1.8237 -2.0777  0.2471
 4799TIP3   OH235811   1.993   4.253  13.080  0.2075  0.0593 -0.0240
 4799TIP3    H135812   1.935   4.177  13.086  0.8305 -0.3466  1.1857
 4799TIP3    H235813   2.075   4.224  13.118  0.1162  1.6745  1.5471
 4800TIP3   OH235814   5.093   4.391  11.832 -0.4175 -0.2624  0.1047
 4800TIP3    H135815   5.079   4.479  11.867  2.2213  0.4779 -0.4776
 4800TIP3    H235816   5.057   4.395  11.744  1.2623  0.8951 -0.5968
 4801TIP3   OH235817   2.342   6.384   5.704 -0.0213  0.6526  0.0103
 4801TIP3    H135818   2.344   6.358   5.796 -0.2151 -0.0781 -0.1902
 4801TIP3    H235819   2.432   6.370   5.674 -0.2458 -0.3422 -0.2407
 4802TIP3   OH235820   4.203   3.369  16.583  0.3809 -0.1296  0.2785
 4802TIP3    H135821   4.201   3.465  16.576  0.4116  0.0004  1.6832
 4802TIP3    H235822   4.168   3.351  16.670 -1.0481 -1.4962 -0.5349
 4803TIP3   OH235823   3.111   5.313  13.614 -0.0194  0.1613  0.1874
 4803TIP3    H135824   3.089   5.221  13.611  0.3804  0.0077  1.3014
 4803TIP3    H235825   3.076   5.344  13.698 -0.3625  1.0781 -0.2776
 4804TIP3   OH235826   5.942   5.220  14.132 -0.5086  0.1323 -0.3008
 4804TIP3    H135827   5.852   5.247  14.148 -0.7291 -1.6362  1.9500
 4804TIP3    H235828   5.949   5.134  14.173  2.7129  1.0267  1.4224
 4805TIP3   OH235829   6.182   2.633  12.514  0.0049  0.6654 -0.0381
 4805TIP3    H135830   6.227   2.694  12.456  2.6397 -0.0571  1.0870
 4805TIP3    H235831   6.152   2.563  12.456 -0.6128  1.6675 -0.9622
 4806TIP3   OH235832   1.756   4.211   4.858 -0.3787 -0.0295  0.2393
 4806TIP3    H135833   1.790   4.133   4.901 -0.4095  0.9790  2.1880
 4806TIP3    H235834   1.833   4.253   4.818 -0.3888 -1.0943 -0.9754
 4807TIP3   OH235835   3.695   1.102  16.580  0.4668 -0.0788 -0.1601
 4807TIP3    H135836   3.723   1.012  16.561  1.2484  0.1932 -0.3250
 4807TIP3    H235837   3.761   1.157  16.538  2.3032  0.5648  3.2638
 4808TIP3   OH235838   2.780   6.356   3.045  0.1242  0.2908  0.0596
 4808TIP3    H135839   2.852   6.302   3.013  0.8202  1.8624 -1.2118
 4808TIP3    H235840   2.703   6.300   3.039  0.5265 -0.1475 -2.7152
 4809TIP3   OH235841   3.186   2.639   0.910 -0.2125 -0.2054  0.0941
 4809TIP3    H135842   3.154   2.606   0.994  0.1673  1.8756  1.1118
 4809TIP3    H235843   3.280   2.620   0.911 -0.2388 -0.3445  0.0423
 4810TIP3   OH235844   4.005   0.806   4.358 -0.2241 -0.4105 -0.1205
 4810TIP3    H135845   3.964   0.761   4.284 -1.3006 -0.3345  0.4176
 4810TIP3    H235846   3.943   0.797   4.429  0.9013 -0.6822  0.8605
 4811TIP3   OH235847   0.799   3.543   0.800 -0.3965 -0.1202 -0.4623
 4811TIP3    H135848   0.724   3.599   0.782  0.2012  0.9885  0.3582
 4811TIP3    H235849   0.774   3.494   0.878 -0.4237 -0.0305 -0.4139
 4812TIP3   OH235850   0.372   5.522  15.563  0.2202  0.2169 -0.4783
 4812TIP3    H135851   0.283   5.557  15.556  0.6825  1.4445 -0.5914
 4812TIP3    H235852   0.378   5.490  15.653 -0.2182  0.4645 -0.3575
 4813TIP3   OH235853   6.118   2.881   4.289  0.2774  0.0497 -0.4323
 4813TIP3    H135854   6.137   2.831   4.369  1.2550  2.0311  0.6678
 4813TIP3    H235855   6.034   2.923   4.307 -0.1300 -0.5018 -1.0072
 4814TIP3   OH235856   1.594   2.523   4.028 -0.7167 -0.6622 -0.7459
 4814TIP3    H135857   1.637   2.554   4.108  0.9689  0.5788 -2.0544
 4814TIP3    H235858   1.514   2.482   4.059 -0.6572  0.7106  1.5145
 4815TIP3   OH235859   2.529   4.359   3.460 -0.1624  0.3942 -0.4590
 4815TIP3    H135860   2.612   4.407   3.458  0.2045 -0.1947  0.3322
 4815TIP3    H235861   2.463   4.426   3.440  0.4723  0.9105 -0.8845
 4816TIP3   OH235862   4.069   1.051  14.237  0.3708 -0.2443  0.2916
 4816TIP3    H135863   4.075   1.134  14.189  0.8563 -0.7206 -0.4895
 4816TIP3    H235864   4.160   1.026  14.253  0.2222 -0.4805  0.7965
 4817TIP3   OH235865   3.797   4.107  13.514  0.1274  0.5933 -0.1685
 4817TIP3    H135866   3.733   4.083  13.581  1.3559  1.7702  1.5126
 4817TIP3    H235867   3.880   4.114  13.562  1.2856  0.3413 -2.0445
 4818TIP3   OH235868   6.215   6.164  13.954  0.5820 -0.2808  0.1839
 4818TIP3    H135869   6.291   6.215  13.929  1.3335 -0.1191  2.5405
 4818TIP3    H235870   6.250   6.079  13.980 -0.1935 -0.6627  0.0251
 4819TIP3   OH235871   3.914   3.078   5.088 -0.4481  0.4306  0.0705
 4819TIP3    H135872   3.825   3.112   5.083 -0.6576 -0.2598 -1.8300
 4819TIP3    H235873   3.933   3.073   5.182 -2.1042  1.3096  0.4952
 4820TIP3   OH235874   4.018   3.945   4.710 -0.3752 -0.1624 -0.3643
 4820TIP3    H135875   4.071   3.973   4.635  0.4437 -1.4084 -0.2735
 4820TIP3    H235876   3.930   3.978   4.690 -0.0246  0.1184 -1.5486
 4821TIP3   OH235877   4.332   1.974  13.573 -0.1757 -0.1301 -0.2457
 4821TIP3    H135878   4.258   1.926  13.538 -0.3619  0.4058 -0.6038
 4821TIP3    H235879   4.295   2.030  13.642  0.3227 -1.8576  1.5310
 4822TIP3   OH235880   4.597   6.206  14.529 -0.0135 -0.1222 -0.0139
 4822TIP3    H135881   4.686   6.214  14.494 -0.5209  0.2827 -1.2618
 4822TIP3    H235882   4.552   6.285  14.498 -0.7764 -0.2666  0.7055
 4823TIP3   OH235883   2.525   0.425   2.424  0.0927  0.4956 -0.3498
 4823TIP3    H135884   2.455   0.490   2.418 -0.1989  0.1524 -0.6932
 4823TIP3    H235885   2.539   0.396   2.334  0.4207  0.2931 -0.2344
 4824TIP3   OH235886   6.431   0.608  14.196 -0.5017  0.0524  0.3158
 4824TIP3    H135887   6.478   0.686  14.225 -0.6512  1.0304 -1.9017
 4824TIP3    H235888   6.466   0.537  14.251  0.4164  1.4696  1.6428
 4825TIP3   OH235889   0.911   2.531   2.148  0.3594 -0.2741  0.0732
 4825TIP3    H135890   0.936   2.492   2.065  1.6523  1.3641 -0.3538
 4825TIP3    H235891   0.816   2.541   2.142  0.6605  2.0964 -2.3070
 4826TIP3   OH235892   1.942   1.742  15.532  0.3433  0.4002  0.3394
 4826TIP3    H135893   2.023   1.779  15.496  1.1765 -0.4215  1.2649
 4826TIP3    H235894   1.935   1.781  15.619  1.3562 -1.6684  1.4196
 4827TIP3   OH235895   5.337   1.331  16.962 -0.4650  0.1167 -0.0322
 4827TIP3    H135896   5.377   1.409  17.001 -0.3839  0.5272 -0.9199
 4827TIP3    H235897   5.330   1.269  17.035  1.6557  0.0670  0.2094
 4828TIP3   OH235898   1.991   6.519   5.417  0.4338  0.3886  0.2638
 4828TIP3    H135899   2.049   6.571   5.362 -0.2558  1.4819  0.5512
 4828TIP3    H235900   1.903   6.534   5.382  0.1545 -0.0674  0.7461
 4829TIP3   OH235901   3.022   2.990   5.161 -0.5254  0.5636  0.6318
 4829TIP3    H135902   2.948   3.051   5.158 -0.9780  0.0203  0.6525
 4829TIP3    H235903   3.093   3.037   5.117 -1.7182 -0.0249 -2.1216
 4830TIP3   OH235904   0.071   0.828   2.389 -0.1440  0.4892 -0.2990
 4830TIP3    H135905   0.131   0.807   2.461 -1.0191 -0.3440  0.2163
 4830TIP3    H235906   0.111   0.788   2.312  0.2750  0.4857 -0.0821
 4831TIP3   OH235907   3.160   0.094   5.846  0.0812  0.1928 -0.1349
 4831TIP3    H135908   3.136   0.047   5.927 -0.2279  1.2954  0.4282
 4831TIP3    H235909   3.232   0.042   5.810 -0.9530 -1.3423 -0.1238
 4832TIP3   OH235910   3.361   5.098   5.362  0.1930  0.1913 -0.1138
 4832TIP3    H135911   3.357   5.107   5.457  0.3837  1.4470 -0.2006
 4832TIP3    H235912   3.414   5.172   5.333  0.1092 -0.1510 -1.2007
 4833TIP3   OH235913   3.166   5.018   2.143 -0.1919 -0.0084  0.4692
 4833TIP3    H135914   3.252   5.020   2.186 -1.0684 -3.0125  2.7050
 4833TIP3    H235915   3.104   5.040   2.212 -1.3680  1.3383 -0.9291
 4834TIP3   OH235916   0.343   1.768   4.044 -0.5236  0.0470 -0.4882
 4834TIP3    H135917   0.301   1.682   4.044 -0.1044 -0.1698 -1.3567
 4834TIP3    H235918   0.429   1.753   4.006 -0.7876  1.0003 -1.5144
 4835TIP3   OH235919   3.266   4.110  13.132 -0.5857 -0.5832  0.2427
 4835TIP3    H135920   3.228   4.175  13.073  1.3028 -1.3460 -1.9999
 4835TIP3    H235921   3.360   4.130  13.132 -0.4245 -1.0397  2.5402
 4836TIP3   OH235922   6.603   6.064  17.107  0.5375  0.2078  0.1820
 4836TIP3    H135923   6.544   6.053  17.181  0.3549 -0.9038 -0.1153
 4836TIP3    H235924   6.544   6.071  17.031  0.7692 -1.2604 -0.1598
 4837TIP3   OH235925   6.061   0.527   6.437 -0.0381  0.2503 -0.1703
 4837TIP3    H135926   5.974   0.490   6.449 -0.3271 -0.1074 -2.7340
 4837TIP3    H235927   6.109   0.461   6.389  0.8321  1.4353 -0.9937
 4838TIP3   OH235928   4.233   5.261  12.375 -0.2504  0.1075  0.1144
 4838TIP3    H135929   4.210   5.343  12.332  0.7348 -0.6079 -1.9022
 4838TIP3    H235930   4.150   5.228  12.410 -0.6004  2.0930  1.3144
 4839TIP3   OH235931   4.435   0.104  14.449  0.0508 -0.5129 -0.1267
 4839TIP3    H135932   4.430   0.199  14.438 -1.9479 -0.4460  0.8430
 4839TIP3    H235933   4.462   0.091  14.540 -1.2385 -0.8184  0.2358
 4840TIP3   OH235934   5.884   3.514  16.659  0.2288  0.0157  0.6331
 4840TIP3    H135935   5.885   3.433  16.709 -0.6416 -1.1263 -1.1021
 4840TIP3    H235936   5.857   3.581  16.722  2.0227 -0.7905  2.3741
 4841TIP3   OH235937   2.928   3.045  12.544  0.5357 -0.0457  0.1179
 4841TIP3    H135938   2.879   2.976  12.500 -1.7486  2.3625 -1.4381
 4841TIP3    H235939   3.015   3.044  12.502 -0.2390 -0.4994 -1.5461
 4842TIP3   OH235940   1.877   2.256  11.875 -0.3439 -0.0792 -0.3037
 4842TIP3    H135941   1.845   2.212  11.954  2.1550  2.6665  2.5221
 4842TIP3    H235942   1.812   2.323  11.856 -0.3614  0.0527  0.2177
 4843TIP3   OH235943   1.169   0.187  12.907 -0.0886 -0.0086  0.1166
 4843TIP3    H135944   1.166   0.257  12.841 -1.0082  2.4938  2.5804
 4843TIP3    H235945   1.084   0.144  12.900  0.7067 -1.4170 -1.8291
 4844TIP3   OH235946   0.985   5.490   2.255  0.7811  0.2347  0.0364
 4844TIP3    H135947   1.028   5.537   2.183  1.5891  0.0665  0.4042
 4844TIP3    H235948   0.993   5.398   2.231  1.2118  0.1675  0.4201
 4845TIP3   OH235949   4.132   5.072  11.632  0.7244  0.1459 -0.3472
 4845TIP3    H135950   4.040   5.071  11.659  1.0951  1.5135  1.1296
 4845TIP3    H235951   4.174   5.007  11.689  0.8812  0.3949 -0.1786
 4846TIP3   OH235952   2.736   1.386  15.141 -0.2611 -0.4466 -0.0172
 4846TIP3    H135953   2.677   1.449  15.101 -0.2032 -0.5847 -0.3181
 4846TIP3    H235954   2.765   1.429  15.222 -2.0296 -1.0110  0.9895
 4847TIP3   OH235955   5.575   0.674   0.962 -0.4184 -0.1802  0.2696
 4847TIP3    H135956   5.552   0.587   0.930 -0.8110  0.0843 -0.1736
 4847TIP3    H235957   5.662   0.662   1.002 -0.9525 -1.0201  1.2566
 4848TIP3   OH235958   3.911   0.554  15.252 -0.1578  0.1727  0.1504
 4848TIP3    H135959   3.962   0.486  15.209 -0.3349  0.8785 -1.2177
 4848TIP3    H235960   3.829   0.558  15.203 -0.6572  0.5291  0.9868
 4849TIP3   OH235961   2.403   3.832   3.143  0.6916 -0.2799 -0.2749
 4849TIP3    H135962   2.424   3.908   3.089 -0.2644  0.1068 -0.1082
 4849TIP3    H235963   2.455   3.845   3.223  2.0021 -0.7836 -1.0041
 4850TIP3   OH235964   1.365   1.431  12.480 -0.2798 -0.6632 -0.0278
 4850TIP3    H135965   1.426   1.368  12.516 -1.4414 -1.4852  0.5630
 4850TIP3    H235966   1.401   1.516  12.503  0.1848 -1.1454  1.0608
 4851TIP3   OH235967   3.686   6.118   4.069 -0.1137  0.2439  0.5658
 4851TIP3    H135968   3.736   6.182   4.019  0.9378 -0.6994  0.3535
 4851TIP3    H235969   3.666   6.162   4.152  1.4415  0.5208  0.8200
 4852TIP3   OH235970   4.992   1.970   5.296  0.0924  0.1163  0.1952
 4852TIP3    H135971   4.912   1.927   5.267 -0.8766  1.0393  1.3518
 4852TIP3    H235972   5.007   1.936   5.384  1.4187 -0.5952 -0.2714
 4853TIP3   OH235973   5.350   0.676   5.894  0.3280 -0.4304 -0.1952
 4853TIP3    H135974   5.308   0.761   5.882 -0.6700 -0.6203  1.5113
 4853TIP3    H235975   5.415   0.691   5.963  1.3625 -0.6934 -1.0907
 4854TIP3   OH235976   5.953   3.211  12.197 -0.2179  0.2244  0.3299
 4854TIP3    H135977   5.887   3.145  12.178  0.1099 -0.2503  0.8056
 4854TIP3    H235978   5.919   3.258  12.273  0.0694 -0.1426  0.6913
 4855TIP3   OH235979   0.390   5.392  13.510  0.2578 -0.4552  0.1841
 4855TIP3    H135980   0.420   5.315  13.462  1.4981 -0.9589  1.6951
 4855TIP3    H235981   0.351   5.357  13.590  1.0250  0.4760  0.9897
 4856TIP3   OH235982   0.435   2.098  16.846 -0.1334 -0.3348 -0.7006
 4856TIP3    H135983   0.462   2.035  16.914 -0.0237  0.4307 -0.0257
 4856TIP3    H235984   0.460   2.056  16.764 -0.3259 -1.3084 -0.2792
 4857TIP3   OH235985   1.976   2.487  10.396  0.4333 -0.0059 -1.0397
 4857TIP3    H135986   2.041   2.556  10.414  0.1016  0.0764 -0.1149
 4857TIP3    H235987   2.011   2.409  10.439 -0.5834  0.2983  0.4071
 4858TIP3   OH235988   1.418   1.418  16.275  0.4117 -0.2698 -0.3765
 4858TIP3    H135989   1.503   1.440  16.236 -0.1848 -0.5250 -1.8835
 4858TIP3    H235990   1.359   1.486  16.243 -0.2575 -0.9250 -0.5569
 4859TIP3   OH235991   6.481   5.007   0.174  0.2248 -0.9710 -0.5835
 4859TIP3    H135992   6.515   5.020   0.262 -1.3956 -2.1018  0.2617
 4859TIP3    H235993   6.508   5.085   0.126 -0.7619  0.7599  1.5308
 4860TIP3   OH235994   5.560   2.572  15.950  0.0791 -0.2979  0.3443
 4860TIP3    H135995   5.584   2.641  15.888  0.4154  0.7945  1.6431
 4860TIP3    H235996   5.642   2.549  15.993 -0.3084 -0.3010  1.0973
 4861TIP3   OH235997   5.259   6.077  11.587 -0.4596 -0.7752  0.4055
 4861TIP3    H135998   5.192   6.011  11.568 -1.0694 -0.0966  0.1399
 4861TIP3    H235999   5.283   6.111  11.501  0.0489 -0.8425  0.5220
 4862TIP3   OH236000   0.077   0.604   5.158 -0.4216 -0.4359  0.6089
 4862TIP3    H136001   0.013   0.634   5.223 -1.1888 -0.7589  0.0088
 4862TIP3    H236002   0.131   0.541   5.206 -0.7205 -0.3667  1.0466
 4863TIP3   OH236003   3.961   5.062  14.306  0.1030  0.0448 -0.1636
 4863TIP3    H136004   3.899   5.065  14.380  0.5010 -0.7325  0.2241
 4863TIP3    H236005   3.955   5.148  14.266 -1.0420  0.0753  0.0225
 4864TIP3   OH236006   0.573   0.496   3.314  0.3640 -0.4509 -0.0017
 4864TIP3    H136007   0.582   0.547   3.394  2.1881 -0.4269 -0.1827
 4864TIP3    H236008   0.610   0.410   3.335  0.0387 -0.7399 -0.5620
 4865TIP3   OH236009   1.896   4.152   1.154  0.7317  0.3942 -0.4265
 4865TIP3    H136010   1.975   4.122   1.109  0.3809 -4.7137  1.6993
 4865TIP3    H236011   1.824   4.120   1.099  0.2923 -1.1132  0.9538
 4866TIP3   OH236012   1.364   4.919   5.453  0.5561 -0.4897 -0.5099
 4866TIP3    H136013   1.416   4.882   5.382  1.1041  0.4591 -0.6304
 4866TIP3    H236014   1.291   4.859   5.464  0.9578 -1.1310 -1.2594
 4867TIP3   OH236015   3.238   5.729  16.867 -0.0749  0.0432  0.1525
 4867TIP3    H136016   3.268   5.758  16.781  1.3734  1.7266  1.1638
 4867TIP3    H236017   3.264   5.636  16.871 -1.1592 -0.3649 -1.6112
 4868TIP3   OH236018   2.528   3.428  15.138  0.3110 -0.1471  0.2528
 4868TIP3    H136019   2.473   3.353  15.113 -0.0565  0.7469 -1.8346
 4868TIP3    H236020   2.553   3.410  15.228 -2.7871 -0.9523  1.0556
 4869TIP3   OH236021   4.256   0.677   5.258 -0.1061 -0.6168 -0.2155
 4869TIP3    H136022   4.239   0.697   5.166 -1.7372  0.4393  0.2701
 4869TIP3    H236023   4.215   0.749   5.306  0.5507 -1.2439  1.3525
 4870TIP3   OH236024   2.609   2.774   4.717  0.6906  0.3661  0.4133
 4870TIP3    H136025   2.546   2.832   4.674  0.1034  1.4734  2.5865
 4870TIP3    H236026   2.644   2.826   4.789  0.9854 -1.6170  1.7863
 4871TIP3   OH236027   0.770   3.742  17.082 -0.7135 -0.1945  0.2937
 4871TIP3    H136028   0.843   3.695  17.121 -0.9040 -0.7549 -0.0246
 4871TIP3    H236029   0.779   3.728  16.988 -1.4178 -0.5430  0.2743
 4872TIP3   OH236030   1.610   4.950   5.641 -1.0825  0.4944 -0.1117
 4872TIP3    H136031   1.617   4.855   5.631 -0.2352  0.4826  0.4561
 4872TIP3    H236032   1.519   4.970   5.620 -1.0212 -0.3115 -1.2644
 4873TIP3   OH236033   4.294   1.840  12.254  0.1935  0.3937 -0.0138
 4873TIP3    H136034   4.295   1.886  12.170  0.0961 -1.5276 -1.1020
 4873TIP3    H236035   4.207   1.858  12.290 -0.0427  0.6069 -0.6736
 4874TIP3   OH236036   4.520   6.373  13.323 -0.1772  0.2810 -0.0629
 4874TIP3    H136037   4.467   6.442  13.283 -1.0924  0.3195  1.1820
 4874TIP3    H236038   4.560   6.415  13.400 -2.2109 -1.0112  1.7975
 4875TIP3   OH236039   3.886   6.093   4.773  0.0681  0.2742 -0.1233
 4875TIP3    H136040   3.871   6.076   4.680 -0.1304 -1.4437  0.1910
 4875TIP3    H236041   3.866   6.010   4.816  0.4184  0.9630  1.4308
 4876TIP3   OH236042   1.414   6.535  15.577  0.5074  0.8521 -0.3662
 4876TIP3    H136043   1.409   6.486  15.495 -2.9685 -1.9966  1.2577
 4876TIP3    H236044   1.487   6.494  15.624  0.6047  0.4543 -0.8460
 4877TIP3   OH236045   0.752   3.316  11.622  0.0927 -0.5448  0.6673
 4877TIP3    H136046   0.818   3.247  11.632  1.3554  0.8326  2.2442
 4877TIP3    H236047   0.802   3.397  11.621 -1.4655  0.4330  0.1214
 4878TIP3   OH236048   4.348   0.428  13.273  0.5285 -0.5771 -0.0971
 4878TIP3    H136049   4.421   0.416  13.334 -0.3160  0.5486  1.1865
 4878TIP3    H236050   4.282   0.474  13.324 -1.5244 -2.4786 -0.8750
 4879TIP3   OH236051   3.649   1.139   1.426 -0.4282  0.6817  0.2474
 4879TIP3    H136052   3.562   1.145   1.467 -0.0568 -0.5091  1.2620
 4879TIP3    H236053   3.708   1.116   1.497  0.3248 -0.9295 -0.8478
 4880TIP3   OH236054   6.209   0.581   1.511  0.0303 -0.7877  0.6294
 4880TIP3    H136055   6.179   0.651   1.570 -1.1228 -0.6139 -0.1218
 4880TIP3    H236056   6.134   0.521   1.506  0.4919 -1.3379  0.1546
 4881TIP3   OH236057   0.885   1.299  11.132  0.3725 -0.3987 -0.4997
 4881TIP3    H136058   0.979   1.294  11.113  0.8560 -0.8887  1.6876
 4881TIP3    H236059   0.854   1.371  11.078  2.3872  0.9167 -0.0438
 4882TIP3   OH236060   5.694   6.664  15.037 -0.1352 -0.5810  0.0509
 4882TIP3    H136061   5.693   6.653  14.941 -1.2634 -1.3382  0.1353
 4882TIP3    H236062   5.605   6.691  15.059  0.2513  0.0738  0.8483
 4883TIP3   OH236063   3.856   4.939   4.280 -0.3607  0.3404 -0.0056
 4883TIP3    H136064   3.843   5.027   4.247  0.9371  0.8032  0.6528
 4883TIP3    H236065   3.873   4.886   4.202 -1.2568  0.6338 -0.4115
 4884TIP3   OH236066   5.889   5.752  12.024 -0.0404  0.7529 -0.5152
 4884TIP3    H136067   5.945   5.822  12.057  0.1707  0.7388 -0.8323
 4884TIP3    H236068   5.936   5.717  11.948  0.3345 -0.3902  0.2089
 4885TIP3   OH236069   5.141   6.000   3.983 -0.1771 -0.1036 -0.3547
 4885TIP3    H136070   5.157   5.961   3.897  0.2367 -0.7204 -0.0085
 4885TIP3    H236071   5.105   5.928   4.035  1.2198 -0.2201  0.4881
 4886TIP3   OH236072   3.831   4.609  12.808 -0.4741  0.0458 -0.4495
 4886TIP3    H136073   3.807   4.587  12.898 -0.2622  0.3557 -0.3163
 4886TIP3    H236074   3.894   4.542  12.783 -1.2492 -0.6119 -0.7071
 4887TIP3   OH236075   6.455   5.320   3.775  0.2732  0.1348 -0.1399
 4887TIP3    H136076   6.387   5.347   3.713  0.9750 -1.6775 -1.7890
 4887TIP3    H236077   6.424   5.236   3.809  1.4956 -0.5553 -0.6762
 4888TIP3   OH236078   4.509   4.104  15.304 -0.5399  0.5804 -0.0401
 4888TIP3    H136079   4.508   4.061  15.389  0.4261  2.1252  0.7830
 4888TIP3    H236080   4.551   4.188  15.319 -0.6870  1.0575 -1.9749
 4889TIP3   OH236081   6.460   2.414  11.065  0.0582 -0.1117  0.0309
 4889TIP3    H136082   6.519   2.432  11.138 -2.0142  0.7402  1.5644
 4889TIP3    H236083   6.489   2.475  10.996  0.2458  1.1356  1.1702
 4890TIP3   OH236084   4.304   6.783  13.564 -0.0386  0.3703  0.0705
 4890TIP3    H136085   4.304   6.878  13.573  0.5821  0.3710  0.1169
 4890TIP3    H236086   4.301   6.750  13.654  0.4709  0.3532  0.0843
 4891TIP3   OH236087   3.486   6.602  10.924  0.2841 -0.5755  0.1380
 4891TIP3    H136088   3.497   6.526  10.868  0.6023 -2.5344  2.7079
 4891TIP3    H236089   3.484   6.676  10.863  0.0158 -2.5789 -2.4558
 4892TIP3   OH236090   0.877   0.881  16.481 -0.0675 -0.2330 -0.2272
 4892TIP3    H136091   0.927   0.962  16.494  0.1570 -0.2395 -0.9689
 4892TIP3    H236092   0.819   0.901  16.408 -0.0311 -0.7298 -0.3952
 4893TIP3   OH236093   1.580   5.981  12.361 -0.1663  0.1556  0.4555
 4893TIP3    H136094   1.511   6.014  12.303  1.4052  1.3275 -0.8322
 4893TIP3    H236095   1.660   6.025  12.332  0.8868  0.0818  2.9325
 4894TIP3   OH236096   2.889   1.447   2.061 -0.0955 -0.1113  0.1223
 4894TIP3    H136097   2.909   1.528   2.108 -0.6092  0.2901 -0.3453
 4894TIP3    H236098   2.877   1.381   2.130 -0.1272  0.3108  0.5207
 4895TIP3   OH236099   3.600   6.720   5.443  0.5256 -1.2048  0.5017
 4895TIP3    H136100   3.678   6.684   5.400  1.2156 -1.2394  1.7430
 4895TIP3    H236101   3.558   6.644   5.483  1.1602 -0.8821  1.8383
 4896TIP3   OH236102   1.408   0.553  11.958  0.1605 -0.1570  0.5418
 4896TIP3    H136103   1.375   0.540  11.869 -1.0481  0.0461  0.9430
 4896TIP3    H236104   1.476   0.487  11.968  0.0622 -0.4177 -0.4093
 4897TIP3   OH236105   2.947   1.437   5.999 -0.2881  0.0798  0.1166
 4897TIP3    H136106   2.868   1.393   5.968  0.5254 -1.3034 -0.0688
 4897TIP3    H236107   2.971   1.391   6.079  0.9062 -0.2151 -0.3897
 4898TIP3   OH236108   2.069   1.721   2.282 -0.1562 -0.2183  0.1257
 4898TIP3    H136109   2.126   1.786   2.242 -0.2047 -1.6536 -2.5869
 4898TIP3    H236110   2.012   1.771   2.341  1.8851  1.6541  0.6424
 4899TIP3   OH236111   3.672   3.007   5.781  0.5276  0.1806  0.1460
 4899TIP3    H136112   3.727   2.964   5.847  0.6282 -0.5422 -0.3847
 4899TIP3    H236113   3.660   2.940   5.713 -0.0755  0.7046 -0.2813
 4900TIP3   OH236114   6.057   0.955  14.144 -0.3774  0.7118 -0.5354
 4900TIP3    H136115   6.063   0.899  14.221  1.6554 -1.9155 -2.4371
 4900TIP3    H236116   5.971   0.935  14.106  0.0019 -0.5511 -0.7523
 4901TIP3   OH236117   0.011   4.959   3.665 -0.3816  0.1510  0.7019
 4901TIP3    H136118   0.046   5.048   3.668 -0.5401  0.1853  1.7833
 4901TIP3    H236119  -0.048   4.953   3.740 -0.7135 -0.7328  0.3904
 4902TIP3   OH236120   6.510   5.778  11.636 -0.3233  0.0828  0.7362
 4902TIP3    H136121   6.454   5.728  11.576 -0.4106 -0.4943  1.2849
 4902TIP3    H236122   6.580   5.717  11.660  0.0895  0.5342  0.6874
 4903TIP3   OH236123   5.943   4.878  15.259 -0.0830 -0.0184 -0.2882
 4903TIP3    H136124   5.950   4.928  15.178  1.4085 -1.6238 -1.2198
 4903TIP3    H236125   5.931   4.787  15.230  1.4788 -0.7634  1.2488
 4904TIP3   OH236126   2.518   5.771   3.417 -0.3758  0.2699  0.1765
 4904TIP3    H136127   2.457   5.703   3.388 -0.7107  1.0002 -0.8786
 4904TIP3    H236128   2.472   5.854   3.400  1.1737  0.8762 -1.3725
 4905TIP3   OH236129   0.890   3.216   3.426  0.0708  0.0329  0.2024
 4905TIP3    H136130   0.903   3.130   3.468  2.4738 -0.5777 -1.5590
 4905TIP3    H236131   0.970   3.229   3.374 -0.8944  2.6828 -0.7621
 4906TIP3   OH236132   5.328   4.491  11.567  0.4900  0.3970  0.5757
 4906TIP3    H136133   5.326   4.587  11.568 -0.2328  0.3973 -0.1636
 4906TIP3    H236134   5.236   4.465  11.559  0.6088 -0.3777  1.5068
 4907TIP3   OH236135   1.164   6.390  14.260  0.0103  0.3671 -0.2828
 4907TIP3    H136136   1.068   6.381  14.257 -0.2796  2.0329  1.9181
 4907TIP3    H236137   1.195   6.306  14.293 -1.0679  1.0046  2.5952
 4908TIP3   OH236138   3.190   3.827  12.194  0.2241  0.1914  0.2525
 4908TIP3    H136139   3.110   3.778  12.216 -0.6921  0.6243 -1.8306
 4908TIP3    H236140   3.172   3.916  12.225 -0.3151  0.3947 -0.6172
 4909TIP3   OH236141   4.739   4.376  12.144 -0.6387 -0.1861 -0.9941
 4909TIP3    H136142   4.771   4.308  12.083  0.5274 -0.9177  0.3679
 4909TIP3    H236143   4.664   4.336  12.187  0.0314 -0.6449 -0.2116
 4910TIP3   OH236144   0.688   1.467  15.703 -0.2597  0.4768  0.0215
 4910TIP3    H136145   0.726   1.379  15.704  3.5411  1.9065  1.2623
 4910TIP3    H236146   0.643   1.475  15.787  1.6175  0.4774  1.0800
 4911TIP3   OH236147   4.883   0.730  13.926 -0.1329 -0.0546 -0.2736
 4911TIP3    H136148   4.965   0.717  13.879  0.3766  1.2659  0.2016
 4911TIP3    H236149   4.828   0.780  13.866 -0.2975 -0.2537 -0.2898
 4912TIP3   OH236150   4.349   3.092   6.424 -0.3576 -0.3535  0.0450
 4912TIP3    H136151   4.405   3.102   6.501 -0.2408 -0.2299 -0.0542
 4912TIP3    H236152   4.280   3.032   6.451 -1.1472  0.8216  0.6994
 4913TIP3   OH236153   1.022   3.430   5.500 -0.3701 -0.1751 -0.7483
 4913TIP3    H136154   1.106   3.473   5.511  1.0138 -2.6866 -0.7622
 4913TIP3    H236155   1.018   3.409   5.406 -0.4998 -1.0266 -0.5577
 4914TIP3   OH236156   5.032   3.889  13.914  0.1379 -0.2226 -0.3921
 4914TIP3    H136157   5.008   3.861  13.825 -0.7915  0.4435 -0.3639
 4914TIP3    H236158   5.118   3.849  13.929  0.0320 -0.8468 -1.3560
 4915TIP3   OH236159   2.221   3.606  11.644  0.4215 -0.4664  0.4534
 4915TIP3    H136160   2.245   3.520  11.609 -0.7282 -0.1372 -1.2545
 4915TIP3    H236161   2.219   3.593  11.739  1.2165 -2.0622  0.2938
 4916TIP3   OH236162   5.947   0.225  16.608  0.0440 -0.0603  0.4093
 4916TIP3    H136163   5.919   0.309  16.645 -0.0756 -0.8227  2.2014
 4916TIP3    H236164   5.902   0.219  16.524 -1.7776  0.6702  1.2707
 4917TIP3   OH236165   0.570   3.127  12.692  1.0761 -0.5298 -0.6943
 4917TIP3    H136166   0.567   3.157  12.601  2.7822 -0.0778 -0.6335
 4917TIP3    H236167   0.588   3.206  12.743 -1.3985 -0.4953  0.2439
 4918TIP3   OH236168   0.632   6.656   1.410 -0.1353 -0.0279 -0.5154
 4918TIP3    H136169   0.545   6.634   1.444  1.1326 -0.8018  2.5967
 4918TIP3    H236170   0.654   6.584   1.351 -1.2124 -0.3197 -0.5733
 4919TIP3   OH236171   0.693   4.754   2.671 -0.2055 -0.0594  0.4078
 4919TIP3    H136172   0.645   4.759   2.588  1.3631 -0.7463 -0.5741
 4919TIP3    H236173   0.783   4.777   2.649 -0.3492  3.3735  2.5789
 4920TIP3   OH236174   4.210   4.730   5.082 -0.1433  0.1230  0.8727
 4920TIP3    H136175   4.148   4.782   5.030  0.8046 -0.7352 -1.2220
 4920TIP3    H236176   4.160   4.704   5.159 -1.3967  2.0497  0.8012
 4921TIP3   OH236177   1.648   3.400   5.428 -0.0033  0.3511 -0.0909
 4921TIP3    H136178   1.648   3.495   5.438  0.6731  0.5552 -1.7567
 4921TIP3    H236179   1.734   3.372   5.460 -0.0807  0.3220  0.0967
 4922TIP3   OH236180   0.119   0.751   5.814 -0.3438 -1.2495  0.1699
 4922TIP3    H136181   0.126   0.701   5.895  0.3918 -3.2328 -1.0440
 4922TIP3    H236182   0.189   0.815   5.820 -0.1954 -1.4699  1.0372
 4923TIP3   OH236183   3.673   3.001   6.172  0.8925 -0.1288  0.4122
 4923TIP3    H136184   3.686   2.985   6.266  3.6783 -1.7566 -0.1569
 4923TIP3    H236185   3.720   3.083   6.155 -0.3767  0.6558  0.5465
 4924TIP3   OH236186   1.809   3.467  16.521 -0.3165 -0.8636  0.0161
 4924TIP3    H136187   1.722   3.429  16.509 -0.0891 -1.0227 -1.1801
 4924TIP3    H236188   1.862   3.394  16.554 -0.0935 -1.3885 -1.4442
 4925TIP3   OH236189   3.308   1.910  10.659 -0.3352  0.1066 -0.0088
 4925TIP3    H136190   3.220   1.882  10.633 -0.2228  0.1641 -0.4531
 4925TIP3    H236191   3.313   2.002  10.631 -0.0493  0.0338 -0.2007
 4926TIP3   OH236192   4.042   6.756  16.662 -0.0283  0.2232  0.0319
 4926TIP3    H136193   4.070   6.790  16.747  0.3205 -0.2170  0.0969
 4926TIP3    H236194   4.047   6.661  16.671 -1.1516  0.1477 -0.0962
 4927TIP3   OH236195   2.730   5.942  16.662 -0.1410 -0.4225 -0.3169
 4927TIP3    H136196   2.700   5.860  16.624 -2.4750 -0.2882  1.0472
 4927TIP3    H236197   2.652   5.998  16.662  0.6660  0.7723  1.4058
 4928TIP3   OH236198   1.922   6.073  13.781 -0.2799  0.0722  0.1529
 4928TIP3    H136199   1.897   6.029  13.863 -0.0294  1.6428  1.1192
 4928TIP3    H236200   1.868   6.152  13.779 -0.2015  0.1108 -1.1671
 4929TIP3   OH236201   4.566   5.036  16.890  0.0080  0.3134  0.1957
 4929TIP3    H136202   4.623   5.059  16.963 -0.8655  0.4613  0.8465
 4929TIP3    H236203   4.571   5.112  16.832  1.3311 -0.1362 -0.3217
 4930TIP3   OH236204   4.624   1.680  15.858  0.7520  0.0812 -0.5949
 4930TIP3    H136205   4.635   1.772  15.884  0.6522  0.1223 -0.6966
 4930TIP3    H236206   4.698   1.635  15.898 -0.2838 -0.1524  1.1543
 4931TIP3   OH236207   5.982   0.030   5.932  0.0676  0.0826 -0.5476
 4931TIP3    H136208   5.990   0.024   5.837 -0.0849  0.2452 -0.5705
 4931TIP3    H236209   6.065   0.069   5.961 -0.9836  2.7741 -0.8818
 4932TIP3   OH236210   1.091   3.956   5.397  0.3228 -0.1967  0.5856
 4932TIP3    H136211   1.166   4.005   5.363 -0.2423 -0.0544 -0.5237
 4932TIP3    H236212   1.020   4.020   5.398  0.1416 -0.4018  1.3590
 4933TIP3   OH236213   6.586   1.632   5.549 -0.0455 -0.2408 -0.2551
 4933TIP3    H136214   6.614   1.718   5.580  0.0848 -0.6927  0.9556
 4933TIP3    H236215   6.640   1.571   5.598 -0.9975 -1.0473 -0.1813
 4934TIP3   OH236216   6.231   0.536  16.868  0.0502 -0.1025 -0.8602
 4934TIP3    H136217   6.315   0.512  16.908  0.1429 -0.1704 -1.0923
 4934TIP3    H236218   6.224   0.631  16.882  1.9460  0.6694 -4.0442
 4935TIP3   OH236219   5.508   5.567  13.265 -0.0583 -0.2868  0.0708
 4935TIP3    H136220   5.569   5.505  13.226 -0.0480 -1.0895  1.3336
 4935TIP3    H236221   5.444   5.584  13.196  1.6584  0.7422 -1.3648
 4936TIP3   OH236222   2.096   5.617  15.269  0.7989 -0.2608  0.4863
 4936TIP3    H136223   2.038   5.595  15.341  1.4848  0.2531  1.2215
 4936TIP3    H236224   2.157   5.681  15.307  0.6728  0.6315 -0.7733
 4937TIP3   OH236225   3.727   1.462   3.019 -0.3777  0.6710  0.4044
 4937TIP3    H136226   3.673   1.539   3.004 -1.3633  0.4064  2.2758
 4937TIP3    H236227   3.752   1.468   3.111  1.6701  0.0634 -0.0760
 4938TIP3   OH236228   4.014   4.406   3.003 -0.7619 -0.5690 -0.0117
 4938TIP3    H136229   3.964   4.482   3.031 -0.8873 -0.2865 -0.9871
 4938TIP3    H236230   3.957   4.360   2.942  0.0004 -0.4513 -0.8376
 4939TIP3   OH236231   2.476   4.693   5.981  0.1313  0.3118 -0.3876
 4939TIP3    H136232   2.469   4.616   6.039 -1.6586  0.4634 -0.3571
 4939TIP3    H236233   2.569   4.716   5.984  0.3826 -0.7106  1.1000
 4940TIP3   OH236234   6.317   6.066  12.700 -0.7449  0.5178 -0.5359
 4940TIP3    H136235   6.352   6.134  12.642 -1.0299 -0.3364 -1.7517
 4940TIP3    H236236   6.312   5.988  12.645 -0.2111 -0.5643  0.8940
 4941TIP3   OH236237   6.414   3.809  15.336  0.1035 -0.6369  0.7735
 4941TIP3    H136238   6.328   3.792  15.297  1.7112 -1.9071 -2.5965
 4941TIP3    H236239   6.446   3.887  15.291  0.8471 -0.2822  1.8598
 4942TIP3   OH236240   0.072   1.589   4.682  0.1796 -0.0737 -0.5598
 4942TIP3    H136241  -0.013   1.563   4.645 -0.0980 -1.1648  0.7709
 4942TIP3    H236242   0.133   1.522   4.650  0.1022 -0.5276  0.2146
 4943TIP3   OH236243   4.071   5.891  13.474 -0.0841  0.1908  0.1567
 4943TIP3    H136244   4.125   5.813  13.488 -1.0761 -0.4369  0.5524
 4943TIP3    H236245   4.080   5.911  13.381  1.9504  0.9520  0.4515
 4944TIP3   OH236246   3.146   2.118  17.262 -0.3174 -0.4580 -0.4910
 4944TIP3    H136247   3.080   2.187  17.254 -1.9384 -2.0587 -1.7462
 4944TIP3    H236248   3.096   2.036  17.258  1.8116 -1.7784 -2.4935
 4945TIP3   OH236249   0.482   2.113  15.517 -0.4580  0.3329  0.2672
 4945TIP3    H136250   0.574   2.087  15.504 -0.8461 -0.6683 -0.5522
 4945TIP3    H236251   0.446   2.118  15.429 -0.8650  2.0604  0.4917
 4946TIP3   OH236252   1.256   3.519  13.150 -0.3202 -0.0747 -0.1895
 4946TIP3    H136253   1.249   3.504  13.056 -0.8537 -0.8411 -0.0441
 4946TIP3    H236254   1.186   3.582  13.170  1.0604  1.6419 -0.5967
 4947TIP3   OH236255   3.742   4.087   3.895 -0.2646 -0.2264 -0.7154
 4947TIP3    H136256   3.773   4.134   3.973 -0.0379  0.1203 -1.0096
 4947TIP3    H236257   3.750   3.995   3.918  0.1772 -0.1313 -0.4721
 4948TIP3   OH236258   3.146   0.954  14.027 -0.4989 -0.1967 -0.5957
 4948TIP3    H136259   3.182   0.994  13.948 -2.0354  0.8553 -0.7992
 4948TIP3    H236260   3.142   0.860  14.008  2.0776 -0.3779 -0.5485
 4949TIP3   OH236261   1.566   0.333  15.606 -0.2384  1.0839 -0.2521
 4949TIP3    H136262   1.624   0.407  15.623 -0.0676  0.7702  0.5354
 4949TIP3    H236263   1.527   0.312  15.691  0.2184 -0.1571 -0.3340
 4950TIP3   OH236264   4.367   1.756   6.077 -0.3349  0.1453 -0.2080
 4950TIP3    H136265   4.272   1.749   6.079 -0.2816 -0.6967 -0.4220
 4950TIP3    H236266   4.384   1.836   6.026 -0.9134 -0.1724 -0.9259
 4951TIP3   OH236267   6.604   3.134  10.911 -0.1278  0.5357 -0.1777
 4951TIP3    H136268   6.680   3.192  10.907 -0.8805  1.6327  0.6415
 4951TIP3    H236269   6.540   3.183  10.964 -0.7585 -1.1006  0.6248
 4952TIP3   OH236270   2.533   2.189   5.371  0.1141 -0.4011 -0.6721
 4952TIP3    H136271   2.579   2.271   5.392  0.3164 -0.5185 -0.6517
 4952TIP3    H236272   2.491   2.164   5.453  0.7216 -0.7422 -0.4545
 4953TIP3   OH236273   4.273   6.017  10.597  0.4910  0.4926  0.3147
 4953TIP3    H136274   4.354   6.067  10.590  0.4222  0.6123  0.3485
 4953TIP3    H236275   4.218   6.070  10.656 -0.0286  0.9748 -0.5830
 4954TIP3   OH236276   5.705   6.632  11.789 -0.3065 -0.1185  0.4970
 4954TIP3    H136277   5.695   6.723  11.761  0.7794 -0.3412 -0.7287
 4954TIP3    H236278   5.761   6.637  11.866  1.1515  0.1608 -0.5475
 4955TIP3   OH236279   3.002   0.668  13.427  0.4895  0.1064 -0.2473
 4955TIP3    H136280   2.912   0.650  13.402  0.3629 -0.3242  0.4986
 4955TIP3    H236281   3.023   0.601  13.492  0.1652  2.3399  2.3139
 4956TIP3   OH236282   2.399   3.227  11.801  0.1787 -0.4024  0.1314
 4956TIP3    H136283   2.367   3.198  11.886 -0.1875 -1.7663 -0.4397
 4956TIP3    H236284   2.335   3.192  11.738 -0.4756  1.9521 -0.6254
 4957TIP3   OH236285   5.144   4.222  14.674 -0.0621  0.6704 -0.3852
 4957TIP3    H136286   5.209   4.276  14.628  2.8110 -1.8243  0.4691
 4957TIP3    H236287   5.128   4.149  14.615 -0.4251  0.1483  0.3515
 4958TIP3   OH236288   1.497   6.712   3.064  0.3484 -0.2016 -0.0958
 4958TIP3    H136289   1.518   6.697   2.972  0.1842 -1.3546  0.0342
 4958TIP3    H236290   1.405   6.685   3.073  0.4451 -0.3798  0.4489
 4959TIP3   OH236291   6.788   3.132  14.140  0.0109  0.0905 -0.3076
 4959TIP3    H136292   6.833   3.111  14.222 -0.8168  0.2105  0.1993
 4959TIP3    H236293   6.764   3.047  14.103 -0.1016  0.0490 -0.1398
 4960TIP3   OH236294   2.434   6.450  12.697 -0.2617  0.7567 -0.5305
 4960TIP3    H136295   2.347   6.420  12.723 -0.0129 -0.1808 -0.7591
 4960TIP3    H236296   2.424   6.474  12.605 -0.2249  0.4514 -0.6129
 4961TIP3   OH236297   4.148   3.602   5.165 -0.1682  0.1938  0.2224
 4961TIP3    H136298   4.076   3.543   5.143  0.7345 -1.2943  1.0647
 4961TIP3    H236299   4.112   3.660   5.231 -0.1480 -1.7817  2.0940
 4962TIP3   OH236300   0.462   2.832   4.178 -0.4550 -0.2915  0.0067
 4962TIP3    H136301   0.413   2.904   4.219  0.3030  0.6481 -0.6898
 4962TIP3    H236302   0.552   2.864   4.174 -0.0043 -1.5115  0.1691
 4963TIP3   OH236303   4.999   2.595   6.100  0.2820 -0.3888  0.8366
 4963TIP3    H136304   4.950   2.569   6.179 -0.0933 -0.2441  0.6573
 4963TIP3    H236305   4.946   2.561   6.028  1.4835 -2.0230  0.6676
 4964TIP3   OH236306   0.909   6.757  14.625  0.8563  0.8524 -0.2436
 4964TIP3    H136307   0.884   6.698  14.554  1.1517  1.4157 -0.8261
 4964TIP3    H236308   0.865   6.722  14.703 -0.2155  0.7486 -0.8846
 4965TIP3   OH236309   6.239   6.646   4.229  0.4598  0.1642  0.0714
 4965TIP3    H136310   6.306   6.579   4.219 -0.3808 -0.7741  0.4891
 4965TIP3    H236311   6.158   6.602   4.201 -0.4997  0.2381  2.5048
 4966TIP3   OH236312   1.617   6.579  13.865  0.4232 -0.3483 -0.2964
 4966TIP3    H136313   1.637   6.667  13.898 -1.5378 -0.1623  0.5673
 4966TIP3    H236314   1.583   6.595  13.776 -1.4063  0.0079  0.4084
 4967TIP3   OH236315   4.679   1.387   6.528  0.3870 -0.1149  0.1741
 4967TIP3    H136316   4.631   1.307   6.507  1.7077 -1.2994  1.4542
 4967TIP3    H236317   4.768   1.371   6.499  0.1403  2.0535 -2.1346
 4968TIP3   OH236318   1.284   2.312  16.184 -0.4586  0.4452  0.0589
 4968TIP3    H136319   1.230   2.378  16.228  1.9100  1.8205  1.0503
 4968TIP3    H236320   1.319   2.356  16.107  0.2597 -0.0132  0.1193
 4969TIP3   OH236321   5.607   4.385  16.465 -0.8986 -0.9188 -0.3218
 4969TIP3    H136322   5.566   4.425  16.388  1.1224 -1.0577 -1.5230
 4969TIP3    H236323   5.606   4.454  16.531 -0.2240  0.1364 -1.3648
 4970TIP3   OH236324   6.335   5.605  11.467  0.1734  0.5940  0.2122
 4970TIP3    H136325   6.305   5.583  11.379  0.5553 -0.5398  0.3546
 4970TIP3    H236326   6.421   5.565  11.473  0.2682  0.9130  1.0046
 4971TIP3   OH236327   1.570   0.646   0.844  0.1035 -0.0743 -0.0250
 4971TIP3    H136328   1.553   0.552   0.851 -1.6124 -0.0350 -2.3023
 4971TIP3    H236329   1.483   0.685   0.833  0.6681  1.9756  2.0311
 4972TIP3   OH236330   1.933   3.041   0.304 -0.0315 -0.1699 -0.0207
 4972TIP3    H136331   1.907   2.957   0.341  0.7338 -1.3470 -2.0048
 4972TIP3    H236332   2.021   3.026   0.269  0.3925  1.6597  0.1280
 4973TIP3   OH236333   1.885   3.342  15.263 -0.2128 -0.1065 -0.4208
 4973TIP3    H136334   1.949   3.272  15.250 -1.0164 -0.6799 -1.4153
 4973TIP3    H236335   1.853   3.328  15.353  0.5967 -0.1894 -0.1389
 4974TIP3   OH236336   3.327   2.677   3.153  0.1564  0.2247  0.7772
 4974TIP3    H136337   3.246   2.713   3.115  0.5311  1.3324  0.9714
 4974TIP3    H236338   3.339   2.728   3.233  2.0678  1.4529 -0.2214
 4975TIP3   OH236339   2.622   3.777   1.395  0.1069 -0.3878 -0.0899
 4975TIP3    H136340   2.685   3.846   1.415 -0.5179  0.6466 -1.5274
 4975TIP3    H236341   2.538   3.811   1.428  0.3151 -1.9820  2.3078
 4976TIP3   OH236342   5.141   1.536  15.759  0.0361  0.2257  0.6755
 4976TIP3    H136343   5.219   1.490  15.789  0.5578  1.5081  1.3488
 4976TIP3    H236344   5.122   1.599  15.828 -0.8171  0.8428 -0.0967
 4977TIP3   OH236345   2.418   1.325   2.370 -0.5308  0.1625  0.3835
 4977TIP3    H136346   2.436   1.360   2.457 -0.4198  0.8256  0.1037
 4977TIP3    H236347   2.492   1.266   2.352 -0.6384 -0.1026  0.8004
 4978TIP3   OH236348   3.968   5.845  12.268 -0.2388 -0.0047  0.0655
 4978TIP3    H136349   4.009   5.868  12.185 -0.9952 -0.3909 -0.4297
 4978TIP3    H236350   4.039   5.851  12.333  0.2002  0.9347 -0.4944
 4979TIP3   OH236351   2.666   2.652   1.843 -0.0420  0.9578  0.4713
 4979TIP3    H136352   2.727   2.690   1.780  0.4820  1.1080  1.0644
 4979TIP3    H236353   2.709   2.661   1.928 -0.0793 -0.5856  0.6787
 4980TIP3   OH236354   0.868   0.657   1.144 -0.9379  0.5283  0.2321
 4980TIP3    H136355   0.799   0.600   1.109  0.3095 -1.0766  0.2384
 4980TIP3    H236356   0.949   0.607   1.130  0.2107  2.2752  0.3731
 4981TIP3   OH236357   4.134   5.867   3.699  0.2561  0.2755  0.3253
 4981TIP3    H136358   4.217   5.916   3.703 -0.1645  0.9273  1.1795
 4981TIP3    H236359   4.067   5.931   3.719 -0.7571  0.3953 -2.8435
 4982TIP3   OH236360   0.711   5.405   1.557  0.1554 -0.7499 -0.0411
 4982TIP3    H136361   0.778   5.456   1.602 -0.7057 -1.5379  2.2917
 4982TIP3    H236362   0.716   5.318   1.597 -1.9184 -0.9519 -0.0995
 4983TIP3   OH236363   5.426   5.346   2.595  0.5606 -0.4697 -0.4190
 4983TIP3    H136364   5.415   5.411   2.525  0.7943  1.6619  1.4178
 4983TIP3    H236365   5.369   5.376   2.665  0.7075 -2.2659  0.5366
 4984TIP3   OH236366   1.725   5.516   5.021  0.0418  0.2607  0.2024
 4984TIP3    H136367   1.775   5.596   5.039  0.2133  0.3197 -0.4800
 4984TIP3    H236368   1.637   5.534   5.054  0.0708  0.7518  0.0232
 4985TIP3   OH236369   0.149   3.764  11.438 -0.0061  0.0705 -0.4744
 4985TIP3    H136370   0.132   3.857  11.451 -1.8172 -0.2020 -0.5609
 4985TIP3    H236371   0.237   3.760  11.401  0.2337  1.7172 -0.1302
 4986TIP3   OH236372   6.382   1.648   2.925 -0.7915 -0.1387 -0.1559
 4986TIP3    H136373   6.308   1.707   2.937 -0.2300  1.1307 -2.3591
 4986TIP3    H236374   6.404   1.656   2.832 -0.4060 -3.5490 -0.4770
 4987TIP3   OH236375   6.759   5.785   5.324  0.9029 -0.3485  0.1160
 4987TIP3    H136376   6.753   5.856   5.261  1.8179  0.1109  0.5246
 4987TIP3    H236377   6.712   5.712   5.283  0.8454  0.1705 -0.7603
 4988TIP3   OH236378   5.788   6.705  13.955  0.2100 -0.8058 -0.0557
 4988TIP3    H136379   5.799   6.799  13.940  2.2986 -0.8905  0.6986
 4988TIP3    H236380   5.783   6.696  14.050  0.5747 -1.5011 -0.0946
 4989TIP3   OH236381   2.822   5.130   5.431 -0.4087 -0.0399  0.2415
 4989TIP3    H136382   2.746   5.108   5.486 -0.3343  1.3520  0.9404
 4989TIP3    H236383   2.838   5.223   5.448  1.2975 -0.2375 -0.1083
 4990TIP3   OH236384   2.801   4.095   2.602  1.0376  0.1154  0.0422
 4990TIP3    H136385   2.716   4.133   2.625  0.4993 -0.4177 -0.9992
 4990TIP3    H236386   2.865   4.151   2.646  0.1610  0.6569  0.6632
 4991TIP3   OH236387   2.756   5.882  15.801  0.1300 -0.5212 -0.1097
 4991TIP3    H136388   2.792   5.874  15.713 -2.1681 -0.1835 -1.1352
 4991TIP3    H236389   2.709   5.965  15.800  0.0100 -0.5421  1.4309
 4992TIP3   OH236390   6.430   1.783   1.738 -0.7279 -0.0959  0.1161
 4992TIP3    H136391   6.447   1.803   1.646  0.8718  2.0993  0.8106
 4992TIP3    H236392   6.353   1.835   1.760 -0.2463  0.5161  0.3702
 4993TIP3   OH236393   5.089   1.644  15.035  0.1217  0.8440  0.4050
 4993TIP3    H136394   5.002   1.609  15.052  0.2102  0.7386  0.6478
 4993TIP3    H236395   5.075   1.739  15.026 -0.5004  0.5667 -2.7150
 4994TIP3   OH236396   5.264   3.069   4.698 -0.0406 -0.0055 -0.0191
 4994TIP3    H136397   5.239   3.074   4.606  0.5682  1.0651 -0.1488
 4994TIP3    H236398   5.353   3.102   4.701 -0.0479 -0.0203  0.9584
 4995TIP3   OH236399   1.682   5.135   5.305 -0.0770 -0.5043 -0.1661
 4995TIP3    H136400   1.737   5.105   5.377 -0.6738 -0.9187  0.1238
 4995TIP3    H236401   1.693   5.069   5.237  1.4781  0.5262 -0.9810
 4996TIP3   OH236402   5.873   3.198  11.155  0.3374 -0.4236 -0.0780
 4996TIP3    H136403   5.803   3.200  11.090  0.1189  1.3272  0.1808
 4996TIP3    H236404   5.953   3.214  11.105  0.1959  0.6724  0.0224
 4997TIP3   OH236405   0.050   1.455  13.800  0.2755 -0.3729  0.3399
 4997TIP3    H136406   0.132   1.484  13.840  0.0745  0.8607 -0.0757
 4997TIP3    H236407   0.009   1.400  13.866  1.5294 -1.2043  0.4674
 4998TIP3   OH236408   1.357   4.217   0.179 -0.0608  0.3551 -0.1487
 4998TIP3    H136409   1.298   4.156   0.134 -0.8909  0.3281  0.9253
 4998TIP3    H236410   1.348   4.299   0.130  1.9179 -0.6026 -2.2940
 4999TIP3   OH236411   3.364   1.371   3.269  0.3938  0.1015 -0.4399
 4999TIP3    H136412   3.417   1.394   3.345 -0.0243 -1.2596  0.3056
 4999TIP3    H236413   3.425   1.324   3.211  0.4773  0.2929 -0.5091
 5000TIP3   OH236414   3.224   4.181   2.217 -0.2737 -0.1183 -0.1080
 5000TIP3    H136415   3.247   4.271   2.196 -2.0102  0.2535 -0.5161
 5000TIP3    H236416   3.300   4.129   2.189  0.7168  1.1884  0.0891
 5001TIP3   OH236417   2.606   4.079  15.001 -0.0432  0.3233  0.4257
 5001TIP3    H136418   2.689   4.111  14.966 -0.2098  1.1876  0.7880
 5001TIP3    H236419   2.631   4.011  15.063  0.2770 -0.9527 -1.0237
 5002TIP3   OH236420   2.934   3.944   4.191 -0.1570  0.2153  0.3137
 5002TIP3    H136421   2.864   3.995   4.233 -0.4373  1.5440 -1.6081
 5002TIP3    H236422   3.013   3.997   4.205 -0.3454  0.9376 -1.2011
 5003TIP3   OH236423   5.609   2.332   1.032 -0.4108 -0.0007  0.2056
 5003TIP3    H136424   5.631   2.314   0.940 -1.6920  2.5603 -0.6957
 5003TIP3    H236425   5.684   2.381   1.065 -1.2897  1.9095 -0.5109
 5004TIP3   OH236426   6.259   3.151  12.980 -0.2939  0.0390  0.0147
 5004TIP3    H136427   6.223   3.228  12.937 -1.5124 -0.2041  0.5513
 5004TIP3    H236428   6.350   3.174  12.999  0.0397  0.4534 -1.8998
 5005TIP3   OH236429   4.570   5.237  12.800 -0.1614 -0.5356 -0.6191
 5005TIP3    H136430   4.491   5.187  12.783 -0.8539  0.3439 -0.0780
 5005TIP3    H236431   4.605   5.259  12.714 -1.9022  1.2068 -0.9418
 5006TIP3   OH236432   6.398   3.264  10.529  0.1465  0.8544  0.2856
 5006TIP3    H136433   6.396   3.202  10.456 -1.7072  2.1808 -0.8879
 5006TIP3    H236434   6.380   3.211  10.606 -0.1437 -0.2602 -0.5144
 5007TIP3   OH236435   2.963   6.505   1.428 -0.1251 -0.1313 -0.1927
 5007TIP3    H136436   3.031   6.483   1.491  2.1564  1.5187 -1.9262
 5007TIP3    H236437   2.890   6.538   1.482  1.3572  0.3342  1.6348
 5008TIP3   OH236438   1.964   5.408  16.547 -0.0479  0.4722 -0.4321
 5008TIP3    H136439   1.975   5.495  16.510  1.1492  0.9211  0.9034
 5008TIP3    H236440   2.051   5.383  16.577 -0.4022 -1.1144 -0.6118
 5009TIP3   OH236441   0.405   2.969  16.536 -0.4208 -0.1118  0.1694
 5009TIP3    H136442   0.343   3.026  16.581 -0.9770 -0.7241  0.1982
 5009TIP3    H236443   0.486   2.975  16.588 -0.8666 -0.3372  0.9101
 5010TIP3   OH236444   3.119   6.501   2.033 -0.1375 -0.6931 -0.5668
 5010TIP3    H136445   3.203   6.459   2.014  0.0879 -0.3854 -0.2603
 5010TIP3    H236446   3.053   6.434   2.012  0.2696 -2.5795  3.1730
 5011TIP3   OH236447   0.517   4.710   1.141  0.0234  0.3257 -1.0638
 5011TIP3    H136448   0.455   4.719   1.068 -0.7256  0.5694 -0.4094
 5011TIP3    H236449   0.494   4.782   1.200  0.0109 -0.4362 -0.1358
 5012TIP3   OH236450   0.884   6.338  14.269 -0.2365  0.5802 -0.0092
 5012TIP3    H136451   0.826   6.313  14.342  0.0723  0.1461  0.0901
 5012TIP3    H236452   0.875   6.267  14.206  1.3053 -0.2448  0.6534
 5013TIP3   OH236453   4.649   2.281   3.219  0.1175  0.2530 -0.1125
 5013TIP3    H136454   4.649   2.365   3.174 -0.2493  0.0437 -0.5158
 5013TIP3    H236455   4.556   2.257   3.226  0.1359  0.5044  1.1959
 5014TIP3   OH236456   5.910   3.568  12.820  0.3294  0.1892 -0.2259
 5014TIP3    H136457   5.818   3.589  12.802  0.4356 -0.4013 -1.5798
 5014TIP3    H236458   5.947   3.547  12.734  2.1184  1.8103  0.0851
 5015TIP3   OH236459   4.840   3.349  12.615 -0.9657 -0.3524 -0.3563
 5015TIP3    H136460   4.874   3.269  12.573 -1.3152 -0.6894 -0.0045
 5015TIP3    H236461   4.749   3.328  12.634 -1.2368  0.3646 -0.8394
 5016TIP3   OH236462   1.013   5.377  13.049 -0.0582 -0.1217  0.2421
 5016TIP3    H136463   0.925   5.415  13.048  0.2631  0.9078 -3.5850
 5016TIP3    H236464   1.070   5.448  13.076 -0.2094 -0.4933  1.6592
 5017TIP3   OH236465   6.584   3.531  16.490  0.0784 -0.6741 -0.0340
 5017TIP3    H136466   6.539   3.446  16.494 -0.2560 -0.4671  0.7171
 5017TIP3    H236467   6.527   3.591  16.537  1.1214 -0.4014  0.9091
 5018TIP3   OH236468   0.726   5.984   0.727  1.0774  0.0227  0.1689
 5018TIP3    H136469   0.707   5.995   0.634  2.5749  1.0359 -0.0546
 5018TIP3    H236470   0.769   5.899   0.734  0.3310 -0.3695  0.0511
 5019TIP3   OH236471   6.687   0.781  12.812 -0.3194  0.1750 -0.4293
 5019TIP3    H136472   6.698   0.699  12.861  0.7551  0.9251  0.6604
 5019TIP3    H236473   6.609   0.822  12.850  0.1242  0.4375  0.2160
 5020TIP3   OH236474   4.723   3.389   3.008 -0.4954  0.0572  0.0890
 5020TIP3    H136475   4.745   3.466   2.956 -0.4811  0.4197  0.6176
 5020TIP3    H236476   4.807   3.356   3.040 -0.4618 -0.4676 -0.5359
 5021TIP3   OH236477   0.345   3.817   4.040  0.0650  0.1879 -0.8012
 5021TIP3    H136478   0.367   3.725   4.050 -1.1767  0.0079  0.5996
 5021TIP3    H236479   0.294   3.821   3.958 -0.5294 -0.5097 -0.4707
 5022TIP3   OH236480   5.654   5.598   2.321 -0.0297  0.0423 -0.4488
 5022TIP3    H136481   5.743   5.621   2.292 -0.0704  2.8251  1.2799
 5022TIP3    H236482   5.661   5.588   2.416 -1.2338 -1.7234 -0.4991
 5023TIP3   OH236483   5.706   1.949  11.459  0.7984 -0.2558  0.2389
 5023TIP3    H136484   5.760   1.992  11.525  1.0503  2.0899 -1.3631
 5023TIP3    H236485   5.617   1.976  11.481  0.7196 -0.6399  0.4078
 5024TIP3   OH236486   1.690   3.895  15.200 -1.0150 -0.3316  0.4114
 5024TIP3    H136487   1.619   3.867  15.142  1.0493 -1.1266 -1.9498
 5024TIP3    H236488   1.752   3.822  15.199  0.4671  0.8454  1.2491
 5025TIP3   OH236489   3.140   2.268  17.020 -0.6324 -0.1898 -0.1901
 5025TIP3    H136490   3.075   2.319  17.069 -4.5412 -2.6606 -2.2449
 5025TIP3    H236491   3.174   2.205  17.083  1.3550  2.2450  1.3710
 5026TIP3   OH236492   4.742   1.523  13.716  0.0824  0.1019 -1.1578
 5026TIP3    H136493   4.810   1.588  13.698 -0.4975  0.6402 -1.4566
 5026TIP3    H236494   4.661   1.565  13.688 -0.5928  0.0990  0.6420
 5027TIP3   OH236495   4.213   3.908  12.353 -0.3653  0.0699 -0.2355
 5027TIP3    H136496   4.119   3.891  12.364 -0.3250 -0.2766 -0.4180
 5027TIP3    H236497   4.254   3.852  12.418 -0.1884 -1.1103 -1.3282
 5028TIP3   OH236498   4.820   1.274  15.821  0.4571 -0.6658 -0.5216
 5028TIP3    H136499   4.785   1.335  15.886  1.1057  0.3819 -1.1190
 5028TIP3    H236500   4.837   1.328  15.744  1.1538 -1.5805 -1.0359
 5029TIP3   OH236501   1.360   1.772   0.061  0.5799 -0.5689 -0.3731
 5029TIP3    H136502   1.403   1.764   0.146 -0.3414 -0.0325  0.1690
 5029TIP3    H236503   1.409   1.839   0.014  0.2604  0.1563  0.3009
 5030TIP3   OH236504   4.109   5.185   0.172  0.8344  0.4553 -0.0404
 5030TIP3    H136505   4.015   5.167   0.172  0.5619  1.7349  1.4631
 5030TIP3    H236506   4.129   5.202   0.080 -0.3471 -0.0249 -0.4138
 5031TIP3   OH236507   5.402   0.896   5.549  0.5511 -0.4456 -0.2070
 5031TIP3    H136508   5.472   0.832   5.558  1.1264  0.0827 -0.7697
 5031TIP3    H236509   5.390   0.905   5.454  0.1756 -0.0526 -0.1242
 5032TIP3   OH236510   0.049   4.974   2.314 -0.6080  0.5260  0.1585
 5032TIP3    H136511  -0.041   4.978   2.345 -0.8119 -0.7608 -0.1898
 5032TIP3    H236512   0.052   4.896   2.258 -0.3255  2.7538 -3.2564
 5033TIP3   OH236513   4.009   6.425   4.973  0.5979 -0.1898 -0.2736
 5033TIP3    H136514   3.935   6.371   4.999  0.5501  0.7085  1.6745
 5033TIP3    H236515   4.029   6.398   4.884 -2.7805  0.2788 -1.3165
 5034TIP3   OH236516   4.358   0.912  11.698  1.3611  1.0574 -0.3002
 5034TIP3    H136517   4.268   0.887  11.679  0.5478  3.8623 -0.6657
 5034TIP3    H236518   4.404   0.900  11.615  0.9983  0.8424 -0.4737
 5035TIP3   OH236519   2.414   0.234  16.722  0.4671  0.0240 -0.5056
 5035TIP3    H136520   2.370   0.158  16.759 -0.3454 -0.2803 -1.9974
 5035TIP3    H236521   2.497   0.199  16.689  0.2636 -0.1462 -0.8447
 5036TIP3   OH236522   3.393   2.650  16.479 -0.4717  0.3267 -0.3459
 5036TIP3    H136523   3.434   2.583  16.425 -1.0162 -0.5054  0.2636
 5036TIP3    H236524   3.381   2.724  16.419 -0.5725 -0.3901 -1.2246
 5037TIP3   OH236525   1.782   1.587   0.136 -0.1365 -0.2393  0.4959
 5037TIP3    H136526   1.765   1.649   0.065 -1.5446  0.5950  1.5211
 5037TIP3    H236527   1.843   1.633   0.194  0.7905 -0.8121  0.0051
 5038TIP3   OH236528   2.452   5.693   4.041  0.2852 -0.3282 -0.2307
 5038TIP3    H136529   2.360   5.722   4.046  0.5676  0.5083  3.7636
 5038TIP3    H236530   2.501   5.774   4.029  0.5919 -0.5443 -0.4283
 5039TIP3   OH236531   2.440   1.961   1.237  0.1484  0.6054  0.2637
 5039TIP3    H136532   2.463   1.869   1.248 -2.4920 -0.3146 -1.1036
 5039TIP3    H236533   2.476   1.984   1.151  4.2513  2.1770  2.1362
 5040TIP3   OH236534   1.545   5.917  14.283 -0.0736  0.3379  0.0745
 5040TIP3    H136535   1.531   5.917  14.189 -2.1312  1.3976  0.3385
 5040TIP3    H236536   1.630   5.873  14.294  0.0543 -0.1214 -2.2148
 5041TIP3   OH236537   4.470   4.459  12.974  0.2442 -0.3369  0.6048
 5041TIP3    H136538   4.563   4.438  12.985  0.6132  0.3760 -0.8718
 5041TIP3    H236539   4.470   4.531  12.911 -1.4505 -2.3200 -1.8098
 5042TIP3   OH236540   5.531   3.608  15.930  0.7091  0.3344  0.4324
 5042TIP3    H136541   5.620   3.632  15.958  1.2330 -1.9907  1.0242
 5042TIP3    H236542   5.473   3.653  15.991  1.3668  2.7487 -0.6092
 5043TIP3   OH236543   6.540   5.591   3.675  0.4304 -0.5984 -0.0682
 5043TIP3    H136544   6.512   5.560   3.761 -0.4357  0.9920  0.2673
 5043TIP3    H236545   6.486   5.669   3.659 -0.8207 -1.9304 -2.9243
 5044TIP3   OH236546   0.083   6.422   1.873  0.3999  0.5189 -0.2467
 5044TIP3    H136547   0.123   6.380   1.949 -1.0387  0.0638  0.3055
 5044TIP3    H236548   0.041   6.501   1.908 -0.5082  0.1653 -0.4894
 5045TIP3   OH236549   2.129   3.822   1.898 -0.2332  0.1631 -0.0985
 5045TIP3    H136550   2.156   3.908   1.867 -0.4260  0.2729  0.0398
 5045TIP3    H236551   2.042   3.835   1.934 -0.4156 -0.1655 -0.4131
 5046TIP3   OH236552   3.455   2.474   1.540 -0.3703 -0.4657 -0.5301
 5046TIP3    H136553   3.382   2.532   1.560 -0.0962  0.1188 -1.1967
 5046TIP3    H236554   3.493   2.453   1.625 -3.2313 -3.3880  0.2279
 5047TIP3   OH236555   1.248   2.454  12.865  0.6371  0.2504 -0.4407
 5047TIP3    H136556   1.182   2.407  12.916  0.3729  2.1121  1.0467
 5047TIP3    H236557   1.263   2.398  12.789 -2.0234 -0.6671 -0.4231
 5048TIP3   OH236558   2.964   0.677  14.433  0.7229  0.3723  0.2357
 5048TIP3    H136559   2.977   0.616  14.361  0.3868  1.1762 -0.5242
 5048TIP3    H236560   2.995   0.762  14.399  3.2550  0.2740  1.9907
 5049TIP3   OH236561   1.848   0.999  15.067 -0.0631  0.6083  0.3802
 5049TIP3    H136562   1.885   0.926  15.116  1.4847  2.6619  2.5103
 5049TIP3    H236563   1.901   1.005  14.988  2.0615  1.3653  1.7716
 5050TIP3   OH236564   0.679   1.020  14.174 -0.3351  0.0292  0.6571
 5050TIP3    H136565   0.623   1.036  14.249 -0.2342  0.6250  0.6054
 5050TIP3    H236566   0.708   0.929  14.185 -1.1937 -0.2420  0.7521
 5051TIP3   OH236567   6.346   4.363  11.895  0.0542  0.1723  0.5140
 5051TIP3    H136568   6.288   4.408  11.956 -0.4087  0.1730  0.0732
 5051TIP3    H236569   6.383   4.291  11.946 -1.2973 -0.5928  0.4572
 5052TIP3   OH236570   3.442   3.064  12.468  0.2784 -0.1415  0.2168
 5052TIP3    H136571   3.492   2.984  12.480 -1.1481 -1.3737 -1.5176
 5052TIP3    H236572   3.407   3.085  12.554  3.0876  0.3753  1.3356
 5053TIP3   OH236573   4.776   1.432  12.040  0.4288  0.0274  0.5136
 5053TIP3    H136574   4.695   1.383  12.051 -0.1839  1.4274  3.0582
 5053TIP3    H236575   4.833   1.374  11.989 -0.8411 -2.6093  1.8951
 5054TIP3   OH236576   2.119   2.604   2.186 -0.3077  0.0060  0.0397
 5054TIP3    H136577   2.068   2.668   2.235  1.1805  0.9054  0.4765
 5054TIP3    H236578   2.138   2.648   2.103  2.8358  1.2664  1.2714
 5055TIP3   OH236579   2.864   4.581  14.586 -0.7033  0.4008 -0.0059
 5055TIP3    H136580   2.863   4.629  14.503 -0.9353  1.7870  0.7832
 5055TIP3    H236581   2.817   4.637  14.647  2.1000  0.8960  1.8942
 5056TIP3   OH236582   5.127   5.078  16.912 -0.2139 -0.1796 -0.0382
 5056TIP3    H136583   5.207   5.120  16.879 -1.7784  2.8015 -0.4271
 5056TIP3    H236584   5.071   5.069  16.835 -0.6273 -1.3209  0.3837
 5057TIP3   OH236585   6.535   0.251   3.357 -0.1777  0.8490 -0.0637
 5057TIP3    H136586   6.478   0.186   3.397  1.2229 -0.0662  0.5343
 5057TIP3    H236587   6.613   0.202   3.330  0.4473  2.0863 -0.6248
 5058TIP3   OH236588   4.209   3.129  11.663 -0.3613 -0.6374 -0.5437
 5058TIP3    H136589   4.295   3.142  11.624  0.1405 -1.3630  0.2879
 5058TIP3    H236590   4.227   3.089  11.748 -1.2226  3.2996  1.7355
 5059TIP3   OH236591   4.080   3.205  14.142 -0.3305  0.0966  0.4651
 5059TIP3    H136592   4.169   3.176  14.162 -0.3034 -0.4030 -0.3513
 5059TIP3    H236593   4.048   3.242  14.225 -0.1161 -1.6455  1.4005
 5060TIP3   OH236594   1.075   3.833   6.006 -0.0009  0.0873 -0.4285
 5060TIP3    H136595   0.992   3.786   6.015 -0.2805  0.9196  1.8418
 5060TIP3    H236596   1.070   3.872   5.918 -2.6897  1.3164  0.1483
 5061TIP3   OH236597   3.026   3.811   3.349 -0.3309  0.2323 -0.1911
 5061TIP3    H136598   2.990   3.867   3.418 -0.2009  0.6907 -0.4975
 5061TIP3    H236599   3.013   3.722   3.382  0.0545  0.4603  0.5881
 5062TIP3   OH236600   6.150   2.226   1.853 -0.2707 -0.9715 -0.2640
 5062TIP3    H136601   6.142   2.245   1.759 -0.4978  1.5777  0.1846
 5062TIP3    H236602   6.062   2.202   1.880 -0.3162 -1.1950 -0.6039
 5063TIP3   OH236603   5.249   0.399   4.284 -0.2023  0.7558 -0.6808
 5063TIP3    H136604   5.316   0.332   4.292  1.0343  1.9257 -0.9086
 5063TIP3    H236605   5.230   0.403   4.190 -1.6937 -0.5636 -0.4900
 5064TIP3   OH236606   4.993   6.483  16.539  0.5615  0.0353 -0.3560
 5064TIP3    H136607   4.968   6.569  16.573  2.1474 -0.3213  1.9503
 5064TIP3    H236608   5.044   6.502  16.460  1.5463  1.2991  0.5422
 5065TIP3   OH236609   0.745   4.736  11.448 -0.5747 -0.1832 -0.0319
 5065TIP3    H136610   0.742   4.717  11.542  2.2092  0.0691  0.1847
 5065TIP3    H236611   0.828   4.700  11.418 -2.0181 -1.6166 -2.7978
 5066TIP3   OH236612   0.400   0.173  13.803 -0.2735  0.5867  0.6371
 5066TIP3    H136613   0.398   0.248  13.862 -0.5684 -1.6832  3.7496
 5066TIP3    H236614   0.308   0.150  13.790 -0.1506 -0.0960  0.9344
 5067TIP3   OH236615   5.488   1.835   3.479  0.0312  0.0036  0.4301
 5067TIP3    H136616   5.517   1.792   3.560 -0.9435 -0.4714  0.5423
 5067TIP3    H236617   5.395   1.854   3.494 -0.9037 -2.4620 -1.5402
 5068TIP3   OH236618   2.207   3.282  10.220  0.5487 -0.1355 -0.2269
 5068TIP3    H136619   2.174   3.223  10.288  1.3884  1.6781  1.8990
 5068TIP3    H236620   2.300   3.261  10.213  1.0693  1.4895  1.2514
 5069TIP3   OH236621   1.567   4.741   2.457 -0.4451  0.1874 -0.5340
 5069TIP3    H136622   1.554   4.836   2.451  3.7085  0.9658 -0.2870
 5069TIP3    H236623   1.639   4.723   2.397  0.3823 -2.4078  1.0748
 5070TIP3   OH236624   4.646   2.564   4.471  0.0473  0.3055  0.0014
 5070TIP3    H136625   4.553   2.564   4.447  0.0099  1.1196  0.1200
 5070TIP3    H236626   4.691   2.536   4.391 -0.3052 -0.2724 -0.0040
 5071TIP3   OH236627   1.310   0.853  14.132  0.0337 -0.4154 -0.5052
 5071TIP3    H136628   1.230   0.801  14.137  0.2972 -0.9740 -1.7086
 5071TIP3    H236629   1.283   0.934  14.087  0.0285 -0.3478 -0.3812
 5072TIP3   OH236630   6.404   4.729   0.343 -0.0649 -0.1179  0.0244
 5072TIP3    H136631   6.423   4.811   0.297 -0.4994  0.0583  0.1479
 5072TIP3    H236632   6.386   4.666   0.274 -0.4633  0.0802 -0.0588
 5073TIP3   OH236633   4.291   3.311  17.073  0.1028 -0.5021 -0.0998
 5073TIP3    H136634   4.357   3.258  17.030  2.7883 -0.3861  3.4502
 5073TIP3    H236635   4.246   3.251  17.133  0.0190  0.2885  0.6594
 5074TIP3   OH236636   0.296   1.444   4.949  0.8886 -0.3279  0.0464
 5074TIP3    H136637   0.245   1.386   5.006  2.6434 -0.6899  1.3148
 5074TIP3    H236638   0.279   1.532   4.983  0.1339 -0.3121 -0.3492
 5075TIP3   OH236639   6.731   4.669   1.015  0.0308  0.6342 -0.2341
 5075TIP3    H136640   6.725   4.697   0.924  0.8307  1.4358 -0.0601
 5075TIP3    H236641   6.707   4.577   1.014  1.6837  0.1727 -1.5112
 5076TIP3   OH236642   5.447   0.971   3.143  0.3147  0.0648 -0.3809
 5076TIP3    H136643   5.469   1.058   3.110 -0.3364  0.7872  0.9858
 5076TIP3    H236644   5.530   0.935   3.174  0.1433  1.6908  2.3118
 5077TIP3   OH236645   2.148   2.649  12.383 -0.1128  0.1108 -0.6490
 5077TIP3    H136646   2.155   2.554  12.378 -1.0868  0.0569 -1.2123
 5077TIP3    H236647   2.238   2.681  12.369 -0.0991 -0.6583 -2.5917
 5078TIP3   OH236648   0.658   1.209  16.596 -0.7417  0.0402 -0.1252
 5078TIP3    H136649   0.638   1.152  16.670 -0.5121  1.3307  0.9661
 5078TIP3    H236650   0.572   1.232  16.560 -0.8375 -0.9138 -0.5248
 5079TIP3   OH236651   0.548   3.438   2.397 -0.3882  0.4464  0.0062
 5079TIP3    H136652   0.509   3.360   2.358 -0.2743 -0.0193  0.7978
 5079TIP3    H236653   0.482   3.470   2.458  0.3995 -0.3100  1.3074
 5080TIP3   OH236654   0.486   5.533  15.000  0.2541  0.4042  0.3771
 5080TIP3    H136655   0.519   5.618  15.029 -1.4322  0.8478  1.0645
 5080TIP3    H236656   0.408   5.517  15.053  0.2516 -1.3526 -0.0826
 5081TIP3   OH236657   5.168   5.853  11.207  0.2005 -0.3788  0.2193
 5081TIP3    H136658   5.118   5.794  11.263  0.4995 -1.1894 -0.3495
 5081TIP3    H236659   5.102   5.894  11.150  0.0973 -0.8912 -0.0337
 5082TIP3   OH236660   6.377   1.144  11.235 -0.0582 -0.1237 -0.1400
 5082TIP3    H136661   6.308   1.205  11.208 -0.1168 -0.5092 -0.8898
 5082TIP3    H236662   6.458   1.194  11.223 -0.1470  0.0367 -0.0880
 5083TIP3   OH236663   4.896   3.954   0.888 -0.1492 -0.4402 -0.2951
 5083TIP3    H136664   4.955   3.912   0.825  0.7561 -0.8171  0.7863
 5083TIP3    H236665   4.854   4.024   0.837  0.4683 -0.8097 -1.3519
 5084TIP3   OH236666   1.955   2.945   6.748  0.2558 -0.0011 -0.4146
 5084TIP3    H136667   2.020   3.000   6.705  1.6584 -1.8927 -0.8407
 5084TIP3    H236668   1.908   2.903   6.676  1.2046 -1.5736 -0.1629
 5085TIP3   OH236669   3.452   0.898  12.868  0.0783 -0.0632  0.1200
 5085TIP3    H136670   3.440   0.838  12.942 -0.9864 -1.1429 -0.8703
 5085TIP3    H236671   3.364   0.930  12.849  0.3804  0.4080 -0.5084
 5086TIP3   OH236672   2.761   0.334   5.176  0.0737 -0.2767 -0.2144
 5086TIP3    H136673   2.833   0.369   5.228  0.0393 -1.2321  0.5050
 5086TIP3    H236674   2.685   0.387   5.203  0.5833  1.1329 -1.4162
 5087TIP3   OH236675   2.016   2.881  16.697  0.1058  0.0901 -0.2257
 5087TIP3    H136676   1.974   2.899  16.613 -0.6011 -0.3215  0.0244
 5087TIP3    H236677   2.067   2.801  16.682 -0.7454 -0.5121 -0.0491
 5088TIP3   OH236678   4.108   6.512  12.409  0.5670  0.2643  0.5121
 5088TIP3    H136679   4.066   6.515  12.495  0.7464  0.0645  0.6061
 5088TIP3    H236680   4.047   6.462  12.355  0.2136  0.8156  0.3879
 5089TIP3   OH236681   1.165   3.211   3.360  0.1746  0.0996 -0.3046
 5089TIP3    H136682   1.257   3.225   3.338 -0.0824 -0.3307 -1.7633
 5089TIP3    H236683   1.167   3.162   3.442  1.2307  0.4141 -0.1232
 5090TIP3   OH236684   1.803   4.163   0.543  0.4740 -0.6158 -0.0545
 5090TIP3    H136685   1.746   4.238   0.531  0.4896 -0.5381  0.3387
 5090TIP3    H236686   1.745   4.094   0.575  0.5204 -0.6674 -0.0823
 5091TIP3   OH236687   1.133   6.254  16.291  0.1403 -0.0190 -0.1096
 5091TIP3    H136688   1.131   6.220  16.381  0.3490 -0.6549 -0.3371
 5091TIP3    H236689   1.216   6.301  16.285 -1.0103  2.3125  0.8137
 5092TIP3   OH236690   6.010   1.068  17.100  0.2238  0.3923  0.8093
 5092TIP3    H136691   5.959   1.036  17.026  0.1852  1.5254  0.3166
 5092TIP3    H236692   6.069   1.133  17.062  1.2009 -0.0357  1.5579
 5093TIP3   OH236693   5.964   2.541   4.834 -0.5253  0.2133 -0.0559
 5093TIP3    H136694   6.011   2.555   4.752  1.8383  1.1766  1.3585
 5093TIP3    H236695   5.895   2.607   4.834 -1.3341 -0.5877 -1.7745
 5094TIP3   OH236696   2.921   4.971  16.125 -0.1071 -0.1077 -0.0389
 5094TIP3    H136697   2.972   4.897  16.093 -1.0965 -0.7033 -0.2929
 5094TIP3    H236698   2.983   5.023  16.175  0.7460 -0.7993 -0.3460
 5095TIP3   OH236699   4.703   6.754   0.359 -0.1063  0.1289 -0.5757
 5095TIP3    H136700   4.650   6.678   0.336  0.3557 -0.1981 -0.5633
 5095TIP3    H236701   4.679   6.821   0.295  0.4396 -0.4511 -1.4074
 5096TIP3   OH236702   2.784   3.082  16.169 -0.0942  0.3712  0.2398
 5096TIP3    H136703   2.740   3.010  16.124  0.4083  0.2757 -0.0953
 5096TIP3    H236704   2.850   3.112  16.107  0.2075  0.6213  0.6858
 5097TIP3   OH236705   3.887   5.085   0.473 -0.4950  0.3824 -0.6072
 5097TIP3    H136706   3.842   5.069   0.556  1.3266 -0.7917  0.2240
 5097TIP3    H236707   3.953   5.151   0.494  0.2881 -0.2563 -0.9686
 5098TIP3   OH236708   6.193   3.448  16.363 -0.4011 -0.1387 -0.0224
 5098TIP3    H136709   6.193   3.422  16.455 -0.1180  0.3816  0.1297
 5098TIP3    H236710   6.118   3.508  16.356  0.1841  0.6152  0.1034
 5099TIP3   OH236711   5.188   6.228   5.554  0.4162 -0.5633 -0.0592
 5099TIP3    H136712   5.173   6.195   5.642 -0.7075  2.1759  0.8910
 5099TIP3    H236713   5.109   6.279   5.533  1.4749  0.4682 -1.8215
 5100TIP3   OH236714   3.932   2.805  11.303 -0.2065  0.4134 -0.0632
 5100TIP3    H136715   4.027   2.799  11.299 -0.2563 -2.8375  0.9879
 5100TIP3    H236716   3.905   2.823  11.213  1.3525 -1.2441 -0.9179
 5101TIP3   OH236717   3.647   3.161   5.085  0.0026 -0.2712  0.3133
 5101TIP3    H136718   3.564   3.120   5.060 -0.2315  1.4402 -2.0738
 5101TIP3    H236719   3.624   3.221   5.156 -1.3313  1.7740 -1.7140
 5102TIP3   OH236720   5.216   3.508   0.708 -0.3265  0.1449 -0.4201
 5102TIP3    H136721   5.208   3.479   0.617 -0.5002 -2.3298  0.3087
 5102TIP3    H236722   5.278   3.446   0.747 -1.4010  0.2022  1.4958
 5103TIP3   OH236723   1.562   2.375  16.937 -0.6843  0.5295 -0.2393
 5103TIP3    H136724   1.629   2.439  16.912 -0.2267 -0.3591 -1.4549
 5103TIP3    H236725   1.545   2.392  17.029 -0.0130  1.8846 -0.3398
 5104TIP3   OH236726   1.039   4.411   2.935 -0.1897 -0.3311 -0.4950
 5104TIP3    H136727   1.075   4.335   2.982 -1.2293 -0.8034 -0.4347
 5104TIP3    H236728   1.019   4.474   3.004  1.1461  0.2310 -0.5842
 5105TIP3   OH236729   1.845   1.824   0.983  0.1633 -0.4379 -0.6212
 5105TIP3    H136730   1.854   1.906   1.031 -2.5747  0.2886 -1.1924
 5105TIP3    H236731   1.777   1.775   1.030  0.4658 -1.5822 -1.3228
 5106TIP3   OH236732   5.884   0.339  17.143  0.0810  0.1828 -0.1001
 5106TIP3    H136733   5.802   0.297  17.172 -0.7962  0.9953 -1.3275
 5106TIP3    H236734   5.913   0.389  17.220 -1.2056  0.8139  0.0014
 5107TIP3   OH236735   2.233   1.077  10.976 -0.0997 -0.1853 -0.5051
 5107TIP3    H136736   2.276   1.154  10.939 -0.1077 -0.0912 -0.3205
 5107TIP3    H236737   2.155   1.111  11.020 -2.3665 -0.6847 -3.7919
 5108TIP3   OH236738   0.142   3.693   5.252  0.0406  0.3019 -0.3251
 5108TIP3    H136739   0.174   3.625   5.193 -0.8511 -0.4487  0.0184
 5108TIP3    H236740   0.084   3.747   5.198 -2.3309 -1.5333  0.2281
 5109TIP3   OH236741   0.098   6.493  17.107 -0.2129  0.6624 -0.1455
 5109TIP3    H136742   0.017   6.481  17.157 -1.0582  2.6215 -0.9335
 5109TIP3    H236743   0.126   6.404  17.085 -1.8004 -0.0906  0.7021
 5110TIP3   OH236744   4.673   4.374  13.253 -0.2220  0.1396  0.2751
 5110TIP3    H136745   4.715   4.355  13.337  0.0497  1.8419  0.5533
 5110TIP3    H236746   4.579   4.363  13.271 -0.2280  1.2842  1.0522
 5111TIP3   OH236747   2.297   3.582  16.492  0.3996 -0.9741 -0.4224
 5111TIP3    H136748   2.264   3.615  16.576  1.4103  0.0302 -0.4026
 5111TIP3    H236749   2.377   3.631  16.476  1.2111 -2.4545 -1.1034
 5112TIP3   OH236750   4.461   2.875   6.288 -0.1577  0.1505  0.2955
 5112TIP3    H136751   4.452   2.894   6.194  2.8399 -0.3057 -0.1810
 5112TIP3    H236752   4.430   2.955   6.331  0.7060  1.3787 -1.2222
 5113TIP3   OH236753   3.904   5.793  16.795 -0.3443  0.7510 -0.6212
 5113TIP3    H136754   3.894   5.856  16.867  0.0941  0.7602 -0.5701
 5113TIP3    H236755   3.914   5.848  16.717 -1.7526  0.7490 -0.8335
 5114TIP3   OH236756   3.301   3.933   5.604  0.1812 -0.1830  0.1656
 5114TIP3    H136757   3.357   4.010   5.593  0.7652 -0.4942  0.8451
 5114TIP3    H236758   3.235   3.941   5.535  1.3611 -0.0646 -0.9865
 5115TIP3   OH236759   1.971   0.885   3.770 -0.0631  0.1323 -0.0197
 5115TIP3    H136760   1.995   0.857   3.682 -0.4947 -2.8590  0.6964
 5115TIP3    H236761   2.045   0.859   3.824 -0.0893  1.3150  0.6050
 5116TIP3   OH236762   2.776   6.072   1.984  0.0376  0.0598  0.1194
 5116TIP3    H136763   2.742   5.998   1.935  0.0623  0.5329 -0.6333
 5116TIP3    H236764   2.739   6.149   1.941 -2.1923  0.4724  2.5316
 5117TIP3   OH236765   5.374   6.757   3.947 -0.3366  0.1320  0.0644
 5117TIP3    H136766   5.303   6.821   3.958  0.3728  0.8643  0.4894
 5117TIP3    H236767   5.439   6.802   3.894  0.7835  0.2947  1.5139
 5118TIP3   OH236768   0.533   3.724   2.469  0.4077 -1.2005  0.0539
 5118TIP3    H136769   0.454   3.706   2.519 -0.7222 -0.2974 -1.3253
 5118TIP3    H236770   0.561   3.638   2.438 -0.5180 -1.4484 -0.1369
 5119TIP3   OH236771   3.469   2.965  14.457 -0.3089  0.4383  0.0435
 5119TIP3    H136772   3.519   3.045  14.442 -0.8990  1.1157  1.4882
 5119TIP3    H236773   3.492   2.939  14.546 -0.1983 -0.9645 -0.3738
 5120TIP3   OH236774   0.321   4.725  16.679 -0.2520 -0.5120 -0.3508
 5120TIP3    H136775   0.281   4.643  16.647  2.7134 -2.0921 -0.3738
 5120TIP3    H236776   0.358   4.702  16.764  1.8400  0.3776 -0.9711
 5121TIP3   OH236777   5.513   0.778  13.632 -0.2404  0.0688 -0.2778
 5121TIP3    H136778   5.551   0.720  13.566 -0.4745 -1.0236  0.5287
 5121TIP3    H236779   5.540   0.741  13.716  0.1226  1.4866  0.2654
 5122TIP3   OH236780   1.116   4.210  15.873  0.2208 -0.3189  0.0322
 5122TIP3    H136781   1.101   4.140  15.808 -0.5395 -0.0834 -0.0491
 5122TIP3    H236782   1.088   4.290  15.828  1.0847  0.0430  0.1287
 5123TIP3   OH236783   5.961   4.579  13.335 -0.0857  0.3392  0.3245
 5123TIP3    H136784   6.006   4.550  13.255 -1.0398 -2.3954  0.6486
 5123TIP3    H236785   5.986   4.514  13.400  1.3235  2.9540  2.5677
 5124TIP3   OH236786   6.690   2.461  11.214 -0.4005 -0.4731 -0.0262
 5124TIP3    H136787   6.741   2.475  11.134  0.0879 -1.3074  0.1345
 5124TIP3    H236788   6.709   2.371  11.239 -1.2940 -0.5166  0.5114
 5125TIP3   OH236789   0.828   5.701  11.876 -0.0637  0.3375 -0.0837
 5125TIP3    H136790   0.775   5.742  11.807  1.5258  2.5923 -0.0838
 5125TIP3    H236791   0.820   5.762  11.950  1.1385 -0.1542  0.4724
 5126TIP3   OH236792   0.593   0.570   1.108  0.0557  0.0137  0.2141
 5126TIP3    H136793   0.554   0.538   1.189 -0.1573  1.8122  0.8659
 5126TIP3    H236794   0.524   0.560   1.042 -0.7201  0.9764  0.8511
 5127TIP3   OH236795   0.607   6.356   4.372 -0.2334 -0.1511  0.3655
 5127TIP3    H136796   0.588   6.262   4.363 -0.9521  0.0614 -0.4786
 5127TIP3    H236797   0.681   6.371   4.314 -0.6994 -0.0302 -0.2063
 5128TIP3   OH236798   6.776   3.142  11.652 -0.9545  0.1058  0.5604
 5128TIP3    H136799   6.763   3.236  11.660 -1.9091 -0.0922  1.6295
 5128TIP3    H236800   6.697   3.110  11.608 -1.8213 -0.4609  2.3859
 5129TIP3   OH236801   0.322   3.154  13.745  0.3343 -0.5328 -0.2706
 5129TIP3    H136802   0.244   3.196  13.782 -0.3866 -0.8435 -1.3844
 5129TIP3    H236803   0.341   3.204  13.665  1.4662 -0.2748  0.1488
 5130TIP3   OH236804   4.970   2.806   2.068 -0.4273 -1.1079 -0.4359
 5130TIP3    H136805   4.897   2.759   2.108  0.1796 -0.7240  1.2400
 5130TIP3    H236806   5.048   2.763   2.104  0.1565 -0.3987 -0.8212
 5131TIP3   OH236807   4.297   5.847  14.383  0.0153  0.0395  0.3037
 5131TIP3    H136808   4.347   5.782  14.431 -1.1389 -0.9139  0.2874
 5131TIP3    H236809   4.256   5.797  14.312 -1.0565  0.7340  0.4105
 5132TIP3   OH236810   2.687   1.719  11.376 -0.5476 -0.6221  0.5658
 5132TIP3    H136811   2.693   1.814  11.365  0.2738 -0.8429 -1.2985
 5132TIP3    H236812   2.632   1.690  11.304  0.7869 -1.7435 -0.0532
 5133TIP3   OH236813   5.091   5.008   1.898 -0.0500  0.0370 -0.2381
 5133TIP3    H136814   5.024   4.952   1.936  1.4027 -0.3939  1.8400
 5133TIP3    H236815   5.089   5.088   1.951 -0.0181  0.6972 -1.2066
 5134TIP3   OH236816   1.884   6.392   1.315 -0.5287 -0.2604 -0.6175
 5134TIP3    H136817   1.939   6.468   1.297  0.2392 -0.8341 -0.7107
 5134TIP3    H236818   1.945   6.325   1.345 -1.0320 -1.2544 -1.7508
 5135TIP3   OH236819   3.096   2.245   4.730 -0.2757  0.2178  0.3655
 5135TIP3    H136820   3.109   2.181   4.800  1.9588 -0.2274 -0.3801
 5135TIP3    H236821   3.181   2.250   4.687 -1.9155 -0.7721 -3.3814
 5136TIP3   OH236822   3.016   0.721   2.249 -0.4103 -0.2758 -0.0043
 5136TIP3    H136823   3.036   0.660   2.320 -1.2524 -0.7847 -0.1922
 5136TIP3    H236824   2.973   0.795   2.293 -2.7600 -1.4555 -0.1440
 5137TIP3   OH236825   4.051   6.192  15.603  0.1853 -0.6168 -0.8178
 5137TIP3    H136826   3.978   6.234  15.556 -0.7625 -1.9401 -0.5721
 5137TIP3    H236827   4.096   6.265  15.646 -0.9900  0.2376 -0.9751
 5138TIP3   OH236828   3.881   1.410  11.264  0.2161 -0.6628 -0.4694
 5138TIP3    H136829   3.849   1.399  11.353  0.3631 -0.7635 -0.4290
 5138TIP3    H236830   3.970   1.442  11.273 -0.2961  0.8776 -0.5912
 5139TIP3   OH236831   0.611   0.766  12.884 -0.5700  0.0602 -0.2443
 5139TIP3    H136832   0.542   0.807  12.832  0.7786 -0.5337 -2.6282
 5139TIP3    H236833   0.597   0.672  12.874  0.0285 -0.0700  0.0562
 5140TIP3   OH236834   3.068   4.223   4.192 -0.2856 -0.1409 -0.8908
 5140TIP3    H136835   3.045   4.201   4.102 -1.8399 -0.3633 -0.4740
 5140TIP3    H236836   3.015   4.301   4.212  0.0113 -0.1103 -0.1634
 5141TIP3   OH236837   1.260   4.594   2.434 -0.1128 -0.1133  0.4446
 5141TIP3    H136838   1.286   4.526   2.496  0.9101  0.4350  0.6428
 5141TIP3    H236839   1.310   4.574   2.355 -0.6832 -0.2541  0.1202
 5142TIP3   OH236840   6.494   5.290  15.074 -0.1992  0.0051 -0.1850
 5142TIP3    H136841   6.467   5.363  15.019 -1.3805  0.2122  0.6368
 5142TIP3    H236842   6.467   5.212  15.026 -1.8947  0.1973  0.3757
 5143TIP3   OH236843   4.013   4.140  13.676 -0.1784  0.3203  0.2800
 5143TIP3    H136844   4.027   4.228  13.710  0.8324  1.1641 -2.1231
 5143TIP3    H236845   4.101   4.103  13.666 -0.5678 -0.8163  0.8174
 5144TIP3   OH236846   1.149   0.694  16.916  0.0760  0.5113 -0.1703
 5144TIP3    H136847   1.097   0.762  16.958  0.3702 -0.1261  1.3178
 5144TIP3    H236848   1.200   0.655  16.988  1.0888 -0.2230 -1.2407
 5145TIP3   OH236849   1.976   1.310  12.466 -0.8011  0.2363  0.4222
 5145TIP3    H136850   1.894   1.261  12.471 -0.1965 -1.0167 -1.1792
 5145TIP3    H236851   1.987   1.348  12.553 -2.9653  0.2608  0.7332
 5146TIP3   OH236852   6.257   4.937   2.402 -0.1042 -0.0973  0.1966
 5146TIP3    H136853   6.221   4.916   2.316 -0.5520 -0.0116  0.3595
 5146TIP3    H236854   6.180   4.944   2.459  0.0638  1.3405  0.2842
 5147TIP3   OH236855   3.843   1.108  13.466  0.0482  0.0818 -0.9350
 5147TIP3    H136856   3.775   1.054  13.507  0.3769 -0.7856 -1.5119
 5147TIP3    H236857   3.797   1.154  13.396  0.2509 -1.3536 -2.0551
 5148TIP3   OH236858   0.104   3.702  14.027 -0.3901  0.0027 -0.6966
 5148TIP3    H136859   0.036   3.681  14.090 -0.0397 -1.5402 -0.7872
 5148TIP3    H236860   0.158   3.623  14.023  0.2527  0.4754 -2.0871
 5149TIP3   OH236861   6.704   1.013   1.508  0.0684 -0.1758 -0.0296
 5149TIP3    H136862   6.717   0.955   1.433  1.0154 -0.1684  0.1249
 5149TIP3    H236863   6.785   1.064   1.514  0.2958 -0.6663  1.4078
 5150TIP3   OH236864   6.767   5.685  16.507  0.6376 -1.2535 -0.0051
 5150TIP3    H136865   6.705   5.616  16.484  0.7971 -2.0090  1.6946
 5150TIP3    H236866   6.712   5.762  16.524  0.3673 -1.2916 -0.6510
 5151TIP3   OH236867   6.473   3.726  15.909  0.0965  0.2300 -0.1311
 5151TIP3    H136868   6.487   3.756  15.999  0.2998  0.7121 -0.3186
 5151TIP3    H236869   6.561   3.717  15.873  0.0316 -0.4662 -0.1252
 5152TIP3   OH236870   5.845   4.926  16.387  0.5925 -0.4938  0.1859
 5152TIP3    H136871   5.907   4.944  16.316  0.2405 -2.1068 -0.5665
 5152TIP3    H236872   5.900   4.900  16.461  0.9638  1.2541  0.5531
 5153TIP3   OH236873   2.631   6.772  13.598 -0.1449 -0.4632  0.0148
 5153TIP3    H136874   2.597   6.767  13.688 -3.4548  0.8699 -1.0205
 5153TIP3    H236875   2.623   6.683  13.565 -1.5157 -0.4364  0.2255
 5154TIP3   OH236876   3.843   6.158  13.548  0.3554 -0.1406  0.2234
 5154TIP3    H136877   3.753   6.180  13.527  0.2345  1.0790  1.8290
 5154TIP3    H236878   3.837   6.083  13.607  0.4851 -0.9506 -0.7689
 5155TIP3   OH236879   1.713   1.985   2.185  0.1685 -0.4336 -0.1094
 5155TIP3    H136880   1.732   1.912   2.245 -0.3624 -0.7706 -0.3407
 5155TIP3    H236881   1.752   2.061   2.228 -2.0591 -0.2560  1.8124
 5156TIP3   OH236882   4.012   2.468  17.195 -0.2705  0.5280 -0.6856
 5156TIP3    H136883   4.068   2.470  17.117 -0.6909 -0.7092 -1.0485
 5156TIP3    H236884   3.994   2.560  17.214  3.0352  1.1209  0.3189
 5157TIP3   OH236885   5.298   6.738  16.631 -0.2450 -0.5781 -0.0640
 5157TIP3    H136886   5.349   6.744  16.550  1.0589 -4.6444  0.2827
 5157TIP3    H236887   5.360   6.759  16.701 -0.7713  0.6068  0.0826
 5158TIP3   OH236888   1.630   0.013  11.315 -0.1497 -0.3363  0.3480
 5158TIP3    H136889   1.578   0.004  11.235 -3.1281 -0.3649  2.1321
 5158TIP3    H236890   1.666   0.102  11.310  2.1792 -1.2934 -2.2517
 5159TIP3   OH236891   1.716   2.314   6.230  0.1055  0.1266 -0.0793
 5159TIP3    H136892   1.728   2.219   6.237  0.7685  0.2095 -0.0115
 5159TIP3    H236893   1.623   2.327   6.245  0.0898 -0.4719  0.3935
 5160TIP3   OH236894   2.347   0.072  13.295 -0.3937  0.6879  0.1465
 5160TIP3    H136895   2.319   0.085  13.385 -0.3041  0.2761  0.2344
 5160TIP3    H236896   2.339  -0.022  13.280  0.1514  0.6722 -0.0870
 5161TIP3   OH236897   1.876   3.401  10.976 -0.4502 -0.7492  0.4710
 5161TIP3    H136898   1.957   3.355  11.000  0.6696  0.8913  0.0188
 5161TIP3    H236899   1.835   3.424  11.059  0.0476 -0.7655  0.7239
 5162TIP3   OH236900   4.318   3.151  13.615 -0.4343 -0.4173 -0.1045
 5162TIP3    H136901   4.383   3.107  13.561  0.2883  2.4505 -1.7486
 5162TIP3    H236902   4.364   3.172  13.696 -0.3343 -1.2718  0.0700
 5163TIP3   OH236903   3.182   1.709   5.097 -0.2191 -0.2376 -0.1749
 5163TIP3    H136904   3.252   1.651   5.128  2.6130  2.3942 -1.1754
 5163TIP3    H236905   3.228   1.787   5.066 -3.5765  1.1997 -1.9811
 5164TIP3   OH236906   4.919   6.227  12.083  0.7619  0.2554 -0.1595
 5164TIP3    H136907   4.876   6.195  12.003  2.2138  0.7555 -1.1824
 5164TIP3    H236908   4.942   6.147  12.130  2.5888 -0.2358 -1.7383
 5165TIP3   OH236909   3.260   5.478   0.665  0.2369 -0.1978 -0.2387
 5165TIP3    H136910   3.247   5.415   0.594  2.4523 -1.3399  0.2798
 5165TIP3    H236911   3.212   5.556   0.637  0.1517 -0.9877 -2.4682
 5166TIP3   OH236912   5.847   4.622   0.007 -0.3295  0.6348 -0.0637
 5166TIP3    H136913   5.879   4.689   0.067  1.5953  1.0143 -1.4142
 5166TIP3    H236914   5.833   4.668  -0.075 -2.1870 -0.0173 -0.1517
 5167TIP3   OH236915   5.056   4.088   0.425 -0.0911 -0.0098  0.3806
 5167TIP3    H136916   4.988   4.153   0.446 -0.7745 -0.4198 -0.4839
 5167TIP3    H236917   5.134   4.139   0.404 -0.5446  0.5310 -0.0107
 5168TIP3   OH236918   5.188   2.676   2.184  0.2173 -0.1476 -0.6315
 5168TIP3    H136919   5.264   2.728   2.211  0.1110 -0.2719 -0.0905
 5168TIP3    H236920   5.197   2.593   2.232 -1.0613  0.4065  0.6318
 5169TIP3   OH236921   6.167   0.812   2.374  0.0883  0.5712 -0.0775
 5169TIP3    H136922   6.217   0.753   2.431 -0.7548 -0.4744 -0.3891
 5169TIP3    H236923   6.231   0.877   2.345  1.6138 -1.4067 -1.4272
 5170TIP3   OH236924   6.702   6.488   1.505  0.6075 -0.1851  0.0058
 5170TIP3    H136925   6.793   6.468   1.485  1.1888 -0.0088  2.2550
 5170TIP3    H236926   6.667   6.407   1.543 -0.0768 -0.1198 -0.4583
 5171TIP3   OH236927   5.900   5.682   3.173 -0.0512 -0.0569  0.0778
 5171TIP3    H136928   5.850   5.763   3.184  0.8367  0.5170 -0.0103
 5171TIP3    H236929   5.937   5.688   3.085 -0.4867 -0.8535 -0.1643
 5172TIP3   OH236930   4.134   1.158   5.606 -0.0954  0.4790 -0.5503
 5172TIP3    H136931   4.094   1.103   5.672 -2.0683  0.2720 -1.8288
 5172TIP3    H236932   4.108   1.247   5.630  1.5511  0.7204  0.4803
 5173TIP3   OH236933   0.490   2.155   2.677 -0.1418  0.8300  0.3869
 5173TIP3    H136934   0.549   2.080   2.666 -0.9080  0.1526  0.7680
 5173TIP3    H236935   0.539   2.229   2.643 -0.6551 -0.3821 -3.6018
 5174TIP3   OH236936   1.002   6.774   3.697  0.4574 -0.0732  0.0421
 5174TIP3    H136937   0.983   6.732   3.613 -0.0612  0.1902  0.0250
 5174TIP3    H236938   1.098   6.771   3.704  0.4323 -1.3025  0.0778
 5175TIP3   OH236939   3.322   0.624  15.999  0.5243  0.0792 -0.3844
 5175TIP3    H136940   3.411   0.630  16.033  0.8320  0.1704 -1.1691
 5175TIP3    H236941   3.268   0.607  16.075  1.3632 -1.2719 -0.0634
 5176TIP3   OH236942   4.408   6.557  16.806  0.8248  0.5987 -0.4452
 5176TIP3    H136943   4.485   6.575  16.859  0.8716 -0.6330 -0.0894
 5176TIP3    H236944   4.433   6.484  16.750 -0.7337 -1.2219  1.1252
 5177TIP3   OH236945   6.292   6.214  10.860 -0.6911  0.1576 -0.0216
 5177TIP3    H136946   6.375   6.251  10.889 -1.1666  0.0340  1.5812
 5177TIP3    H236947   6.277   6.138  10.917 -3.6545  2.2786  2.3879
 5178TIP3   OH236948   1.713   6.532   2.244  0.3174 -0.0591 -0.4024
 5178TIP3    H136949   1.715   6.562   2.335  1.8715 -0.0933 -0.4032
 5178TIP3    H236950   1.691   6.611   2.194 -0.3052  0.0137 -0.0189
 5179TIP3   OH236951   1.188   4.888   3.977  0.3974 -0.8114  0.3538
 5179TIP3    H136952   1.261   4.827   3.983 -0.3806 -1.8789 -0.5418
 5179TIP3    H236953   1.149   4.871   3.891 -0.9821 -0.3761  0.8549
 5180TIP3   OH236954   2.439   0.901  12.085 -0.0421 -0.5660  0.3908
 5180TIP3    H136955   2.500   0.874  12.016  1.0511 -0.4325  1.2744
 5180TIP3    H236956   2.421   0.820  12.134  0.0947 -0.4560  0.6287
 5181TIP3   OH236957   1.344   5.801   0.262 -0.0820  0.2686 -0.0200
 5181TIP3    H136958   1.256   5.818   0.229  0.5856  0.9741 -1.5825
 5181TIP3    H236959   1.402   5.831   0.191  1.4232  0.2630  1.1576
 5182TIP3   OH236960   5.340   0.783  15.779  0.4728  0.1433 -0.1947
 5182TIP3    H136961   5.414   0.811  15.833  0.3735 -1.0542  0.5892
 5182TIP3    H236962   5.380   0.742  15.703  0.6256 -0.6287  0.2967
 5183TIP3   OH236963   2.926   0.212   1.161  0.1652 -0.5152  0.1407
 5183TIP3    H136964   2.850   0.183   1.211 -0.2111 -1.1332 -0.7475
 5183TIP3    H236965   2.899   0.204   1.069  0.4205  1.7049 -0.1864
 5184TIP3   OH236966   1.846   1.377   2.281 -0.1738  0.5656 -0.5974
 5184TIP3    H136967   1.787   1.302   2.285  0.2526  0.2844  2.1405
 5184TIP3    H236968   1.930   1.339   2.256 -0.8900  0.8798 -3.8733
 5185TIP3   OH236969   3.929   6.382   4.373  0.2688 -0.5023  0.1088
 5185TIP3    H136970   3.993   6.392   4.303 -1.5370 -0.3632 -1.5923
 5185TIP3    H236971   3.923   6.287   4.387 -0.2871 -0.6173 -0.8431
 5186TIP3   OH236972   2.562   1.973  13.603 -0.1138 -0.1179 -0.2081
 5186TIP3    H136973   2.473   2.007  13.597 -0.1876 -0.0122  1.1485
 5186TIP3    H236974   2.617   2.044  13.569 -0.5091  0.0211 -0.5621
 5187TIP3   OH236975   6.138   5.797  15.908  0.4282 -0.2828 -0.1263
 5187TIP3    H136976   6.077   5.788  15.835 -2.0895  3.3749  1.2157
 5187TIP3    H236977   6.103   5.739  15.976 -1.0325  0.9790  0.2512
 5188TIP3   OH236978   5.426   3.689  11.053 -0.3948  0.2991  0.0749
 5188TIP3    H136979   5.421   3.620  10.987 -0.9634  0.5292 -0.1356
 5188TIP3    H236980   5.409   3.770  11.004  0.6482  0.6395  0.2492
 5189TIP3   OH236981   5.812   3.635   4.611 -0.5626  0.2002 -0.5597
 5189TIP3    H136982   5.887   3.575   4.617 -0.9723 -0.2065  0.8076
 5189TIP3    H236983   5.823   3.695   4.685 -2.0429 -0.4334  0.2225
 5190TIP3   OH236984   1.826   1.655   3.492 -0.1117 -0.2725  0.4269
 5190TIP3    H136985   1.758   1.660   3.558  0.6677  2.0093  1.1532
 5190TIP3    H236986   1.898   1.608   3.535  0.2063  0.7707  1.0860
 5191TIP3   OH236987   1.550   0.883   1.208 -0.0281  0.2693 -0.1051
 5191TIP3    H136988   1.492   0.888   1.285 -0.4671  0.1316 -0.4226
 5191TIP3    H236989   1.504   0.932   1.140  1.2327  2.0372  0.2382
 5192TIP3   OH236990   4.942   4.928  16.099  0.0414  0.2019  0.0436
 5192TIP3    H136991   5.023   4.878  16.106 -0.1214 -0.1665 -0.6203
 5192TIP3    H236992   4.900   4.919  16.184 -1.6187 -3.6316 -0.9422
 5193TIP3   OH236993   3.756   2.801  16.696  0.6327  0.0036  0.3288
 5193TIP3    H136994   3.817   2.807  16.770  1.0336  1.3920 -0.0782
 5193TIP3    H236995   3.807   2.757  16.628  0.3969 -0.9167  0.7404
 5194TIP3   OH236996   0.444   3.556   5.084 -0.5527  0.3853  0.1074
 5194TIP3    H136997   0.475   3.484   5.029 -0.8445  0.5944 -0.3389
 5194TIP3    H236998   0.517   3.574   5.143  0.8439  1.9031 -1.9394
 5195TIP3   OH236999   3.969   2.905  11.898  0.3610 -0.4083  0.2465
 5195TIP3    H137000   3.893   2.911  11.840  1.1788 -2.3945 -1.1616
 5195TIP3    H237001   3.975   2.990  11.940 -2.3207 -0.0230  0.0000
 5196TIP3   OH237002   4.461   0.730  16.294  0.2640  0.2374  0.2381
 5196TIP3    H137003   4.492   0.809  16.338  1.2347  0.0743 -0.1242
 5196TIP3    H237004   4.539   0.676  16.285 -0.3880 -0.7644  0.4746
 5197TIP3   OH237005   3.795   0.626   6.537  0.3187  0.0469  0.3009
 5197TIP3    H137006   3.728   0.576   6.584  0.6745 -0.5330  0.1894
 5197TIP3    H237007   3.752   0.653   6.456  0.6360 -1.5122 -0.4214
 5198TIP3   OH237008   3.337   5.891   4.853  0.1685  0.0909  0.0567
 5198TIP3    H137009   3.267   5.837   4.818 -0.3757  0.2527  0.8788
 5198TIP3    H237010   3.362   5.848   4.935  1.1469 -0.0548 -0.3002
 5199TIP3   OH237011   3.714   5.270   5.445  0.4895  0.0793 -0.6987
 5199TIP3    H137012   3.754   5.183   5.441 -1.6534 -0.9948 -0.1521
 5199TIP3    H237013   3.773   5.322   5.500  2.2995 -0.7114 -1.8186
 5200TIP3   OH237014   0.855   4.291   2.427  0.5458 -0.8402 -0.0186
 5200TIP3    H137015   0.795   4.293   2.501 -0.4831  2.6693 -0.7445
 5200TIP3    H237016   0.942   4.285   2.466 -0.0244 -0.0339  1.4451
 5201TIP3   OH237017   4.536   6.130   4.755  0.2853 -0.0722  0.1225
 5201TIP3    H137018   4.625   6.119   4.722  0.5348  0.0121  0.7592
 5201TIP3    H237019   4.537   6.216   4.799  0.4166 -0.8663  1.7509
 5202TIP3   OH237020   6.694   4.243   4.176  0.2560 -0.5337 -0.3098
 5202TIP3    H137021   6.603   4.212   4.176  0.1004 -0.1324 -1.3869
 5202TIP3    H237022   6.746   4.166   4.195 -0.2622 -0.9632 -0.6044
 5203TIP3   OH237023   4.665   1.729   0.077 -0.0964 -0.4620  0.1050
 5203TIP3    H137024   4.617   1.782   0.013  0.7859  0.7296  0.3922
 5203TIP3    H237025   4.722   1.792   0.121  1.2148 -1.7258  0.2536
 5204TIP3   OH237026   3.332   5.195  16.233 -0.3685 -0.3479  0.3593
 5204TIP3    H137027   3.400   5.184  16.167 -0.0956  0.4088  0.5120
 5204TIP3    H237028   3.376   5.175  16.316 -0.9052 -2.1085  0.2791
 5205TIP3   OH237029   3.881   3.691   6.113  0.0913  0.3546  0.3944
 5205TIP3    H137030   3.793   3.724   6.093 -0.5363 -1.2082  0.4873
 5205TIP3    H237031   3.867   3.603   6.148  1.5436  0.8808  2.5108
 5206TIP3   OH237032   2.857   3.401  15.029 -0.1992  0.1010  0.2898
 5206TIP3    H137033   2.836   3.438  15.115 -0.2035  2.1278 -0.5253
 5206TIP3    H237034   2.847   3.475  14.968  1.5305 -0.8290 -1.2235
 5207TIP3   OH237035   3.526   5.096  16.426 -0.0537 -0.0319 -0.2974
 5207TIP3    H137036   3.543   5.174  16.479 -0.2387  1.1059 -1.8454
 5207TIP3    H237037   3.606   5.084  16.376  0.0842 -1.0440  0.1451
 5208TIP3   OH237038   0.212   3.102   2.770  0.1652  0.4451 -0.6636
 5208TIP3    H137039   0.300   3.066   2.755  0.6352  1.3571 -0.1298
 5208TIP3    H237040   0.190   3.146   2.688  0.3534  0.5329 -0.6659
 5209TIP3   OH237041   0.888   6.049  15.960  0.0000  0.1272 -0.9719
 5209TIP3    H137042   0.933   6.078  15.881  0.4147  1.6851 -0.1949
 5209TIP3    H237043   0.843   6.127  15.992  0.0313 -0.4144  0.4697
 5210TIP3   OH237044   1.131   5.506  17.262 -0.3804  0.5039 -0.1617
 5210TIP3    H137045   1.201   5.517  17.198 -0.1447  0.6766  0.1244
 5210TIP3    H237046   1.105   5.414  17.253 -0.2022  0.4701 -0.3516
 5211TIP3   OH237047   1.130   3.794   5.196  0.6999 -0.6477 -0.1398
 5211TIP3    H137048   1.209   3.757   5.234  1.3359  0.5073 -0.2945
 5211TIP3    H237049   1.091   3.846   5.266 -0.3835 -1.8467  0.1888
 5212TIP3   OH237050   2.009   2.749   6.013 -0.0787 -0.0883  0.3185
 5212TIP3    H137051   2.075   2.691   5.975 -0.4659 -0.6343  0.4666
 5212TIP3    H237052   2.002   2.822   5.950 -1.4584 -1.4726 -1.2145
 5213TIP3   OH237053   3.306   4.896   5.948  0.6865  0.0579 -0.5334
 5213TIP3    H137054   3.392   4.934   5.970  0.5175 -0.2732  0.7145
 5213TIP3    H237055   3.281   4.846   6.025 -1.9530  2.4268  0.3286
 5214TIP3   OH237056   3.458   0.114  14.974  0.7996  0.3223 -0.0288
 5214TIP3    H137057   3.445   0.079  14.886 -0.9473 -1.4437  0.8590
 5214TIP3    H237058   3.388   0.179  14.985 -0.9048 -1.5662  1.0081
 5215TIP3   OH237059   3.157   0.706   2.910  0.8297  0.5084  0.1271
 5215TIP3    H137060   3.222   0.681   2.845  0.7508 -1.2932  0.6944
 5215TIP3    H237061   3.168   0.642   2.981 -0.0896  1.5101  1.2171
 5216TIP3   OH237062   4.880   6.349   3.683  0.1423 -0.2318  0.1792
 5216TIP3    H137063   4.817   6.305   3.741 -0.2642  2.9426  2.3744
 5216TIP3    H237064   4.961   6.354   3.735  0.1872  1.4777  0.0031
 5217TIP3   OH237065   0.290   3.766   2.285 -0.1103 -0.1427  0.2311
 5217TIP3    H137066   0.328   3.678   2.281 -1.1268 -0.6519  1.0977
 5217TIP3    H237067   0.362   3.825   2.266  1.1104 -1.0720  1.7595
 5218TIP3   OH237068   3.694   1.578   2.703  0.2329 -0.0533 -0.1639
 5218TIP3    H137069   3.698   1.674   2.709  2.7302 -0.0756 -0.5173
 5218TIP3    H237070   3.716   1.547   2.791 -0.4359 -0.3210 -0.0841
 5219TIP3   OH237071   0.119   3.058   5.599 -0.2229 -0.3363 -0.4583
 5219TIP3    H137072   0.072   3.064   5.516 -0.6772  1.5069 -0.1079
 5219TIP3    H237073   0.211   3.044   5.574 -0.2579  0.8016 -1.3151
 5220TIP3   OH237074   6.411   6.132  15.483  0.8253  0.2388 -0.2109
 5220TIP3    H137075   6.429   6.097  15.571 -1.0505  3.1376  1.4969
 5220TIP3    H237076   6.459   6.214  15.479  0.3139  0.4915 -1.6244
 5221TIP3   OH237077   2.460   1.934   3.021 -0.6925  0.0758 -0.0912
 5221TIP3    H137078   2.502   1.849   3.010  0.3628  0.4191  1.0678
 5221TIP3    H237079   2.419   1.951   2.936 -0.1973 -1.1913 -0.6170
 5222TIP3   OH237080   0.170   3.835   2.813 -0.3694 -0.0619  0.3264
 5222TIP3    H137081   0.183   3.854   2.720  1.1608  0.3814  0.6017
 5222TIP3    H237082   0.143   3.744   2.816 -1.5573  0.2362 -0.6199
 5223TIP3   OH237083   3.438   0.116  11.672 -0.2149 -0.0297 -0.3929
 5223TIP3    H137084   3.478   0.045  11.621  0.6765  0.2344 -0.0631
 5223TIP3    H237085   3.375   0.071  11.728 -0.0756 -0.4986 -0.6043
 5224TIP3   OH237086   3.199   4.838   0.192 -0.5469  0.3509 -0.4298
 5224TIP3    H137087   3.168   4.772   0.129 -0.6609  0.3106 -0.3310
 5224TIP3    H237088   3.289   4.811   0.212 -0.5525  0.2929 -0.4810
 5225TIP3   OH237089   0.820   1.543   2.329  0.5219  1.2522 -0.4802
 5225TIP3    H137090   0.893   1.600   2.355  2.7923 -1.2178 -0.9536
 5225TIP3    H237091   0.832   1.533   2.234  0.6660 -0.5467 -0.2998
 5226TIP3   OH237092   1.741   2.517   5.233  0.1974  0.2366  0.2282
 5226TIP3    H137093   1.709   2.437   5.274  0.1398  1.5575  3.0105
 5226TIP3    H237094   1.824   2.535   5.277  0.0204  1.8902 -0.0555
 5227TIP3   OH237095   5.493   0.359  14.534  0.0909 -0.0788 -0.1907
 5227TIP3    H137096   5.455   0.444  14.510  2.5029  0.8096 -1.1489
 5227TIP3    H237097   5.459   0.298  14.469 -1.9369  0.0187  0.7083
 5228TIP3   OH237098   1.444   1.977  13.235  0.3326 -0.0301  0.2923
 5228TIP3    H137099   1.508   1.969  13.307  0.8818 -2.1781 -0.3582
 5228TIP3    H237100   1.380   1.908  13.253  0.1558 -0.2065 -0.9379
 5229TIP3   OH237101   4.843   3.328   0.003  0.7529 -0.0914 -0.0683
 5229TIP3    H137102   4.848   3.257  -0.060  3.4418  1.2433 -1.5338
 5229TIP3    H237103   4.881   3.293   0.083 -0.8963 -1.2128  0.2618
 5230TIP3   OH237104   5.913   6.168   5.277  0.2281 -0.0139 -0.7716
 5230TIP3    H137105   5.848   6.231   5.307 -1.0435 -1.4379 -0.3956
 5230TIP3    H237106   5.981   6.170   5.344 -0.8365 -0.5543  0.3802
 5231TIP3   OH237107   3.104   0.759  15.917 -0.3048 -0.4258  0.5041
 5231TIP3    H137108   3.182   0.710  15.944 -0.2104  0.1590  1.3475
 5231TIP3    H237109   3.044   0.693  15.884  0.1696 -0.9991  0.7660
 5232TIP3   OH237110   1.695   0.976   0.779 -0.2189 -0.5241 -0.5551
 5232TIP3    H137111   1.782   0.936   0.780 -0.8575 -1.9996  0.5411
 5232TIP3    H237112   1.680   1.001   0.688  1.4164 -0.0496 -0.7177
 5233TIP3   OH237113   1.790   2.484  15.339  0.1960  0.6379  0.5469
 5233TIP3    H137114   1.710   2.432  15.347 -0.6192  1.8776  0.6259
 5233TIP3    H237115   1.846   2.432  15.281 -1.0193  0.1670 -0.2397
 5234TIP3   OH237116   1.682   1.644   5.539  0.3140  0.2625  0.0469
 5234TIP3    H137117   1.722   1.576   5.485  0.6245  1.1612 -0.8843
 5234TIP3    H237118   1.588   1.637   5.520  0.1996 -0.6390  0.8386
 5235TIP3   OH237119   4.963   5.014   3.801 -0.2036 -0.2237  0.4633
 5235TIP3    H137120   4.934   4.986   3.888  0.2873 -0.0186  0.6952
 5235TIP3    H237121   5.002   5.100   3.815  1.4820 -0.9296  0.3513
 5236TIP3   OH237122   0.784   4.395  12.010  0.6029 -0.1476 -0.5152
 5236TIP3    H137123   0.759   4.469  12.066  0.8369 -2.7171  3.3411
 5236TIP3    H237124   0.705   4.340  12.006  0.6997 -0.2136 -2.5672
 5237TIP3   OH237125   1.579   3.686  13.744  0.0956 -0.2284  0.0902
 5237TIP3    H137126   1.493   3.691  13.786  1.0528  0.3940  2.0901
 5237TIP3    H237127   1.588   3.769  13.698 -1.2193 -1.1627 -1.9954
 5238TIP3   OH237128   2.280   4.871  12.921 -0.5443 -0.1778 -0.0961
 5238TIP3    H137129   2.340   4.885  12.995  2.0449  0.3089 -2.1370
 5238TIP3    H237130   2.254   4.779  12.928 -1.4419  0.1831  2.1058
 5239TIP3   OH237131   5.980   6.197  10.566 -0.0023  0.8067  0.2294
 5239TIP3    H137132   6.010   6.131  10.628 -1.3613 -0.2419 -0.1992
 5239TIP3    H237133   5.885   6.187  10.563  0.0651  0.2358 -2.6433
 5240TIP3   OH237134   2.416   4.245  15.794 -0.2021 -0.1234 -0.2916
 5240TIP3    H137135   2.448   4.155  15.795 -0.2825 -0.2068 -1.7684
 5240TIP3    H237136   2.437   4.276  15.705  1.2085  1.8148  0.6508
 5241TIP3   OH237137   0.116   1.013   5.194 -0.0118 -0.4092  0.2475
 5241TIP3    H137138   0.142   0.922   5.179 -0.4706 -0.5232  0.1519
 5241TIP3    H237139   0.167   1.063   5.131 -1.7172 -0.8511 -1.5572
 5242TIP3   OH237140   2.807   6.252  11.418 -0.0420  0.6714  0.5137
 5242TIP3    H137141   2.832   6.341  11.397 -0.7328  0.4110 -1.6929
 5242TIP3    H237142   2.819   6.203  11.336 -1.1376 -0.9028  1.2271
 5243TIP3   OH237143   0.230   3.460  14.436 -0.2502 -0.1395  0.1509
 5243TIP3    H137144   0.234   3.506  14.520  1.6272 -0.2671  0.1722
 5243TIP3    H237145   0.152   3.496  14.394 -1.3780 -0.2298  2.0172
 5244TIP3   OH237146   5.667   0.528   6.224  0.1701 -0.0247  0.4958
 5244TIP3    H137147   5.681   0.541   6.318  1.5723  1.3965  0.1262
 5244TIP3    H237148   5.596   0.589   6.201  0.7655  0.6380  0.3910
 5245TIP3   OH237149   5.384   5.905  10.948  0.4527 -0.0001  0.2055
 5245TIP3    H137150   5.296   5.889  10.914  0.4213 -1.5119  0.9082
 5245TIP3    H237151   5.425   5.962  10.883 -1.1989  1.1768  0.1266
 5246TIP3   OH237152   3.574   6.215  14.915  0.1967  0.0593 -0.5196
 5246TIP3    H137153   3.533   6.247  14.995 -2.4053 -1.9994 -0.8729
 5246TIP3    H237154   3.531   6.265  14.845 -0.6025 -0.9729 -0.7999
 5247TIP3   OH237155   2.366   5.895   0.302 -0.1508 -0.4040 -0.2790
 5247TIP3    H137156   2.434   5.953   0.338  0.8647  0.1194 -2.7746
 5247TIP3    H237157   2.372   5.815   0.354  2.2689 -0.2800 -0.2360
 5248TIP3   OH237158   0.832   6.141  15.054 -0.0852 -0.0643 -0.1405
 5248TIP3    H137159   0.848   6.179  15.140 -0.1921 -0.7216  0.1733
 5248TIP3    H237160   0.759   6.081  15.067  2.0084 -2.7810  0.1070
 5249TIP3   OH237161   2.311   1.428  14.148 -0.3214 -0.3999  0.2853
 5249TIP3    H137162   2.345   1.511  14.182  0.6936 -1.0640  0.9651
 5249TIP3    H237163   2.322   1.435  14.053 -2.1937  1.0549  0.1097
 5250TIP3   OH237164   4.546   3.768   2.074  0.1676 -0.4412 -0.1745
 5250TIP3    H137165   4.600   3.691   2.058  0.9581 -0.2303  1.3492
 5250TIP3    H237166   4.558   3.822   1.996  1.7864 -0.6277 -0.0846
 5251TIP3   OH237167   3.021   1.381   6.894 -0.5568 -0.0241 -0.0104
 5251TIP3    H137168   3.078   1.314   6.854 -1.6173  0.7633 -3.1103
 5251TIP3    H237169   2.932   1.348   6.880 -1.0249  0.1326  2.2193
 5252TIP3   OH237170   0.380   5.794  16.204  0.4862  0.0111  0.1240
 5252TIP3    H137171   0.412   5.705  16.191  0.9594  0.2608 -0.4587
 5252TIP3    H237172   0.292   5.793  16.165  0.4978 -0.1949  0.0980
 5253TIP3   OH237173   6.313   3.104  10.731  0.4164 -0.1770  0.1252
 5253TIP3    H137174   6.306   3.189  10.775  1.3380 -0.5735  1.1047
 5253TIP3    H237175   6.225   3.068  10.735  0.0593  0.6476 -0.1200
 5254TIP3   OH237176   1.490   0.485  15.374  1.0644 -0.6088  0.0243
 5254TIP3    H137177   1.569   0.451  15.416  1.3021  0.6932  0.6958
 5254TIP3    H237178   1.419   0.461  15.434  1.2446  0.1333  0.5501
 5255TIP3   OH237179   3.138   1.607  15.106 -0.2141 -0.0555  0.0231
 5255TIP3    H137180   3.189   1.650  15.175  0.0933 -0.2689 -0.0723
 5255TIP3    H237181   3.066   1.668  15.089  0.5808  0.7476 -0.5831
 5256TIP3   OH237182   3.804   0.533   1.208 -0.5031  0.2648 -0.4466
 5256TIP3    H137183   3.759   0.617   1.217 -1.8467 -0.4697  0.0058
 5256TIP3    H237184   3.770   0.496   1.126  1.1149  0.7374 -1.3744
 5257TIP3   OH237185   3.697   1.873   2.623 -0.2630 -0.2863  0.3314
 5257TIP3    H137186   3.716   1.916   2.539 -0.5642 -1.5734 -0.4284
 5257TIP3    H237187   3.757   1.914   2.685  1.0946 -0.3792 -0.8578
 5258TIP3   OH237188   4.789   0.692   5.835 -0.8793  0.0927  0.1778
 5258TIP3    H137189   4.872   0.649   5.813  0.4045  2.8578 -0.9167
 5258TIP3    H237190   4.725   0.652   5.776 -0.4387 -2.2273  1.1767
 5259TIP3   OH237191   1.654   3.771   5.153  0.2943 -0.1923  0.1040
 5259TIP3    H137192   1.580   3.779   5.093  0.4872  0.9655  0.0048
 5259TIP3    H237193   1.725   3.738   5.098  0.3553  0.4692 -0.2240
 5260TIP3   OH237194   6.360   4.954   5.057 -0.0769 -0.2031 -0.0188
 5260TIP3    H137195   6.408   4.990   4.982 -1.3332 -0.1903 -0.8483
 5260TIP3    H237196   6.378   4.860   5.054 -2.7093 -0.7774 -2.4091
 5261TIP3   OH237197   5.473   4.308  13.719  0.3292 -0.2182 -0.5977
 5261TIP3    H137198   5.401   4.259  13.758  0.9871 -1.4106 -0.8384
 5261TIP3    H237199   5.534   4.324  13.792  0.5377 -0.5557 -0.6945
 5262TIP3   OH237200   2.727   3.095  13.943 -0.0510 -0.7713  0.7250
 5262TIP3    H137201   2.777   3.051  13.874 -0.0718 -0.8729  0.7755
 5262TIP3    H237202   2.685   3.169  13.898  0.1586 -0.6750  0.6865
 5263TIP3   OH237203   6.431   4.573   3.543 -0.5768 -0.4848  0.3126
 5263TIP3    H137204   6.526   4.580   3.528 -0.7834  2.1651 -0.1471
 5263TIP3    H237205   6.421   4.493   3.594  2.2790  0.8356  3.2664
 5264TIP3   OH237206   2.168   4.376  15.881 -0.0903  0.3551  1.1736
 5264TIP3    H137207   2.132   4.375  15.792 -0.0437  3.9055  0.9743
 5264TIP3    H237208   2.255   4.337  15.872  0.3056  1.5160 -0.5775
 5265TIP3   OH237209   2.496   0.507  16.952 -0.1246  0.8477 -0.0355
 5265TIP3    H137210   2.469   0.417  16.973 -0.1118  0.7660 -0.3619
 5265TIP3    H237211   2.559   0.529  17.021  0.2052  0.4458 -0.1980
 5266TIP3   OH237212   3.389   3.143   0.712  0.0873 -0.5444 -0.0862
 5266TIP3    H137213   3.420   3.208   0.775  2.0654 -0.0968 -1.4386
 5266TIP3    H237214   3.360   3.069   0.766 -0.4817  0.7156  1.4049
 5267TIP3   OH237215   0.671   6.623  16.212  0.2599 -0.0912  0.0995
 5267TIP3    H137216   0.606   6.641  16.280 -0.4670 -0.8919 -0.3601
 5267TIP3    H237217   0.620   6.621  16.131  0.9987  0.1171 -0.3736
 5268TIP3   OH237218   6.141   3.391  13.958 -0.3158 -0.3130  0.3595
 5268TIP3    H137219   6.186   3.417  14.038 -0.1181 -0.0844  0.1756
 5268TIP3    H237220   6.057   3.355  13.988 -0.5248  0.3837  0.6303
 5269TIP3   OH237221   3.566   0.394  15.825 -0.0199 -0.1886  0.1040
 5269TIP3    H137222   3.604   0.324  15.771 -0.5497 -0.5640  0.2109
 5269TIP3    H237223   3.517   0.348  15.893  0.6811  0.2903  0.9363
 5270TIP3   OH237224   2.082   0.770   3.424 -0.3005  0.3599 -0.3542
 5270TIP3    H137225   2.091   0.725   3.508 -0.0476 -0.4163 -0.7803
 5270TIP3    H237226   2.170   0.769   3.387 -0.5280  0.1395 -0.9009
 5271TIP3   OH237227   5.466   0.207   5.295 -0.0459  0.0882  0.0640
 5271TIP3    H137228   5.499   0.124   5.259  0.5048  0.5276 -0.4828
 5271TIP3    H237229   5.526   0.227   5.367  0.7525  0.7439 -0.7501
 5272TIP3   OH237230   1.719   2.224   1.556  0.0470 -0.7806 -0.2146
 5272TIP3    H137231   1.699   2.217   1.649 -0.9121  0.9570 -0.2480
 5272TIP3    H237232   1.676   2.305   1.528  0.4641 -1.1704 -2.1354
 5273TIP3   OH237233   0.269   5.534   4.130  0.0440 -0.1239 -0.2824
 5273TIP3    H137234   0.240   5.604   4.071  0.0789 -0.8327 -1.1586
 5273TIP3    H237235   0.305   5.467   4.072 -2.1506 -1.9555  0.3267
 5274TIP3   OH237236   3.718   5.413  11.786 -0.6605  0.3575  0.8187
 5274TIP3    H137237   3.796   5.453  11.823  0.9124 -0.6276 -1.2701
 5274TIP3    H237238   3.670   5.486  11.746  2.4072  0.3990 -3.3794
 5275TIP3   OH237239   6.600   6.170  13.047  0.0639 -0.5323 -0.0566
 5275TIP3    H137240   6.690   6.189  13.070 -0.1376 -0.3076  0.5737
 5275TIP3    H237241   6.551   6.185  13.128 -0.5451 -0.5810 -0.4098
 5276TIP3   OH237242   6.285   0.265   0.140  0.4710 -0.6432 -0.1592
 5276TIP3    H137243   6.258   0.345   0.096 -1.9742 -0.2719  1.8278
 5276TIP3    H237244   6.372   0.285   0.175  0.5564  0.5526 -0.9820
 5277TIP3   OH237245   3.455   1.047  11.177 -0.5557 -0.2047  0.0121
 5277TIP3    H137246   3.388   0.979  11.161  0.7562 -1.1766 -1.7012
 5277TIP3    H237247   3.506   1.013  11.250 -0.8921 -0.2817  0.2141
 5278TIP3   OH237248   6.699   5.052  15.466  0.6644 -0.6252  0.0101
 5278TIP3    H137249   6.654   5.087  15.389  0.8795 -1.6109 -0.5858
 5278TIP3    H237250   6.728   5.130  15.514 -1.7444  0.0471  0.4982
 5279TIP3   OH237251   2.764   6.306  14.886 -0.4210 -0.1660 -0.1297
 5279TIP3    H137252   2.718   6.235  14.842 -0.3245 -0.3270  0.0295
 5279TIP3    H237253   2.758   6.380  14.825 -1.5508  0.0529  0.2149
 5280TIP3   OH237254   5.476   2.066   1.265  0.1139  0.1839 -0.1563
 5280TIP3    H137255   5.389   2.040   1.297  0.1133 -2.9275 -2.2274
 5280TIP3    H237256   5.522   2.095   1.344 -2.2634  0.3671  1.2724
 5281TIP3   OH237257   4.174   0.833  14.751  0.4346  0.5954 -0.0001
 5281TIP3    H137258   4.196   0.898  14.818 -0.9932  0.4779  0.5988
 5281TIP3    H237259   4.185   0.749  14.794 -0.5485  0.5217  0.1312
 5282TIP3   OH237260   2.128   6.271  15.847 -0.7361 -0.1739 -0.0442
 5282TIP3    H137261   2.108   6.244  15.937 -0.5324 -0.9308 -0.2211
 5282TIP3    H237262   2.048   6.250  15.798 -0.8490  0.2439 -0.0430
 5283TIP3   OH237263   0.658   4.656  16.368 -0.3869  0.0085 -0.3435
 5283TIP3    H137264   0.650   4.666  16.274 -1.2399  0.2422 -0.2520
 5283TIP3    H237265   0.691   4.741  16.398 -2.1613  0.7047 -0.2132
 5284TIP3   OH237266   1.102   0.907  11.831 -0.2486 -0.2178  0.4178
 5284TIP3    H137267   1.160   0.954  11.771 -0.0732  1.4561  1.8267
 5284TIP3    H237268   1.081   0.826  11.785 -0.7758  1.3249 -2.2420
 5285TIP3   OH237269   4.370   5.049  15.847  0.5657 -0.2016  0.1434
 5285TIP3    H137270   4.438   5.080  15.787  0.9336 -1.4223 -0.1033
 5285TIP3    H237271   4.418   5.005  15.917  0.0888  0.3870  0.8608
 5286TIP3   OH237272   1.223   0.510   2.373  0.0969 -1.1839 -0.4297
 5286TIP3    H137273   1.283   0.459   2.428 -0.5969 -1.9511 -0.3484
 5286TIP3    H237274   1.141   0.510   2.423 -0.0535 -0.4095 -0.6779
 5287TIP3   OH237275   4.409   1.600  13.306  0.4719 -0.0584 -0.7505
 5287TIP3    H137276   4.433   1.661  13.375  0.8799 -1.6634  0.5787
 5287TIP3    H237277   4.462   1.626  13.231  0.5992  1.2310 -0.2378
 5288TIP3   OH237278   4.616   3.320  13.227 -0.2597 -0.3475 -0.4137
 5288TIP3    H137279   4.677   3.290  13.294 -0.6827 -1.0397 -0.3197
 5288TIP3    H237280   4.549   3.251  13.224 -1.6863  0.9468  0.3344
 5289TIP3   OH237281   5.831   3.489  15.513  0.1617  0.5538 -0.3379
 5289TIP3    H137282   5.806   3.581  15.519  1.9127  1.1107 -0.9475
 5289TIP3    H237283   5.767   3.450  15.453 -0.9304  1.2185  0.3650
 5290TIP3   OH237284   5.133   0.081   0.996 -0.4723 -0.4177  0.0986
 5290TIP3    H137285   5.070   0.010   1.008 -0.8624 -0.3989 -1.5769
 5290TIP3    H237286   5.206   0.060   1.054 -0.9356 -1.7576  0.2147
 5291TIP3   OH237287   5.356   2.709  15.217 -0.0244 -0.3260 -0.7947
 5291TIP3    H137288   5.290   2.684  15.281  0.1985  2.0826  0.4887
 5291TIP3    H237289   5.311   2.769  15.158  0.8838  1.0753 -0.1032
 5292TIP3   OH237290   2.888   2.798  14.693  0.0424  0.2192 -0.4826
 5292TIP3    H137291   2.854   2.712  14.671 -0.2512  0.3062 -0.3708
 5292TIP3    H237292   2.969   2.806  14.642 -0.0322 -0.0411 -0.6418
 5293TIP3   OH237293   6.645   1.008  11.583  0.3518  0.4166 -0.1393
 5293TIP3    H137294   6.559   1.034  11.550 -0.2086 -0.4360  0.5757
 5293TIP3    H237295   6.692   0.975  11.507  0.4129  1.7732 -0.7161
 5294TIP3   OH237296   0.973   0.400  11.825 -0.0858 -0.2012 -0.3726
 5294TIP3    H137297   0.978   0.486  11.868 -0.5167  0.5685 -1.7838
 5294TIP3    H237298   1.065   0.373  11.817  0.2712  1.2469 -1.9676
 5295TIP3   OH237299   6.449   1.041   5.887  0.5988  0.3658 -0.1455
 5295TIP3    H137300   6.512   0.971   5.869 -0.2168 -0.3193 -0.4392
 5295TIP3    H237301   6.460   1.103   5.815  0.6849  0.0691 -0.3878
 5296TIP3   OH237302   0.981   0.242   5.732 -0.1673 -0.1648 -0.2372
 5296TIP3    H137303   0.992   0.163   5.784 -1.4286 -0.1263  0.1093
 5296TIP3    H237304   0.997   0.314   5.794 -0.9271 -0.1275 -0.0831
 5297TIP3   OH237305   4.554   2.171   6.044 -0.2594 -0.0612 -0.5846
 5297TIP3    H137306   4.598   2.256   6.043 -0.6168  0.1215 -0.9545
 5297TIP3    H237307   4.616   2.112   6.088 -0.5951  0.7053  0.9795
 5298TIP3   OH237308   0.212   2.746   6.504  0.1398  0.5904  0.2016
 5298TIP3    H137309   0.288   2.762   6.560  0.0880  1.4187  0.0486
 5298TIP3    H237310   0.249   2.703   6.426  0.2057 -0.5929  0.8592
 5299TIP3   OH237311   6.091   6.711   2.207 -0.4610 -0.1955 -0.8298
 5299TIP3    H137312   6.126   6.748   2.126  0.4990  0.2453 -0.2261
 5299TIP3    H237313   6.035   6.638   2.178 -1.2671  0.8319 -1.9576
 5300TIP3   OH237314   1.887   6.156   2.091 -0.4204  0.3996 -0.5400
 5300TIP3    H137315   1.982   6.150   2.082 -0.3657 -0.8298  0.5715
 5300TIP3    H237316   1.853   6.092   2.028 -0.5647  1.3721 -1.4806
 5301TIP3   OH237317   6.009   3.213  16.548  0.5184 -0.4719  0.1337
 5301TIP3    H137318   6.083   3.177  16.499 -0.5891 -2.1464 -0.3917
 5301TIP3    H237319   6.031   3.306  16.560  3.3615 -1.2123  1.2867
 5302TIP3   OH237320   3.664   0.603  13.004  0.1166 -0.2072  0.5808
 5302TIP3    H137321   3.568   0.597  13.007  0.1348 -1.3552 -0.3830
 5302TIP3    H237322   3.684   0.682  13.055 -1.2403 -0.7046  1.9894
 5303TIP3   OH237323   6.489   5.970  15.709  0.4376  0.0388  0.6544
 5303TIP3    H137324   6.440   5.974  15.791  1.5132  0.6277  1.2777
 5303TIP3    H237325   6.543   5.891  15.717  1.5202  0.8029  1.0919
 5304TIP3   OH237326   1.703   1.052  16.193 -0.0799 -0.1400 -0.5253
 5304TIP3    H137327   1.609   1.065  16.205 -0.1921  0.9958 -2.2597
 5304TIP3    H237328   1.733   1.132  16.150  1.6622 -0.5591 -0.1751
 5305TIP3   OH237329   5.316   2.243  16.892  0.0354 -0.5330  0.3194
 5305TIP3    H137330   5.373   2.205  16.824 -1.9173 -1.5296 -0.8516
 5305TIP3    H237331   5.376   2.292  16.948  1.7782  0.4063 -2.1462
 5306TIP3   OH237332   1.119   4.718   1.470  0.1572  0.5005  0.1767
 5306TIP3    H137333   1.036   4.684   1.438  0.1098 -0.3455  1.1351
 5306TIP3    H237334   1.176   4.641   1.478 -0.2548  0.3869  3.2870
 5307TIP3   OH237335   6.359   0.190   5.765 -0.2297  0.2711  0.0647
 5307TIP3    H137336   6.372   0.284   5.776 -0.4177  0.4002 -0.7281
 5307TIP3    H237337   6.285   0.183   5.704 -0.6197 -0.3965  0.5944
 5308TIP3   OH237338   0.777   6.324   1.747  0.2480  0.0825  0.2659
 5308TIP3    H137339   0.737   6.273   1.676  0.5349  0.1420  0.0604
 5308TIP3    H237340   0.817   6.399   1.703 -1.6506  1.4429  0.7257
 5309TIP3   OH237341   1.572   5.694  15.025  0.2618 -0.3106 -0.2949
 5309TIP3    H137342   1.638   5.631  14.997  0.1426 -1.2038  1.3128
 5309TIP3    H237343   1.512   5.643  15.080 -0.3708  1.0206  0.2866
 5310TIP3   OH237344   3.079   5.727   5.827  0.2422 -0.6953 -0.4033
 5310TIP3    H137345   3.164   5.686   5.844  0.6293  0.2818  0.1096
 5310TIP3    H237346   3.026   5.703   5.903  0.9111  0.8771  0.5972
 5311TIP3   OH237347   3.555   0.678   4.806 -0.1562  0.1989 -0.2256
 5311TIP3    H137348   3.617   0.735   4.852 -1.9224  0.4569  2.0318
 5311TIP3    H237349   3.605   0.600   4.784  1.2942  0.9330  0.3264
 5312TIP3   OH237350   2.225   0.374  11.057 -0.0846  0.8615 -0.0367
 5312TIP3    H137351   2.211   0.356  11.150 -0.5888 -1.5265 -0.5267
 5312TIP3    H237352   2.137   0.381  11.021  0.0645 -0.3811 -0.6889
 5313TIP3   OH237353   4.889   0.138  13.672 -0.3631 -0.4093  0.0244
 5313TIP3    H137354   4.903   0.055  13.716  2.7995 -0.0536 -0.1014
 5313TIP3    H237355   4.942   0.201  13.721 -1.1203  1.1406 -1.0494
 5314TIP3   OH237356   3.905   3.165   4.532  0.0363 -0.2508 -0.4181
 5314TIP3    H137357   3.842   3.095   4.554 -0.1522 -0.4421 -1.4970
 5314TIP3    H237358   3.851   3.236   4.498  0.1692  0.7032  1.2701
 5315TIP3   OH237359   1.411   5.474   5.492  0.2800  0.4749 -0.1050
 5315TIP3    H137360   1.437   5.383   5.507 -0.9735 -0.1108 -1.2395
 5315TIP3    H237361   1.464   5.502   5.417 -0.9672 -0.1109 -1.2378
 5316TIP3   OH237362   6.560   1.669  13.174 -0.9015  0.6161 -0.4189
 5316TIP3    H137363   6.609   1.671  13.092 -1.9524  0.4971 -1.0688
 5316TIP3    H237364   6.469   1.681  13.148 -1.1592  1.5633  0.8308
 5317TIP3   OH237365   5.054   1.540  16.606 -0.1098 -0.2044  0.5366
 5317TIP3    H137366   4.967   1.531  16.568  0.1741  1.1408 -0.4894
 5317TIP3    H237367   5.099   1.603  16.550  0.6035  1.2425  2.6166
 5318TIP3   OH237368   2.610   5.217   0.572 -0.4585 -0.1620  0.4689
 5318TIP3    H137369   2.604   5.305   0.534  0.1755 -0.4645 -0.3617
 5318TIP3    H237370   2.703   5.194   0.563 -0.7401 -1.1689  0.1074
 5319TIP3   OH237371   1.641   4.124  16.096 -0.4036  0.1686 -0.2781
 5319TIP3    H137372   1.698   4.055  16.128  0.7334  0.2240 -2.0344
 5319TIP3    H237373   1.625   4.102  16.004 -2.1660  0.8580 -0.1802
 5320TIP3   OH237374   3.093   1.744   5.767  0.1404 -0.0135 -0.2174
 5320TIP3    H137375   3.028   1.686   5.726  0.1415 -0.7886  0.8403
 5320TIP3    H237376   3.105   1.814   5.704 -0.6074 -0.6506 -1.0978
 5321TIP3   OH237377   2.308   6.053   5.293 -0.3235 -0.1599 -0.4469
 5321TIP3    H137378   2.220   6.017   5.306 -0.9091  1.5549  0.7204
 5321TIP3    H237379   2.295   6.148   5.293  1.6649  0.1675  0.9587
 5322TIP3   OH237380   3.440   3.330  13.250 -0.1847  0.0204  0.7255
 5322TIP3    H137381   3.374   3.380  13.202  0.1922  0.0807  0.2671
 5322TIP3    H237382   3.522   3.379  13.237 -0.3742  1.0737  2.9445
 5323TIP3   OH237383   1.957   0.385  10.938 -0.2230  0.9523  0.4032
 5323TIP3    H137384   1.887   0.372  11.002 -1.7260 -1.2786 -1.4874
 5323TIP3    H237385   1.937   0.469  10.897 -1.2297  0.8182  0.5845
 5324TIP3   OH237386   4.893   6.193   0.442 -0.2670 -0.1378 -0.3998
 5324TIP3    H137387   4.827   6.211   0.508  0.6661 -0.6361  0.7003
 5324TIP3    H237388   4.942   6.274   0.433 -0.6796  0.0697 -0.8324
 5325TIP3   OH237389   2.875   0.768  16.490 -0.1490  0.1682 -0.0538
 5325TIP3    H137390   2.810   0.766  16.561 -0.2539 -1.5232 -0.1656
 5325TIP3    H237391   2.825   0.747  16.411  0.3092  0.1054 -0.3318
 5326TIP3   OH237392   5.873   1.378  13.554  0.1201 -0.4291  0.3471
 5326TIP3    H137393   5.854   1.339  13.639 -1.8287  2.1108  1.2098
 5326TIP3    H237394   5.925   1.456  13.574  2.0726 -1.2879 -1.0912
 5327TIP3   OH237395   6.058   5.586   3.710 -0.9427  0.3267 -0.0349
 5327TIP3    H137396   6.142   5.614   3.673 -0.1402  2.5494  3.0946
 5327TIP3    H237397   5.995   5.608   3.641  0.5356  3.3961 -0.6195
 5328TIP3   OH237398   0.196   1.552   1.115  0.0461 -0.2317  1.3574
 5328TIP3    H137399   0.142   1.478   1.088  0.9876 -0.7097  0.7509
 5328TIP3    H237400   0.183   1.557   1.210 -1.9894  0.4290  1.0995
 5329TIP3   OH237401   1.002   0.306   3.513  0.2651 -0.2685 -0.3439
 5329TIP3    H137402   0.994   0.400   3.528  0.3760  0.1111 -2.3335
 5329TIP3    H237403   1.092   0.285   3.537 -0.2920 -0.2889  1.9126
 5330TIP3   OH237404   4.793   1.446  14.607 -0.5489 -0.4105 -0.1873
 5330TIP3    H137405   4.829   1.489  14.684  1.0971 -3.1001  0.6763
 5330TIP3    H237406   4.715   1.402  14.639 -0.4956 -0.6105 -0.3345
 5331TIP3   OH237407   0.205   5.830   3.431 -0.4038  0.8738  0.3001
 5331TIP3    H137408   0.207   5.750   3.378 -2.0769 -0.6156  2.2985
 5331TIP3    H237409   0.207   5.901   3.367 -1.6154 -0.8023 -1.7423
 5332TIP3   OH237410   2.446   3.015   5.202 -0.2594 -0.2730  0.4740
 5332TIP3    H137411   2.527   3.065   5.215  0.3775 -1.2032  0.1925
 5332TIP3    H237412   2.384   3.053   5.264 -0.2059  1.7382 -0.6363
 5333TIP3   OH237413   5.243   1.039  16.886  0.0257  0.0739 -0.1963
 5333TIP3    H137414   5.232   1.036  16.981 -0.6580 -0.3591 -0.2868
 5333TIP3    H237415   5.193   1.115  16.858  2.2178  1.7206  0.0304
 5334TIP3   OH237416   5.055   4.238  16.921  0.6441 -0.1499 -0.3197
 5334TIP3    H137417   5.061   4.245  17.016  1.2436  0.5977 -0.4078
 5334TIP3    H237418   5.122   4.297  16.887  0.5757 -0.5559 -1.2094
 5335TIP3   OH237419   3.060   5.870   4.706 -0.7203 -0.0262  0.5756
 5335TIP3    H137420   3.034   5.856   4.797  1.4185 -0.7402  1.1496
 5335TIP3    H237421   3.106   5.954   4.707  0.8403 -0.8323  0.5786
 5336TIP3   OH237422   6.576   1.817   0.804 -0.2216 -0.3045 -0.2085
 5336TIP3    H137423   6.512   1.888   0.806  0.5745  0.4433 -0.0971
 5336TIP3    H237424   6.527   1.739   0.829 -1.0707  0.2530 -0.0828
 5337TIP3   OH237425   1.132   1.571   2.737  0.0912 -0.0340  0.0513
 5337TIP3    H137426   1.149   1.535   2.649  2.6687 -0.6002  0.6993
 5337TIP3    H237427   1.099   1.497   2.787  0.9957 -0.3628  0.1805
 5338TIP3   OH237428   6.637   6.508  13.216 -0.2569 -0.8264  0.1814
 5338TIP3    H137429   6.585   6.428  13.221 -0.2077 -1.0486 -1.9955
 5338TIP3    H237430   6.655   6.520  13.123  0.7960  1.0571  0.5630
 5339TIP3   OH237431   5.836   5.398   4.773 -0.3174  0.0909  0.3967
 5339TIP3    H137432   5.791   5.316   4.791  0.0037 -0.0067  0.7808
 5339TIP3    H237433   5.844   5.440   4.858  0.5526 -0.0248  0.3881
 5340TIP3   OH237434   3.364   3.835  12.853  0.6848  0.5501  0.2928
 5340TIP3    H137435   3.337   3.772  12.786  0.3533 -1.0096  1.8067
 5340TIP3    H237436   3.457   3.817  12.867  0.4564 -0.0712  1.1451
 5341TIP3   OH237437   5.449   6.514   4.906 -0.1168  0.3515 -0.2161
 5341TIP3    H137438   5.356   6.510   4.928 -0.3932  1.1270 -1.1447
 5341TIP3    H237439   5.472   6.424   4.884 -0.0317 -0.2950  2.2622
 5342TIP3   OH237440   0.470   1.841   5.116 -0.2593 -0.1168 -0.3810
 5342TIP3    H137441   0.530   1.806   5.050 -0.3907  0.5208 -0.8612
 5342TIP3    H237442   0.390   1.790   5.106  0.0596 -0.6881 -0.0277
 5343TIP3   OH237443   6.147   6.515   0.412  0.0061  0.4083  0.1438
 5343TIP3    H137444   6.172   6.602   0.383 -1.9950  0.4495 -1.7204
 5343TIP3    H237445   6.118   6.470   0.332 -3.2494 -0.4234  1.5985
 5344TIP3   OH237446   2.779   1.114   3.346  0.4335  0.1316  0.2734
 5344TIP3    H137447   2.796   1.059   3.422 -0.1965  0.1651  0.4401
 5344TIP3    H237448   2.728   1.059   3.287  0.7483  0.1717 -0.0396
 5345TIP3   OH237449   1.877   3.608  12.584 -0.1639  0.1744 -0.3590
 5345TIP3    H137450   1.827   3.610  12.502  0.7662 -0.4511 -0.9576
 5345TIP3    H237451   1.851   3.527  12.627 -0.8128  0.6049  0.0915
 5346TIP3   OH237452   1.310   1.865  15.178 -0.0490  0.5916 -0.2823
 5346TIP3    H137453   1.252   1.792  15.154  1.0219 -0.0783 -0.9257
 5346TIP3    H237454   1.370   1.827  15.242  1.2669  0.5435 -1.4880
 5347TIP3   OH237455   3.410   3.183  14.912 -0.3102 -0.3005 -0.1530
 5347TIP3    H137456   3.319   3.203  14.935 -0.1535  1.6381 -1.0929
 5347TIP3    H237457   3.460   3.207  14.990 -0.6995 -3.4023  1.2363
 5348TIP3   OH237458   5.442   6.436  13.164 -0.0499 -1.0166  0.0006
 5348TIP3    H137459   5.493   6.361  13.133  2.3843  0.4955  0.0742
 5348TIP3    H237460   5.496   6.512  13.143 -2.9105  0.8688 -1.0509
 5349TIP3   OH237461   3.007   3.148  10.420  0.3910  0.9974 -0.1561
 5349TIP3    H137462   3.017   3.242  10.434  1.4256  0.9877 -0.7702
 5349TIP3    H237463   3.070   3.127  10.351  0.2134 -0.1569  0.0199
 5350TIP3   OH237464   5.124   0.322   4.893 -0.2182  0.4927  0.0254
 5350TIP3    H137465   5.175   0.321   4.812 -0.5723 -2.4829 -0.2505
 5350TIP3    H237466   5.057   0.390   4.879 -0.0798  0.2559 -2.0364
 5351TIP3   OH237467   0.313   2.459  13.869 -0.3125 -0.4766  0.0606
 5351TIP3    H137468   0.394   2.459  13.819 -0.0661  0.1487  0.4369
 5351TIP3    H237469   0.244   2.469  13.804  0.0435  1.0268 -0.1200
 5352TIP3   OH237470   0.151   3.402  14.137 -0.3673 -0.1461  0.3439
 5352TIP3    H137471   0.154   3.310  14.165 -0.3906  0.2367  1.6806
 5352TIP3    H237472   0.091   3.443  14.199 -0.8770  0.6524 -0.6512
 5353TIP3   OH237473   5.145   3.707   6.179  0.1152 -0.0094 -0.4059
 5353TIP3    H137474   5.177   3.759   6.105 -1.5611  0.9658 -0.4746
 5353TIP3    H237475   5.187   3.747   6.255  0.6176 -0.0325 -0.6594
 5354TIP3   OH237476   3.497   1.205   0.923  1.0058 -0.4934 -0.1827
 5354TIP3    H137477   3.535   1.291   0.942  1.0775 -0.7326  0.8099
 5354TIP3    H237478   3.403   1.217   0.932  1.0962 -0.9045  1.7421
 5355TIP3   OH237479   5.610   1.446   1.873  0.0054  0.3979 -0.2895
 5355TIP3    H137480   5.566   1.406   1.799 -0.8331  2.3921 -0.9507
 5355TIP3    H237481   5.558   1.421   1.949 -0.0099 -0.4186 -0.5603
 5356TIP3   OH237482   3.086   3.657  16.307  0.3981 -0.5722  0.3621
 5356TIP3    H137483   3.060   3.648  16.398  0.6839 -0.0399  0.5007
 5356TIP3    H237484   3.016   3.614  16.257  0.7552 -1.7997  0.8766
 5357TIP3   OH237485   5.240   1.587   4.455  0.2377  0.0052 -0.5090
 5357TIP3    H137486   5.265   1.632   4.536 -1.5433  0.6387 -0.2621
 5357TIP3    H237487   5.212   1.658   4.396 -1.2677 -0.6385 -0.6177
 5358TIP3   OH237488   1.318   1.807  14.219  0.2755 -0.5937 -0.1227
 5358TIP3    H137489   1.301   1.730  14.164  0.1837  0.1544 -1.1748
 5358TIP3    H237490   1.317   1.773  14.308 -2.5770 -1.3682 -0.3509
 5359TIP3   OH237491   5.705   5.110   5.620 -0.2117 -0.3460  0.2857
 5359TIP3    H137492   5.735   5.101   5.530 -2.3512 -0.3402 -0.4725
 5359TIP3    H237493   5.710   5.021   5.656  1.7958 -0.1536  0.6054
 5360TIP3   OH237494   3.955   0.880   2.087  0.4441 -0.6521  0.3183
 5360TIP3    H137495   4.001   0.802   2.055 -2.0630 -2.1567  0.0716
 5360TIP3    H237496   4.004   0.954   2.052  3.0608 -2.0872  0.7502
 5361TIP3   OH237497   0.772   1.489  13.407 -0.7751 -0.0291  0.6191
 5361TIP3    H137498   0.712   1.420  13.378 -0.3130 -0.9336  1.7660
 5361TIP3    H237499   0.731   1.525  13.486 -0.9265  0.9075  0.1264
 5362TIP3   OH237500   5.889   5.220  11.108 -0.0774  0.6133  0.1404
 5362TIP3    H137501   5.963   5.191  11.161  0.9706 -0.7900 -1.9647
 5362TIP3    H237502   5.928   5.249  11.026 -1.8489 -0.1641 -1.0267
 5363TIP3   OH237503   1.484   5.039  16.942 -0.4500 -0.2980 -0.2353
 5363TIP3    H137504   1.467   5.114  16.998 -0.0186 -1.8157  2.0410
 5363TIP3    H237505   1.433   4.967  16.980 -2.7008 -0.7803 -3.6470
 5364TIP3   OH237506   5.102   3.277   5.527 -0.2259 -0.0275  0.0706
 5364TIP3    H137507   5.028   3.245   5.475  0.3522 -0.0802 -0.7329
 5364TIP3    H237508   5.090   3.235   5.613 -0.8306 -0.4571 -0.2108
 5365TIP3   OH237509   4.811   6.148  11.833  0.7790  1.0444  0.3863
 5365TIP3    H137510   4.886   6.164  11.776  1.6012  0.1607  1.1807
 5365TIP3    H237511   4.788   6.057  11.817 -0.6398  1.5122 -0.4051
 5366TIP3   OH237512   3.924   3.486   5.377 -0.6658  0.4182  0.2212
 5366TIP3    H137513   3.952   3.577   5.390  0.3304  0.2172 -0.3912
 5366TIP3    H237514   3.984   3.436   5.432 -0.4066  0.0395 -0.4046
 5367TIP3   OH237515   1.181   3.224  14.264 -0.4422 -0.3222 -0.0977
 5367TIP3    H137516   1.221   3.164  14.326 -0.9886  0.2471  0.8356
 5367TIP3    H237517   1.097   3.183  14.242 -2.2351  1.3893  2.8570
 5368TIP3   OH237518   6.550   2.279  13.384 -0.3717 -0.4169 -0.7960
 5368TIP3    H137519   6.613   2.348  13.403 -0.6764 -0.4753  0.4837
 5368TIP3    H237520   6.474   2.325  13.348 -0.2352 -0.1717 -0.7722
 5369TIP3   OH237521   3.837   4.417  15.359 -0.2630 -0.2797 -0.1438
 5369TIP3    H137522   3.797   4.331  15.371 -0.8916  0.0083 -0.1659
 5369TIP3    H237523   3.927   4.398  15.331 -0.7091 -0.9343 -1.2028
 5370TIP3   OH237524   3.639   3.422   3.526  0.6301 -0.2168 -0.1982
 5370TIP3    H137525   3.580   3.493   3.500  0.2260  0.1784  1.6482
 5370TIP3    H237526   3.726   3.454   3.501  0.3216  0.3558 -0.5644
 5371TIP3   OH237527   5.919   2.844   1.882  0.6980 -0.0802 -0.2465
 5371TIP3    H137528   5.923   2.921   1.826  0.6364 -0.9299 -1.4500
 5371TIP3    H237529   5.903   2.879   1.970  0.4113  1.2505 -0.8081
 5372TIP3   OH237530   4.187   3.009  16.926 -0.4268 -0.0715  0.2847
 5372TIP3    H137531   4.279   2.994  16.947  0.3617  1.8875 -1.4515
 5372TIP3    H237532   4.166   2.943  16.860 -0.6331 -1.2207  1.4570
 5373TIP3   OH237533   6.648   3.672   3.941  0.0088  0.4921  1.3766
 5373TIP3    H137534   6.693   3.649   3.859  0.7379 -0.1151  1.9345
 5373TIP3    H237535   6.560   3.636   3.930  0.4756 -0.7268  1.3482
 5374TIP3   OH237536   2.909   3.744   5.239 -0.7986 -0.1647 -0.4695
 5374TIP3    H137537   2.862   3.811   5.289  0.0777  0.1877 -0.0930
 5374TIP3    H237538   2.969   3.793   5.184  1.2122 -0.6498  1.1736
 5375TIP3   OH237539   5.558   2.627   1.313  0.7873  0.1357  0.0381
 5375TIP3    H137540   5.549   2.613   1.407  0.2888  1.5497  0.2260
 5375TIP3    H237541   5.468   2.640   1.282  0.8784 -0.9969 -0.7732
 5376TIP3   OH237542   6.491   4.785  13.497 -0.4050 -0.0804 -0.3510
 5376TIP3    H137543   6.501   4.859  13.437 -0.8956  0.0030 -0.3330
 5376TIP3    H237544   6.428   4.727  13.454 -0.4675 -0.2081 -0.0906
 5377TIP3   OH237545   6.251   0.802  16.864  0.4316 -0.0510 -0.3574
 5377TIP3    H137546   6.240   0.835  16.953  1.2376  0.2238 -0.3519
 5377TIP3    H237547   6.257   0.881  16.809 -1.6410 -0.2100 -0.8803
 5378TIP3   OH237548   5.560   1.248  13.424 -0.1284 -0.6899 -0.3892
 5378TIP3    H137549   5.648   1.212  13.413 -0.5103 -1.2325 -1.9578
 5378TIP3    H237550   5.533   1.220  13.512  1.4100 -0.1408  0.2839
 5379TIP3   OH237551   1.053   4.681   0.030 -0.2384 -0.0534 -0.2785
 5379TIP3    H137552   1.105   4.628  -0.030 -0.1024 -1.6034  1.1247
 5379TIP3    H237553   1.116   4.742   0.068  0.4102 -1.2765  0.6949
 5380TIP3   OH237554   2.203   6.078   5.638  0.5633 -0.6332 -0.5125
 5380TIP3    H137555   2.193   6.114   5.726 -1.4678  0.2368 -1.0537
 5380TIP3    H237556   2.297   6.087   5.619  0.4580  2.7819  0.0697
 5381TIP3   OH237557   1.969   1.636   3.835 -0.0834 -0.5395  0.1724
 5381TIP3    H137558   2.041   1.698   3.824 -0.2120  0.0667  2.4218
 5381TIP3    H237559   2.004   1.553   3.805  1.1491 -0.0178  0.1276
 5382TIP3   OH237560   2.502   4.581  12.961 -0.3559  0.1710  0.8344
 5382TIP3    H137561   2.456   4.499  12.977  2.0222 -2.1231 -2.5133
 5382TIP3    H237562   2.466   4.613  12.878  0.6822  0.9641  0.6660
 5383TIP3   OH237563   1.949   1.227  11.799  0.0702 -0.1513 -0.3390
 5383TIP3    H137564   1.961   1.133  11.787 -0.6440 -0.4909  1.2658
 5383TIP3    H237565   1.864   1.235  11.843  1.1709  1.0340  1.7348
 5384TIP3   OH237566   4.086   1.139   6.060 -0.2291  0.3491  0.0558
 5384TIP3    H137567   4.134   1.190   5.994 -2.7020 -0.5435 -2.6856
 5384TIP3    H237568   4.132   1.055   6.063  0.1984  0.5682 -0.1935
 5385TIP3   OH237569   2.778   0.201   0.927  0.4609 -0.2833 -0.3271
 5385TIP3    H137570   2.779   0.282   0.876  2.0333 -0.2082 -0.2263
 5385TIP3    H237571   2.736   0.137   0.869 -0.9455  0.6216 -0.3468
 5386TIP3   OH237572   5.258   3.125   6.311  0.1632  0.1227 -0.5618
 5386TIP3    H137573   5.252   3.219   6.326  1.7153  0.3229 -0.9429
 5386TIP3    H237574   5.339   3.099   6.356 -0.1450 -0.9956 -0.6211
 5387TIP3   OH237575   6.638   0.920  15.915 -0.3892 -0.0164 -0.0254
 5387TIP3    H137576   6.575   0.970  15.967  0.4022 -0.6917  1.6571
 5387TIP3    H237577   6.619   0.829  15.935 -0.5823 -0.3381 -1.5799
 5388TIP3   OH237578   5.995   0.906  15.891 -0.4091 -0.0210  0.2361
 5388TIP3    H137579   5.901   0.913  15.878 -0.4248 -1.5286 -0.6948
 5388TIP3    H237580   6.024   0.840  15.828  1.2483  0.2822  0.6115
 5389TIP3   OH237581   5.172   6.408  13.221  0.4023  0.5219 -0.3622
 5389TIP3    H137582   5.262   6.427  13.193  0.6507  1.4056  0.9297
 5389TIP3    H237583   5.178   6.326  13.269  0.4120  0.2701 -0.7942
 5390TIP3   OH237584   2.624   1.533  13.392 -0.1257  0.4410 -0.1568
 5390TIP3    H137585   2.698   1.480  13.361 -0.1765  0.2405  0.0659
 5390TIP3    H237586   2.608   1.504  13.481  0.2715  1.2965  0.2057
 5391TIP3   OH237587   0.405   5.995  15.620 -0.2892  0.0866  1.3549
 5391TIP3    H137588   0.490   5.971  15.583 -0.5054 -0.6581  1.3310
 5391TIP3    H237589   0.403   5.953  15.706 -1.0825 -0.8428  0.8997
 5392TIP3   OH237590   5.295   4.457  14.237  0.1768  0.0116  1.0498
 5392TIP3    H137591   5.315   4.386  14.176  0.2883 -0.3549  1.5096
 5392TIP3    H237592   5.332   4.536  14.196 -1.2152  0.0746 -0.1844
 5393TIP3   OH237593   5.431   5.447  15.336  0.4317  0.1922  0.1022
 5393TIP3    H137594   5.485   5.518  15.298  1.1046 -1.0782 -1.4414
 5393TIP3    H237595   5.490   5.401  15.395  0.0898  0.7086  0.8545
 5394TIP3   OH237596   1.859   6.303   3.801 -0.0937  0.6114 -0.2822
 5394TIP3    H137597   1.923   6.370   3.826  0.5460 -0.6590  1.7690
 5394TIP3    H237598   1.906   6.246   3.741  0.0380  0.8034 -0.3633
 5395TIP3   OH237599   0.499   6.464   2.333  0.0902  0.0156  0.1078
 5395TIP3    H137600   0.502   6.539   2.272 -2.1802 -0.3413 -0.5245
 5395TIP3    H237601   0.583   6.420   2.320  1.7658  2.7223  0.9185
 5396TIP3   OH237602   4.687   0.961  13.504  0.1999 -0.5966  0.0442
 5396TIP3    H137603   4.709   1.048  13.539 -2.7629  0.4043 -0.3227
 5396TIP3    H237604   4.690   0.904  13.580 -1.9232  0.7134  1.2067
 5397TIP3   OH237605   1.047   6.785  15.966 -0.2492 -0.3034 -0.2457
 5397TIP3    H137606   1.139   6.767  15.984 -0.0873 -1.6907 -2.1007
 5397TIP3    H237607   1.004   6.775  16.051  1.3062  0.4869  0.6729
 5398TIP3   OH237608   1.529   5.956  13.208 -0.3210  0.5342 -0.2793
 5398TIP3    H137609   1.472   5.882  13.231 -0.7040  0.8898 -0.0681
 5398TIP3    H237610   1.617   5.919  13.207 -0.4965  0.1016 -0.0568
 5399TIP3   OH237611   0.879   1.425  12.538  0.1401 -0.8288 -0.0650
 5399TIP3    H137612   0.834   1.480  12.474  1.2189  0.5903  0.3583
 5399TIP3    H237613   0.816   1.413  12.609 -0.4666 -1.0285 -0.6293
 5400TIP3   OH237614   2.005   2.446   2.570 -0.2630 -0.2072 -0.0800
 5400TIP3    H137615   2.059   2.391   2.512  0.6406 -0.4514  0.9670
 5400TIP3    H237616   2.045   2.533   2.565 -0.6178 -0.0548 -0.3571
 5401TIP3   OH237617   2.104   0.306  14.114 -0.0861 -0.5365 -0.3113
 5401TIP3    H137618   2.094   0.397  14.087 -1.2431 -0.8460 -1.0326
 5401TIP3    H237619   2.139   0.262  14.037  2.3652 -0.3995  0.6349
 5402TIP3   OH237620   0.650   0.088  13.247 -0.5145 -0.0162 -0.0462
 5402TIP3    H137621   0.577   0.066  13.305  1.0554 -0.9832  1.6638
 5402TIP3    H237622   0.648   0.183  13.241 -1.2067  0.0467  0.9407
 5403TIP3   OH237623   4.538   2.978   1.098  0.5400 -0.1482  0.4003
 5403TIP3    H137624   4.563   3.070   1.092  0.5049 -0.2142 -1.0039
 5403TIP3    H237625   4.567   2.952   1.186 -1.3474  1.7244  1.6965
 5404TIP3   OH237626   3.326   5.658   1.965 -0.1236 -0.1602 -0.4045
 5404TIP3    H137627   3.303   5.713   1.891 -4.3386 -0.5291  0.3939
 5404TIP3    H237628   3.311   5.568   1.934  0.5676 -0.4919  0.1697
 5405TIP3   OH237629   1.293   2.408   6.423 -0.4107 -0.0576 -0.8093
 5405TIP3    H137630   1.224   2.341   6.431 -1.8257  1.0670 -2.6529
 5405TIP3    H237631   1.267   2.477   6.483 -1.5749  0.8563 -2.2997
 5406TIP3   OH237632   2.898   5.899   3.844  0.3399 -0.0769  0.0036
 5406TIP3    H137633   2.935   5.986   3.828  1.3309 -0.5460 -0.3108
 5406TIP3    H237634   2.905   5.854   3.760 -2.1065  0.1931 -0.4394
 5407TIP3   OH237635   1.577   2.365  15.481 -0.1502  0.4143  0.4749
 5407TIP3    H137636   1.529   2.316  15.547 -1.1066  1.2428  0.4099
 5407TIP3    H237637   1.529   2.351  15.400  0.7443 -0.2026  0.0314
 5408TIP3   OH237638   5.315   3.756   0.727 -0.2703 -0.4333  0.1958
 5408TIP3    H137639   5.287   3.665   0.722 -1.0202 -0.2785  1.2570
 5408TIP3    H237640   5.234   3.807   0.721  0.0421  0.1205  0.5696
 5409TIP3   OH237641   6.484   3.231  15.038 -0.1192  0.0550 -0.2027
 5409TIP3    H137642   6.491   3.162  15.103  0.1874 -0.1408 -0.4451
 5409TIP3    H237643   6.574   3.254  15.016 -0.2051 -0.6935 -1.4176
 5410TIP3   OH237644   3.302   5.921  13.963 -0.2190 -0.2188 -0.5545
 5410TIP3    H137645   3.327   5.940  14.054 -0.4148 -0.5213 -0.4354
 5410TIP3    H237646   3.330   5.831  13.949 -0.0308 -0.1154 -0.8545
 5411TIP3   OH237647   0.553   3.963  16.233  0.1709 -0.5562 -0.2091
 5411TIP3    H137648   0.478   4.019  16.218  1.5911  1.7640  0.7909
 5411TIP3    H237649   0.597   3.958  16.148  0.6699  0.8862 -0.0559
 5412TIP3   OH237650   2.255   2.914  14.377  0.3276  0.1733  0.0295
 5412TIP3    H137651   2.160   2.915  14.389  0.2936  1.0672 -0.2605
 5412TIP3    H237652   2.286   2.992  14.423  1.0076 -0.5177  0.7553
 5413TIP3   OH237653   5.600   1.337  14.317  0.0775  0.4415  0.0413
 5413TIP3    H137654   5.514   1.380  14.316 -0.6075 -0.8767 -1.5631
 5413TIP3    H237655   5.595   1.278  14.392  1.3496  3.5735  2.8322
 5414TIP3   OH237656   6.290   1.140   3.140 -0.7972 -0.0362  0.0040
 5414TIP3    H137657   6.201   1.172   3.126 -0.1424  1.7103 -0.3747
 5414TIP3    H237658   6.346   1.207   3.101  0.6622 -1.7419 -0.9729
 5415TIP3   OH237659   5.534   5.265  15.828 -0.5046  0.0811  0.0338
 5415TIP3    H137660   5.628   5.256  15.813 -0.4496  0.6366  0.0054
 5415TIP3    H237661   5.525   5.263  15.923 -0.4083  0.4961  0.0533
 5416TIP3   OH237662   3.782   1.548  12.925 -0.4801  0.1532  0.4785
 5416TIP3    H137663   3.803   1.638  12.948 -1.4690  0.2063  1.2185
 5416TIP3    H237664   3.726   1.555  12.847  0.3282  0.1143 -0.1194
 5417TIP3   OH237665   4.481   0.117   0.506  0.7673 -0.2634  0.1588
 5417TIP3    H137666   4.442   0.174   0.440 -0.2503  0.1659  1.0942
 5417TIP3    H237667   4.571   0.102   0.476  0.6459  0.7815 -0.7598
 5418TIP3   OH237668   2.271   1.616  13.116 -0.5512  0.0637 -0.1301
 5418TIP3    H137669   2.334   1.557  13.075  0.7237  2.5993 -2.1950
 5418TIP3    H237670   2.300   1.622  13.207  0.3364 -1.1482 -0.3070
 5419TIP3   OH237671   6.272   4.655  15.696 -0.0739 -0.1866 -0.0375
 5419TIP3    H137672   6.272   4.672  15.601  0.1259 -1.2332 -0.2345
 5419TIP3    H237673   6.260   4.560  15.704  0.9701 -0.2573  0.9507
 5420TIP3   OH237674   5.759   1.998   0.728 -0.1396  0.4920  0.1221
 5420TIP3    H137675   5.669   1.974   0.707 -0.3092  0.6160  0.6925
 5420TIP3    H237676   5.778   2.072   0.670  0.2262 -0.6594 -1.3119
 5421TIP3   OH237677   3.773   2.248   1.587  0.0364 -0.2277  0.4369
 5421TIP3    H137678   3.846   2.220   1.641 -0.8203 -0.0637  1.7142
 5421TIP3    H237679   3.807   2.323   1.538  0.4049  0.5877  1.8778
 5422TIP3   OH237680   2.789   5.248   5.907  0.2164  0.3182 -0.2076
 5422TIP3    H137681   2.742   5.291   5.978 -1.0543 -1.1879 -0.0839
 5422TIP3    H237682   2.754   5.159   5.905 -0.4695  0.5437 -3.3223
 5423TIP3   OH237683   4.419   3.459   3.845  0.3382  0.1608  0.0931
 5423TIP3    H137684   4.507   3.428   3.867  1.0137  1.1475 -1.0505
 5423TIP3    H237685   4.374   3.467   3.929  1.2633 -0.5811  0.6749
 5424TIP3   OH237686   3.534   6.199   5.121 -0.1558 -0.3859 -0.4932
 5424TIP3    H137687   3.501   6.289   5.110 -1.6159 -1.0269 -1.7588
 5424TIP3    H237688   3.462   6.153   5.165  0.2547 -1.1321 -0.5980
 5425TIP3   OH237689   4.213   2.663   5.568  0.4390  0.1509  0.3786
 5425TIP3    H137690   4.294   2.621   5.596  0.5284  0.0872  0.0220
 5425TIP3    H237691   4.220   2.669   5.473 -0.0289  0.0300  0.3326
 5426TIP3   OH237692   2.591   4.438   2.902 -0.0797 -0.2838  0.3488
 5426TIP3    H137693   2.675   4.474   2.877 -0.1378 -0.1281  0.3788
 5426TIP3    H237694   2.529   4.473   2.838 -0.3831  0.8452  1.2291
 5427TIP3   OH237695   6.124   5.207   2.721  0.2388  0.1575  0.0401
 5427TIP3    H137696   6.136   5.301   2.709  1.3023 -0.1467 -1.7445
 5427TIP3    H237697   6.030   5.194   2.716  0.1771  0.9536 -1.6284
 5428TIP3   OH237698   6.635   2.453   3.062  0.2878 -0.1927 -0.5565
 5428TIP3    H137699   6.654   2.537   3.020  0.5894  0.5293  0.9632
 5428TIP3    H237700   6.600   2.476   3.148  1.4498 -1.6082  0.3418
 5429TIP3   OH237701   0.812   3.339   0.331  0.3477  0.3192  0.4952
 5429TIP3    H137702   0.832   3.246   0.334 -1.4935 -0.0996  1.2452
 5429TIP3    H237703   0.835   3.371   0.419  1.1620  0.6310  0.1766
 5430TIP3   OH237704   1.057   1.146   1.685 -0.0563 -0.3891 -0.4958
 5430TIP3    H137705   1.086   1.145   1.776 -0.7497  0.0600 -0.2675
 5430TIP3    H237706   1.072   1.236   1.655 -0.0169 -0.4838 -0.7679
 5431TIP3   OH237707   0.013   3.920  16.401  0.6350 -0.1481  0.0701
 5431TIP3    H137708   0.064   3.905  16.481  0.1324  0.7732  0.5788
 5431TIP3    H237709   0.079   3.928  16.332  1.0441 -1.7990  0.2217
 5432TIP3   OH237710   6.750   5.966   5.114 -0.0176  0.6596 -0.0993
 5432TIP3    H137711   6.665   6.009   5.122 -1.0110 -0.7938 -1.9714
 5432TIP3    H237712   6.804   6.028   5.064 -0.4023  1.0441 -0.0467
 5433TIP3   OH237713   1.403   3.360  15.577  0.0537 -0.1514 -1.0394
 5433TIP3    H137714   1.334   3.382  15.640 -1.1426 -3.1823 -1.1185
 5433TIP3    H237715   1.388   3.419  15.503 -1.2977  0.4922 -0.2907
 5434TIP3   OH237716   2.475   3.129   1.914 -0.2687  0.1315 -0.1278
 5434TIP3    H137717   2.498   3.044   1.876 -0.2583  0.5842 -1.1612
 5434TIP3    H237718   2.386   3.146   1.884  0.1179  0.9747 -0.8344
 5435TIP3   OH237719   4.914   0.554  15.513 -0.1420  0.5117 -0.0220
 5435TIP3    H137720   4.881   0.482  15.461 -0.3977  1.9012 -1.9029
 5435TIP3    H237721   4.991   0.585  15.465 -0.5642  2.0468  0.2367
 5436TIP3   OH237722   0.930   4.141   4.107  0.5930 -0.6714  0.3238
 5436TIP3    H137723   0.992   4.086   4.058  1.9180  0.4535  0.6863
 5436TIP3    H237724   0.868   4.078   4.145  1.7834 -1.8738  0.3535
 5437TIP3   OH237725   2.099   3.028  16.374  0.0272  0.7094 -0.2328
 5437TIP3    H137726   2.065   2.996  16.291  0.7583  0.2684 -0.3758
 5437TIP3    H237727   2.192   3.003  16.373 -0.2123 -0.3202  1.2076
 5438TIP3   OH237728   6.100   4.981   5.184  0.2368  0.1489  0.0208
 5438TIP3    H137729   6.107   4.903   5.240 -0.2676 -0.0517 -0.1917
 5438TIP3    H237730   6.181   4.980   5.132  1.3069  1.0225  1.5944
 5439TIP3   OH237731   3.299   2.995  15.190 -0.0820  0.1361  0.1349
 5439TIP3    H137732   3.345   3.056  15.132 -1.6897  0.0038 -1.3748
 5439TIP3    H237733   3.350   2.915  15.186  0.8263  0.6858  0.3671
 5440TIP3   OH237734   5.025   2.941  10.343 -0.0871 -0.1118 -0.6398
 5440TIP3    H137735   5.107   2.959  10.297 -0.1268  1.0119 -0.3052
 5440TIP3    H237736   5.044   2.961  10.434 -1.3961  2.7393 -0.8771
 5441TIP3   OH237737   5.796   3.343  11.373  0.3625  0.3523 -0.2760
 5441TIP3    H137738   5.838   3.299  11.299 -1.4973 -0.1033 -1.1203
 5441TIP3    H237739   5.715   3.380  11.336 -1.4747 -1.2800  1.8309
 5442TIP3   OH237740   3.832   4.209  10.907  0.1813  0.1878 -0.0802
 5442TIP3    H137741   3.805   4.238  10.820 -0.2009  0.1737  0.0317
 5442TIP3    H237742   3.756   4.162  10.942 -1.0020  3.0660  1.6248
 5443TIP3   OH237743   3.482   5.800   5.086  0.0117 -0.1591 -0.4770
 5443TIP3    H137744   3.414   5.737   5.109  0.1005 -0.3122 -0.6350
 5443TIP3    H237745   3.451   5.883   5.122  0.2924 -0.4534  0.4471
 5444TIP3   OH237746   1.838   0.693   3.327  0.4494  0.4703  0.3676
 5444TIP3    H137747   1.908   0.731   3.380  0.0718 -1.5528  2.4332
 5444TIP3    H237748   1.880   0.620   3.281 -0.0450 -0.0419  0.7281
 5445TIP3   OH237749   1.055   2.757   5.492  0.1694  0.1940 -0.7187
 5445TIP3    H137750   1.102   2.771   5.574 -0.7209  0.2132 -0.2024
 5445TIP3    H237751   0.989   2.691   5.513 -1.1717  1.3985 -0.9580
 5446TIP3   OH237752   5.094   0.646   1.938  0.0776 -0.2028 -0.4438
 5446TIP3    H137753   5.013   0.680   1.976  0.4205 -0.8388  0.8912
 5446TIP3    H237754   5.098   0.555   1.965  1.1788 -0.2192 -0.5994
 5447TIP3   OH237755   6.136   4.705  14.582 -0.3821 -0.7997  0.4491
 5447TIP3    H137756   6.055   4.663  14.613 -0.5796  0.7926  2.2443
 5447TIP3    H237757   6.107   4.784  14.537  0.1705 -0.4309  0.7321
 5448TIP3   OH237758   0.993   1.787  13.032  0.2376 -0.1388 -0.0583
 5448TIP3    H137759   0.959   1.854  13.092 -2.1008  0.7009 -2.1180
 5448TIP3    H237760   0.969   1.704  13.073 -1.6698  0.4165  0.0590
 5449TIP3   OH237761   3.296   6.626  11.802  0.2190  0.1382 -0.0549
 5449TIP3    H137762   3.206   6.645  11.776  1.0533  2.4194 -1.6856
 5449TIP3    H237763   3.302   6.531  11.801 -1.8683 -0.0353 -1.0362
 5450TIP3   OH237764   6.153   2.923   6.550 -0.0610  0.8193  0.8239
 5450TIP3    H137765   6.230   2.882   6.510 -0.3962  1.3279 -0.3940
 5450TIP3    H237766   6.103   2.850   6.587  0.4621  0.3714  0.6560
 5451TIP3   OH237767   4.656   2.258  13.821 -0.5402  0.4193  0.0571
 5451TIP3    H137768   4.615   2.207  13.892 -0.0134 -1.4791 -0.9452
 5451TIP3    H237769   4.732   2.300  13.863 -0.1308 -0.8213  0.6022
 5452TIP3   OH237770   4.585   4.086   1.406 -0.1921 -0.6471 -0.4305
 5452TIP3    H137771   4.569   4.013   1.466 -0.2096  0.1075  0.5034
 5452TIP3    H237772   4.653   4.138   1.448 -1.2160  0.6890 -0.3378
 5453TIP3   OH237773   3.795   4.425   2.489 -0.0920  0.2274  0.1318
 5453TIP3    H137774   3.856   4.419   2.416  0.7953  0.5285  0.8279
 5453TIP3    H237775   3.746   4.343   2.486 -1.6189  1.0942 -2.0861
 5454TIP3   OH237776   2.369   5.709   0.536 -0.6273  0.2572 -0.8261
 5454TIP3    H137777   2.457   5.698   0.572 -0.9386 -4.3756 -0.9230
 5454TIP3    H237778   2.313   5.725   0.612 -0.1215 -0.0849 -0.3768
 5455TIP3   OH237779   3.779   4.871  14.172 -0.1436  0.3847 -0.1874
 5455TIP3    H137780   3.818   4.940  14.225 -1.1867  1.0516 -0.2599
 5455TIP3    H237781   3.853   4.826  14.132  0.6449  0.1561  1.4629
 5456TIP3   OH237782   6.116   4.539   4.617  0.1717  0.2838  0.2008
 5456TIP3    H137783   6.036   4.547   4.670  0.8888  2.3777  1.0630
 5456TIP3    H237784   6.084   4.518   4.529 -1.2834  0.4121  0.6682
 5457TIP3   OH237785   5.131   1.918   1.542 -0.0148  0.3004  0.0432
 5457TIP3    H137786   5.169   1.977   1.477  0.2377 -1.0694 -1.0799
 5457TIP3    H237787   5.087   1.977   1.604 -0.8780  1.6067 -1.7346
 5458TIP3   OH237788   0.094   6.656  13.264 -0.1193  0.0976  0.6381
 5458TIP3    H137789   0.052   6.696  13.340 -1.7643 -0.5472  0.1040
 5458TIP3    H237790   0.042   6.577  13.246 -0.8114  1.0662 -2.1417
 5459TIP3   OH237791   1.224   0.269  13.350 -0.0611 -0.3342 -0.1380
 5459TIP3    H137792   1.278   0.240  13.276 -0.7305  0.7097 -1.0696
 5459TIP3    H237793   1.276   0.337  13.392  0.6402 -1.4423  0.8221
 5460TIP3   OH237794   4.578   4.212  14.796  0.0102 -0.1325  0.1620
 5460TIP3    H137795   4.627   4.219  14.714  0.8410  0.8428  0.7270
 5460TIP3    H237796   4.639   4.172  14.857 -0.3056 -0.0320  0.5453
 5461TIP3   OH237797   4.764   3.179  15.804  0.0372 -0.6493  0.9363
 5461TIP3    H137798   4.813   3.251  15.765 -0.6687 -0.8184 -0.3410
 5461TIP3    H237799   4.737   3.211  15.890  0.5254  0.2570  0.7611
 5462TIP3   OH237800   4.056   2.770  17.257 -0.2161 -0.0947  0.3573
 5462TIP3    H137801   4.057   2.751  17.350  0.0936 -0.0498  0.3655
 5462TIP3    H237802   4.032   2.863  17.251 -2.0980 -0.5375  0.3056
 5463TIP3   OH237803   3.586   0.066   5.037  0.1937 -0.4525 -0.1966
 5463TIP3    H137804   3.668   0.077   5.084 -0.8329 -0.2768  1.6719
 5463TIP3    H237805   3.604  -0.003   4.973  1.8159 -0.3282  0.0938
 5464TIP3   OH237806   4.631   6.527   4.025  0.2650 -0.3823 -0.4349
 5464TIP3    H137807   4.635   6.581   4.103 -1.0718 -0.8275 -0.0329
 5464TIP3    H237808   4.545   6.544   3.987 -0.8151 -3.1703  0.4684
 5465TIP3   OH237809   0.891   4.724   2.161 -0.5024 -0.7053  0.1209
 5465TIP3    H137810   0.906   4.811   2.197 -1.1783 -0.6958  0.3972
 5465TIP3    H237811   0.960   4.670   2.199 -0.7114 -0.5176  0.7857
 5466TIP3   OH237812   1.427   1.292  12.017 -0.2457  0.3068  0.0474
 5466TIP3    H137813   1.503   1.351  12.012 -0.7970  0.9303 -1.3255
 5466TIP3    H237814   1.374   1.314  11.940 -2.6913  1.0925  1.8107
 5467TIP3   OH237815   2.612   2.280  13.546 -0.2672  0.2199  0.5043
 5467TIP3    H137816   2.545   2.342  13.577 -0.0316  0.4803  0.4974
 5467TIP3    H237817   2.571   2.235  13.472 -1.0836 -0.8843  1.5939
 5468TIP3   OH237818   1.076   5.696   3.012  0.3072 -0.0704  0.2715
 5468TIP3    H137819   1.120   5.743   3.083 -1.6917  2.2184  0.0763
 5468TIP3    H237820   0.988   5.679   3.045  0.3212 -1.8873 -0.4913
 5469TIP3   OH237821   5.081   2.690  11.814 -0.3739  0.3273  0.6787
 5469TIP3    H137822   5.024   2.624  11.773 -1.5942  0.2308  2.4029
 5469TIP3    H237823   5.158   2.694  11.758 -0.5723 -2.0675  0.1388
 5470TIP3   OH237824   2.407   3.151  11.200  0.0283 -0.3504 -0.9450
 5470TIP3    H137825   2.481   3.090  11.210  0.1738  0.0629  1.1131
 5470TIP3    H237826   2.337   3.098  11.163  0.7216 -1.2925 -0.9561
 5471TIP3   OH237827   5.058   3.405   1.892  0.0157  0.4340 -0.4600
 5471TIP3    H137828   5.021   3.357   1.818 -0.1649 -0.2413  0.0557
 5471TIP3    H237829   5.087   3.336   1.952 -0.0655  0.9798  0.2063
 5472TIP3   OH237830   5.226   2.052  13.654  0.1590  0.0653 -0.2167
 5472TIP3    H137831   5.172   2.047  13.575  2.2617 -2.4997 -1.6374
 5472TIP3    H237832   5.191   1.985  13.712  1.4782 -1.3651 -1.0012
 5473TIP3   OH237833   6.490   2.459   3.447 -0.7953  0.4445  0.4324
 5473TIP3    H137834   6.576   2.490   3.474 -0.7456  0.1706  0.5943
 5473TIP3    H237835   6.428   2.509   3.501 -0.7155  0.2496  0.7036
 5474TIP3   OH237836   2.639   5.219  16.472  0.3081  0.0864 -0.7889
 5474TIP3    H137837   2.717   5.183  16.431  0.8804 -0.5153  0.7419
 5474TIP3    H237838   2.592   5.142  16.505  0.0766  0.5636  0.0139
 5475TIP3   OH237839   5.058   5.215   1.121  0.5878 -0.1803 -0.0054
 5475TIP3    H137840   5.001   5.139   1.120  0.1662  0.1245 -1.2888
 5475TIP3    H237841   5.018   5.274   1.186 -0.0653 -0.3494 -0.2412
 5476TIP3   OH237842   3.800   2.841  13.149 -0.0094 -0.3056  0.2592
 5476TIP3    H137843   3.861   2.899  13.103 -1.6856  0.5421 -0.9984
 5476TIP3    H237844   3.793   2.764  13.092 -1.0262  0.1433 -0.2540
 5477TIP3   OH237845   5.220   4.562  15.426 -0.2160 -0.0372  0.8378
 5477TIP3    H137846   5.215   4.578  15.521  0.3869 -1.0022  1.0413
 5477TIP3    H237847   5.152   4.618  15.389 -1.0049 -0.2523  1.9191
 5478TIP3   OH237848   6.068   5.390   2.200  0.3376 -0.3401 -0.5384
 5478TIP3    H137849   6.059   5.350   2.286 -2.2790  0.5548 -0.3055
 5478TIP3    H237850   6.042   5.321   2.139  0.3692 -0.4103 -0.4728
 5479TIP3   OH237851   4.550   4.016   5.426 -0.0036  0.3080 -0.0829
 5479TIP3    H137852   4.598   3.945   5.468  0.4188  1.0156  0.6618
 5479TIP3    H237853   4.573   4.010   5.334  0.4749 -0.1712  0.0642
 5480TIP3   OH237854   0.023   6.536  11.286 -0.0817  0.3639  0.0004
 5480TIP3    H137855  -0.043   6.503  11.225  1.7320 -1.7930 -0.9720
 5480TIP3    H237856  -0.012   6.620  11.317 -3.0062 -0.4429 -0.7764
 5481TIP3   OH237857   4.019   5.847   4.999  0.1830  0.9200  0.0596
 5481TIP3    H137858   4.058   5.882   5.080  0.1439  0.6848  0.1785
 5481TIP3    H237859   3.925   5.857   5.012 -0.1552 -2.9945  1.8672
 5482TIP3   OH237860   3.507   2.777  16.960  0.8213 -1.1519  0.3329
 5482TIP3    H137861   3.547   2.862  16.978 -1.0437  0.5147 -2.5268
 5482TIP3    H237862   3.539   2.754  16.873 -2.1149 -1.0561 -0.9072
 5483TIP3   OH237863   4.901   2.866  16.069 -0.0814 -0.1172 -0.2728
 5483TIP3    H137864   4.875   2.774  16.061 -1.0700  0.2207 -1.2541
 5483TIP3    H237865   4.891   2.901  15.980  2.5949  0.3703 -0.4680
 5484TIP3   OH237866   1.339   3.017  16.050 -0.4964 -0.2630 -0.6394
 5484TIP3    H137867   1.261   2.962  16.041 -0.3875 -0.3058 -1.3302
 5484TIP3    H237868   1.413   2.957  16.039 -0.3799  0.1451 -2.2177
 5485TIP3   OH237869   3.576   6.419  17.046  0.2434 -0.2897  0.1224
 5485TIP3    H137870   3.515   6.400  16.975 -0.0177 -0.2695  0.3376
 5485TIP3    H237871   3.662   6.399  17.010  0.3747  1.9890 -1.0265
 5486TIP3   OH237872   6.221   0.523  14.365  0.1528  0.5206  0.2563
 5486TIP3    H137873   6.268   0.486  14.440 -2.1501 -0.9884  1.0637
 5486TIP3    H237874   6.286   0.529  14.296  1.2380 -2.9853  0.7774
 5487TIP3   OH237875   5.559   5.739  13.458  0.4009 -0.0816 -0.5077
 5487TIP3    H137876   5.549   5.682  13.382  0.9247 -1.3233  0.3080
 5487TIP3    H237877   5.535   5.683  13.532  2.5467  0.2133  0.4913
 5488TIP3   OH237878   5.579   0.102  11.992 -0.5476 -0.4559  0.3345
 5488TIP3    H137879   5.576   0.007  11.988 -2.9686 -0.3998 -0.6956
 5488TIP3    H237880   5.651   0.126  11.933 -0.4074 -1.6115  0.0147
 5489TIP3   OH237881   0.211   0.170   4.436 -0.1472  0.6548 -0.6274
 5489TIP3    H137882   0.165   0.137   4.513 -1.0596  1.6122 -0.7316
 5489TIP3    H237883   0.158   0.244   4.406  0.8978  1.1315 -1.3950
 5490TIP3   OH237884   5.896   2.293  11.139 -0.4631  0.2989  0.4381
 5490TIP3    H137885   5.955   2.272  11.067 -1.0683 -1.0827  0.3169
 5490TIP3    H237886   5.947   2.353  11.194  0.6918 -0.0810 -0.1640
 5491TIP3   OH237887   3.583   2.712   6.090 -0.4479 -0.0553 -0.3011
 5491TIP3    H137888   3.625   2.786   6.133 -0.5574 -0.9579  1.4143
 5491TIP3    H237889   3.645   2.640   6.099 -2.0739 -1.2961  1.8912
 5492TIP3   OH237890   1.855   3.892   4.901 -0.0831 -0.6512  0.0043
 5492TIP3    H137891   1.845   3.799   4.922  1.4525 -0.7656  0.3911
 5492TIP3    H237892   1.808   3.903   4.818 -1.0809 -1.5515  0.4296
 5493TIP3   OH237893   1.492   2.421   2.998  0.4261 -0.0412 -0.2937
 5493TIP3    H137894   1.528   2.484   2.936 -1.2443 -0.5476 -1.8315
 5493TIP3    H237895   1.413   2.388   2.957  1.3692 -3.3889  0.2825
 5494TIP3   OH237896   4.061   3.609   0.107  0.6676 -0.1002 -0.1503
 5494TIP3    H137897   4.132   3.566   0.061  1.2694 -0.1836  0.8143
 5494TIP3    H237898   3.988   3.612   0.045  1.1933 -0.9211 -0.8053
 5495TIP3   OH237899   4.361   1.388   1.356 -0.2916 -0.6041  0.8393
 5495TIP3    H137900   4.278   1.400   1.403 -1.0157 -0.7285 -0.3464
 5495TIP3    H237901   4.381   1.474   1.320  0.8571 -0.2351  2.2598
 5496TIP3   OH237902   2.666   2.484  12.127  0.2021 -0.0607  0.3520
 5496TIP3    H137903   2.668   2.389  12.123 -1.3630 -0.0876 -0.8505
 5496TIP3    H237904   2.631   2.511  12.042 -0.1818  1.5494  0.9815
 5497TIP3   OH237905   0.366   1.760   6.014 -0.3088  0.1547  0.1811
 5497TIP3    H137906   0.393   1.669   6.006 -1.0779  0.0567 -2.1013
 5497TIP3    H237907   0.314   1.763   6.094  0.5388 -1.1731  0.8150
 5498TIP3   OH237908   0.192   5.868   3.035  0.5149  0.2579  0.0426
 5498TIP3    H137909   0.266   5.908   3.080  0.7789  1.1815 -1.1625
 5498TIP3    H237910   0.197   5.901   2.946 -1.2528  0.2033 -0.1199
 5499TIP3   OH237911   1.839   1.579   4.362 -0.1485 -0.5125  0.3241
 5499TIP3    H137912   1.800   1.567   4.275 -1.2973 -0.6602  0.8566
 5499TIP3    H237913   1.882   1.495   4.379  2.3971  0.3444 -1.1897
 5500TIP3   OH237914   3.867   1.376   2.181  0.0525 -0.5030  0.5544
 5500TIP3    H137915   3.782   1.419   2.169  0.1609 -0.2022  0.8440
 5500TIP3    H237916   3.858   1.325   2.261  0.5337  0.5131  1.2693
 5501TIP3   OH237917   0.668   6.697   3.633 -0.5415  0.4701 -0.2514
 5501TIP3    H137918   0.725   6.707   3.557 -0.2301 -1.0549 -0.2452
 5501TIP3    H237919   0.651   6.603   3.639 -3.2699  0.8567 -0.4099
 5502TIP3   OH237920   6.468   1.853  13.879 -0.0572  0.1260  0.2326
 5502TIP3    H137921   6.480   1.944  13.904  1.0544 -0.4890  2.1125
 5502TIP3    H237922   6.399   1.856  13.812  0.1976  2.3510 -0.0142
 5503TIP3   OH237923   0.939   5.555  13.934  0.2253 -0.7699  0.2456
 5503TIP3    H137924   0.931   5.602  13.852 -0.8358  0.3574  0.9596
 5503TIP3    H237925   1.031   5.561  13.957  0.6747 -1.7256 -1.1956
 5504TIP3   OH237926   3.511   1.149   0.008 -0.5147  0.2154  0.3487
 5504TIP3    H137927   3.502   1.244   0.012  0.0522  0.4342 -2.0940
 5504TIP3    H237928   3.605   1.133   0.013 -0.2890  0.1098 -2.5559
 5505TIP3   OH237929   3.221   6.671   3.099  0.0708  0.0220 -0.1086
 5505TIP3    H137930   3.201   6.696   3.190 -0.1934 -0.9121  0.0976
 5505TIP3    H237931   3.239   6.577   3.103 -0.2458 -0.0922 -1.0797
 5506TIP3   OH237932   4.241   6.709   5.675 -0.6927  0.1777  0.4351
 5506TIP3    H137933   4.262   6.774   5.741  1.0275  0.3636 -0.2279
 5506TIP3    H237934   4.281   6.628   5.707 -0.3023  0.1474 -0.1128
 5507TIP3   OH237935   5.953   0.810   0.873  0.3454  0.3161  0.1232
 5507TIP3    H137936   5.894   0.828   0.800 -0.5488 -0.8968  0.5187
 5507TIP3    H237937   5.961   0.894   0.918  2.9659  1.8012 -2.7381
 5508TIP3   OH237938   3.914   1.351  16.702  0.5442  0.2487  0.2371
 5508TIP3    H137939   3.948   1.280  16.647 -0.7656 -1.1764  1.1479
 5508TIP3    H237940   3.900   1.310  16.787 -2.2974  0.9733  0.2296
 5509TIP3   OH237941   4.052   6.436   5.622  0.2836 -0.2434 -0.2211
 5509TIP3    H137942   3.974   6.488   5.640  0.2680  0.5734 -2.3530
 5509TIP3    H237943   4.084   6.409   5.709 -1.2864  0.9767  0.7841
 5510TIP3   OH237944   4.933   2.905   2.972 -0.3020 -0.1489 -0.0449
 5510TIP3    H137945   4.850   2.862   2.994 -0.9274  0.6056 -0.8640
 5510TIP3    H237946   4.941   2.894   2.877 -0.1514  0.9770 -0.1711
 5511TIP3   OH237947   0.197   2.266   2.791 -0.0076  0.5000 -0.0001
 5511TIP3    H137948   0.280   2.297   2.755 -0.4873 -0.8063 -2.4069
 5511TIP3    H237949   0.217   2.179   2.826 -0.0258  0.8767  0.9820
 5512TIP3   OH237950   3.910   4.483  16.649 -0.2268 -0.5611 -0.1576
 5512TIP3    H137951   3.977   4.435  16.601  0.9792  1.4674 -0.5993
 5512TIP3    H237952   3.954   4.517  16.726 -1.2187 -0.6565  0.4785
 5513TIP3   OH237953   5.133   1.917  11.383  0.1980 -0.3387  0.2327
 5513TIP3    H137954   5.101   2.002  11.413  0.8033  0.3381 -1.0044
 5513TIP3    H237955   5.177   1.934  11.300 -1.4904 -2.1727 -1.1512
 5514TIP3   OH237956   3.273   3.067   3.341  0.4307  0.1319 -0.1754
 5514TIP3    H137957   3.252   2.980   3.374  0.7818  0.0466 -0.1727
 5514TIP3    H237958   3.273   3.058   3.246 -0.1537  0.2783 -0.1967
 5515TIP3   OH237959   4.039   0.706   5.917  0.1648 -0.3375  0.1893
 5515TIP3    H137960   4.015   0.791   5.881  1.2609  0.6646  1.7078
 5515TIP3    H237961   4.134   0.708   5.923  0.1324 -1.1663  1.4150
 5516TIP3   OH237962   5.105   1.314   4.621 -0.0237  0.0555 -0.4094
 5516TIP3    H137963   5.065   1.401   4.632  2.4849  1.2516  0.0921
 5516TIP3    H237964   5.188   1.332   4.576  0.7509 -2.0421  0.0987
 5517TIP3   OH237965   5.381   3.678  14.044 -0.5786 -0.6746 -0.0298
 5517TIP3    H137966   5.345   3.765  14.057  0.5389 -0.0508 -0.9457
 5517TIP3    H237967   5.343   3.625  14.114 -1.5971  0.4371  0.2818
 5518TIP3   OH237968   0.975   2.843   4.549  0.1986 -0.5342  0.8172
 5518TIP3    H137969   0.910   2.772   4.552  0.5242 -1.1027 -2.2019
 5518TIP3    H237970   0.996   2.860   4.641 -1.8338 -2.5258  1.7655
 5519TIP3   OH237971   6.322   2.804  15.351  0.1436  0.3102  0.4799
 5519TIP3    H137972   6.227   2.807  15.347  0.1205  0.4559  1.1235
 5519TIP3    H237973   6.344   2.821  15.443  0.8394  1.9290  0.0524
 5520TIP3   OH237974   5.477   1.273   1.710  0.1480  0.1223 -0.1762
 5520TIP3    H137975   5.444   1.315   1.630  0.3718  0.7534  0.0579
 5520TIP3    H237976   5.495   1.183   1.684  0.8485  0.4875 -1.0164
 5521TIP3   OH237977   5.705   0.138   2.076 -0.4891 -0.1544 -0.3919
 5521TIP3    H137978   5.680   0.215   2.027  2.6436  0.5018 -1.2042
 5521TIP3    H237979   5.784   0.165   2.124 -0.3477 -2.3342  0.7249
 5522TIP3   OH237980   3.179   2.004   5.962 -0.4372 -0.0802  0.2426
 5522TIP3    H137981   3.228   1.938   6.011 -1.8672 -2.2232 -1.0488
 5522TIP3    H237982   3.191   2.085   6.012  0.3857 -1.5548  2.5799
 5523TIP3   OH237983   2.711   4.636  16.604  0.1352 -0.4790  0.9987
 5523TIP3    H137984   2.625   4.634  16.646 -0.6556  1.3501 -0.3822
 5523TIP3    H237985   2.773   4.621  16.675 -1.1881  1.2584  2.6181
 5524TIP3   OH237986   3.182   1.946  13.368 -0.1986 -0.5719 -0.2207
 5524TIP3    H137987   3.239   1.960  13.444  0.7264 -0.7884 -0.8698
 5524TIP3    H237988   3.220   2.000  13.299 -1.3293  0.0203 -0.4039
 5525TIP3   OH237989   1.798   2.520  10.944  0.3897 -0.3032  0.7488
 5525TIP3    H137990   1.884   2.543  10.979  0.7331 -0.6567  0.1473
 5525TIP3    H237991   1.776   2.437  10.986  0.5809 -0.4756  0.5139
 5526TIP3   OH237992   4.154   4.935   3.997  0.2836 -0.2054  0.1440
 5526TIP3    H137993   4.195   4.902   4.077 -0.1989 -1.5237 -0.1196
 5526TIP3    H237994   4.226   4.947   3.936  0.4543 -1.1356  0.1416
 5527TIP3   OH237995   5.406   5.365   0.768  0.4665 -0.8504 -0.3900
 5527TIP3    H137996   5.346   5.367   0.842  0.8892 -1.7135 -0.0136
 5527TIP3    H237997   5.451   5.281   0.776  0.8061 -0.7735 -1.3944
 5528TIP3   OH237998   5.944   0.478   3.841 -0.1589  0.3214  0.1195
 5528TIP3    H137999   5.849   0.483   3.853 -0.4839  0.3617 -1.9661
 5528TIP3    H238000   5.970   0.567   3.815  0.8512  0.8682  2.7102
 5529TIP3   OH238001   3.249   1.543   6.129 -0.0153 -0.4229  0.3996
 5529TIP3    H138002   3.279   1.475   6.189 -0.2912 -2.3854 -1.5501
 5529TIP3    H238003   3.165   1.572   6.166  0.6996 -0.1795  1.9287
 5530TIP3   OH238004   5.318   3.436   6.055 -0.2409 -0.2499  0.0850
 5530TIP3    H138005   5.270   3.518   6.045 -0.7056 -0.7465 -2.2293
 5530TIP3    H238006   5.327   3.425   6.150 -0.9128  2.0168  0.4727
 5531TIP3   OH238007   4.050   0.234  11.777  0.0500  0.1608 -0.2296
 5531TIP3    H138008   3.967   0.280  11.781  0.3281  0.5538  1.5007
 5531TIP3    H238009   4.105   0.277  11.842  1.9926  0.6189 -2.0609
 5532TIP3   OH238010   6.299   3.780   1.735 -0.0312  0.1164  0.2435
 5532TIP3    H138011   6.324   3.708   1.793  3.2585  1.5045  0.8111
 5532TIP3    H238012   6.295   3.857   1.792  0.5978  1.0527 -0.9064
 5533TIP3   OH238013   1.545   5.717  14.651  0.5624  0.1683  0.3866
 5533TIP3    H138014   1.630   5.725  14.694  2.3272 -5.7608 -1.1071
 5533TIP3    H238015   1.488   5.676  14.715 -0.1457  0.9729  0.2913
 5534TIP3   OH238016   0.764   2.556   5.078 -0.1963  0.6893  0.5024
 5534TIP3    H138017   0.791   2.464   5.083  1.4903  1.1199 -0.0949
 5534TIP3    H238018   0.685   2.555   5.025  0.3360 -0.3449 -0.3167
 5535TIP3   OH238019   3.644   0.413   3.392  0.4331  0.1113 -0.1743
 5535TIP3    H138020   3.683   0.452   3.470 -0.1280  1.1608 -0.4044
 5535TIP3    H238021   3.580   0.350   3.427  0.7354  0.0079  0.2023
 5536TIP3   OH238022   1.844   3.506  15.840  0.0280 -0.4750  0.0042
 5536TIP3    H138023   1.856   3.596  15.809  0.1982  0.1328  1.7241
 5536TIP3    H238024   1.772   3.472  15.787 -0.7458  1.0511  0.0171
 5537TIP3   OH238025   4.123   3.106  10.812  0.6102  0.1893 -0.1890
 5537TIP3    H138026   4.165   3.022  10.828 -0.5682 -0.3774  0.0207
 5537TIP3    H238027   4.100   3.105  10.720 -0.6178 -0.3043  0.1061
 5538TIP3   OH238028   2.126   6.321  13.954  0.0123  0.2126  0.1459
 5538TIP3    H138029   2.122   6.304  14.048  0.3548  0.5423  0.2223
 5538TIP3    H238030   2.143   6.236  13.915 -0.1976  0.0623  0.3776
 5539TIP3   OH238031   2.617   0.730  12.327  0.2008  0.1119 -0.2160
 5539TIP3    H138032   2.664   0.813  12.336  1.2863 -0.5427  0.3013
 5539TIP3    H238033   2.648   0.694  12.244 -1.5335  0.9778 -1.2988
 5540TIP3   OH238034   5.552   3.616  11.871  0.3610  0.5457 -0.0791
 5540TIP3    H138035   5.582   3.707  11.863 -0.2127  0.6844 -0.8699
 5540TIP3    H238036   5.543   3.587  11.780  0.3214 -0.2302  0.1703
 5541TIP3   OH238037   2.457   4.022  16.109  0.2470 -0.2862  0.5463
 5541TIP3    H138038   2.483   3.945  16.161  0.1160 -0.4350  0.3949
 5541TIP3    H238039   2.468   4.096  16.169  0.0769 -0.4576  0.7962
 5542TIP3   OH238040   3.237   2.879   5.856 -0.2239 -0.5114 -0.3450
 5542TIP3    H138041   3.235   2.812   5.788  1.6221  0.1676 -1.1165
 5542TIP3    H238042   3.299   2.945   5.824 -3.3047  2.6072 -0.5236
 5543TIP3   OH238043   6.330   5.810  16.788  0.1931 -0.8415 -0.4031
 5543TIP3    H138044   6.319   5.841  16.698  0.8571 -0.5221 -0.3789
 5543TIP3    H238045   6.244   5.774  16.812 -0.3980  0.3111 -0.6896
 5544TIP3   OH238046   6.639   0.855   5.128 -0.7908 -0.2052 -0.1115
 5544TIP3    H138047   6.676   0.778   5.171  1.4014  0.0856 -1.3416
 5544TIP3    H238048   6.642   0.923   5.194 -1.4892 -0.8052  0.5638
 5545TIP3   OH238049   2.768   5.900   0.371  0.6892 -0.3397  0.1618
 5545TIP3    H138050   2.696   5.955   0.401 -0.7362 -1.9801 -0.1168
 5545TIP3    H238051   2.825   5.959   0.322 -1.8878  0.5419 -1.9930
 5546TIP3   OH238052   2.950   4.174   5.503  0.3597 -0.1291 -0.2276
 5546TIP3    H138053   2.961   4.249   5.561  0.0327  1.5012 -2.1415
 5546TIP3    H238054   3.001   4.197   5.425  0.1948 -1.8869 -0.8957
 5547TIP3   OH238055   2.816   2.136  12.828  0.1335 -0.1542  0.2694
 5547TIP3    H138056   2.893   2.128  12.884 -0.7993  0.9657  1.8059
 5547TIP3    H238057   2.756   2.068  12.860  0.1179 -0.4143 -0.3046
 5548TIP3   OH238058   6.711   3.576   5.338 -0.1576 -0.6286 -0.3623
 5548TIP3    H138059   6.780   3.630   5.301 -2.5025  1.8636 -1.4758
 5548TIP3    H238060   6.721   3.586   5.433  1.5681 -1.1886 -0.4518
 5549TIP3   OH238061   1.442   3.655  12.026  0.3228 -0.0454  0.6875
 5549TIP3    H138062   1.492   3.694  12.097 -1.5035  0.1886  1.9306
 5549TIP3    H238063   1.375   3.720  12.005  0.7904 -0.1234 -1.2656
 5550TIP3   OH238064   2.684   1.109   3.068  0.2645 -0.0476 -0.4825
 5550TIP3    H138065   2.641   1.194   3.076 -0.9910 -0.2363 -3.5830
 5550TIP3    H238066   2.757   1.125   3.007 -0.5941 -1.3063 -1.9071
 5551TIP3   OH238067   1.695   3.657   1.281  0.3353 -0.4262 -0.0616
 5551TIP3    H138068   1.676   3.666   1.187 -1.4308 -0.9188  0.2214
 5551TIP3    H238069   1.713   3.563   1.293 -2.0214 -0.8675  0.4824
 5552TIP3   OH238070   0.940   0.853   4.131  0.2704 -0.0300  0.4369
 5552TIP3    H138071   1.012   0.806   4.089  0.3763  0.6375 -0.1486
 5552TIP3    H238072   0.983   0.918   4.186  0.1372 -1.0323  1.7842
 5553TIP3   OH238073   5.595   3.171   6.117 -0.4219  0.2289  0.0334
 5553TIP3    H138074   5.548   3.253   6.100 -0.1800  0.1882 -0.8835
 5553TIP3    H238075   5.649   3.158   6.039  2.3220  1.0965  1.6198
 5554TIP3   OH238076   0.747   1.207  13.206 -0.7117  0.0828  0.1681
 5554TIP3    H138077   0.702   1.127  13.179  0.3128  0.0922 -1.7386
 5554TIP3    H238078   0.714   1.274  13.147 -0.5524  0.7886  0.8622
 5555TIP3   OH238079   3.637   4.776  16.692  0.1769 -0.3743 -1.0041
 5555TIP3    H138080   3.616   4.692  16.651  1.8404 -1.0996 -0.4810
 5555TIP3    H238081   3.657   4.753  16.783 -0.9169  0.8435 -0.4281
 5556TIP3   OH238082   5.450   6.574   3.730  0.4691  0.6937 -0.1150
 5556TIP3    H138083   5.522   6.578   3.667  0.6754 -0.2813  0.0333
 5556TIP3    H238084   5.490   6.592   3.815  0.2687  1.5782 -0.1988
 5557TIP3   OH238085   2.271   5.163   4.059  0.3397  0.0632  0.5876
 5557TIP3    H138086   2.187   5.176   4.014 -0.0491  0.2437  1.3538
 5557TIP3    H238087   2.311   5.250   4.060  0.1489  0.1497  0.9708
 5558TIP3   OH238088   5.672   6.174  13.916 -0.0525 -0.1411  0.3667
 5558TIP3    H138089   5.726   6.178  13.837 -0.9456 -0.3562 -0.2759
 5558TIP3    H238090   5.622   6.255  13.916 -0.0592 -0.1423  0.7084
 5559TIP3   OH238091   6.532   4.198  14.386  0.6250  0.3901  0.1696
 5559TIP3    H138092   6.556   4.110  14.416 -0.4857  0.1626  0.4337
 5559TIP3    H238093   6.447   4.187  14.344 -1.5552  1.9128  3.7415
 5560TIP3   OH238094   6.540   6.603  12.659  0.4012 -0.3255 -0.1182
 5560TIP3    H138095   6.447   6.594  12.680  0.3028  1.3126  0.2522
 5560TIP3    H238096   6.585   6.560  12.731 -0.0521 -1.9828 -0.7778
 5561TIP3   OH238097   4.081   2.590   1.232  0.0438 -0.0687  0.2371
 5561TIP3    H138098   4.053   2.498   1.230 -1.5449  0.3529  1.1903
 5561TIP3    H238099   4.176   2.586   1.235 -0.0021 -1.6931  0.3464
 5562TIP3   OH238100   4.144   2.038   2.921  0.3093 -0.5087  0.1852
 5562TIP3    H138101   4.181   1.950   2.932  2.2139  0.0090 -1.5838
 5562TIP3    H238102   4.068   2.026   2.864 -0.3854 -1.1700  1.2158
 5563TIP3   OH238103   5.286   6.438   0.409 -0.4563 -0.1475 -0.0573
 5563TIP3    H138104   5.300   6.390   0.327  0.6853  1.6520 -0.9933
 5563TIP3    H238105   5.332   6.521   0.395 -2.6631  1.4011  1.3216
 5564TIP3   OH238106   0.362   4.887   4.491  0.9754 -0.1504 -0.9836
 5564TIP3    H138107   0.372   4.805   4.442 -3.7176 -0.1410 -2.4394
 5564TIP3    H238108   0.360   4.955   4.424 -0.5924  0.4580 -0.3769
 5565TIP3   OH238109   5.988   5.111   3.922  0.1793 -0.0479  0.2220
 5565TIP3    H138110   6.043   5.186   3.901  0.3687 -0.1545  0.3440
 5565TIP3    H238111   6.014   5.043   3.859 -0.2235  0.0943 -0.1099
 5566TIP3   OH238112   5.617   3.559  12.886 -0.4375  0.4689  0.3724
 5566TIP3    H138113   5.626   3.576  12.980  0.3898  0.8169  0.2418
 5566TIP3    H238114   5.579   3.640  12.850  0.4733  0.8421  0.2238
 5567TIP3   OH238115   3.342   4.364   4.519  0.2065  0.3433 -0.6281
 5567TIP3    H138116   3.431   4.337   4.542 -0.7182 -1.1052  1.5778
 5567TIP3    H238117   3.305   4.288   4.473 -0.4854  0.1467  0.2265
 5568TIP3   OH238118   1.395   0.401  16.810  0.1842  0.0763  0.0878
 5568TIP3    H138119   1.450   0.327  16.782  0.8307  0.7976 -0.5746
 5568TIP3    H238120   1.313   0.388  16.762  0.1276 -0.4529  0.3157
 5569TIP3   OH238121   5.948   4.308   0.572 -0.2319 -0.2472  0.1170
 5569TIP3    H138122   5.981   4.279   0.487 -1.1364  0.5356 -0.5282
 5569TIP3    H238123   5.854   4.288   0.569 -0.0878 -1.2106  1.3727
 5570TIP3   OH238124   4.796   4.568   1.279  0.0586 -0.4385  0.1805
 5570TIP3    H138125   4.774   4.629   1.349 -0.9092 -0.5974  0.0277
 5570TIP3    H238126   4.780   4.482   1.316 -0.2631 -0.5309 -0.1671
 5571TIP3   OH238127   4.211   3.102  13.219 -0.5234  0.0225  0.6559
 5571TIP3    H138128   4.197   3.026  13.276 -0.9041  1.1211  2.1019
 5571TIP3    H238129   4.182   3.177  13.272 -0.7864  1.1162 -0.9680
 5572TIP3   OH238130   1.707   5.072  13.277 -0.1996  0.5196 -0.2094
 5572TIP3    H138131   1.730   4.987  13.241  1.6907  1.0879 -0.4521
 5572TIP3    H238132   1.612   5.079  13.264 -0.2013 -1.0256 -1.2800
 5573TIP3   OH238133   0.036   3.876  14.686  0.1999  0.8892 -0.0752
 5573TIP3    H138134   0.081   3.813  14.742 -0.2370  1.2049  0.6521
 5573TIP3    H238135   0.106   3.925  14.644  0.6168 -1.3817 -2.2535
 5574TIP3   OH238136   0.855   1.702   1.224 -0.1087 -0.0470 -0.2418
 5574TIP3    H138137   0.800   1.766   1.269 -1.0552 -1.2904  0.4582
 5574TIP3    H238138   0.900   1.656   1.295  0.2696 -0.4110 -0.7128
 5575TIP3   OH238139   1.174   6.299   2.461 -0.5144  0.2823 -0.5816
 5575TIP3    H138140   1.170   6.204   2.455  1.1514  0.1366 -0.1310
 5575TIP3    H238141   1.252   6.323   2.410  0.6445  1.1182  1.4294
 5576TIP3   OH238142   6.241   4.903   3.765 -0.6317  0.7049  0.7402
 5576TIP3    H138143   6.289   4.910   3.683  0.0252 -0.4406  0.9987
 5576TIP3    H238144   6.155   4.867   3.741 -0.0807 -0.6032  0.6388
 5577TIP3   OH238145   3.719   0.353  13.077 -0.6579  0.1954  0.2335
 5577TIP3    H138146   3.652   0.325  13.139 -0.3164 -2.7740 -0.6109
 5577TIP3    H238147   3.709   0.448  13.072 -3.8220  0.0050  1.2196
 5578TIP3   OH238148   4.970   4.839   5.501  0.0761 -0.0335  0.8951
 5578TIP3    H138149   4.974   4.898   5.576 -0.4773  0.3357  0.6453
 5578TIP3    H238150   5.054   4.849   5.457 -0.7761  2.2597 -0.3820
 5579TIP3   OH238151   2.946   1.746  11.517  0.3968 -0.9009 -0.0435
 5579TIP3    H138152   2.986   1.816  11.465  0.2195 -1.4482 -0.9525
 5579TIP3    H238153   2.866   1.724  11.470  0.9948 -2.4493 -0.4113
 5580TIP3   OH238154   4.352   5.674   2.476  0.5181  0.4858  0.0404
 5580TIP3    H138155   4.329   5.750   2.423 -0.5174  1.3083  1.5916
 5580TIP3    H238156   4.302   5.602   2.439  0.1891  0.9427 -0.4032
 5581TIP3   OH238157   4.438   1.409  11.082  0.5786  0.2097 -0.1028
 5581TIP3    H138158   4.407   1.489  11.041  1.5707 -0.5588 -2.5323
 5581TIP3    H238159   4.471   1.355  11.010  0.5336 -2.1470  1.4941
 5582TIP3   OH238160   5.741   2.529   5.870  0.4216  0.0394 -0.7037
 5582TIP3    H138161   5.650   2.550   5.847  0.4345 -0.2618 -1.0389
 5582TIP3    H238162   5.746   2.547   5.964 -0.3092 -1.0135 -0.4281
 5583TIP3   OH238163   0.085   2.013   4.689  0.0276 -0.5475  0.5944
 5583TIP3    H138164   0.046   1.965   4.616  0.2717  0.6002 -0.3158
 5583TIP3    H238165   0.155   1.955   4.721  0.9320 -0.4339 -1.0795
 5584TIP3   OH238166   3.089   3.633   2.792  0.4756 -0.2383  0.2623
 5584TIP3    H138167   3.095   3.677   2.877  0.4110  0.5669 -0.1377
 5584TIP3    H238168   3.084   3.540   2.813  0.9664 -0.0833  1.1232
 5585TIP3   OH238169   0.534   5.345   3.732  0.0096 -0.0926  0.3067
 5585TIP3    H138170   0.513   5.395   3.653  0.5996  0.6919  0.6322
 5585TIP3    H238171   0.621   5.375   3.757  0.3691 -1.2523  0.5482
 5586TIP3   OH238172   4.936   6.598  12.188 -0.2100 -0.3389  0.2186
 5586TIP3    H138173   5.015   6.546  12.172  0.2951  0.4540  0.0584
 5586TIP3    H238174   4.889   6.550  12.256  0.9701 -0.2629  1.1343
 5587TIP3   OH238175   5.660   2.127   2.897  0.7276  0.6962  0.1321
 5587TIP3    H138176   5.685   2.172   2.977  0.0241 -0.6355  1.1404
 5587TIP3    H238177   5.739   2.081   2.869  0.6078  0.0685  0.8254
 5588TIP3   OH238178   6.201   0.473  15.363 -0.6694 -0.1846 -0.2306
 5588TIP3    H138179   6.132   0.439  15.421 -2.3512  0.7335 -1.5686
 5588TIP3    H238180   6.263   0.401  15.356 -0.9709 -0.7209  1.7863
 5589TIP3   OH238181   1.355   3.603  11.168 -0.0955  0.4102  0.2111
 5589TIP3    H138182   1.437   3.643  11.141 -0.4100 -0.4714 -2.3546
 5589TIP3    H238183   1.360   3.513  11.134 -2.4133  0.5900 -0.8041
 5590TIP3   OH238184   6.230   0.636   0.423 -0.4821 -0.2236  0.0958
 5590TIP3    H138185   6.232   0.730   0.440 -0.9430  0.0988 -1.4572
 5590TIP3    H238186   6.287   0.598   0.490  0.4284  1.2515  0.2078
 5591TIP3   OH238187   4.657   1.678   0.388  0.4181 -0.4099  0.2036
 5591TIP3    H138188   4.574   1.722   0.408  0.6246  0.6073 -1.0491
 5591TIP3    H238189   4.631   1.593   0.351  0.0223 -1.7314  3.2422
 5592TIP3   OH238190   5.704   2.476  16.239 -0.4063 -0.1276 -0.1568
 5592TIP3    H138191   5.678   2.530  16.313  0.5094 -2.3218  1.9075
 5592TIP3    H238192   5.785   2.518  16.207 -1.0352  1.0784 -0.2300
 5593TIP3   OH238193   3.550   3.832  13.635  0.2863 -0.1077  0.1602
 5593TIP3    H138194   3.571   3.915  13.677  1.5926 -1.0176  1.3808
 5593TIP3    H238195   3.625   3.816  13.576 -0.2548 -0.1380 -0.5336
 5594TIP3   OH238196   1.533   5.794  11.457 -0.3857  0.0543  0.3688
 5594TIP3    H138197   1.507   5.768  11.369  0.3584 -1.0147  0.4437
 5594TIP3    H238198   1.457   5.776  11.511 -0.4591 -0.3798  0.1268
 5595TIP3   OH238199   6.447   1.249   6.735 -0.0424  0.2082 -0.3713
 5595TIP3    H138200   6.513   1.182   6.713  0.5216  1.1795 -1.7463
 5595TIP3    H238201   6.375   1.233   6.674  0.4625  1.3510 -1.3170
 5596TIP3   OH238202   5.073   6.134   2.710 -0.0643  0.4903 -0.5000
 5596TIP3    H138203   5.002   6.068   2.707 -1.0890  1.5832 -1.4601
 5596TIP3    H238204   5.108   6.127   2.798 -0.0463 -1.4386 -0.6069
 5597TIP3   OH238205   5.752   4.440   4.317 -0.0156 -0.3508 -0.3172
 5597TIP3    H138206   5.750   4.405   4.228  0.4350 -0.3604 -0.3275
 5597TIP3    H238207   5.837   4.412   4.351  0.8083  1.5805 -0.6639
 5598TIP3   OH238208   4.444   0.825  10.793  0.0713  0.3964  0.2989
 5598TIP3    H138209   4.423   0.912  10.758 -0.4324 -0.5027 -1.7594
 5598TIP3    H238210   4.538   0.827  10.807  0.4256  0.6147 -1.8067
 5599TIP3   OH238211   0.381   5.263  11.879 -0.0734 -0.5278  0.1324
 5599TIP3    H138212   0.436   5.205  11.931 -1.1969 -1.2651  0.5121
 5599TIP3    H238213   0.368   5.216  11.797 -1.8614 -1.3277  0.8384
 5600TIP3   OH238214   5.887   0.443   5.323 -0.2306  0.1743  0.5645
 5600TIP3    H138215   5.862   0.415   5.235  0.7851  1.5546 -0.2131
 5600TIP3    H238216   5.848   0.530   5.332 -1.8187 -0.6477  2.2123
 5601TIP3   OH238217   5.019   0.348   3.388 -0.0093  0.0802  0.8116
 5601TIP3    H138218   5.020   0.412   3.459  0.6026 -0.5075  1.3334
 5601TIP3    H238219   5.050   0.397   3.311 -0.7833  0.7443  0.9039
 5602TIP3   OH238220   6.501   1.399   5.039 -0.3011  0.1798 -0.2196
 5602TIP3    H138221   6.577   1.448   5.007 -0.0787 -0.6700 -1.0596
 5602TIP3    H238222   6.450   1.380   4.960 -0.4153 -0.8668  0.0980
 5603TIP3   OH238223   4.046   2.194   4.514  0.8780  0.4309  0.1392
 5603TIP3    H138224   3.970   2.138   4.527 -0.8427  2.7100  0.4250
 5603TIP3    H238225   4.093   2.191   4.598  1.6106 -1.5554 -0.2680
 5604TIP3   OH238226   1.586   1.503  16.072 -0.2458 -0.3221  0.3062
 5604TIP3    H138227   1.614   1.550  15.993  3.9413 -0.3922  1.5028
 5604TIP3    H238228   1.618   1.556  16.144 -1.3780 -1.7131  1.9104
 5605TIP3   OH238229   1.450   5.533  10.982  0.3501 -0.0783 -0.4377
 5605TIP3    H138230   1.399   5.475  11.039  1.3041 -1.9120 -1.3356
 5605TIP3    H238231   1.462   5.613  11.033  2.2544 -2.0556  2.5721
 5606TIP3   OH238232   2.515   6.496  16.619  0.6207 -0.1452 -0.8721
 5606TIP3    H138233   2.498   6.414  16.572 -1.0264 -0.0409 -0.5013
 5606TIP3    H238234   2.598   6.480  16.665 -0.4419 -2.2359  0.4894
 5607TIP3   OH238235   5.967   3.652  12.248  0.2710  0.1977 -0.0529
 5607TIP3    H138236   5.969   3.577  12.307  0.7680 -0.4695 -0.8921
 5607TIP3    H238237   5.885   3.642  12.199  0.9027 -0.4916 -1.0105
 5608TIP3   OH238238   3.990   5.989  14.375  0.1630  0.1116  0.1211
 5608TIP3    H138239   3.974   5.897  14.393 -2.1426  0.7584  1.8480
 5608TIP3    H238240   4.054   6.016  14.441  0.8340 -0.2119 -0.3815
 5609TIP3   OH238241   4.046   0.208  14.419  0.5346 -0.9308 -0.1778
 5609TIP3    H138242   4.081   0.226  14.507 -1.7287  2.9097  0.1600
 5609TIP3    H238243   3.976   0.144  14.435 -0.0140 -0.1032  0.9091
 5610TIP3   OH238244   0.974   4.506   3.676 -0.5842  0.1886  0.2666
 5610TIP3    H138245   0.945   4.508   3.585  0.7714  2.5099 -0.1926
 5610TIP3    H238246   0.978   4.413   3.698 -4.1362 -0.3970 -0.9054
 5611TIP3   OH238247   0.362   4.932  11.432  0.0525  0.0482  0.2026
 5611TIP3    H138248   0.355   4.889  11.518 -0.6126 -1.1873 -0.4428
 5611TIP3    H238249   0.397   4.864  11.375 -1.9350  0.0026 -1.0664
 5612TIP3   OH238250   4.566   0.484   3.619 -1.3974 -0.1340  0.2597
 5612TIP3    H138251   4.551   0.520   3.707  0.1696 -1.6685  1.2113
 5612TIP3    H238252   4.493   0.424   3.606 -0.9591 -0.8721  1.0897
 5613TIP3   OH238253   1.313   0.448   6.415  0.2644  0.1823 -0.3391
 5613TIP3    H138254   1.341   0.463   6.506 -0.3327  1.0015 -0.2763
 5613TIP3    H238255   1.333   0.356   6.399  2.6324  0.6028 -0.1822
 5614TIP3   OH238256   4.160   3.116  17.220 -0.3825  0.4416  0.1104
 5614TIP3    H138257   4.144   3.097  17.313  0.3100  0.7842  0.3043
 5614TIP3    H238258   4.109   3.050  17.173  1.0129 -1.1531  0.7483
 5615TIP3   OH238259   6.600   5.556   5.210  0.2398  0.3542 -0.2978
 5615TIP3    H138260   6.574   5.468   5.239  1.3925  0.4341  1.0317
 5615TIP3    H238261   6.581   5.555   5.116  0.1682 -1.2950 -0.3059
 5616TIP3   OH238262   4.678   1.306   5.913  0.2983 -0.5315  0.0147
 5616TIP3    H138263   4.738   1.375   5.885  0.5484 -0.3126  1.0353
 5616TIP3    H238264   4.682   1.308   6.009 -2.0333  0.1452  0.1747
 5617TIP3   OH238265   5.479   3.271   2.082  0.1591 -0.4236 -0.2384
 5617TIP3    H138266   5.458   3.178   2.095 -0.2013 -0.2370  0.5270
 5617TIP3    H238267   5.471   3.284   1.987 -0.9365 -0.8997 -0.2270
 5618TIP3   OH238268   1.494   0.559  13.312 -0.2937 -0.6081  0.1042
 5618TIP3    H138269   1.579   0.592  13.283 -0.0078 -1.3555  0.0673
 5618TIP3    H238270   1.507   0.533  13.403 -1.2900  2.0889  1.1135
 5619TIP3   OH238271   1.230   2.656  13.908  0.0933  0.4188 -0.2872
 5619TIP3    H138272   1.299   2.720  13.893  1.3405 -0.7218  0.3322
 5619TIP3    H238273   1.211   2.620  13.821  1.0460  0.0095 -0.3404
 5620TIP3   OH238274   4.407   4.059   1.835 -0.4681 -0.6212  0.4392
 5620TIP3    H138275   4.440   3.998   1.768 -1.0340 -1.2060  0.6916
 5620TIP3    H238276   4.367   4.129   1.784  2.2173  0.7878  0.0582
 5621TIP3   OH238277   1.307   2.913  11.688 -0.5260 -0.2620  0.6297
 5621TIP3    H138278   1.324   2.950  11.602 -1.8970  1.2238  0.9574
 5621TIP3    H238279   1.242   2.845  11.672  0.0615 -0.7741  0.3673
 5622TIP3   OH238280   0.110   5.336  16.892  0.4265 -0.1373  0.0429
 5622TIP3    H138281   0.093   5.290  16.810 -1.3950 -0.9449  0.8100
 5622TIP3    H238282   0.142   5.268  16.951 -0.5741 -0.0874  0.6696
 5623TIP3   OH238283   1.037   4.437  12.256 -0.1669 -0.3742 -0.0638
 5623TIP3    H138284   0.978   4.455  12.330 -1.2093 -1.8519 -0.4977
 5623TIP3    H238285   0.999   4.487  12.184 -0.0271 -0.1390  0.0254
 5624TIP3   OH238286   0.770   0.602  11.300 -0.0823  0.1828 -0.2500
 5624TIP3    H138287   0.728   0.633  11.220 -0.3301  1.1276  0.2225
 5624TIP3    H238288   0.832   0.535  11.271 -2.4308 -1.8554 -0.8934
 5625TIP3   OH238289   6.100   5.985  16.214  0.2081 -0.1976 -0.1372
 5625TIP3    H138290   6.057   5.978  16.299 -3.3512 -0.2018 -1.7790
 5625TIP3    H238291   6.047   6.046  16.164  3.7035  1.9537 -1.6250
 5626TIP3   OH238292   1.550   1.642   2.189  0.2746  0.5692  0.1547
 5626TIP3    H138293   1.508   1.587   2.123 -1.6362  2.2540 -0.1378
 5626TIP3    H238294   1.636   1.662   2.153  0.3920 -0.9074 -0.4367
 5627TIP3   OH238295   4.967   1.060  12.481 -0.1290 -0.1265 -0.1101
 5627TIP3    H138296   4.985   1.115  12.556  0.1623 -0.7722  0.2968
 5627TIP3    H238297   5.048   1.059  12.430 -0.4756  0.7020 -0.6936
 5628TIP3   OH238298   2.358   5.814  15.703  0.1638 -0.5339  0.3934
 5628TIP3    H138299   2.449   5.787  15.714  0.1388 -0.6584  0.2941
 5628TIP3    H238300   2.319   5.804  15.790  1.4876  4.3237  1.8793
 5629TIP3   OH238301   3.223   0.261  17.070  0.1012 -0.3164  0.2279
 5629TIP3    H138302   3.212   0.262  17.165 -0.1387  0.0149  0.1983
 5629TIP3    H238303   3.315   0.235  17.057  0.2896  0.1595  0.5664
 5630TIP3   OH238304   3.839   2.913   0.207  0.1542 -0.3862  0.5930
 5630TIP3    H138305   3.841   2.991   0.262 -3.4240 -0.2906  0.8649
 5630TIP3    H238306   3.838   2.947   0.118 -1.0061 -0.0697  0.7018
 5631TIP3   OH238307   3.457   4.397  11.253  0.3262 -0.3885  0.0353
 5631TIP3    H138308   3.430   4.469  11.196 -1.8769  0.3742  1.8972
 5631TIP3    H238309   3.391   4.329  11.238  0.4145 -0.6455  0.8097
 5632TIP3   OH238310   4.187   6.586   0.458  0.1872  0.4873 -0.2586
 5632TIP3    H138311   4.129   6.630   0.521 -1.4309 -1.1724 -0.4892
 5632TIP3    H238312   4.142   6.597   0.374  2.2223  2.5085 -1.1779
 5633TIP3   OH238313   6.109   1.067  12.524 -0.0313 -0.1050  0.3541
 5633TIP3    H138314   6.183   1.025  12.568  0.4948  0.7656  0.3123
 5633TIP3    H238315   6.074   1.128  12.589  0.1314  0.4598 -0.0840
 5634TIP3   OH238316   1.995   3.414  14.549 -0.1667  0.5666 -0.2266
 5634TIP3    H138317   1.903   3.440  14.557 -0.6020 -0.6769 -0.9649
 5634TIP3    H238318   2.041   3.496  14.528 -1.4211  0.8577 -2.0739
 5635TIP3   OH238319   1.168   5.817  12.387 -0.2381 -0.0115  0.0655
 5635TIP3    H138320   1.170   5.738  12.333 -0.6647  1.1257 -1.7176
 5635TIP3    H238321   1.151   5.785  12.476  1.6563 -2.0519 -0.2141
 5636TIP3   OH238322   4.198   5.258  16.461 -0.2047 -0.1686 -0.0229
 5636TIP3    H138323   4.146   5.261  16.380  0.0949 -0.1298 -0.2124
 5636TIP3    H238324   4.134   5.274  16.530 -0.4361 -0.0385 -0.2623
 5637TIP3   OH238325   3.645   4.287  13.878 -0.4683 -0.1838  0.1242
 5637TIP3    H138326   3.638   4.268  13.972  1.3980  0.2745  0.4068
 5637TIP3    H238327   3.714   4.354  13.873 -0.6429 -0.0960 -1.5662
 5638TIP3   OH238328   6.006   3.751   2.293  0.1684 -0.3313  1.0748
 5638TIP3    H138329   6.026   3.834   2.336  1.2474  0.7809 -1.3300
 5638TIP3    H238330   6.081   3.735   2.236 -0.6537 -2.2455  0.4421
 5639TIP3   OH238331   3.811   2.353  14.543  0.4031 -0.0154  0.3588
 5639TIP3    H138332   3.748   2.412  14.585 -0.1850 -0.0971 -0.3864
 5639TIP3    H238333   3.824   2.391  14.456  2.1618  0.5694  0.8372
 5640TIP3   OH238334   4.628   1.934   1.900 -0.0425 -0.7767 -0.6515
 5640TIP3    H138335   4.658   2.006   1.956  0.0791 -0.4401 -1.1389
 5640TIP3    H238336   4.692   1.864   1.913 -0.5510 -1.0719  0.3676
 5641TIP3   OH238337   5.528   1.167   0.451 -1.0666 -0.7208 -0.5028
 5641TIP3    H138338   5.529   1.160   0.356 -1.0873 -0.7784 -0.4987
 5641TIP3    H238339   5.464   1.235   0.470  2.6651  3.3313 -0.8039
 5642TIP3   OH238340   2.952   0.938   4.371  0.3180 -0.1054  0.1856
 5642TIP3    H138341   2.926   1.018   4.325  1.2229 -0.1193 -0.3790
 5642TIP3    H238342   3.046   0.931   4.355  0.2807 -1.1957  0.3606
 5643TIP3   OH238343   2.447   4.972  16.614 -0.2454 -0.0469  0.0092
 5643TIP3    H138344   2.372   4.912  16.605  0.3524 -0.5842 -1.8184
 5643TIP3    H238345   2.409   5.059  16.601 -0.9322 -0.0667  1.5741
 5644TIP3   OH238346   0.942   4.549  11.013  0.4587  0.1880 -0.0633
 5644TIP3    H138347   0.958   4.508  10.928 -1.4870 -0.2548 -0.2591
 5644TIP3    H238348   0.960   4.642  10.999 -0.6285  0.2452 -1.1975
 5645TIP3   OH238349   6.225   6.389  11.742  0.8283  0.2433 -0.0392
 5645TIP3    H138350   6.254   6.299  11.725  0.0856 -0.2274  1.0227
 5645TIP3    H238351   6.158   6.405  11.675  0.5948 -0.1972  0.0798
 5646TIP3   OH238352   0.986   5.467  16.002 -0.2682 -0.1213 -0.2673
 5646TIP3    H138353   0.941   5.551  16.013  1.5612  0.9024 -0.2071
 5646TIP3    H238354   0.916   5.403  16.001 -1.6589  1.2633  1.1700
 5647TIP3   OH238355   1.243   3.293   3.069  0.3032 -0.6182 -0.6657
 5647TIP3    H138356   1.231   3.273   3.162 -1.5196 -0.3099 -0.8060
 5647TIP3    H238357   1.324   3.344   3.066 -0.2042  0.3417  0.9050
 5648TIP3   OH238358   2.868   1.182   6.441 -0.2074 -0.0894 -0.1515
 5648TIP3    H138359   2.869   1.089   6.418 -1.4481  0.0110 -0.7053
 5648TIP3    H238360   2.927   1.189   6.516 -0.2024 -1.3515 -0.0154
 5649TIP3   OH238361   0.536   6.626  12.034  0.4944  0.3269 -0.1134
 5649TIP3    H138362   0.460   6.575  12.061  0.3434 -0.7600 -2.3721
 5649TIP3    H238363   0.513   6.660  11.948  2.1631  0.8633 -0.3930
 5650TIP3   OH238364   0.104   4.012   0.032 -0.7458 -0.0825 -0.0111
 5650TIP3    H138365   0.184   4.057   0.003 -0.1961 -1.3246 -0.4625
 5650TIP3    H238366   0.096   3.938  -0.027 -2.2071 -0.0210  0.0896
 5651TIP3   OH238367   2.689   5.981  14.577 -0.2503  0.4126  0.0807
 5651TIP3    H138368   2.659   5.893  14.601  0.0362  0.4917  0.7339
 5651TIP3    H238369   2.704   5.976  14.483 -1.6332  0.1690 -0.1402
 5652TIP3   OH238370   0.786   2.438  13.434  0.2283 -0.3771 -0.8134
 5652TIP3    H138371   0.857   2.461  13.373  1.5397 -3.5038 -0.6669
 5652TIP3    H238372   0.720   2.397  13.379  0.5143 -1.3877 -0.4229
 5653TIP3   OH238373   6.498   0.040   5.602  0.2280  0.0757  0.2830
 5653TIP3    H138374   6.471   0.092   5.678  0.8215  0.4563  0.2402
 5653TIP3    H238375   6.569   0.091   5.562 -1.3061  0.8475 -1.6375
 5654TIP3   OH238376   2.605   3.117  17.261 -0.1908 -0.2392 -0.4647
 5654TIP3    H138377   2.614   3.194  17.205 -1.2814  0.1507 -0.1318
 5654TIP3    H238378   2.522   3.078  17.234 -0.3615 -0.4649  0.3722
 5655TIP3   OH238379   0.864   0.846  11.461 -0.1568  0.6718 -0.0042
 5655TIP3    H138380   0.786   0.873  11.511 -1.0731 -0.2249 -0.9094
 5655TIP3    H238381   0.830   0.790  11.392  1.2713  0.5856 -0.6687
 5656TIP3   OH238382   4.791   0.586   3.960 -0.5966  0.1754 -0.4280
 5656TIP3    H138383   4.831   0.672   3.972  0.2217 -0.0980 -1.1437
 5656TIP3    H238384   4.697   0.604   3.955 -0.7337  0.7135  2.4153
 5657TIP3   OH238385   6.718   2.150  11.247 -0.3952 -0.6867  0.7724
 5657TIP3    H138386   6.707   2.072  11.192  1.3442  0.1007 -0.8216
 5657TIP3    H238387   6.744   2.115  11.332 -1.2301 -1.8862  0.5605
 5658TIP3   OH238388   5.107   2.462   4.114  0.4090 -0.6135  0.5060
 5658TIP3    H138389   5.180   2.410   4.148  1.3087  0.6699  0.6305
 5658TIP3    H238390   5.031   2.428   4.160  1.1400 -1.0601  1.4398
 5659TIP3   OH238391   2.582   6.171  11.183  0.0574 -0.1225  0.1653
 5659TIP3    H138392   2.568   6.173  11.088 -1.8405 -1.1968  0.3573
 5659TIP3    H238393   2.523   6.238  11.217  1.5871  1.0683  0.5372
 5660TIP3   OH238394   4.568   2.112  14.041 -0.6992  0.0469  0.0442
 5660TIP3    H138395   4.595   2.136  14.130 -1.0462 -0.8758  0.4084
 5660TIP3    H238396   4.589   2.019  14.034  1.2332  0.5426 -1.5710
 5661TIP3   OH238397   0.348   6.172   0.915  0.5817  0.2611  0.0592
 5661TIP3    H138398   0.284   6.101   0.919  0.9465 -0.0550  0.3614
 5661TIP3    H238399   0.405   6.157   0.990  1.8276 -0.2482 -0.9497
 5662TIP3   OH238400   2.866   1.338   0.842  0.3658 -0.0598 -0.4550
 5662TIP3    H138401   2.820   1.257   0.866 -1.2016  0.2121 -2.2653
 5662TIP3    H238402   2.919   1.314   0.766  0.6787  0.3802 -0.3801
 5663TIP3   OH238403   4.117   1.962  11.585 -0.6890  0.2609 -0.3609
 5663TIP3    H138404   4.133   1.982  11.493 -1.4373 -0.8030 -0.7383
 5663TIP3    H238405   4.055   2.029  11.614 -0.2733  0.7402 -0.5428
 5664TIP3   OH238406   0.680   4.400   0.606 -0.3093 -0.1592  0.1607
 5664TIP3    H138407   0.668   4.454   0.684  0.5666 -2.9808  2.4351
 5664TIP3    H238408   0.775   4.393   0.596 -0.4080 -0.3654 -0.7544
 5665TIP3   OH238409   0.939   3.646  16.217 -0.2534 -0.0669 -0.0068
 5665TIP3    H138410   0.980   3.718  16.266 -0.0437  0.5309 -1.0433
 5665TIP3    H238411   0.891   3.597  16.284  0.1531  0.6409  0.8312
 5666TIP3   OH238412   6.064   4.363  14.935  0.1240  0.3694  0.6525
 5666TIP3    H138413   6.133   4.426  14.956  0.0382  0.7274 -0.1086
 5666TIP3    H238414   6.029   4.393  14.851  1.3906 -1.7851 -0.7404
 5667TIP3   OH238415   6.754   1.386  13.541 -0.5646 -0.3545 -0.2013
 5667TIP3    H138416   6.768   1.403  13.635 -0.3218  1.0214 -0.4685
 5667TIP3    H238417   6.820   1.320  13.519 -1.3124 -1.4705  0.8194
 5668TIP3   OH238418   2.862   0.981  14.953  0.4279  0.3440 -0.4572
 5668TIP3    H138419   2.795   0.948  15.013  0.7076  0.5290 -0.0350
 5668TIP3    H238420   2.927   1.021  15.011  0.3429  1.1839 -0.9256
 5669TIP3   OH238421   1.471   3.383  15.194 -0.2213 -0.0052  0.2852
 5669TIP3    H138422   1.468   3.289  15.175 -1.8141 -0.4817  2.4939
 5669TIP3    H238423   1.556   3.412  15.159  0.4503 -2.3183 -0.1636
 5670TIP3   OH238424   3.615   2.338   0.306 -0.1620 -0.0481  0.7329
 5670TIP3    H138425   3.682   2.275   0.334 -0.5717 -0.1665  1.4712
 5670TIP3    H238426   3.658   2.389   0.236  0.8157  0.1167  1.4322
 5671TIP3   OH238427   0.110   5.767  14.488 -0.6539  0.0836 -0.4116
 5671TIP3    H138428   0.197   5.727  14.495 -0.8286 -0.6786 -2.0606
 5671TIP3    H238429   0.049   5.693  14.482 -1.1988  0.5810 -1.2847
 5672TIP3   OH238430   1.921   6.773  10.527  0.0095  0.5007  0.0146
 5672TIP3    H138431   1.928   6.820  10.611  0.2444  1.0491 -0.3043
 5672TIP3    H238432   1.934   6.681  10.550  2.6023  0.8534  0.2952
 5673TIP3   OH238433   4.209   2.529  12.267 -0.1219 -0.7526  0.7035
 5673TIP3    H138434   4.134   2.529  12.327 -1.2141  1.2910 -0.5447
 5673TIP3    H238435   4.285   2.531  12.324 -1.1239  2.1980  2.1448
 5674TIP3   OH238436   1.758   4.359  15.567 -0.0799  1.0512 -0.6265
 5674TIP3    H138437   1.815   4.426  15.603  0.0452 -0.1418  1.5457
 5674TIP3    H238438   1.693   4.407  15.516  2.3620  2.4858 -2.5568
 5675TIP3   OH238439   5.628   2.849   2.574  0.1666 -1.1612  0.1403
 5675TIP3    H138440   5.634   2.753   2.577 -0.9239 -1.3112 -1.2885
 5675TIP3    H238441   5.588   2.868   2.489  0.3517  0.5731  0.3994
 5676TIP3   OH238442   3.280   4.002   2.653  0.9591  0.5025  0.3300
 5676TIP3    H138443   3.356   3.949   2.677  0.2449 -0.8438 -0.2712
 5676TIP3    H238444   3.247   4.035   2.737  0.2849 -1.6312  0.9468
 5677TIP3   OH238445   2.919   6.666   1.015  0.0432 -0.1480 -1.0369
 5677TIP3    H138446   2.881   6.671   0.928 -0.3782 -0.2629 -0.8600
 5677TIP3    H238447   3.014   6.673   1.000 -0.0604  0.3930 -1.4524
 5678TIP3   OH238448   0.354   0.491  12.239  0.4480 -0.0060 -0.2654
 5678TIP3    H138449   0.380   0.545  12.165  0.2423  0.0733 -0.2795
 5678TIP3    H238450   0.284   0.435  12.205 -1.3060  1.6419  0.4585
 5679TIP3   OH238451   0.538   5.412  17.191 -0.0484  0.3235  0.0838
 5679TIP3    H138452   0.515   5.394  17.099  1.5160 -0.2241 -0.2330
 5679TIP3    H238453   0.493   5.344  17.240 -1.5432  1.0889 -0.1754
 5680TIP3   OH238454   4.502   0.474  14.532  0.1566 -0.6393  0.1373
 5680TIP3    H138455   4.445   0.503  14.603  2.2977  2.4770  0.8085
 5680TIP3    H238456   4.473   0.524  14.456  1.2773  0.2402  0.2560
 5681TIP3   OH238457   1.193   6.471   1.806  0.1642  0.4707  0.1033
 5681TIP3    H138458   1.185   6.455   1.900 -0.1693  0.4282  0.0695
 5681TIP3    H238459   1.139   6.549   1.790  1.9809  1.8318  0.3110
 5682TIP3   OH238460   6.421   3.009   0.195 -0.2487  0.1897 -0.3925
 5682TIP3    H138461   6.504   3.020   0.242  0.5332  1.2529 -1.9226
 5682TIP3    H238462   6.355   3.046   0.254  0.7205  1.5983 -0.1304
 5683TIP3   OH238463   2.057   2.875   5.583  0.0539  0.0673 -0.6999
 5683TIP3    H138464   2.128   2.819   5.552 -0.2543 -0.2276 -0.8816
 5683TIP3    H238465   2.012   2.902   5.503  1.4683  2.3246 -0.8136
 5684TIP3   OH238466   3.617   1.914  11.079  0.5047 -0.4503 -0.2085
 5684TIP3    H138467   3.588   2.003  11.058 -2.3757 -0.3406  3.2981
 5684TIP3    H238468   3.565   1.858  11.020 -2.2573  0.0740  1.5583
 5685TIP3   OH238469   5.041   1.585   2.921  0.4945  0.5021 -0.3481
 5685TIP3    H138470   5.124   1.597   2.874  1.1699  3.5208  1.3653
 5685TIP3    H238471   4.974   1.606   2.857  1.3022  2.3411 -0.6756
 5686TIP3   OH238472   0.544   1.778  14.928 -0.0856 -0.0445  0.1110
 5686TIP3    H138473   0.504   1.742  14.849 -1.1858  1.0823  0.1189
 5686TIP3    H238474   0.518   1.870  14.928  1.6784  0.5070  0.6776
 5687TIP3   OH238475   4.956   2.424  12.073 -0.1283  0.0279 -0.4526
 5687TIP3    H138476   4.871   2.444  12.112  0.8180  1.5615  0.9503
 5687TIP3    H238477   4.972   2.332  12.096 -0.2895  0.4514  1.5302
 5688TIP3   OH238478   3.681   4.170   0.332  0.2535  0.4175 -0.1096
 5688TIP3    H138479   3.623   4.219   0.274 -1.3590  0.6220  1.5954
 5688TIP3    H238480   3.735   4.236   0.374 -2.4187  1.0382  2.7478
 5689TIP3   OH238481   0.294   3.491   2.233 -0.2704 -0.8636 -0.6626
 5689TIP3    H138482   0.292   3.398   2.210  1.6330 -1.4252  1.1039
 5689TIP3    H238483   0.208   3.507   2.272  0.2607 -2.6773  1.5013
 5690TIP3   OH238484   5.584   0.910   0.017  0.0088 -0.1459  0.2181
 5690TIP3    H138485   5.590   0.942  -0.073  1.9264 -2.3634 -0.5564
 5690TIP3    H238486   5.662   0.947   0.060  0.2446 -0.7798  0.3452
 5691TIP3   OH238487   2.206   0.491  13.727 -0.5161 -0.4826  0.3440
 5691TIP3    H138488   2.237   0.427  13.662 -2.9426 -0.0400 -1.4145
 5691TIP3    H238489   2.263   0.567  13.715 -0.4434 -0.6961 -0.7960
 5692TIP3   OH238490   6.513   0.104  12.885  0.3381  0.2939 -0.2924
 5692TIP3    H138491   6.482   0.162  12.954 -1.8415  1.0787 -1.8306
 5692TIP3    H238492   6.607   0.123  12.878  0.5813  0.3572  2.2239
 5693TIP3   OH238493   2.770   2.054  15.325  0.0930  0.1457  0.3620
 5693TIP3    H138494   2.752   2.091  15.239  0.3785 -0.5802 -0.0126
 5693TIP3    H238495   2.736   1.965  15.321  0.3244  0.0261  0.9230
 5694TIP3   OH238496   4.829   6.095   5.567 -0.9149  0.8094 -0.0946
 5694TIP3    H138497   4.903   6.065   5.619 -1.5718 -0.0451  0.3678
 5694TIP3    H238498   4.771   6.019   5.561 -0.4657  0.5656 -2.8605
 5695TIP3   OH238499   2.076   6.502  14.629 -0.0577 -0.0996  0.1890
 5695TIP3    H138500   2.136   6.431  14.604  0.4463  0.2562  0.3560
 5695TIP3    H238501   1.993   6.458  14.647  0.2868 -0.6704  0.4379
 5696TIP3   OH238502   5.680   3.381  14.668 -0.7226  0.0337  0.2938
 5696TIP3    H138503   5.683   3.300  14.720  0.3587 -0.2712 -0.2190
 5696TIP3    H238504   5.662   3.450  14.732  0.0097 -0.4071  0.9935
 5697TIP3   OH238505   1.310   2.117   0.354  0.1842  0.4235 -0.7720
 5697TIP3    H138506   1.369   2.164   0.413  0.6249 -0.9891 -0.0384
 5697TIP3    H238507   1.337   2.026   0.361 -1.7094 -0.1947 -0.8487
 5698TIP3   OH238508   6.292   0.240   4.496 -0.2974  0.1936  0.0462
 5698TIP3    H138509   6.260   0.330   4.497  0.5933  0.5237 -0.1385
 5698TIP3    H238510   6.256   0.202   4.415 -0.5341  0.4340  0.0386
 5699TIP3   OH238511   4.564   5.485   0.737  0.0608  0.1170  0.2668
 5699TIP3    H138512   4.474   5.483   0.770 -0.7294  1.0517 -1.6826
 5699TIP3    H238513   4.579   5.396   0.703 -1.0820  0.6087 -1.6671
 5700TIP3   OH238514   5.904   4.719  13.559 -0.5073  0.0527  0.1552
 5700TIP3    H138515   5.904   4.676  13.473 -0.1095  0.2218  0.0709
 5700TIP3    H238516   5.837   4.672  13.608 -1.5521  0.7102 -0.6148
 5701TIP3   OH238517   0.615   0.620  11.063  0.0886 -0.4487 -0.1578
 5701TIP3    H138518   0.638   0.527  11.053  0.9629 -0.2373 -0.2107
 5701TIP3    H238519   0.593   0.648  10.974  0.4677 -0.4463 -0.2529
 5702TIP3   OH238520   3.671   1.058  11.851  0.4079 -0.0279  0.3496
 5702TIP3    H138521   3.692   0.980  11.799 -0.3221  0.3414 -0.5412
 5702TIP3    H238522   3.647   1.025  11.937  0.2950 -0.7716  0.0372
 5703TIP3   OH238523   6.567   4.203   1.143  0.1450 -0.2081 -0.1003
 5703TIP3    H138524   6.484   4.251   1.136  0.5345  0.2647 -2.1296
 5703TIP3    H238525   6.541   4.112   1.156 -0.6630  0.0736  0.3163
 5704TIP3   OH238526   5.787   6.017  11.917  0.0874  0.1189  0.2716
 5704TIP3    H138527   5.844   5.946  11.947 -1.2719 -1.2639 -0.2703
 5704TIP3    H238528   5.703   5.974  11.901 -1.5194  2.2951  2.2904
 5705TIP3   OH238529   5.035   0.333  16.306 -0.0517  0.5066 -0.1156
 5705TIP3    H138530   5.024   0.251  16.258 -1.6729  0.9809 -0.6243
 5705TIP3    H238531   4.954   0.342  16.356  0.2051  1.6879  0.1183
 5706TIP3   OH238532   2.997   4.981  17.132  0.1152 -0.0576  0.1449
 5706TIP3    H138533   3.051   4.909  17.165  0.8662  0.7937  0.8426
 5706TIP3    H238534   2.910   4.943  17.123  0.3656 -0.9066  1.0456
 5707TIP3   OH238535   6.759   2.200   0.605  0.1931 -0.0396 -0.0551
 5707TIP3    H138536   6.761   2.120   0.657 -0.9006 -0.3479 -0.4547
 5707TIP3    H238537   6.719   2.174   0.522  1.4154  0.5534 -0.8662
 5708TIP3   OH238538   2.385   6.498  14.029  0.1045 -0.3355  0.5332
 5708TIP3    H138539   2.319   6.554  13.987  1.0646  0.0015 -0.5559
 5708TIP3    H238540   2.340   6.463  14.106 -1.5469 -0.5587 -0.4747
 5709TIP3   OH238541   3.251   5.815  13.434 -0.2077 -0.4174  0.0059
 5709TIP3    H138542   3.206   5.738  13.468 -2.7788  1.1566  0.4468
 5709TIP3    H238543   3.310   5.841  13.505 -2.2818  0.2557  1.6058
 5710TIP3   OH238544   1.263   4.883  17.038  0.1707 -0.3473 -0.0929
 5710TIP3    H138545   1.266   4.851  17.128  1.0760  1.7769  0.6907
 5710TIP3    H238546   1.195   4.950  17.039 -2.1758 -2.5314 -1.8553
 5711TIP3   OH238547   4.933   6.171   4.343  0.0288  0.1012  0.1311
 5711TIP3    H138548   4.964   6.087   4.378  0.7689  1.3086  2.5564
 5711TIP3    H238549   5.003   6.199   4.284 -0.7198 -1.4240 -1.6109
 5712TIP3   OH238550   5.929   0.272  14.823  0.1132  0.3250  0.1993
 5712TIP3    H138551   5.861   0.322  14.778 -0.3071 -0.7654 -0.4070
 5712TIP3    H238552   5.887   0.190  14.847  1.5886 -1.0029 -1.4865
 5713TIP3   OH238553   2.044   0.663   4.391  0.7230 -0.1611 -0.3209
 5713TIP3    H138554   1.955   0.645   4.421  1.1645  0.1791  1.2639
 5713TIP3    H238555   2.031   0.709   4.307 -0.7633  2.7518  1.3292
 5714TIP3   OH238556   1.991   4.640  11.392 -0.1561 -0.2496 -0.3619
 5714TIP3    H138557   1.964   4.584  11.319  0.3686 -0.2302 -0.5759
 5714TIP3    H238558   2.084   4.654  11.378  0.0477 -0.6098  0.5554
 5715TIP3   OH238559   1.473   6.775  16.382  0.0504 -0.2465  0.0829
 5715TIP3    H138560   1.538   6.846  16.385  0.3788 -0.5106 -0.5364
 5715TIP3    H238561   1.398   6.809  16.430  0.9326 -0.2244  1.5073
 5716TIP3   OH238562   5.249   6.381  11.475 -0.5657 -0.4020  0.1734
 5716TIP3    H138563   5.315   6.363  11.542 -0.6490 -1.2809  0.0279
 5716TIP3    H238564   5.226   6.473  11.489  1.3848  0.2111 -0.3892
 5717TIP3   OH238565   3.758   6.552   2.383  0.9461 -0.3956  0.0382
 5717TIP3    H138566   3.707   6.605   2.443  1.6104 -0.3382  0.5693
 5717TIP3    H238567   3.747   6.594   2.297  3.1186  1.9146  0.7617
 5718TIP3   OH238568   6.117   2.817  11.331  0.4738 -0.3749 -0.4599
 5718TIP3    H138569   6.088   2.907  11.314 -0.2097 -0.2466  1.1962
 5718TIP3    H238570   6.199   2.809  11.282  0.1712  0.8992 -1.2355
 5719TIP3   OH238571   2.407   3.728  12.292 -0.0774 -0.0549  0.2912
 5719TIP3    H138572   2.461   3.750  12.367  2.4272 -1.7024 -0.8904
 5719TIP3    H238573   2.450   3.772  12.218 -0.7850 -0.8233 -0.5954
 5720TIP3   OH238574   4.213   4.567  13.891  0.2228 -0.2888 -0.2581
 5720TIP3    H138575   4.162   4.560  13.810 -0.5039  0.6986  0.0928
 5720TIP3    H238576   4.230   4.476  13.916 -0.2179 -0.6193 -1.0958
 5721TIP3   OH238577   5.433   0.868  13.238 -0.1205 -0.0153  0.3675
 5721TIP3    H138578   5.342   0.889  13.259 -0.4244 -2.2904  1.5502
 5721TIP3    H238579   5.431   0.777  13.209  1.9246 -0.4443  1.4363
 5722TIP3   OH238580   2.728   0.307   4.220  0.1010  0.5648 -0.3757
 5722TIP3    H138581   2.777   0.297   4.302  0.3470 -0.6297 -0.6470
 5722TIP3    H238582   2.706   0.218   4.194 -1.7124  1.0360 -0.5845
 5723TIP3   OH238583   1.055   5.612  12.068  0.2223  0.7319 -0.0488
 5723TIP3    H138584   1.133   5.605  12.124  0.5889  1.4693 -0.4533
 5723TIP3    H238585   0.991   5.552  12.108  0.9243  0.2713  0.3999
 5724TIP3   OH238586   5.133   5.739  12.368  0.0569  0.3147 -0.3356
 5724TIP3    H138587   5.039   5.753  12.357 -0.1697 -0.7512  0.0897
 5724TIP3    H238588   5.161   5.809  12.426 -0.5080  0.5595 -0.3550
 5725TIP3   OH238589   3.147   4.037  12.817  0.1280  0.2487  0.3662
 5725TIP3    H138590   3.147   4.127  12.849  1.8830 -0.3149  2.1991
 5725TIP3    H238591   3.219   3.995  12.865 -0.5068 -2.0749 -0.5882
 5726TIP3   OH238592   2.643   1.140   2.372  0.2610 -0.4238  0.3144
 5726TIP3    H138593   2.714   1.119   2.433  2.0189 -0.2867 -1.5720
 5726TIP3    H238594   2.608   1.054   2.347 -1.0556 -0.4569  2.0754
 5727TIP3   OH238595   6.149   5.291   1.406  0.8394  0.6282 -0.1380
 5727TIP3    H138596   6.243   5.304   1.420  1.0643 -1.3139  0.4725
 5727TIP3    H238597   6.115   5.267   1.493  0.4818 -2.1717 -0.9421
 5728TIP3   OH238598   2.716   4.477  15.002  0.3993 -0.4550  0.2817
 5728TIP3    H138599   2.732   4.422  15.079  1.5781 -0.5163  0.0112
 5728TIP3    H238600   2.801   4.483  14.959 -0.1058  0.1261 -0.6630
 5729TIP3   OH238601   4.226   4.013  16.572  0.1256  0.2115  0.7442
 5729TIP3    H138602   4.136   3.990  16.548  0.0892  0.3794  0.7212
 5729TIP3    H238603   4.265   4.045  16.491  0.2893 -0.1232  0.6904
 5730TIP3   OH238604   1.245   6.564  14.437 -0.2295 -0.1280 -0.5356
 5730TIP3    H138605   1.231   6.510  14.359  0.3820  0.2063 -0.8825
 5730TIP3    H238606   1.196   6.519  14.506 -0.8107 -0.4011 -1.1186
 5731TIP3   OH238607   3.198   0.981  14.904  0.2482 -0.3208  0.5205
 5731TIP3    H138608   3.134   1.023  14.960 -0.2853 -0.3911 -0.0300
 5731TIP3    H238609   3.152   0.907  14.865 -0.2728  1.2650 -2.1197
 5732TIP3   OH238610   0.650   6.759  14.392 -0.2017  0.2616  0.0550
 5732TIP3    H138611   0.606   6.833  14.435 -0.5664 -0.1359  0.3868
 5732TIP3    H238612   0.743   6.777  14.401 -0.2705  0.1527  1.1005
 5733TIP3   OH238613   4.455   5.156  16.325 -0.1420 -0.2506  0.2015
 5733TIP3    H138614   4.405   5.172  16.404 -0.0801 -0.7861  0.3533
 5733TIP3    H238615   4.536   5.205  16.337 -1.1225  1.6950 -0.5974
 5734TIP3   OH238616   0.040   6.208  16.184 -0.2225  0.1177  0.6412
 5734TIP3    H138617   0.122   6.159  16.183  0.5226  1.3202  0.5586
 5734TIP3    H238618   0.055   6.280  16.246 -0.7264  1.1251 -0.3478
 5735TIP3   OH238619   1.182   1.057  11.374  0.6670 -0.2268 -0.4398
 5735TIP3    H138620   1.191   1.152  11.369  2.0201 -0.2862  0.3624
 5735TIP3    H238621   1.127   1.041  11.450  0.1138 -0.0951 -0.8004
 5736TIP3   OH238622   4.029   3.608   4.696 -0.3934 -0.1309 -0.4193
 5736TIP3    H138623   4.023   3.517   4.727 -0.5109  0.2223  0.6161
 5736TIP3    H238624   4.035   3.660   4.776 -1.7562  0.8962 -0.9632
 5737TIP3   OH238625   4.419   1.867   4.132 -0.0552 -0.3451 -0.2391
 5737TIP3    H138626   4.329   1.897   4.121  0.0494 -0.2880 -1.0171
 5737TIP3    H238627   4.442   1.889   4.222 -0.4406  0.6509 -0.3776
 5738TIP3   OH238628   6.229   0.128   6.505 -0.0526 -0.7309  0.2771
 5738TIP3    H138629   6.306   0.178   6.480 -0.8440 -0.0792 -0.9648
 5738TIP3    H238630   6.173   0.190   6.551 -0.5127 -0.7865 -0.1996
 5739TIP3   OH238631   1.331   1.611   3.508 -0.0106  0.6286  0.3050
 5739TIP3    H138632   1.336   1.549   3.435  1.0982  0.2418  0.6903
 5739TIP3    H238633   1.301   1.693   3.467  2.1090  0.8673 -0.9197
 5740TIP3   OH238634   1.273   5.629  11.783  0.5999 -0.3228  0.5037
 5740TIP3    H138635   1.326   5.670  11.852  0.5846  1.9507 -0.7269
 5740TIP3    H238636   1.330   5.631  11.706 -0.1771 -0.7150 -0.0829
 5741TIP3   OH238637   2.438   5.185  12.927 -0.1422 -0.5213 -0.4203
 5741TIP3    H138638   2.368   5.155  12.986  0.3944 -0.5530  0.2206
 5741TIP3    H238639   2.395   5.243  12.865 -1.0536 -1.8838 -1.1155
 5742TIP3   OH238640   1.358   2.870   5.026 -0.7094 -0.4770  0.2404
 5742TIP3    H138641   1.331   2.956   4.994  0.0252  0.1672  1.2837
 5742TIP3    H238642   1.304   2.854   5.103  0.7197  0.1308  1.4241
 5743TIP3   OH238643   3.521   0.258  14.165  0.1437  0.0876  0.1872
 5743TIP3    H138644   3.464   0.315  14.217 -0.8695 -0.5636 -0.1822
 5743TIP3    H238645   3.461   0.198  14.121  1.1275 -0.6596 -0.1667
 5744TIP3   OH238646   1.637   0.962   4.034 -0.3953 -0.0495 -0.1970
 5744TIP3    H138647   1.578   1.032   4.063 -0.1126  0.1720 -0.1552
 5744TIP3    H238648   1.641   0.972   3.939  1.3778  1.4029 -0.0329
 5745TIP3   OH238649   3.547   4.011   3.215  0.4975  0.2234  0.2688
 5745TIP3    H138650   3.571   4.066   3.141  0.6605  0.2274  0.3224
 5745TIP3    H238651   3.617   3.945   3.218  0.0293 -0.2944 -0.1122
 5746TIP3   OH238652   0.473   2.832  16.959  0.3920  0.4134  0.3809
 5746TIP3    H138653   0.492   2.752  17.009  0.7769 -1.0296 -1.9127
 5746TIP3    H238654   0.527   2.900  16.999 -1.7814  0.2467  4.0232
 5747TIP3   OH238655   0.067   0.147  16.093 -0.2189  0.5636  0.5486
 5747TIP3    H138656  -0.000   0.121  16.156  0.8357  0.8648  1.8746
 5747TIP3    H238657   0.029   0.131  16.007 -2.2776  1.5146  1.2404
 5748TIP3   OH238658   5.803   5.845  15.224 -0.0009  0.2666 -0.3682
 5748TIP3    H138659   5.732   5.908  15.210 -0.0334  0.3008 -0.0450
 5748TIP3    H238660   5.860   5.856  15.147 -0.2674  0.3400 -0.5588
 5749TIP3   OH238661   5.590   0.651   1.840 -0.7734 -0.1603  0.4744
 5749TIP3    H138662   5.617   0.698   1.918 -1.4721 -1.0120  1.2486
 5749TIP3    H238663   5.498   0.676   1.827 -1.1419 -1.2697  0.8766
 5750TIP3   OH238664   4.782   2.843  13.869 -0.3954 -1.0366 -0.3251
 5750TIP3    H138665   4.839   2.895  13.812 -1.3735 -1.2564 -1.5361
 5750TIP3    H238666   4.842   2.801  13.931  0.8604 -1.8902 -2.0618
 5751TIP3   OH238667   6.226   1.998   5.979  0.4644 -0.4629  0.2858
 5751TIP3    H138668   6.147   1.943   5.975 -0.7587  1.2400 -0.2156
 5751TIP3    H238669   6.241   2.011   6.072 -0.6073  0.1991  0.3874
 5752TIP3   OH238670   1.840   2.949  11.470 -0.2604 -0.2219  0.5000
 5752TIP3    H138671   1.753   2.961  11.509 -0.6240 -1.6726  0.1718
 5752TIP3    H238672   1.848   3.021  11.407  0.3335  2.2101  3.1233
 5753TIP3   OH238673   3.283   0.015   0.393  0.0338  0.3342  0.4592
 5753TIP3    H138674   3.277  -0.064   0.339 -0.9490  1.3525 -1.0100
 5753TIP3    H238675   3.373   0.045   0.382 -0.0630  0.3392 -0.3707
 5754TIP3   OH238676   5.265   4.694  14.011  0.5904  0.7447 -0.4075
 5754TIP3    H138677   5.267   4.746  13.931  3.2369  1.4026 -0.0380
 5754TIP3    H238678   5.349   4.713  14.053  1.5832 -3.5306 -0.0369
 5755TIP3   OH238679   5.313   4.251   0.104  0.1530 -0.2532  0.0015
 5755TIP3    H138680   5.297   4.340   0.135  2.2564 -0.6616  2.6569
 5755TIP3    H238681   5.365   4.211   0.174  3.8323 -1.9448 -3.3423
 5756TIP3   OH238682   1.832   3.574   3.097  0.1784 -0.0029 -0.3913
 5756TIP3    H138683   1.737   3.580   3.091  0.1026 -0.1221  0.5115
 5756TIP3    H238684   1.864   3.642   3.038 -0.4790  0.7971  0.1584
 5757TIP3   OH238685   1.082   2.435   3.179 -0.5265 -0.1626  0.3416
 5757TIP3    H138686   1.129   2.516   3.157 -0.0410 -0.9587 -1.8628
 5757TIP3    H238687   1.051   2.448   3.268  0.7984  1.8608  0.5664
 5758TIP3   OH238688   6.089   3.493   1.498 -0.3904 -0.6234  0.0636
 5758TIP3    H138689   6.079   3.533   1.584 -0.9340 -0.4452 -0.0804
 5758TIP3    H238690   6.172   3.444   1.504 -1.2531 -2.0313  1.2347
 5759TIP3   OH238691   3.382   2.935  12.162 -0.3904 -0.6301 -0.7947
 5759TIP3    H138692   3.289   2.924  12.141 -0.6783 -0.3865  0.3236
 5759TIP3    H238693   3.427   2.920  12.078 -1.5015  0.4342 -1.6046
 5760TIP3   OH238694   5.560   0.847  15.338 -0.0318 -0.2680  0.2270
 5760TIP3    H138695   5.536   0.904  15.411  1.5159 -0.0932  0.6245
 5760TIP3    H238696   5.482   0.793  15.324 -0.3241 -0.4065  2.0931
 5761TIP3   OH238697   3.710   3.064  12.206  0.2323  0.1111  0.3237
 5761TIP3    H138698   3.737   3.101  12.122 -0.4153 -0.8894 -0.3458
 5761TIP3    H238699   3.733   2.971  12.200 -0.5287 -0.1252  0.9490
 5762TIP3   OH238700   4.331   2.346  12.909  0.4387  0.1581 -0.4785
 5762TIP3    H138701   4.240   2.348  12.880  0.5299  0.7430 -0.7342
 5762TIP3    H238702   4.358   2.255  12.897  0.2875  0.2488 -1.6715
 5763TIP3   OH238703   0.143   1.310  16.900 -0.2382 -0.5197  0.4742
 5763TIP3    H138704   0.113   1.222  16.926  3.5358 -2.3918 -0.7745
 5763TIP3    H238705   0.203   1.336  16.970  2.0427 -1.0237 -1.1801
 5764TIP3   OH238706   5.372   1.527  16.579 -0.2307  0.1201 -0.2864
 5764TIP3    H138707   5.398   1.596  16.519  0.7887  0.2534  0.2903
 5764TIP3    H238708   5.444   1.464  16.577  1.2814  1.5148  2.9253
 5765TIP3   OH238709   2.270   2.727   4.002 -0.0472  0.0055  0.1386
 5765TIP3    H138710   2.222   2.770   4.073  0.9983  1.3428  0.0678
 5765TIP3    H238711   2.362   2.747   4.020  0.2818 -0.1695 -1.2446
 5766TIP3   OH238712   6.531   6.237  15.838  0.5106 -0.0363  0.5954
 5766TIP3    H138713   6.451   6.256  15.888  0.5924  1.8291  0.0838
 5766TIP3    H238714   6.576   6.321  15.830  2.2850 -0.9484  0.4102
 5767TIP3   OH238715   2.203   5.471   5.781  0.1210 -0.4745 -0.4869
 5767TIP3    H138716   2.234   5.484   5.870 -0.5957  1.5412 -0.4684
 5767TIP3    H238717   2.275   5.502   5.726 -0.6804  1.5605 -0.4897
 5768TIP3   OH238718   3.387   5.031   1.479  0.2615 -0.5407  0.4640
 5768TIP3    H138719   3.296   5.040   1.451  0.4724 -0.4419 -0.1960
 5768TIP3    H238720   3.417   4.949   1.440  0.0921 -1.2131  1.7042
 5769TIP3   OH238721   4.707   3.486  15.860  0.3496 -0.6969  0.3961
 5769TIP3    H138722   4.791   3.481  15.816 -0.8303 -1.4133 -1.9162
 5769TIP3    H238723   4.691   3.579  15.870  1.2204 -0.5480  0.4863
 5770TIP3   OH238724   4.756   1.105   4.129 -0.7049 -0.7907  0.0518
 5770TIP3    H138725   4.835   1.125   4.178 -1.0527 -1.9796  1.1547
 5770TIP3    H238726   4.787   1.072   4.045 -0.1057  1.8040 -0.8284
 5771TIP3   OH238727   1.663   6.009   2.479 -0.0652  0.4507 -0.2050
 5771TIP3    H138728   1.572   6.027   2.455 -0.3781  0.2129  0.7368
 5771TIP3    H238729   1.680   6.068   2.553  0.1776 -0.2969  0.3454
 5772TIP3   OH238730   5.998   2.855  11.821  0.1963 -0.2150 -0.5786
 5772TIP3    H138731   6.063   2.874  11.888  0.0386  0.7041 -0.6692
 5772TIP3    H238732   5.940   2.932  11.822 -1.3816 -1.3563  0.0697
 5773TIP3   OH238733   1.436   0.806  12.257 -0.3522 -0.4250  0.2550
 5773TIP3    H138734   1.352   0.807  12.304 -0.4066  1.6484  0.2250
 5773TIP3    H238735   1.497   0.852  12.316  0.6906 -1.5998  0.1262
 5774TIP3   OH238736   3.117   6.770   1.788  0.6313  0.6864  0.2624
 5774TIP3    H138737   3.112   6.793   1.881  0.9645  0.4728  0.3350
 5774TIP3    H238738   3.112   6.854   1.742 -2.3093  0.6544  0.3469
 5775TIP3   OH238739   3.123   4.796  12.960  0.5096 -0.5415 -0.3575
 5775TIP3    H138740   3.103   4.762  12.873  0.0053 -0.1271 -0.4078
 5775TIP3    H238741   3.068   4.743  13.019  0.9044 -0.8704 -0.2852
 5776TIP3   OH238742   4.138   0.125   4.541 -0.2111 -0.1219  0.6591
 5776TIP3    H138743   4.052   0.151   4.575 -1.2155  0.3065 -1.9749
 5776TIP3    H238744   4.198   0.194   4.570 -1.4631  1.4355 -0.2709
 5777TIP3   OH238745   5.442   5.508  14.687 -0.2988  0.2124 -0.2096
 5777TIP3    H138746   5.432   5.600  14.709 -0.6455  0.7788 -2.4379
 5777TIP3    H238747   5.535   5.490  14.698  0.1004  1.3577 -1.4842
 5778TIP3   OH238748   5.733   4.182  12.010 -0.0817  0.8941 -0.3677
 5778TIP3    H138749   5.680   4.124  12.064  0.3440 -0.0315 -0.9251
 5778TIP3    H238750   5.676   4.257  11.991 -0.9885  0.1892 -0.4838
 5779TIP3   OH238751   5.635   1.514  15.542 -0.4602 -0.2513  0.0677
 5779TIP3    H138752   5.717   1.464  15.549 -1.9654 -3.0057 -0.7417
 5779TIP3    H238753   5.656   1.585  15.481  1.3139 -0.8577 -0.0900
 5780TIP3   OH238754   4.962   3.917  16.187 -0.0762  0.3920 -0.5200
 5780TIP3    H138755   4.961   3.856  16.261  0.4142  1.7163  0.6279
 5780TIP3    H238756   5.053   3.914  16.156  0.3445  1.6426  0.5251
 5781TIP3   OH238757   1.301   5.005   4.323 -0.2001  0.4051  0.1408
 5781TIP3    H138758   1.217   4.960   4.315  0.7398 -1.4168  0.0420
 5781TIP3    H238759   1.330   5.020   4.233  0.1673 -0.1373  0.1648
 5782TIP3   OH238760   3.500   2.587  13.285 -0.3401  0.3597 -0.2506
 5782TIP3    H138761   3.480   2.640  13.208 -1.7996 -0.1085 -0.2248
 5782TIP3    H238762   3.415   2.575  13.329  0.4440  0.5833  1.4126
 5783TIP3   OH238763   2.168   4.047   0.068 -0.3165  0.0423 -0.0597
 5783TIP3    H138764   2.150   4.096  -0.013 -0.8340  2.4970  1.4253
 5783TIP3    H238765   2.089   3.995   0.083 -0.5682  0.2384 -0.6759
 5784TIP3   OH238766   4.529   3.085  14.840 -0.4529 -0.0190 -0.4494
 5784TIP3    H138767   4.440   3.067  14.871 -0.1610 -0.8839 -0.0887
 5784TIP3    H238768   4.573   3.124  14.916 -0.6199  0.7700 -0.7438
 5785TIP3   OH238769   6.615   5.316  13.806  0.0542  0.0156  0.4457
 5785TIP3    H138770   6.633   5.263  13.728 -0.2039 -0.6639  0.8388
 5785TIP3    H238771   6.521   5.306  13.820 -0.3090  1.8573 -0.3742
 5786TIP3   OH238772   6.616   0.825   0.784  0.6897 -0.2899  0.8999
 5786TIP3    H138773   6.693   0.770   0.795  0.6650 -0.5297 -0.0222
 5786TIP3    H238774   6.640   0.885   0.713 -0.4101 -1.2192 -0.3135
 5787TIP3   OH238775   4.277   6.638   3.104  0.1274  0.4886 -0.2521
 5787TIP3    H138776   4.303   6.721   3.062 -0.7114  1.0933  0.4001
 5787TIP3    H238777   4.194   6.658   3.147  0.1425 -0.5818  0.2943
 5788TIP3   OH238778   3.039   6.781   3.598 -0.4380  0.1997  0.3447
 5788TIP3    H138779   3.045   6.876   3.605 -0.0187  0.0884  2.0159
 5788TIP3    H238780   2.946   6.765   3.580 -0.5074  0.9159  0.0118
 5789TIP3   OH238781   4.642   0.725   4.411  1.3411  0.1760 -0.2564
 5789TIP3    H138782   4.609   0.657   4.353 -0.1380  1.1071 -0.5633
 5789TIP3    H238783   4.721   0.757   4.368  0.5614  0.4865 -1.5177
 5790TIP3   OH238784   1.765   3.881  16.147 -0.1366 -0.3169  0.2153
 5790TIP3    H138785   1.781   3.797  16.191  1.0647  0.4395  1.2689
 5790TIP3    H238786   1.842   3.895  16.093  0.0233  0.4633  0.6314
 5791TIP3   OH238787   4.108   5.997   2.850  0.4969  0.1669 -0.4001
 5791TIP3    H138788   4.035   5.996   2.913  2.5668 -0.2494  2.1637
 5791TIP3    H238789   4.088   6.070   2.792 -1.5453  0.5977  0.7516
 5792TIP3   OH238790   2.920   0.850  13.048  0.5077  0.5097 -0.1605
 5792TIP3    H138791   2.871   0.794  12.987  0.7803 -1.3876  1.2663
 5792TIP3    H238792   3.000   0.872  13.001 -0.6395  1.7083 -1.6432
 5793TIP3   OH238793   0.047   2.219   3.349  0.4830 -0.3541 -0.1216
 5793TIP3    H138794   0.131   2.246   3.386  0.3252 -0.8616  0.6368
 5793TIP3    H238795   0.053   2.241   3.256  0.3728  2.2945  0.3928
 5794TIP3   OH238796   1.358   5.105  15.041  0.2859 -0.0597  0.3272
 5794TIP3    H138797   1.277   5.121  14.993  1.1738 -0.2703 -1.3138
 5794TIP3    H238798   1.428   5.124  14.978  1.4958 -1.1655  1.2663
 5795TIP3   OH238799   1.884   4.491  14.578 -0.7699 -0.2704 -0.4443
 5795TIP3    H138800   1.937   4.413  14.559 -0.0776  0.1716 -0.3351
 5795TIP3    H238801   1.909   4.554  14.512  0.7523  0.8480  1.1189
 5796TIP3   OH238802   6.153   0.861   5.302  0.4497  0.0607 -0.7105
 5796TIP3    H138803   6.094   0.922   5.347  0.4736 -0.1951 -0.3255
 5796TIP3    H238804   6.105   0.835   5.223  0.3321  0.3770 -0.7433
 5797TIP3   OH238805   5.639   5.674  16.833 -0.1078  0.0977 -0.0787
 5797TIP3    H138806   5.571   5.647  16.772  0.9847 -2.4833 -0.2767
 5797TIP3    H238807   5.609   5.644  16.918  0.1896  0.1475  0.0451
 5798TIP3   OH238808   2.756   6.295   1.356  0.1242  0.9035  0.2192
 5798TIP3    H138809   2.811   6.339   1.291  1.1308  0.2139  0.5799
 5798TIP3    H238810   2.817   6.241   1.406 -0.8613  0.2794  0.7719
 5799TIP3   OH238811   3.978   2.964   3.017 -0.6581  0.7539  0.2825
 5799TIP3    H138812   3.932   3.036   3.060 -2.6052 -0.4399  0.3266
 5799TIP3    H238813   3.909   2.910   2.979  0.7296 -1.0375  0.1397
 5800TIP3   OH238814   6.608   5.591  15.608  0.0803  0.7571 -0.5249
 5800TIP3    H138815   6.565   5.611  15.525 -1.1199  1.8516  0.3041
 5800TIP3    H238816   6.547   5.624  15.674  0.0014 -1.9640  0.8907
 5801TIP3   OH238817   3.154   2.955   4.877 -0.1294  0.2729  0.2844
 5801TIP3    H138818   3.072   2.913   4.853  0.0657  0.5059 -0.8542
 5801TIP3    H238819   3.139   3.048   4.861  0.6021  0.2325 -0.7397
 5802TIP3   OH238820   4.578   5.595  16.790  0.0514 -0.0832  0.0181
 5802TIP3    H138821   4.600   5.631  16.876 -1.3619  0.9190  0.0068
 5802TIP3    H238822   4.499   5.643  16.764  1.1677  0.5785 -2.4201
 5803TIP3   OH238823   6.591   0.951   5.560 -0.1849 -0.4269  0.7609
 5803TIP3    H138824   6.591   1.023   5.497  2.2732  0.5663  1.7861
 5803TIP3    H238825   6.571   0.874   5.507  0.6629  0.5120 -1.0497
 5804TIP3   OH238826   1.423   4.680   4.769  0.0099 -0.3461  0.5154
 5804TIP3    H138827   1.458   4.610   4.825  0.9020  1.5014  2.4083
 5804TIP3    H238828   1.341   4.645   4.736  0.4033 -2.2740  1.4245
 5805TIP3   OH238829   0.844   6.549  11.299  0.3309 -0.6274 -0.4759
 5805TIP3    H138830   0.817   6.458  11.282  0.2192 -0.3165 -2.0975
 5805TIP3    H238831   0.938   6.549  11.282  0.1907 -0.2709 -1.2807
 5806TIP3   OH238832   1.939   0.029  14.845 -0.1207 -0.5019 -0.6952
 5806TIP3    H138833   1.887   0.102  14.878  0.0184 -0.4389 -0.6140
 5806TIP3    H238834   1.918   0.023  14.752  2.0865  1.5465 -1.4356
 5807TIP3   OH238835   2.679   3.734   2.759  0.1611  0.5212 -0.5357
 5807TIP3    H138836   2.592   3.774   2.760 -0.3189 -0.4976 -0.7464
 5807TIP3    H238837   2.687   3.693   2.846  0.3378  0.4281 -0.5958
 5808TIP3   OH238838   3.431   1.645   5.217 -0.0450 -0.0927  0.6126
 5808TIP3    H138839   3.504   1.707   5.207 -0.7091  0.7790  1.0485
 5808TIP3    H238840   3.374   1.686   5.282 -0.9402 -0.7589  0.2583
 5809TIP3   OH238841   3.251   1.561   1.110  0.4969  0.1092  0.7074
 5809TIP3    H138842   3.326   1.510   1.141  0.3884 -0.7467 -0.4129
 5809TIP3    H238843   3.214   1.510   1.038  0.7643  2.0202 -0.8933
 5810TIP3   OH238844   5.224   5.437  16.105  0.0523 -0.5150  0.4697
 5810TIP3    H138845   5.183   5.386  16.035  1.3321 -1.0276  0.0527
 5810TIP3    H238846   5.174   5.518  16.109  1.8711  1.0461 -3.3734
 5811TIP3   OH238847   5.112   1.493  16.121  0.5025  0.5664  0.7402
 5811TIP3    H138848   5.142   1.577  16.153  0.1941  0.7302  0.6027
 5811TIP3    H238849   5.056   1.459  16.191 -2.0781  1.9607 -0.4951
 5812TIP3   OH238850   6.675   2.573  11.539  0.1148  0.4144  0.1397
 5812TIP3    H138851   6.616   2.515  11.586 -1.4005  0.3929 -1.6675
 5812TIP3    H238852   6.624   2.652  11.524  0.8987  0.8032 -0.5613
 5813TIP3   OH238853   1.150   2.944   1.324  0.9704  0.8150  0.4424
 5813TIP3    H138854   1.225   2.925   1.381  0.7838  0.7985  0.6812
 5813TIP3    H238855   1.112   3.024   1.361 -1.0841 -0.9142  2.3074
 5814TIP3   OH238856   5.085   1.670  11.105 -0.4219 -0.5033  1.0453
 5814TIP3    H138857   5.108   1.734  11.173 -0.1857  1.9477 -1.1926
 5814TIP3    H238858   5.164   1.618  11.093  0.0292  0.0462  1.5792
 5815TIP3   OH238859   0.691   2.527   0.188  0.7033  0.4715 -0.3255
 5815TIP3    H138860   0.635   2.491   0.118  0.7782  1.0261 -0.6818
 5815TIP3    H238861   0.742   2.595   0.144  1.7353 -0.0920 -0.0177
 5816TIP3   OH238862   0.887   4.630   1.363 -0.4033 -0.4562 -0.7887
 5816TIP3    H138863   0.895   4.650   1.270  0.8625  0.7863 -0.4404
 5816TIP3    H238864   0.800   4.661   1.387 -0.5696 -0.3863 -1.4598
 5817TIP3   OH238865   2.965   1.904   6.446 -0.1747 -0.2408 -0.3075
 5817TIP3    H138866   3.004   1.928   6.530 -0.1533 -0.2083 -0.3262
 5817TIP3    H238867   3.040   1.884   6.390 -0.1781 -0.0079 -0.3943
 5818TIP3   OH238868   0.251   0.684  12.002  0.8273 -0.0215 -0.1801
 5818TIP3    H138869   0.198   0.717  12.075  1.4539 -1.2074  0.8609
 5818TIP3    H238870   0.187   0.664  11.934  0.2894  1.7155 -0.2214
 5819TIP3   OH238871   4.657   4.777   3.619  0.2297 -0.5610 -0.6825
 5819TIP3    H138872   4.730   4.717   3.603 -0.5738 -1.3958 -1.3346
 5819TIP3    H238873   4.631   4.805   3.531  1.4343  1.8271 -0.3562
 5820TIP3   OH238874   2.301   0.211   4.642  0.1456 -0.2020  0.1653
 5820TIP3    H138875   2.217   0.183   4.604 -0.0595 -0.0463  0.5061
 5820TIP3    H238876   2.341   0.129   4.672 -0.6353 -0.1186  1.5319
 5821TIP3   OH238877   1.353   4.116   5.217  0.8804 -0.1309  0.1541
 5821TIP3    H138878   1.429   4.059   5.219  0.7471 -0.3493 -0.5911
 5821TIP3    H238879   1.337   4.132   5.124 -0.3024 -0.5249  0.2676
 5822TIP3   OH238880   4.840   0.982  15.935 -0.1515 -0.2243  0.3314
 5822TIP3    H138881   4.796   1.047  15.880 -0.2940 -0.7432 -0.1780
 5822TIP3    H238882   4.831   0.900  15.887  1.8718 -0.2572 -0.0889
 5823TIP3   OH238883   2.371   2.179   1.395 -0.5486 -0.2686 -0.3382
 5823TIP3    H138884   2.396   2.104   1.341 -2.1145  0.0150 -1.5308
 5823TIP3    H238885   2.289   2.153   1.436 -0.2456  0.1763  0.5785
 5824TIP3   OH238886   6.432   4.138  12.061  0.0320 -0.0934  0.1423
 5824TIP3    H138887   6.485   4.062  12.037  1.0566  0.9135 -0.8668
 5824TIP3    H238888   6.463   4.162  12.149  1.3188  0.5018 -0.4468
 5825TIP3   OH238889   6.137   2.638  11.041  0.6035  0.2617 -1.0216
 5825TIP3    H138890   6.223   2.666  11.073  1.7471 -2.8067 -1.0586
 5825TIP3    H238891   6.152   2.617  10.949 -0.7932  1.7030 -1.6316
 5826TIP3   OH238892   1.683   6.494   3.683 -0.0369  0.8203  0.1319
 5826TIP3    H138893   1.607   6.493   3.741  0.0064  2.9334  0.3024
 5826TIP3    H238894   1.736   6.420   3.711 -0.9668  0.6431  1.4843
 5827TIP3   OH238895   0.602   3.063   6.333 -0.1266 -0.0718 -0.5504
 5827TIP3    H138896   0.612   2.974   6.366 -0.5062  0.4441  1.0527
 5827TIP3    H238897   0.691   3.098   6.326 -0.0436 -0.1305  0.1575
 5828TIP3   OH238898   3.674   1.076  12.849  0.2637  0.2484 -0.1607
 5828TIP3    H138899   3.603   1.013  12.844 -0.3635  0.9366 -0.1793
 5828TIP3    H238900   3.670   1.109  12.939  0.9782 -0.1744  0.0345
 5829TIP3   OH238901   5.441   6.609  11.064 -0.1940 -0.3075  0.3347
 5829TIP3    H138902   5.415   6.520  11.086 -1.7703  0.0298 -0.0044
 5829TIP3    H238903   5.369   6.643  11.011  0.9852  0.7279 -0.6951
 5830TIP3   OH238904   4.445   5.207  11.292  0.1608 -0.4261 -0.1197
 5830TIP3    H138905   4.484   5.214  11.379 -1.9506  1.2708  0.7897
 5830TIP3    H238906   4.505   5.255  11.235  0.7483 -0.1810  0.6842
 5831TIP3   OH238907   6.772   0.307  12.274 -0.0702  0.1742 -0.1427
 5831TIP3    H138908   6.752   0.230  12.222  0.6938  0.7236 -1.2998
 5831TIP3    H238909   6.768   0.277  12.365 -0.4747 -1.0408 -0.5498
 5832TIP3   OH238910   1.087   5.183   6.136  0.1279  0.5254  0.3020
 5832TIP3    H138911   1.131   5.184   6.221 -0.3260  0.7957  0.5366
 5832TIP3    H238912   1.057   5.092   6.126  0.7854  0.3240  0.1109
 5833TIP3   OH238913   2.506   4.644  15.308  0.0822  0.5616 -0.0496
 5833TIP3    H138914   2.540   4.734  15.311  0.1675  0.6642 -2.2672
 5833TIP3    H238915   2.583   4.590  15.294  0.0919  0.0364  1.7694
 5834TIP3   OH238916   0.231   4.617   3.385  0.3043  0.2238 -0.0938
 5834TIP3    H138917   0.309   4.671   3.387  0.7534 -0.4169 -0.1234
 5834TIP3    H238918   0.164   4.670   3.428  1.3179 -0.1116  2.0078
 5835TIP3   OH238919   6.609   3.541  14.035 -0.2987 -0.3872  0.3299
 5835TIP3    H138920   6.519   3.563  14.056 -0.1559  0.7053 -0.1372
 5835TIP3    H238921   6.612   3.540  13.939  0.8956  2.9750  0.2037
 5836TIP3   OH238922   6.043   1.512  11.593 -0.2825  0.2724 -0.5267
 5836TIP3    H138923   6.111   1.486  11.530 -1.3157  0.0784 -1.6073
 5836TIP3    H238924   5.963   1.517  11.541 -0.9840  1.1562  0.5798
 5837TIP3   OH238925   5.865   3.930   4.445  0.5806  0.0292 -0.4049
 5837TIP3    H138926   5.825   4.009   4.481 -0.2294 -0.3086 -0.5335
 5837TIP3    H238927   5.922   3.898   4.515 -0.6824 -0.4149  0.4498
 5838TIP3   OH238928   2.864   5.728   4.584  0.4023 -0.0944  0.5229
 5838TIP3    H138929   2.912   5.653   4.550 -0.9130 -0.3191 -0.9666
 5838TIP3    H238930   2.931   5.784   4.625  1.6054 -1.3389  0.3128
 5839TIP3   OH238931   6.165   6.462  13.660  0.1116 -0.0615 -0.2851
 5839TIP3    H138932   6.139   6.374  13.634 -0.1773  0.1571 -0.7436
 5839TIP3    H238933   6.259   6.466  13.644  0.3836 -0.7114  0.9670
 5840TIP3   OH238934   5.406   4.280  16.953  0.1479  0.2260  0.4840
 5840TIP3    H138935   5.444   4.241  17.031  3.0075  1.4711 -0.1899
 5840TIP3    H238936   5.365   4.206  16.907  2.7061 -1.4651  0.7641
 5841TIP3   OH238937   5.039   0.844   1.523 -0.3274 -0.0828  0.6045
 5841TIP3    H138938   5.052   0.752   1.500  1.9699  0.3970 -0.3431
 5841TIP3    H238939   4.945   0.859   1.511 -0.7222 -2.2405  0.6091
 5842TIP3   OH238940   0.084   0.461  12.645  0.7186  0.2351  0.0712
 5842TIP3    H138941   0.157   0.441  12.586 -0.8844 -0.1525 -1.8963
 5842TIP3    H238942   0.032   0.525  12.597 -1.7694 -1.6500  0.1142
 5843TIP3   OH238943   4.623   1.038  16.754  0.3269 -0.7214 -0.2096
 5843TIP3    H138944   4.682   1.088  16.811 -0.9348  0.2060  0.3291
 5843TIP3    H238945   4.649   0.947  16.767  0.5062 -0.4770  1.3592
 5844TIP3   OH238946   2.837   5.542  13.088  0.0573 -0.4431 -0.2419
 5844TIP3    H138947   2.825   5.530  13.182 -0.9193  0.7234 -0.1978
 5844TIP3    H238948   2.749   5.533  13.051 -0.2442  2.7455 -0.5746
 5845TIP3   OH238949   4.172   3.822   1.720 -0.7343 -0.4057  0.2329
 5845TIP3    H138950   4.083   3.851   1.740 -0.7861  1.0019 -1.6567
 5845TIP3    H238951   4.162   3.768   1.641  0.3697  3.6653 -3.0467
 5846TIP3   OH238952   6.718   5.226   2.013  0.3170 -0.4877 -0.2637
 5846TIP3    H138953   6.681   5.139   1.995  0.3774 -0.7224  0.6785
 5846TIP3    H238954   6.722   5.269   1.928 -2.0134 -0.4917 -0.4393
 5847TIP3   OH238955   5.624   2.026   5.489  0.0330  0.0467  0.0700
 5847TIP3    H138956   5.677   2.099   5.459 -1.0583  0.5089 -0.8028
 5847TIP3    H238957   5.677   1.948   5.471  0.7834  0.5577  0.0689
 5848TIP3   OH238958   6.221   4.283   0.352  0.1938  0.3338 -0.4723
 5848TIP3    H138959   6.218   4.217   0.283  2.3428  0.7505 -1.0236
 5848TIP3    H238960   6.298   4.335   0.333 -0.7893  2.3157  0.6095
 5849TIP3   OH238961   6.176   3.493  17.103  0.7801 -0.4313 -0.4751
 5849TIP3    H138962   6.256   3.491  17.049  1.8006  0.5532  0.9291
 5849TIP3    H238963   6.153   3.401  17.115  2.0197 -0.7558 -0.4543
 5850TIP3   OH238964   4.587   5.727   2.125 -0.0960  0.1326 -0.0034
 5850TIP3    H138965   4.533   5.805   2.119 -1.0964 -0.5966 -0.7381
 5850TIP3    H238966   4.619   5.727   2.215 -0.1600  1.3145  0.0400
 5851TIP3   OH238967   1.465   1.512   2.447  0.3551 -0.3667  0.1056
 5851TIP3    H138968   1.478   1.595   2.492 -0.2934 -0.1059 -0.1873
 5851TIP3    H238969   1.466   1.533   2.354  1.4204 -0.8685 -0.0160
 5852TIP3   OH238970   0.698   6.711   4.489  0.0834 -0.2133  0.6359
 5852TIP3    H138971   0.750   6.636   4.458  1.0839  0.6032  0.3060
 5852TIP3    H238972   0.695   6.700   4.584 -0.4406 -1.0903  0.5301
 5853TIP3   OH238973   0.526   6.565   4.999  0.2536 -0.1893  0.6741
 5853TIP3    H138974   0.580   6.603   5.069 -1.2778  1.0729  1.2266
 5853TIP3    H238975   0.453   6.626   4.989 -0.3713 -1.1440 -0.9922
 5854TIP3   OH238976   4.557   5.715   5.381 -0.7639  0.2496  0.6549
 5854TIP3    H138977   4.485   5.692   5.322 -0.8665  0.2035  0.7963
 5854TIP3    H238978   4.575   5.807   5.363  0.7788 -0.3290 -1.1232
 5855TIP3   OH238979   1.886   0.133   4.310 -0.5303  0.0501  0.7318
 5855TIP3    H138980   1.862   0.210   4.259 -0.4294  0.6157  1.5332
 5855TIP3    H238981   1.920   0.071   4.245  2.5917  1.9098  0.4146
 5856TIP3   OH238982   0.680   2.946   4.487 -0.2653  1.0091  0.0503
 5856TIP3    H138983   0.666   2.950   4.582 -1.6250  0.4056 -0.0873
 5856TIP3    H238984   0.653   2.857   4.463  2.2536  0.3429 -0.6182
 5857TIP3   OH238985   3.852   2.488   2.401 -0.1102  0.3655 -0.3874
 5857TIP3    H138986   3.795   2.554   2.439 -0.0079 -0.0493  0.5133
 5857TIP3    H238987   3.865   2.424   2.472  0.4216 -0.2075 -0.9910
 5858TIP3   OH238988   3.416   1.195   5.222 -0.1605 -0.2016 -0.1523
 5858TIP3    H138989   3.454   1.186   5.135 -0.3241 -0.5879 -0.1840
 5858TIP3    H238990   3.352   1.124   5.228  0.6413 -0.8756  0.7087
 5859TIP3   OH238991   6.154   6.623   1.308  0.0303  0.2020 -0.1173
 5859TIP3    H138992   6.106   6.575   1.375  2.5104  0.4343  1.9621
 5859TIP3    H238993   6.174   6.558   1.241  1.5310 -1.2645  1.6601
 5860TIP3   OH238994   3.776   6.073   5.647  0.2122  0.0193  0.2877
 5860TIP3    H138995   3.848   6.017   5.677  0.0531 -0.6432 -0.5300
 5860TIP3    H238996   3.766   6.050   5.555  0.4721  1.7653 -0.2005
 5861TIP3   OH238997   0.652   3.473   1.139  0.6744 -0.3478 -0.1349
 5861TIP3    H138998   0.678   3.454   1.229  0.9110 -2.8904 -0.6825
 5861TIP3    H238999   0.714   3.541   1.110  2.4175 -1.5089  0.7401
 5862TIP3   OH239000   0.130   3.739  15.546  0.4069 -0.1457 -0.2157
 5862TIP3    H139001   0.192   3.783  15.604 -1.0919 -0.2915  1.5795
 5862TIP3    H239002   0.099   3.664  15.596 -1.5954  0.2160 -0.7985
 5863TIP3   OH239003   0.462   0.651   5.585  0.5724  0.2432  0.1272
 5863TIP3    H139004   0.518   0.623   5.658 -0.1072  0.0729  0.5976
 5863TIP3    H239005   0.374   0.622   5.611  0.3177  0.2224 -0.7438
 5864TIP3   OH239006   3.384   1.219  14.315  0.6317  0.2951 -0.2696
 5864TIP3    H139007   3.400   1.303  14.357  0.0327  0.2405  0.0809
 5864TIP3    H239008   3.337   1.241  14.235  1.9055  0.4111 -1.0135
 5865TIP3   OH239009   5.615   6.007   2.466 -0.1270  0.4588  0.1354
 5865TIP3    H139010   5.645   5.981   2.380  0.9214 -0.0701  0.6412
 5865TIP3    H239011   5.522   5.986   2.467  0.4914 -2.6729  0.2705
 5866TIP3   OH239012   4.665   1.986  15.919  0.4335  0.5010 -0.1926
 5866TIP3    H139013   4.757   1.986  15.893  0.1772 -0.2337 -1.1469
 5866TIP3    H239014   4.651   2.072  15.958  1.4052  0.7929 -0.4694
 5867TIP3   OH239015   6.265   6.640  12.648 -0.0430  0.1188  0.7292
 5867TIP3    H139016   6.190   6.695  12.628  0.3187  0.5468  0.5152
 5867TIP3    H239017   6.260   6.626  12.742 -0.8028 -0.4779  0.6038
 5868TIP3   OH239018   5.648   4.650  16.650 -0.4865  0.1227 -0.6496
 5868TIP3    H139019   5.657   4.609  16.736 -0.8943  1.4844  0.0726
 5868TIP3    H239020   5.584   4.720  16.663  0.0044  0.8401 -1.8835
 5869TIP3   OH239021   4.187   4.618   6.177  0.6478 -0.4399 -0.2530
 5869TIP3    H139022   4.207   4.554   6.245  0.3204 -0.4574 -0.1675
 5869TIP3    H239023   4.257   4.683   6.182  2.2496 -1.9236 -1.7987
 5870TIP3   OH239024   2.716   0.885   2.045  0.1308  0.1160 -0.4516
 5870TIP3    H139025   2.773   0.958   2.069  0.8761 -1.3418  2.8132
 5870TIP3    H239026   2.773   0.808   2.045 -1.1010 -0.8536 -1.2602
 5871TIP3   OH239027   2.242   1.052  11.959  0.3209 -0.4354  0.5810
 5871TIP3    H139028   2.302   0.982  11.984  0.0572 -0.2461  1.7777
 5871TIP3    H239029   2.250   1.057  11.863  3.4632  0.6889  0.7836
 5872TIP3   OH239030   1.800   4.117   1.634  0.5291  0.0401 -0.0649
 5872TIP3    H139031   1.820   4.153   1.547 -1.3352  1.2272 -0.0676
 5872TIP3    H239032   1.756   4.189   1.680  0.3014 -0.9952  1.4026
 5873TIP3   OH239033   4.245   2.299  17.272  0.5286  0.6307  0.1147
 5873TIP3    H139034   4.181   2.340  17.213 -0.8547 -1.1904  0.2266
 5873TIP3    H239035   4.273   2.220  17.225  0.5344 -0.0625  1.2270
 5874TIP3   OH239036   5.795   6.472  13.269 -0.0123  0.3725 -0.5781
 5874TIP3    H139037   5.734   6.497  13.339  1.3453 -2.5858  1.9178
 5874TIP3    H239038   5.872   6.526  13.283  0.2115 -0.1321  0.1726
 5875TIP3   OH239039   6.724   4.434   2.380  0.6037 -0.2562  0.2281
 5875TIP3    H139040   6.675   4.384   2.315  0.3238 -0.1653  0.3625
 5875TIP3    H239041   6.720   4.380   2.459 -0.9155  0.5925  0.7777
 5876TIP3   OH239042   5.996   5.855  15.041 -0.0110 -0.2200  0.4504
 5876TIP3    H139043   5.987   5.762  15.020 -1.1326 -0.4619  1.9079
 5876TIP3    H239044   6.090   5.866  15.060  0.1137 -1.0654  0.3716
 5877TIP3   OH239045   1.022   4.516  13.166 -0.2665  0.2899  0.3239
 5877TIP3    H139046   1.068   4.594  13.196 -1.9951  0.3173  3.2365
 5877TIP3    H239047   1.060   4.444  13.217  0.0537 -0.5270 -1.0110
 5878TIP3   OH239048   2.863   6.433   5.398  0.9844  0.4249 -0.2118
 5878TIP3    H139049   2.852   6.358   5.457  0.3235 -0.2066 -1.1269
 5878TIP3    H239050   2.787   6.488   5.416  1.7829  1.2111  0.9035
 5879TIP3   OH239051   0.295   4.624  10.646 -0.3598  0.1236 -0.3008
 5879TIP3    H139052   0.239   4.644  10.721  0.5467  1.2187  0.1232
 5879TIP3    H239053   0.234   4.607  10.574 -1.3074  3.2572 -0.3810
 5880TIP3   OH239054   0.558   4.393   4.760  0.4231 -0.5065  0.2890
 5880TIP3    H139055   0.551   4.484   4.789 -0.4031 -0.1277 -1.0319
 5880TIP3    H239056   0.468   4.365   4.744  0.6837 -1.4981  0.4556
 5881TIP3   OH239057   5.576   6.548  16.043  0.5799 -0.3461 -0.4637
 5881TIP3    H139058   5.500   6.498  16.013  1.7886 -0.6973 -3.2050
 5881TIP3    H239059   5.624   6.569  15.964  1.8956  2.3704  0.9152
 5882TIP3   OH239060   1.545   5.872  16.883 -0.1686 -0.0694  0.4071
 5882TIP3    H139061   1.591   5.792  16.854  1.0869  0.7972 -0.0910
 5882TIP3    H239062   1.459   5.865  16.842 -0.0930 -1.1795  0.3866
 5883TIP3   OH239063   2.377   5.746   0.923 -0.7356  0.1838 -0.2177
 5883TIP3    H139064   2.302   5.754   0.864  0.1876  0.7751 -1.3536
 5883TIP3    H239065   2.406   5.655   0.914 -2.9109 -0.8706  2.2908
 5884TIP3   OH239066   6.534   5.616   4.905  0.1451  0.2714 -0.0919
 5884TIP3    H139067   6.493   5.551   4.849  1.6646  0.6245 -1.6906
 5884TIP3    H239068   6.543   5.694   4.850  2.0848  0.5005  0.4598
 5885TIP3   OH239069   2.428   6.121   0.930  0.0232  0.2635 -0.6045
 5885TIP3    H139070   2.385   6.126   1.015 -0.2464  0.1840 -0.7376
 5885TIP3    H239071   2.357   6.110   0.867  0.1606  1.1203 -0.9220
 5886TIP3   OH239072   1.728   0.760   1.033  0.1482 -0.3230 -0.2111
 5886TIP3    H139073   1.678   0.719   0.962 -2.2805  0.5010  0.9354
 5886TIP3    H239074   1.670   0.827   1.069  1.9708  0.4771  1.4456
 5887TIP3   OH239075   2.939   2.623   0.777 -0.8428  0.0573 -0.3391
 5887TIP3    H139076   2.937   2.718   0.768 -0.1078 -0.0480 -1.9820
 5887TIP3    H239077   3.031   2.602   0.794 -0.6089 -0.4729 -2.0596
 5888TIP3   OH239078   5.739   0.041  12.699 -0.6687 -0.5515  0.1983
 5888TIP3    H139079   5.688   0.088  12.766 -1.4469 -0.3531 -0.5153
 5888TIP3    H239080   5.675  -0.015  12.655 -0.2638 -0.3277 -0.6901
 5889TIP3   OH239081   2.348   3.175   6.299  0.2968 -0.2346  0.1101
 5889TIP3    H139082   2.286   3.146   6.232  0.6194  1.4623 -0.9604
 5889TIP3    H239083   2.320   3.128   6.378  0.5655 -3.1606 -1.3718
 5890TIP3   OH239084   6.126   1.627   5.254 -0.2303  0.4888  0.7463
 5890TIP3    H139085   6.095   1.655   5.168 -0.1028 -0.7443  0.2675
 5890TIP3    H239086   6.143   1.533   5.243  1.9639  0.7443  1.4836
 5891TIP3   OH239087   1.124   5.477   5.202  0.1309  0.2589 -0.5159
 5891TIP3    H139088   1.190   5.420   5.162 -1.2423 -2.0450  0.2793
 5891TIP3    H239089   1.126   5.454   5.295 -2.0971 -0.3183 -0.5381
 5892TIP3   OH239090   2.907   2.207   1.037 -0.7320 -0.2390 -0.2941
 5892TIP3    H139091   2.844   2.271   1.005 -0.0449  0.3509 -0.4853
 5892TIP3    H239092   2.981   2.215   0.978  0.0642  0.0067  0.7231
 5893TIP3   OH239093   6.280   0.165  10.306 -0.0761 -0.7560 -0.0247
 5893TIP3    H139094   6.298   0.105  10.379  0.0119  0.1887  0.7520
 5893TIP3    H239095   6.227   0.234  10.344 -0.8573 -0.7442 -1.0972
 5894TIP3   OH239096   1.137   1.743  11.428  0.6366  0.0413  0.5883
 5894TIP3    H139097   1.137   1.776  11.338  0.9468 -0.0604  0.5481
 5894TIP3    H239098   1.071   1.674  11.429  0.2211  0.4300  0.5865
 5895TIP3   OH239099   5.079   6.495   4.945  0.0915  0.2876  0.0067
 5895TIP3    H139100   5.098   6.406   4.972  0.7469 -0.2056 -1.9528
 5895TIP3    H239101   5.000   6.519   4.994 -0.0919 -1.3504  0.5565
 5896TIP3   OH239102   5.613   5.809   0.161  0.4282 -0.2288  0.1535
 5896TIP3    H139103   5.583   5.822   0.071  1.9647 -0.7413 -0.4664
 5896TIP3    H239104   5.687   5.869   0.171  3.8272 -3.8063 -0.8319
 5897TIP3   OH239105   5.629   3.478   2.179  0.0531  0.2041 -0.2654
 5897TIP3    H139106   5.587   3.395   2.156  0.5894 -0.6966  1.7734
 5897TIP3    H239107   5.700   3.487   2.116 -1.3535  0.2931 -1.9252
 5898TIP3   OH239108   6.537   0.780  12.361  0.2091 -0.0374 -0.9763
 5898TIP3    H139109   6.532   0.851  12.297  0.4005  1.9743  1.0953
 5898TIP3    H239110   6.448   0.771  12.394  0.5813  0.8729  0.3672
 5899TIP3   OH239111   2.897   3.032   1.672 -0.1297 -0.3030  0.2228
 5899TIP3    H139112   2.917   2.992   1.757 -0.9809 -0.9858  0.1173
 5899TIP3    H239113   2.805   3.058   1.679 -0.1682 -0.2458 -0.4398
 5900TIP3   OH239114   6.561   0.372  12.653  0.1691 -0.1128  0.0940
 5900TIP3    H139115   6.654   0.389  12.641  1.2222 -1.9714  3.9985
 5900TIP3    H239116   6.546   0.286  12.613 -0.5089  1.0130 -2.3076
 5901TIP3   OH239117   4.460   0.007  12.705 -0.1057 -0.6312 -0.0576
 5901TIP3    H139118   4.534  -0.053  12.706  1.2305  0.9653  0.9223
 5901TIP3    H239119   4.452   0.037  12.796  0.4764  2.0647 -0.8351
 5902TIP3   OH239120   0.520   1.301  16.357  0.4035  0.0910 -0.8804
 5902TIP3    H139121   0.495   1.369  16.295  0.8402  0.3770 -0.7376
 5902TIP3    H239122   0.611   1.280  16.335 -0.2632 -1.7704 -2.1652
 5903TIP3   OH239123   0.457   2.405  13.065 -0.6092  0.2621 -0.1536
 5903TIP3    H139124   0.550   2.426  13.065 -0.3697 -0.7124  0.3460
 5903TIP3    H239125   0.426   2.429  12.978  0.3308 -0.2941 -0.6545
 5904TIP3   OH239126   1.689   4.782   3.307 -0.0136 -0.3337 -0.5641
 5904TIP3    H139127   1.683   4.877   3.316 -2.5568 -0.6430  4.3161
 5904TIP3    H239128   1.756   4.756   3.370 -1.4417 -1.8369  0.4276
 5905TIP3   OH239129   6.201   0.764  16.170  0.3609 -1.2624  0.3116
 5905TIP3    H139130   6.170   0.854  16.160 -0.4603 -1.4424  1.1414
 5905TIP3    H239131   6.227   0.738  16.082  2.8292  0.5573  0.3651
 5906TIP3   OH239132   0.433   1.558   6.629 -0.0230 -0.7565 -0.3792
 5906TIP3    H139133   0.428   1.638   6.575  1.8309 -1.5123 -1.7830
 5906TIP3    H239134   0.524   1.556   6.660 -0.6589 -1.1452  1.5960
 5907TIP3   OH239135   4.080   5.586  13.553 -0.4779 -0.4461  0.1032
 5907TIP3    H139136   4.082   5.493  13.575  0.8846  0.0534  2.4929
 5907TIP3    H239137   3.988   5.610  13.561 -0.6752 -1.3355  0.7027
 5908TIP3   OH239138   2.585   0.009   2.613  0.5536 -0.0412 -0.7865
 5908TIP3    H139139   2.495   0.035   2.598  1.0639  2.2075 -0.3110
 5908TIP3    H239140   2.637   0.064   2.554  1.8984  2.4623  2.3502
 5909TIP3   OH239141   5.926   4.331   3.614 -0.0760  0.2819 -0.3127
 5909TIP3    H139142   5.863   4.378   3.559  0.3970  0.0856 -1.0325
 5909TIP3    H239143   5.983   4.286   3.552  0.1601 -0.3522  0.3549
 5910TIP3   OH239144   0.148   5.409  15.373 -0.4419 -0.2576 -0.4664
 5910TIP3    H139145   0.228   5.393  15.423 -0.3794  0.1706 -0.4310
 5910TIP3    H239146   0.090   5.456  15.433  0.0022  1.1399 -1.0923
 5911TIP3   OH239147   3.903   1.128  12.133 -0.3205  0.2408  0.0740
 5911TIP3    H139148   3.939   1.177  12.207 -0.9498  0.7472  0.0484
 5911TIP3    H239149   3.962   1.148  12.060  0.2512 -0.1886  0.4025
 5912TIP3   OH239150   1.529   2.285   6.778  0.0854  0.2012 -0.0063
 5912TIP3    H139151   1.504   2.194   6.794 -2.9504  0.9167  0.0726
 5912TIP3    H239152   1.554   2.287   6.686  1.0486 -0.8548  0.2178
 5913TIP3   OH239153   3.863   3.483  16.483 -0.0114  0.3571  0.2426
 5913TIP3    H139154   3.835   3.462  16.572  0.3360  0.7864  0.4613
 5913TIP3    H239155   3.906   3.403  16.452 -0.6469  0.0081  0.2429
 5914TIP3   OH239156   6.134   4.401  15.294 -0.3839  0.0465 -0.3499
 5914TIP3    H139157   6.228   4.420  15.288 -0.7004  1.6055 -0.9982
 5914TIP3    H239158   6.092   4.483  15.267 -1.9661  0.1100  2.0090
 5915TIP3   OH239159   0.162   1.457   0.695 -0.1606  0.3421  0.7219
 5915TIP3    H139160   0.097   1.526   0.685 -0.7112 -0.2123  0.3696
 5915TIP3    H239161   0.222   1.489   0.762 -0.8043  0.8612  1.0596
 5916TIP3   OH239162   5.671   6.725   4.228 -0.8167 -0.4804 -0.2249
 5916TIP3    H139163   5.756   6.707   4.189  0.3054  1.1470  1.3096
 5916TIP3    H239164   5.674   6.680   4.313 -1.6119 -0.6441 -0.2764
 5917TIP3   OH239165   5.257   1.628  13.439 -0.2234 -0.4715 -0.3790
 5917TIP3    H139166   5.250   1.721  13.419 -1.7155 -0.6439 -0.8340
 5917TIP3    H239167   5.338   1.619  13.490  0.0895  1.0141 -0.5851
 5918TIP3   OH239168   5.651   4.571   0.741 -0.4717  0.0403 -0.0847
 5918TIP3    H139169   5.632   4.653   0.787 -0.1999 -1.4261  2.8832
 5918TIP3    H239170   5.733   4.541   0.780 -0.3878 -1.4929 -1.3677
 5919TIP3   OH239171   6.567   1.874   3.316 -0.1343  0.3104  0.7389
 5919TIP3    H139172   6.521   1.937   3.260  1.1570  0.9092  0.3034
 5919TIP3    H239173   6.660   1.898   3.308  0.7348 -3.0325 -1.3262
 5920TIP3   OH239174   5.049   2.033   3.977 -0.2348 -0.1415 -0.1387
 5920TIP3    H139175   5.013   2.081   3.902  0.0672  1.5637  0.7570
 5920TIP3    H239176   5.036   1.941   3.955 -0.5316  0.3206 -2.0922
 5921TIP3   OH239177   4.726   5.285  14.750 -0.7477 -0.7981 -0.0822
 5921TIP3    H139178   4.720   5.365  14.697  0.4372 -0.9698 -0.5044
 5921TIP3    H239179   4.820   5.271  14.760 -0.9526 -0.9913  1.7526
 5922TIP3   OH239180   1.207   6.212  14.790 -0.4494 -0.0571  0.9344
 5922TIP3    H139181   1.112   6.216  14.782 -0.4783  2.8979  1.5579
 5922TIP3    H239182   1.223   6.220  14.884  0.4089  1.2421  0.7010
 5923TIP3   OH239183   3.368   3.886   3.632 -0.1304  0.6221 -0.0263
 5923TIP3    H139184   3.308   3.832   3.683 -2.0256  0.7927 -1.8805
 5923TIP3    H239185   3.429   3.824   3.593  1.3776  0.5027  2.3792
 5924TIP3   OH239186   6.786   5.538   1.868 -0.2135 -0.2169 -0.5775
 5924TIP3    H139187   6.831   5.531   1.784  0.9177  0.3205 -0.0338
 5924TIP3    H239188   6.707   5.484   1.857 -0.6115  0.6264 -2.3132
 5925TIP3   OH239189   4.641   2.279  15.803  0.4291 -0.3558  0.1393
 5925TIP3    H139190   4.638   2.370  15.773 -0.7732 -0.2116  0.6483
 5925TIP3    H239191   4.729   2.249  15.779  1.2414  1.2579  0.9130
 5926TIP3   OH239192   2.118   4.234  11.930  0.5829  0.0158  0.3113
 5926TIP3    H139193   2.073   4.163  11.884 -1.1802  1.3007 -0.0589
 5926TIP3    H239194   2.167   4.190  11.999  2.0388 -1.8316 -1.7519
 5927TIP3   OH239195   5.416   6.289  16.952  0.3921 -0.2845 -0.0595
 5927TIP3    H139196   5.449   6.345  17.022 -1.0533  0.0024  0.4342
 5927TIP3    H239197   5.376   6.350  16.889  1.1353 -0.5841 -0.8365
 5928TIP3   OH239198   4.754   2.344  12.914  0.2122 -0.6778 -0.2853
 5928TIP3    H139199   4.676   2.309  12.957  1.3397 -1.4370  1.2072
 5928TIP3    H239200   4.789   2.270  12.864 -0.1535 -0.2623 -1.1760
 5929TIP3   OH239201   1.282   3.906  13.482 -0.6600 -0.4867  0.2135
 5929TIP3    H139202   1.299   3.893  13.389  2.2973  0.4388  0.5107
 5929TIP3    H239203   1.311   3.824  13.523  0.2251 -0.0772  0.4549
 5930TIP3   OH239204   2.199   1.388   2.853 -0.0986  0.1057 -0.2723
 5930TIP3    H139205   2.149   1.399   2.772 -1.7388 -0.2364  0.6695
 5930TIP3    H239206   2.143   1.336   2.910  1.5278 -0.6902  0.6789
 5931TIP3   OH239207   3.942   5.053   1.960 -0.2806  0.5566 -0.0745
 5931TIP3    H139208   3.919   4.964   1.988  0.9684  0.1864 -0.1771
 5931TIP3    H239209   4.023   5.042   1.910 -0.2505  1.7313 -0.3068
 5932TIP3   OH239210   2.255   6.693  15.860 -0.3691  0.4408  0.0410
 5932TIP3    H139211   2.171   6.735  15.839  0.0438  1.1801 -0.1592
 5932TIP3    H239212   2.285   6.657  15.776  0.6026  2.1708 -0.3911
 5933TIP3   OH239213   6.383   4.866  16.333  0.3403  0.1606  0.3233
 5933TIP3    H139214   6.290   4.868  16.355  0.1683  1.4737 -0.4178
 5933TIP3    H239215   6.397   4.780  16.293 -0.7698  0.3390 -0.4594
 5934TIP3   OH239216   0.682   3.658  12.877 -0.7891 -0.1346  0.1005
 5934TIP3    H139217   0.670   3.714  12.801  1.6611  1.6270  0.8948
 5934TIP3    H239218   0.696   3.570  12.840 -0.2967  0.5673 -1.4472
 5935TIP3   OH239219   0.489   3.243   0.460  0.2177 -0.0284  0.4336
 5935TIP3    H139220   0.547   3.251   0.385 -1.6856 -0.1525 -1.1284
 5935TIP3    H239221   0.468   3.150   0.465 -0.9492  0.1994  0.0704
 5936TIP3   OH239222   4.961   2.690   5.055  0.2090 -0.2879  0.1045
 5936TIP3    H139223   5.032   2.629   5.075 -1.7446 -2.7891 -0.1185
 5936TIP3    H239224   4.964   2.700   4.960  0.4095 -0.1779  0.1208
 5937TIP3   OH239225   6.458   4.253  15.524 -0.1767 -0.1043  0.3762
 5937TIP3    H139226   6.443   4.192  15.451 -1.1326 -1.4637  1.6327
 5937TIP3    H239227   6.386   4.316  15.518  0.2017  0.2727 -0.3061
 5938TIP3   OH239228   5.065   3.466  11.948  0.4767 -0.2028 -0.5045
 5938TIP3    H139229   5.084   3.378  11.980  1.8290  0.1032 -0.4057
 5938TIP3    H239230   5.051   3.518  12.028  2.2337  0.2034 -0.4136
 5939TIP3   OH239231   5.694   6.179  10.603 -0.8314  0.9750  0.2682
 5939TIP3    H139232   5.648   6.098  10.627 -0.0003  0.4870  0.2450
 5939TIP3    H239233   5.677   6.238  10.677 -0.0425  0.1999  1.0948
 5940TIP3   OH239234   2.803   6.690  16.894 -0.0463  0.1251 -0.3573
 5940TIP3    H139235   2.851   6.766  16.928  1.7920 -0.3326 -1.7573
 5940TIP3    H239236   2.711   6.710  16.911  0.4556  2.2284  0.1727
 5941TIP3   OH239237   5.336   0.509   3.374  0.0256  0.3039 -0.3355
 5941TIP3    H139238   5.240   0.515   3.375 -0.1108 -1.3271 -0.5967
 5941TIP3    H239239   5.354   0.417   3.392  1.5586  0.5837 -0.3272
 5942TIP3   OH239240   1.648   5.390  11.833  0.2410  0.4894 -0.1593
 5942TIP3    H139241   1.586   5.387  11.760  0.5046 -1.9816 -0.3520
 5942TIP3    H239242   1.617   5.323  11.894  1.9102  0.2270  0.4446
 5943TIP3   OH239243   3.734   6.469   5.776 -0.0691  0.0959  0.3452
 5943TIP3    H139244   3.759   6.378   5.763 -0.6541 -0.1955  1.1925
 5943TIP3    H239245   3.809   6.508   5.823  0.0648 -0.0163  0.2247
 5944TIP3   OH239246   2.126   2.137   1.498  0.3539  0.5192  0.2891
 5944TIP3    H139247   2.072   2.063   1.471  1.3678 -0.4474  0.8501
 5944TIP3    H239248   2.067   2.191   1.550 -0.7042  0.7094 -1.0281
 5945TIP3   OH239249   0.893   2.767   2.928 -0.4898 -0.1205  0.1983
 5945TIP3    H139250   0.912   2.768   2.834 -1.3360  1.1896  0.0183
 5945TIP3    H239251   0.801   2.791   2.934 -0.7316 -1.2187  1.3290
 5946TIP3   OH239252   4.641   6.125  16.624  0.1815  0.3931 -0.7543
 5946TIP3    H139253   4.699   6.059  16.583 -0.4571  0.7722 -2.3437
 5946TIP3    H239254   4.554   6.085  16.621  0.0828  0.5312  0.0685
 5947TIP3   OH239255   3.072   1.499   4.926 -0.5251 -0.2735  0.0030
 5947TIP3    H139256   3.134   1.427   4.937 -1.6187 -1.6089 -1.9330
 5947TIP3    H239257   3.100   1.564   4.990  1.6245 -1.6426  0.5830
 5948TIP3   OH239258   5.189   1.739  14.216  0.3196 -0.1100 -0.3824
 5948TIP3    H139259   5.190   1.645  14.233  1.3640  0.0543  0.6143
 5948TIP3    H239260   5.135   1.776  14.286  0.4478  0.0874 -0.3855
 5949TIP3   OH239261   2.156   3.808  14.808  0.1913 -0.4437  0.1322
 5949TIP3    H139262   2.208   3.768  14.738 -0.3222 -0.5435 -0.1907
 5949TIP3    H239263   2.095   3.741  14.835 -0.1106 -0.1567  0.1671
 5950TIP3   OH239264   2.101   4.399  11.155 -0.3738  0.3777  0.4516
 5950TIP3    H139265   2.171   4.461  11.137 -0.3554 -0.3810 -2.5643
 5950TIP3    H239266   2.022   4.453  11.162 -0.1644  0.8840 -0.8678
 5951TIP3   OH239267   6.450   2.500   0.225  0.3109  0.6186  0.0819
 5951TIP3    H139268   6.443   2.429   0.161  1.2613 -0.9467  1.6409
 5951TIP3    H239269   6.443   2.580   0.172  0.8395 -0.5999 -1.9450
 5952TIP3   OH239270   6.198   1.863   1.517 -0.0187  0.0128 -0.4746
 5952TIP3    H139271   6.227   1.797   1.453 -0.2199  0.1292 -0.6868
 5952TIP3    H239272   6.149   1.812   1.582 -3.2424  0.2878 -2.4136
 5953TIP3   OH239273   0.084   6.594  16.595  0.0060  0.0167  0.2235
 5953TIP3    H139274   0.081   6.688  16.579 -0.3377  0.0370  0.4102
 5953TIP3    H239275   0.017   6.578  16.662  0.2257 -0.3239  0.3678
 5954TIP3   OH239276   4.857   1.012   0.388 -0.4822 -0.4691 -0.3664
 5954TIP3    H139277   4.764   0.996   0.369 -0.0368 -1.4127 -1.9894
 5954TIP3    H239278   4.857   1.063   0.469 -2.4291 -0.0961 -0.5557
 5955TIP3   OH239279   5.140   2.916  12.853  0.1412 -0.4041 -0.1878
 5955TIP3    H139280   5.112   2.964  12.931 -3.0276 -1.1192 -0.7468
 5955TIP3    H239281   5.129   2.824  12.877  0.0739 -0.6594 -1.1622
 5956TIP3   OH239282   6.179   3.584   2.010  0.0569 -0.4586 -0.0014
 5956TIP3    H139283   6.250   3.520   2.007 -0.6967 -1.2732 -1.8277
 5956TIP3    H239284   6.220   3.663   2.047  1.9160 -0.8976 -0.9727
 5957TIP3   OH239285   2.984   0.537  17.250  0.2883 -0.3907 -0.2970
 5957TIP3    H139286   2.952   0.606  17.307  1.2215 -1.3016  1.4065
 5957TIP3    H239287   3.031   0.584  17.180 -1.0692  0.7450 -0.4898
 5958TIP3   OH239288   4.576   1.359   0.267  0.1406 -0.2471 -0.2575
 5958TIP3    H139289   4.532   1.414   0.332 -0.3401  0.4962 -1.1904
 5958TIP3    H239290   4.537   1.384   0.184  1.1193 -0.8071 -0.9051
 5959TIP3   OH239291   4.042   4.910  13.300 -0.7456  0.1809  0.2831
 5959TIP3    H139292   4.009   4.824  13.275 -0.4763  0.3437 -0.6722
 5959TIP3    H239293   4.027   4.965  13.223 -0.5848  0.9011  0.7527
 5960TIP3   OH239294   4.563   2.269   5.745  0.4192 -0.4838  0.0777
 5960TIP3    H139295   4.618   2.207   5.792 -0.9542 -1.5665  0.3347
 5960TIP3    H239296   4.509   2.309   5.813  0.1231 -0.2538 -0.2869
 5961TIP3   OH239297   4.781   1.309  12.910 -0.6891 -0.0832  0.3092
 5961TIP3    H139298   4.821   1.263  12.983 -0.1088 -1.9962 -1.1338
 5961TIP3    H239299   4.777   1.400  12.938  3.3746  0.0297  1.1306
 5962TIP3   OH239300   0.293   6.782   5.307 -0.2344  0.3298  0.1424
 5962TIP3    H139301   0.255   6.842   5.242  0.6902  0.4854 -0.2670
 5962TIP3    H239302   0.238   6.794   5.385 -0.5051  1.1915 -0.1625
 5963TIP3   OH239303   5.608   4.949  13.453 -0.3351 -0.1110  0.3201
 5963TIP3    H139304   5.519   4.941  13.420  0.5773 -1.8602 -2.0159
 5963TIP3    H239305   5.637   5.036  13.423 -0.9762  0.1295  0.3887
 5964TIP3   OH239306   2.171   6.762  14.955  0.1654 -0.9199  0.0208
 5964TIP3    H139307   2.227   6.737  14.881  0.1790 -0.9068  0.0262
 5964TIP3    H239308   2.083   6.769  14.917  0.4962  1.3535 -0.5205
 5965TIP3   OH239309   5.784   0.448  12.319 -0.0943  0.1156 -0.6696
 5965TIP3    H139310   5.872   0.433  12.355 -0.1080  0.9223 -0.2878
 5965TIP3    H239311   5.797   0.450  12.225  0.3094  0.3171 -0.6105
 5966TIP3   OH239312   6.003   1.553   5.746 -0.2352  0.2156 -0.5840
 5966TIP3    H139313   6.040   1.569   5.832 -1.0126 -0.7563 -0.0364
 5966TIP3    H239314   5.934   1.618   5.736 -0.9383 -0.4143  0.0537
 5967TIP3   OH239315   2.165   4.386   3.901 -0.2545 -0.2796 -0.2497
 5967TIP3    H139316   2.076   4.420   3.909 -0.5748 -0.5280 -2.3879
 5967TIP3    H239317   2.155   4.299   3.864  0.8009 -1.1634  1.4363
 5968TIP3   OH239318   5.736   1.839   0.145 -0.8548  0.1606  0.2880
 5968TIP3    H139319   5.762   1.912   0.088  0.1479  0.1711  0.7489
 5968TIP3    H239320   5.781   1.855   0.228  0.1078 -1.4298  0.1262
 5969TIP3   OH239321   4.566   5.195  14.020 -0.0702 -0.1643 -0.4264
 5969TIP3    H139322   4.653   5.221  13.992  0.3225 -2.3568 -1.4938
 5969TIP3    H239323   4.565   5.099  14.009 -2.7130 -0.1680 -0.8072
 5970TIP3   OH239324   2.375   3.835   0.505 -0.0504  0.7788  0.0738
 5970TIP3    H139325   2.330   3.877   0.431 -0.6259  0.6665  0.3497
 5970TIP3    H239326   2.419   3.906   0.550  1.2546  0.7043 -1.0115
 5971TIP3   OH239327   1.949   2.802  15.013  0.6168  0.7382 -0.1683
 5971TIP3    H139328   2.011   2.821  15.083  2.1109 -1.4475 -0.7948
 5971TIP3    H239329   1.980   2.855  14.939  0.1773  1.5765  0.2265
 5972TIP3   OH239330   0.355   6.120  13.776  0.1584  0.0031  0.4135
 5972TIP3    H139331   0.298   6.065  13.831  0.8973 -0.4709  0.7257
 5972TIP3    H239332   0.298   6.152  13.706 -0.9906  1.1801  1.8209
 5973TIP3   OH239333   3.014   6.430  13.963 -0.8618  0.1697  0.0186
 5973TIP3    H139334   2.943   6.436  13.899 -1.5470 -0.4670  0.7056
 5973TIP3    H239335   2.982   6.477  14.040 -0.1767  0.6379  0.0325
 5974TIP3   OH239336   4.502   3.100   2.988 -0.9995  0.2190 -0.7348
 5974TIP3    H139337   4.490   3.192   3.012 -1.4245 -0.1140  0.3665
 5974TIP3    H239338   4.414   3.070   2.965 -0.8247  0.1349 -1.3150
 5975TIP3   OH239339   2.910   2.978   3.939  0.1771 -0.1190 -0.4417
 5975TIP3    H139340   3.004   2.997   3.929 -0.1160  0.5008 -2.1920
 5975TIP3    H239341   2.907   2.884   3.958  1.1151 -0.3476 -1.3360
 5976TIP3   OH239342   4.311   2.681  13.982  0.2103  0.0951  0.4312
 5976TIP3    H139343   4.235   2.678  13.923 -1.1550  0.1085  2.1182
 5976TIP3    H239344   4.365   2.752  13.948 -0.7085  0.3315 -0.6094
 5977TIP3   OH239345   3.498   3.549  14.533 -0.0801  0.4522  0.0387
 5977TIP3    H139346   3.509   3.642  14.557 -1.2198  0.6271 -0.0907
 5977TIP3    H239347   3.452   3.551  14.450 -0.5662 -0.2396  0.2855
 5978TIP3   OH239348   2.120   0.482   0.116  0.1250  0.4657 -0.2456
 5978TIP3    H139349   2.178   0.557   0.125  0.3022  0.2375  0.7221
 5978TIP3    H239350   2.032   0.517   0.133  0.0783  0.6556 -0.8776
 5979TIP3   OH239351   5.395   2.682   5.086  0.3010 -0.5941  0.3351
 5979TIP3    H139352   5.342   2.745   5.134  0.9384  0.0012  0.2708
 5979TIP3    H239353   5.332   2.620   5.049 -0.5240  1.0674 -1.1717
 5980TIP3   OH239354   0.544   6.407   3.852  0.3430 -0.0969 -0.3308
 5980TIP3    H139355   0.473   6.437   3.796 -0.2433  0.4388  0.6763
 5980TIP3    H239356   0.592   6.344   3.798 -0.8466 -0.4117 -1.0476
 5981TIP3   OH239357   4.852   4.663   6.205  0.7958  0.4173 -0.5100
 5981TIP3    H139358   4.830   4.698   6.291  1.1234  1.7794 -0.9536
 5981TIP3    H239359   4.796   4.586   6.195 -0.9010  1.5367  0.0024
 5982TIP3   OH239360   3.425   4.576  11.020 -0.4694 -0.5346 -0.3234
 5982TIP3    H139361   3.331   4.559  11.026 -0.9026  1.3424 -1.0846
 5982TIP3    H239362   3.431   4.661  10.976  1.5520  0.1082  1.0774
 5983TIP3   OH239363   5.612   3.967  13.185  0.1059 -0.0755 -0.0135
 5983TIP3    H139364   5.690   4.021  13.199  0.3079  1.0183 -4.1296
 5983TIP3    H239365   5.544   4.010  13.236  0.5045  3.6750 -2.3103
 5984TIP3   OH239366   1.180   2.216  14.962  0.0613  0.4338 -0.4171
 5984TIP3    H139367   1.247   2.148  14.951 -0.9371 -0.4835 -1.0979
 5984TIP3    H239368   1.190   2.272  14.885 -1.1793 -0.8497 -1.5825
 5985TIP3   OH239369   5.871   5.982  11.413  0.1044  0.3286  0.0403
 5985TIP3    H139370   5.856   6.053  11.350  1.5583  0.7782  0.1708
 5985TIP3    H239371   5.825   6.010  11.492 -1.3435 -0.0215 -0.6507
 5986TIP3   OH239372   6.000   6.666  10.744  0.8822  0.0323  0.1796
 5986TIP3    H139373   5.964   6.579  10.761 -0.1955  0.1899 -1.1451
 5986TIP3    H239374   5.934   6.727  10.779  2.5264  0.4151  2.9699
 5987TIP3   OH239375   4.565   6.068  10.636  0.6743  0.1214 -0.3836
 5987TIP3    H139376   4.534   6.133  10.573 -2.4498 -0.3756  0.4650
 5987TIP3    H239377   4.611   6.003  10.584 -0.9745  0.2218 -2.0578
 5988TIP3   OH239378   6.060   0.362   2.985  0.3485  0.0911  0.2564
 5988TIP3    H139379   6.144   0.333   2.950  1.0977  2.7009 -0.2871
 5988TIP3    H239380   6.052   0.315   3.068  1.5011 -1.4894 -0.4729
 5989TIP3   OH239381   6.443   6.569   0.837  0.5038  0.1563 -0.0274
 5989TIP3    H139382   6.397   6.626   0.776  1.1242 -0.4048 -1.0494
 5989TIP3    H239383   6.378   6.505   0.865  0.0594  0.7807  0.3881
 5990TIP3   OH239384   4.701   2.379   1.758 -0.2134 -0.6397  0.3449
 5990TIP3    H139385   4.784   2.423   1.779 -0.1740 -0.0873 -0.8505
 5990TIP3    H239386   4.721   2.286   1.767  0.1753 -0.4775  1.3039
 5991TIP3   OH239387   3.432   4.041  10.568  0.3501 -0.5476  0.2176
 5991TIP3    H139388   3.434   4.083  10.654 -1.5587  0.0829 -0.0012
 5991TIP3    H239389   3.495   4.090  10.515  0.2340  0.1924  0.7597
 5992TIP3   OH239390   6.518   3.894   0.204 -0.2377 -0.1192 -0.8599
 5992TIP3    H139391   6.464   3.925   0.132  2.6735 -1.1772 -3.7023
 5992TIP3    H239392   6.494   3.802   0.215 -1.2162  0.2261  0.1532
 5993TIP3   OH239393   1.394   4.533   0.022 -0.0360 -0.3767  0.1358
 5993TIP3    H139394   1.373   4.621   0.054 -0.4263 -0.5575  0.3805
 5993TIP3    H239395   1.350   4.527  -0.063  0.0468 -0.3093  0.0886
 5994TIP3   OH239396   3.098   2.260   3.903 -0.3217  0.3089  0.6558
 5994TIP3    H139397   3.116   2.270   3.809 -0.3533 -0.8730  0.5058
 5994TIP3    H239398   3.140   2.335   3.944  3.0995 -1.1338  0.0879
 5995TIP3   OH239399   2.590   6.146  11.547 -0.1769  0.0672  0.5564
 5995TIP3    H139400   2.615   6.055  11.561 -0.6991 -0.2801 -0.6544
 5995TIP3    H239401   2.651   6.178  11.481  0.3806  0.7921  1.3927
 5996TIP3   OH239402   4.212   2.746  12.648  0.6495  0.0318  0.1717
 5996TIP3    H139403   4.221   2.744  12.553 -1.3879 -1.2607 -0.0754
 5996TIP3    H239404   4.145   2.813  12.664 -4.6708 -4.4313 -0.1709
 5997TIP3   OH239405   6.597   5.247   3.363  0.3486 -0.1253  0.2429
 5997TIP3    H139406   6.617   5.326   3.414  0.6159  0.3143 -0.5238
 5997TIP3    H239407   6.593   5.278   3.273  1.1193 -1.1218 -0.1438
 5998TIP3   OH239408   3.118   1.125  15.497  0.1548  0.1956  0.2003
 5998TIP3    H139409   3.094   1.217  15.498 -0.6592  0.0024  1.9959
 5998TIP3    H239410   3.072   1.087  15.572  2.7637 -1.0735  1.2828
 5999TIP3   OH239411   4.541   3.011   4.592 -0.0285 -0.1155 -0.2831
 5999TIP3    H139412   4.555   2.943   4.658  3.9075  0.6591 -0.0688
 5999TIP3    H239413   4.528   2.963   4.511 -0.6938 -1.0820  0.3661
 6000TIP3   OH239414   5.181   3.996   3.853  0.5652  0.2271  0.2047
 6000TIP3    H139415   5.241   3.949   3.911 -0.7072  0.7628  2.0359
 6000TIP3    H239416   5.104   3.940   3.847  1.1503 -0.4317 -2.0915
 6001TIP3   OH239417   4.415   0.484   4.538  0.0867  0.4931  0.7146
 6001TIP3    H139418   4.449   0.496   4.450 -1.0832  0.6891  0.2740
 6001TIP3    H239419   4.486   0.442   4.586  0.2426 -0.9500 -0.7020
 6002TIP3   OH239420   4.724   3.827   5.515  0.2810 -0.0839  0.2488
 6002TIP3    H139421   4.819   3.818   5.504  0.2695  0.9114 -0.7682
 6002TIP3    H239422   4.690   3.738   5.506  1.0147 -0.2938 -0.4926
 6003TIP3   OH239423   1.966   2.461   6.239 -0.5722  0.3393  0.5140
 6003TIP3    H139424   1.885   2.418   6.264 -0.0886  0.4142  2.3531
 6003TIP3    H239425   1.942   2.553   6.228 -1.1614  0.0110 -1.2360
 6004TIP3   OH239426   1.375   0.786  16.742  0.4936  0.0227 -0.2100
 6004TIP3    H139427   1.409   0.858  16.688 -0.3616  1.8485  1.5508
 6004TIP3    H239428   1.283   0.807  16.754 -0.2893 -2.4739 -1.2252
 6005TIP3   OH239429   1.482   4.785   3.523  0.1088  0.4507  0.4108
 6005TIP3    H139430   1.412   4.840   3.489  0.5923  0.7585 -0.1008
 6005TIP3    H239431   1.559   4.809   3.471  1.1299  1.6671  2.3576
 6006TIP3   OH239432   2.750   1.411   2.358 -0.6190  0.4588  0.0670
 6006TIP3    H139433   2.673   1.446   2.403 -0.4139  0.1484  0.6547
 6006TIP3    H239434   2.736   1.317   2.357 -1.4038  0.5458 -1.9315
 6007TIP3   OH239435   0.917   0.114  12.818  0.0576  0.0527  0.4637
 6007TIP3    H139436   0.892   0.091  12.729 -0.3458  1.2004  0.2595
 6007TIP3    H239437   0.854   0.066  12.873  0.2722 -0.6154  0.1391
 6008TIP3   OH239438   4.560   2.065  13.654 -1.3916 -0.3633 -0.2019
 6008TIP3    H139439   4.548   2.144  13.707  0.6949  0.6003 -1.0356
 6008TIP3    H239440   4.477   2.054  13.608 -2.0523  0.7576  0.6596
 6009TIP3   OH239441   1.138   3.009  13.179  0.1054 -0.0463  0.1772
 6009TIP3    H139442   1.187   3.090  13.178  1.7176 -0.9751  0.3692
 6009TIP3    H239443   1.046   3.036  13.179  0.6014  1.7465  0.0524
 6010TIP3   OH239444   0.736   1.374   6.142 -0.3001 -0.2572  0.2089
 6010TIP3    H139445   0.818   1.325   6.144 -0.2514 -0.1593  1.1806
 6010TIP3    H239446   0.673   1.317   6.186 -0.0474  0.8512  2.1187
 6011TIP3   OH239447   0.317   4.126  17.211 -0.3485 -0.0312  0.9159
 6011TIP3    H139448   0.363   4.126  17.127  0.1173  2.5018  1.0694
 6011TIP3    H239449   0.377   4.169  17.271 -1.1730 -0.6742  2.2468
 6012TIP3   OH239450   5.347   3.006   5.298  0.0419  0.5244  0.3258
 6012TIP3    H139451   5.354   3.057   5.218 -2.1627  0.3283 -0.0362
 6012TIP3    H239452   5.324   3.069   5.366 -0.5374  0.3475  0.3013
 6013TIP3   OH239453   5.106   3.142   2.308 -0.2626  0.5650 -0.8282
 6013TIP3    H139454   5.029   3.173   2.356  0.7117 -0.3492  1.4583
 6013TIP3    H239455   5.173   3.208   2.325 -0.3476  1.1092 -2.4137
 6014TIP3   OH239456   4.528   1.778  14.281 -0.7375 -0.0930 -0.5386
 6014TIP3    H139457   4.530   1.762  14.186 -3.1564 -0.3161 -0.6251
 6014TIP3    H239458   4.599   1.723  14.316 -0.5598 -0.9342 -2.1141
 6015TIP3   OH239459   4.707   5.779   1.858  0.0379  0.2632  0.3299
 6015TIP3    H139460   4.722   5.873   1.856  0.8538  0.1408  0.3770
 6015TIP3    H239461   4.686   5.760   1.950  1.8999  0.1175  0.7654
 6016TIP3   OH239462   1.023   2.854  14.273  0.3152  0.0019  0.6207
 6016TIP3    H139463   0.940   2.813  14.247  0.3332 -0.2312  0.9234
 6016TIP3    H239464   1.002   2.947  14.279  0.4589  0.1394 -0.7820
 6017TIP3   OH239465   6.032   3.429  15.329  0.3171 -0.2080  0.6537
 6017TIP3    H139466   5.967   3.405  15.263 -0.6315  0.6998  1.2221
 6017TIP3    H239467   5.981   3.444  15.409  1.0981  1.3684  0.9092
 6018TIP3   OH239468   5.380   3.415  11.956  0.0343 -0.0522 -0.4390
 6018TIP3    H139469   5.309   3.424  12.020  0.6876  0.2008  0.2714
 6018TIP3    H239470   5.407   3.505  11.939  0.4326 -0.1696 -0.4230
 6019TIP3   OH239471   1.675   0.198   3.614 -0.0561 -0.4095 -0.6050
 6019TIP3    H139472   1.621   0.129   3.653  0.3280 -1.3044 -1.5857
 6019TIP3    H239473   1.662   0.187   3.520  0.4312  0.5313 -0.7869
 6020TIP3   OH239474   2.141   4.532  14.061  0.0335 -0.7861 -0.4050
 6020TIP3    H139475   2.103   4.474  13.995 -0.0859 -1.4760  0.2574
 6020TIP3    H239476   2.221   4.565  14.021  0.4400 -1.9166 -0.5608
 6021TIP3   OH239477   3.738   5.006   5.696  0.5681 -0.5789 -0.2894
 6021TIP3    H139478   3.776   4.990   5.782 -0.1059  0.0678  0.1440
 6021TIP3    H239479   3.666   5.067   5.712 -0.5049 -1.5796 -1.1159
 6022TIP3   OH239480   0.489   1.068   2.582 -0.1639 -0.4829  0.3443
 6022TIP3    H139481   0.492   0.981   2.541 -2.0075 -0.0416 -0.8346
 6022TIP3    H239482   0.492   1.129   2.508 -1.8290  0.3839  0.9574
 6023TIP3   OH239483   2.356   1.144   6.351 -0.1658 -0.1487  0.8765
 6023TIP3    H139484   2.266   1.171   6.370 -0.6191 -0.9010 -0.1171
 6023TIP3    H239485   2.358   1.051   6.372 -0.0488 -0.4784 -0.4897
 6024TIP3   OH239486   1.213   1.386   4.368 -0.4701  0.0927 -0.0359
 6024TIP3    H139487   1.283   1.325   4.393  0.3988  1.1090  0.0969
 6024TIP3    H239488   1.153   1.333   4.316  0.0663 -0.9651  0.3780
 6025TIP3   OH239489   3.642   1.632  12.719 -0.0387 -0.4948  0.5123
 6025TIP3    H139490   3.639   1.621  12.624 -0.6150 -1.5203  0.6304
 6025TIP3    H239491   3.640   1.726  12.733 -0.0009 -0.3418 -0.4933
 6026TIP3   OH239492   1.145   1.668  15.112  0.3972 -0.1782 -0.1044
 6026TIP3    H139493   1.125   1.575  15.117  1.3736 -0.3632  0.6625
 6026TIP3    H239494   1.071   1.711  15.155 -0.2625 -0.5636 -0.8381
 6027TIP3   OH239495   5.380   2.435   0.260 -0.0057  0.1539 -0.1274
 6027TIP3    H139496   5.301   2.383   0.275  1.0111 -1.9704 -1.6648
 6027TIP3    H239497   5.356   2.494   0.188  0.1091 -1.3569 -1.4636
 6028TIP3   OH239498   3.183   3.687   1.221 -0.0382 -0.4570  0.2943
 6028TIP3    H139499   3.165   3.643   1.304  1.0183 -0.4001  0.5688
 6028TIP3    H239500   3.275   3.667   1.203  0.3174  1.1768  0.1466
 6029TIP3   OH239501   1.606   1.282  14.800 -0.0385  0.2495  0.0750
 6029TIP3    H139502   1.637   1.327  14.878  1.9636  1.8347 -1.5383
 6029TIP3    H239503   1.683   1.237  14.765 -1.2576 -1.8211 -0.1457
 6030TIP3   OH239504   6.299   4.668  14.040 -0.2960  0.0188 -0.0207
 6030TIP3    H139505   6.272   4.697  14.127  0.4726  0.5528  0.0473
 6030TIP3    H239506   6.345   4.586  14.055  2.9117  1.7626  0.5435
 6031TIP3   OH239507   4.143   6.264   2.747 -0.3448  0.8383 -0.1996
 6031TIP3    H139508   4.078   6.313   2.696 -1.7948 -1.4943 -0.7117
 6031TIP3    H239509   4.119   6.281   2.838 -0.4516  1.5369 -0.3504
 6032TIP3   OH239510   4.425   4.986  12.709  0.4829  0.3579  0.2374
 6032TIP3    H139511   4.341   5.032  12.705 -0.8027 -1.9009 -0.5829
 6032TIP3    H239512   4.476   5.023  12.637  0.8278  2.7268  1.5660
 6033TIP3   OH239513   3.423   0.927   2.864 -0.0980 -0.0844 -0.4858
 6033TIP3    H139514   3.455   0.963   2.781  0.5736 -0.5133 -0.4176
 6033TIP3    H239515   3.501   0.900   2.911 -0.5229 -0.6017 -0.0592
 6034TIP3   OH239516   3.288   2.136   0.590 -0.3318  0.0363 -0.2002
 6034TIP3    H139517   3.245   2.187   0.521  0.3332  2.6132  1.1724
 6034TIP3    H239518   3.376   2.174   0.598  0.2233 -1.3744  0.8594
 6035TIP3   OH239519   1.497   1.776  11.802  0.3877  0.2165 -0.3736
 6035TIP3    H139520   1.412   1.787  11.758 -0.1468  2.1784  1.0274
 6035TIP3    H239521   1.534   1.697  11.763 -1.2850  0.3115 -2.3135
 6036TIP3   OH239522   5.679   6.210   3.098 -0.7666 -0.4181 -0.3016
 6036TIP3    H139523   5.669   6.295   3.055 -0.8945 -0.8261 -1.0994
 6036TIP3    H239524   5.772   6.205   3.121 -1.3120  1.3732  2.8674
 6037TIP3   OH239525   2.578   4.908   5.139 -0.1948 -0.0181  0.4911
 6037TIP3    H139526   2.573   4.818   5.107 -1.9032  0.0352  0.5538
 6037TIP3    H239527   2.568   4.899   5.234 -2.4403  0.3483  0.3395
 6038TIP3   OH239528   5.968   6.510   6.795 -0.6871 -0.3088 -0.5884
 6038TIP3    H139529   6.024   6.437   6.770 -2.0862 -1.3019 -0.9964
 6038TIP3    H239530   6.009   6.587   6.757  2.2097 -0.4080  1.9238
 6039TIP3   OH239531   4.221   3.682  16.022 -0.3376 -0.2853 -0.2527
 6039TIP3    H139532   4.276   3.653  15.949  0.2891 -2.0686  0.8895
 6039TIP3    H239533   4.178   3.602  16.053 -0.7523  0.4819  1.2143
 6040TIP3   OH239534   4.758   5.177  12.372  0.1792 -0.4589  0.2464
 6040TIP3    H139535   4.820   5.158  12.442  0.7994 -0.5346 -0.3092
 6040TIP3    H239536   4.771   5.107  12.308 -0.2244 -0.2767 -0.0494
 6041TIP3   OH239537   2.528   0.225  14.231  0.1204  0.7420 -0.1428
 6041TIP3    H139538   2.509   0.202  14.140 -1.5549  1.4721 -0.0236
 6041TIP3    H239539   2.621   0.208  14.242  0.5175  1.3723 -2.2207
 6042TIP3   OH239540   5.340   0.247  12.026 -0.3666  0.0594 -0.5303
 6042TIP3    H139541   5.425   0.206  12.015 -0.3565 -0.0513 -0.0450
 6042TIP3    H239542   5.356   0.322  12.083 -0.5516  0.1850 -0.6405
 6043TIP3   OH239543   5.145   2.871   4.121  0.8577 -0.1822  0.1840
 6043TIP3    H139544   5.193   2.846   4.043 -1.1414 -0.2260 -1.0930
 6043TIP3    H239545   5.169   2.962   4.136  0.8728 -0.0108 -0.8152
 6044TIP3   OH239546   0.206   3.150  13.017 -0.0230  0.5665 -0.1497
 6044TIP3    H139547   0.122   3.157  12.972 -0.4904  1.3111  0.8160
 6044TIP3    H239548   0.188   3.091  13.091  0.2443  0.8821  0.1709
 6045TIP3   OH239549   0.421   4.337   5.057  0.6732  0.0456 -0.4397
 6045TIP3    H139550   0.466   4.416   5.089  1.4899 -0.7769  0.5049
 6045TIP3    H239551   0.462   4.265   5.104 -2.2495 -0.7135  1.1873
 6046TIP3   OH239552   4.272   2.701  17.081 -0.2880  0.5706 -0.0627
 6046TIP3    H139553   4.215   2.722  17.154  0.0140  1.1221  0.0152
 6046TIP3    H239554   4.343   2.765  17.086  0.4885 -0.2694  0.0026
 6047TIP3   OH239555   2.569   3.732   3.678 -0.0344  0.3233  0.3152
 6047TIP3    H139556   2.529   3.729   3.765 -0.1728 -1.2279  0.2196
 6047TIP3    H239557   2.663   3.736   3.694  0.3447 -4.5042  0.7084
 6048TIP3   OH239558   3.644   0.017   4.320  0.0256 -0.0076 -0.5661
 6048TIP3    H139559   3.616  -0.026   4.401  0.9292 -0.0882 -0.2834
 6048TIP3    H239560   3.581  -0.012   4.254  1.1401 -2.6114 -0.6227
 6049TIP3   OH239561   4.757   3.975  11.943 -0.0162 -0.1219 -0.7424
 6049TIP3    H139562   4.736   4.057  11.898  0.8727 -0.2521 -1.4225
 6049TIP3    H239563   4.739   3.993  12.036 -1.8936  0.1413 -1.1139
 6050TIP3   OH239564   6.605   2.087  10.887 -0.1057  0.3195 -0.2578
 6050TIP3    H139565   6.634   2.037  10.810  1.7933  0.3471  0.3886
 6050TIP3    H239566   6.659   2.166  10.885  0.2748  0.1246  1.3250
 6051TIP3   OH239567   4.017   4.406   2.067  0.1048  0.0663 -0.2425
 6051TIP3    H139568   4.019   4.486   2.015 -0.5954 -0.3114 -0.8627
 6051TIP3    H239569   4.055   4.339   2.010  0.9574 -0.0025  0.3763
 6052TIP3   OH239570   6.332   2.605   2.894 -0.1429  0.8905 -0.2783
 6052TIP3    H139571   6.326   2.520   2.850 -2.9189  1.2655 -0.8297
 6052TIP3    H239572   6.424   2.629   2.888  0.3967 -1.2412 -1.7238
 6053TIP3   OH239573   3.333   4.711   4.196 -0.2314  1.4073 -0.3797
 6053TIP3    H139574   3.270   4.717   4.268 -0.3099 -1.4707 -0.0857
 6053TIP3    H239575   3.279   4.704   4.118 -0.1744  2.2865 -0.5125
 6054TIP3   OH239576   5.919   4.908   0.612  0.6081  0.2364  0.5878
 6054TIP3    H139577   5.991   4.879   0.557 -0.0993  1.4087 -1.0392
 6054TIP3    H239578   5.960   4.961   0.680  1.2851  1.1874 -0.5260
 6055TIP3   OH239579   4.302   1.239   1.639  0.4780  0.3080  0.2836
 6055TIP3    H139580   4.230   1.261   1.580  0.7811 -0.1324 -0.2658
 6055TIP3    H239581   4.273   1.161   1.686 -0.2523  1.3408  1.6151
 6056TIP3   OH239582   4.388   3.693  15.789  0.2091 -0.2230 -0.0563
 6056TIP3    H139583   4.373   3.725  15.700 -0.9368  0.4950  0.3663
 6056TIP3    H239584   4.483   3.692  15.799  0.4174 -1.4952 -1.6867
 6057TIP3   OH239585   5.225   5.076  10.231  0.2415  0.0462 -0.2800
 6057TIP3    H139586   5.171   5.050  10.305  0.9265 -0.1737  0.1591
 6057TIP3    H239587   5.216   5.172  10.227  0.1195  0.0490  0.0232
 6058TIP3   OH239588   5.834   4.375  12.577 -0.1757 -0.0924  0.4491
 6058TIP3    H139589   5.804   4.305  12.636 -2.8536 -0.1109 -0.8044
 6058TIP3    H239590   5.847   4.331  12.493  0.0420  0.5611  0.1358
 6059TIP3   OH239591   0.154   5.735   0.503 -0.5740 -0.6694 -0.2926
 6059TIP3    H139592   0.063   5.711   0.519 -1.0304  1.2446  0.2237
 6059TIP3    H239593   0.164   5.821   0.542  1.9712 -1.5294  1.2546
 6060TIP3   OH239594   4.654   6.188   5.329 -0.5804 -0.3136  0.1953
 6060TIP3    H139595   4.746   6.163   5.316 -0.6652 -0.6994  0.3356
 6060TIP3    H239596   4.656   6.249   5.402 -0.6299 -1.6806  1.3832
 6061TIP3   OH239597   6.134   0.280  16.809 -0.2429  0.2132 -0.4799
 6061TIP3    H139598   6.160   0.372  16.810 -1.1471  0.4741  0.9007
 6061TIP3    H239599   6.075   0.273  16.734 -2.5702  1.4903  1.1328
 6062TIP3   OH239600   6.558   4.637   4.219  0.2384 -0.2040  0.6090
 6062TIP3    H139601   6.580   4.612   4.130 -0.0518 -1.5554  0.8935
 6062TIP3    H239602   6.552   4.554   4.267 -0.6869  0.4199  1.6339
 6063TIP3   OH239603   2.712   1.012  11.722  0.2099 -0.2353 -0.3754
 6063TIP3    H139604   2.635   0.986  11.673  0.9125 -1.3335 -0.9300
 6063TIP3    H239605   2.709   0.960  11.802  0.2135 -0.0473 -0.2521
 6064TIP3   OH239606   0.029   2.513  12.149 -0.2684  0.1849 -0.4154
 6064TIP3    H139607   0.096   2.497  12.215  0.0725 -2.0702 -1.1975
 6064TIP3    H239608   0.008   2.606  12.158 -1.8222 -0.3513  4.2994
 6065TIP3   OH239609   4.685   4.948   1.509  0.0405  0.2194  0.3048
 6065TIP3    H139610   4.654   5.031   1.545  0.4216  0.1680  0.7645
 6065TIP3    H239611   4.696   4.965   1.415  0.4272  0.7855  0.4518
 6066TIP3   OH239612   1.188   1.901  14.709 -0.3200 -0.5288 -0.0331
 6066TIP3    H139613   1.283   1.890  14.708 -0.4608 -1.9205  0.0481
 6066TIP3    H239614   1.154   1.819  14.675 -1.5371 -0.6832  1.4523
 6067TIP3   OH239615   1.734   6.671  15.111 -0.0480 -0.3963 -0.4579
 6067TIP3    H139616   1.679   6.749  15.101  0.1948 -0.4030 -2.1531
 6067TIP3    H239617   1.764   6.674  15.202  0.5723  1.9124 -0.6798
 6068TIP3   OH239618   5.996   0.508  11.353 -0.6716  0.3802 -0.2331
 6068TIP3    H139619   5.959   0.584  11.396 -1.5163 -1.1205  1.8748
 6068TIP3    H239620   5.921   0.450  11.337  0.0783 -0.4738 -0.8125
 6069TIP3   OH239621   4.003   6.587  12.919 -0.3025 -0.0029 -0.1240
 6069TIP3    H139622   4.027   6.530  12.992 -1.2869  0.7086  0.7927
 6069TIP3    H239623   4.055   6.666  12.932  1.6836 -0.9079 -1.8533
 6070TIP3   OH239624   6.145   2.562  14.933  0.0293 -0.3172 -0.4132
 6070TIP3    H139625   6.140   2.518  14.848 -0.1702 -0.1137 -0.5070
 6070TIP3    H239626   6.172   2.652  14.912 -1.8622  0.3028 -0.4622
 6071TIP3   OH239627   2.377   1.787   1.659  0.1539 -0.1061  0.5411
 6071TIP3    H139628   2.340   1.853   1.718 -0.4512 -1.1557  1.3872
 6071TIP3    H239629   2.315   1.783   1.586  1.3845  1.8557 -0.6815
 6072TIP3   OH239630   2.525   0.627  12.872  0.1650 -0.4041  0.0382
 6072TIP3    H139631   2.508   0.717  12.845 -0.0131 -0.6944 -0.8237
 6072TIP3    H239632   2.620   0.617  12.866  0.1299 -0.4504 -0.4188
 6073TIP3   OH239633   5.319   2.664  13.092  0.2445 -0.0567  0.2160
 6073TIP3    H139634   5.379   2.647  13.019 -0.5589  2.3823 -1.1042
 6073TIP3    H239635   5.233   2.675  13.051 -0.7441 -1.2301  1.8471
 6074TIP3   OH239636   3.546   4.422  12.169  0.0765  0.1945  0.2205
 6074TIP3    H139637   3.483   4.478  12.215  0.2060  0.7056 -0.2242
 6074TIP3    H239638   3.617   4.410  12.231 -0.5711 -0.6176  0.8401
 6075TIP3   OH239639   4.830   4.048   4.503  0.2125 -0.1794 -0.1351
 6075TIP3    H139640   4.904   4.051   4.442 -0.8243  0.6518 -1.4010
 6075TIP3    H239641   4.756   4.021   4.449 -0.9708  1.6567  0.4835
 6076TIP3   OH239642   1.756   4.388  11.952 -0.2343  0.0117  0.1776
 6076TIP3    H139643   1.757   4.357  12.043  0.9869  1.1976  0.5981
 6076TIP3    H239644   1.685   4.339  11.911 -0.0151 -1.4515  1.4538
 6077TIP3   OH239645   0.249   5.489  11.575 -0.6309 -0.2358  0.2395
 6077TIP3    H139646   0.213   5.481  11.664 -0.8116 -2.9186  0.0010
 6077TIP3    H239647   0.196   5.430  11.522  0.6301 -0.0599 -1.2939
 6078TIP3   OH239648   2.463   5.573  13.982  0.5702  0.4721  0.0298
 6078TIP3    H139649   2.391   5.623  13.943  0.7287  1.0405  0.4408
 6078TIP3    H239650   2.542   5.612  13.945  0.7440  1.3736  1.2860
 6079TIP3   OH239651   4.043   1.496   3.453 -0.2750  0.3899  0.4750
 6079TIP3    H139652   3.998   1.577   3.477  1.6057  1.6248 -0.0134
 6079TIP3    H239653   4.030   1.439   3.529 -1.4734  1.1816  0.9061
 6080TIP3   OH239654   4.249   3.722   1.271 -0.1367  0.4974  0.5098
 6080TIP3    H139655   4.193   3.716   1.348 -0.1503  2.8189  0.7357
 6080TIP3    H239656   4.320   3.781   1.297  0.8682 -0.1363 -0.6835
 6081TIP3   OH239657   5.515   5.525  14.362  0.0642 -0.1918 -0.0195
 6081TIP3    H139658   5.454   5.455  14.381 -0.2705  0.1964  0.3441
 6081TIP3    H239659   5.525   5.523  14.267  1.4042 -1.8572  0.1034
 6082TIP3   OH239660   6.090   1.074  13.838 -0.3707  0.0760  0.0890
 6082TIP3    H139661   6.016   1.080  13.898 -1.1893  1.6922 -1.0051
 6082TIP3    H239662   6.140   1.153  13.854  0.3332 -0.3054 -0.1898
 6083TIP3   OH239663   2.167   4.325   1.458 -0.0112 -0.2268  0.0734
 6083TIP3    H139664   2.103   4.254   1.459 -1.0730  0.7138  0.4993
 6083TIP3    H239665   2.196   4.330   1.366 -0.8499 -0.3943 -0.2079
 6084TIP3   OH239666   0.327   5.765  11.576 -0.1119  0.3173 -0.6039
 6084TIP3    H139667   0.410   5.782  11.531 -0.0072  0.2631 -0.4328
 6084TIP3    H239668   0.298   5.681  11.541  0.4722 -0.2171  0.1568
 6085TIP3   OH239669   5.789   2.039  15.771  0.1540  0.4776  0.4067
 6085TIP3    H139670   5.711   2.054  15.825  0.4440  0.6465  0.7862
 6085TIP3    H239671   5.832   2.124  15.767  0.8705  0.1602  1.0834
 6086TIP3   OH239672   5.956   3.360   0.531  0.4371  0.4573 -0.2947
 6086TIP3    H139673   5.887   3.424   0.546  0.4765  0.6604 -0.9560
 6086TIP3    H239674   6.028   3.411   0.493  0.8569  0.2047  0.1508
 6087TIP3   OH239675   3.238   5.302   4.743  0.4085 -0.0688 -0.6389
 6087TIP3    H139676   3.150   5.273   4.720 -0.3569 -2.1476  3.8808
 6087TIP3    H239677   3.295   5.231   4.713  0.1783 -0.1055 -0.9970
 6088TIP3   OH239678   1.677   4.772  13.654 -0.2296  0.7255 -0.2237
 6088TIP3    H139679   1.744   4.828  13.613 -1.2745  0.9073 -1.7901
 6088TIP3    H239680   1.631   4.830  13.714  0.4367  0.8322  0.1928
 6089TIP3   OH239681   2.857   4.433   5.036 -0.0394  0.2205  0.4766
 6089TIP3    H139682   2.902   4.350   5.050  0.1792  0.6959  3.0067
 6089TIP3    H239683   2.925   4.492   5.005  0.5338  0.2463  1.7234
 6090TIP3   OH239684   3.717   1.368   0.951  0.4769 -0.5518  0.4253
 6090TIP3    H139685   3.795   1.421   0.967  0.4185 -0.4553  0.3886
 6090TIP3    H239686   3.735   1.325   0.867 -0.2386  0.8146 -0.4719
 6091TIP3   OH239687   6.664   6.757  15.626  0.6876 -0.1003 -0.2422
 6091TIP3    H139688   6.568   6.754  15.626  0.6559 -2.2875  2.2858
 6091TIP3    H239689   6.690   6.698  15.555  0.0840 -1.5388  0.6780
 6092TIP3   OH239690   1.156   5.808   4.915  0.6330  0.5544  0.1491
 6092TIP3    H139691   1.088   5.746   4.941  0.8026  0.5631  0.6178
 6092TIP3    H239692   1.108   5.884   4.883  0.4170 -0.0984 -1.1424
 6093TIP3   OH239693   3.847   5.056  11.623 -0.1362  0.3961  0.1557
 6093TIP3    H139694   3.807   5.040  11.709 -0.1371  0.0785  0.0941
 6093TIP3    H239695   3.812   5.141  11.596 -0.5334  0.2580  0.2374
 6094TIP3   OH239696   1.378   6.718   4.228  0.0094  0.2284  0.0048
 6094TIP3    H139697   1.364   6.811   4.213 -1.3498  0.3056  1.4124
 6094TIP3    H239698   1.336   6.674   4.155  0.9205  0.7014 -0.8229
 6095TIP3   OH239699   3.562   3.821   2.857  0.1378  0.0343  0.3992
 6095TIP3    H139700   3.615   3.901   2.853 -0.4819  0.4489  0.2613
 6095TIP3    H239701   3.488   3.839   2.800 -0.6756 -0.1381  1.3697
 6096TIP3   OH239702   3.088   5.484  11.361 -0.5699  0.0293 -0.2903
 6096TIP3    H139703   3.038   5.535  11.424  0.4707 -0.6137  1.1096
 6096TIP3    H239704   3.036   5.405  11.348 -0.0077 -0.6056  1.1070
 6097TIP3   OH239705   6.588   1.312   0.395 -0.3724 -0.0098  0.3121
 6097TIP3    H139706   6.566   1.257   0.320  0.1306 -0.7537  0.6991
 6097TIP3    H239707   6.594   1.400   0.359 -1.4435 -0.1510 -0.2742
 6098TIP3   OH239708   3.902   1.519   3.238 -0.2668  0.0575 -0.6162
 6098TIP3    H139709   3.975   1.496   3.295 -1.0157 -1.2542 -0.1515
 6098TIP3    H239710   3.836   1.556   3.296  0.0185  1.2852 -1.0409
 6099TIP3   OH239711   2.167   3.402  10.646  0.2672  0.9972 -0.5830
 6099TIP3    H139712   2.206   3.483  10.680 -0.5797 -0.0736  3.4179
 6099TIP3    H239713   2.241   3.351  10.615  1.3608  1.5291  1.0442
 6100TIP3   OH239714   3.685   1.797  12.188  0.0588 -0.1504 -0.0523
 6100TIP3    H139715   3.619   1.732  12.210 -0.3405  0.4096  0.4511
 6100TIP3    H239716   3.768   1.755  12.210 -0.2256 -0.2953  0.7828
 6101TIP3   OH239717   3.958   5.282   6.159 -0.5332  0.3994  0.0159
 6101TIP3    H139718   3.880   5.264   6.107  0.2905 -0.6915 -0.8944
 6101TIP3    H239719   4.002   5.197   6.167  1.3784  1.2305 -0.8812
 6102TIP3   OH239720   1.836   3.595   4.996 -0.1214 -0.5391  0.1508
 6102TIP3    H139721   1.785   3.550   4.928 -1.1095 -0.5810  0.8952
 6102TIP3    H239722   1.875   3.524   5.047 -1.7939 -0.5997  1.4106
 6103TIP3   OH239723   2.231   2.839  17.072 -0.2771 -0.3218 -0.0381
 6103TIP3    H139724   2.315   2.808  17.105 -0.9998 -1.5608  0.7120
 6103TIP3    H239725   2.250   2.873  16.985  0.8232 -1.6109 -0.3270
 6104TIP3   OH239726   2.367   5.133  15.105  0.5597  0.4777 -0.3569
 6104TIP3    H139727   2.313   5.068  15.149 -2.0927  1.7695 -1.4954
 6104TIP3    H239728   2.422   5.169  15.174 -0.1888 -0.7423  0.9191
 6105TIP3   OH239729   3.553   2.492  15.776  0.2337  0.6498 -0.0821
 6105TIP3    H139730   3.515   2.416  15.731  1.9485  0.0896 -0.6618
 6105TIP3    H239731   3.563   2.558  15.707 -1.7126  1.6399  0.5140
 6106TIP3   OH239732   2.172   1.485   2.167  0.1849 -0.3530 -0.2730
 6106TIP3    H139733   2.130   1.547   2.227  2.3380  0.3208  0.6311
 6106TIP3    H239734   2.211   1.541   2.100  3.1969 -0.4835  1.2038
 6107TIP3   OH239735   4.274   6.411   3.330 -0.8028  0.1709  0.2965
 6107TIP3    H139736   4.261   6.461   3.250 -1.4986 -0.5195 -0.0327
 6107TIP3    H239737   4.224   6.459   3.397 -3.1439 -1.1053 -0.4313
 6108TIP3   OH239738   3.382   0.901   0.010  0.1676  0.2691 -0.2075
 6108TIP3    H139739   3.452   0.840   0.032 -0.0599 -0.0441 -0.3518
 6108TIP3    H239740   3.426   0.986   0.004  0.5136  0.0956 -0.1763
 6109TIP3   OH239741   1.038   5.784  14.453 -0.2677 -0.2707  0.4586
 6109TIP3    H139742   1.132   5.797  14.436 -0.5544  1.9072  0.1981
 6109TIP3    H239743   1.000   5.775  14.366 -0.2372 -1.9777  0.5955
 6110TIP3   OH239744   3.016   4.161   4.945 -0.1882 -0.2658  0.0183
 6110TIP3    H139745   2.977   4.201   4.866 -0.2843  0.9157  0.6377
 6110TIP3    H239746   3.099   4.126   4.915 -0.2789  0.0628 -0.6444
 6111TIP3   OH239747   6.119   5.562   1.790 -0.9949  0.3922  0.1379
 6111TIP3    H139748   6.117   5.535   1.698  0.7769 -0.5919  0.3360
 6111TIP3    H239749   6.118   5.658   1.787  0.2861  0.4014 -1.0012
 6112TIP3   OH239750   4.049   1.653  17.034 -0.1021 -0.2885  0.1206
 6112TIP3    H139751   4.061   1.645  17.129  0.3237 -0.1834  0.0801
 6112TIP3    H239752   4.014   1.741  17.022  0.5760 -0.0078  0.1275
 6113TIP3   OH239753   0.797   3.908   3.961  0.4258  0.3251  0.1972
 6113TIP3    H139754   0.721   3.918   4.019  1.8380  1.7893  1.9134
 6113TIP3    H239755   0.821   3.816   3.969 -0.6993  0.0195  0.2188
 6114TIP3   OH239756   1.851   4.953   3.580 -0.1213 -0.3135  0.1857
 6114TIP3    H139757   1.874   4.887   3.515 -1.4562 -0.8776  0.2506
 6114TIP3    H239758   1.882   4.916   3.663  0.6455 -0.0686  0.0170
 6115TIP3   OH239759   6.536   0.825  14.357 -0.4992  0.1970 -0.4219
 6115TIP3    H139760   6.465   0.856  14.413 -1.7858 -1.1900 -1.1954
 6115TIP3    H239761   6.600   0.787  14.417 -1.4887 -0.5582  0.1821
 6116TIP3   OH239762   2.897   0.058  13.042  0.0403 -0.0296  0.3578
 6116TIP3    H139763   2.915  -0.028  13.003  0.2562 -0.1497  0.7172
 6116TIP3    H239764   2.977   0.079  13.091  1.3141  1.8480 -2.2985
 6117TIP3   OH239765   3.930   0.637  13.820 -0.1802  0.2586  0.9802
 6117TIP3    H139766   3.931   0.561  13.762 -0.5429  0.2061  1.0383
 6117TIP3    H239767   4.016   0.678  13.809 -0.2122  0.1956  0.4774
 6118TIP3   OH239768   4.696   5.096   3.756 -0.2484  0.0358  0.0711
 6118TIP3    H139769   4.784   5.105   3.720 -0.3495 -2.5649 -1.0567
 6118TIP3    H239770   4.666   5.010   3.724 -2.6478  0.2286  1.5869
 6119TIP3   OH239771   4.030   4.436   4.026  0.2690 -0.1607  0.2050
 6119TIP3    H139772   3.970   4.506   3.999  0.4369  0.4144  1.2783
 6119TIP3    H239773   4.104   4.482   4.067 -0.4259 -0.9776  2.5569
 6120TIP3   OH239774   1.582   0.764  14.863  0.4304  0.1608  0.4249
 6120TIP3    H139775   1.564   0.856  14.881  0.9492  0.5388 -0.8403
 6120TIP3    H239776   1.520   0.716  14.918  1.1339  1.1998  2.1980
 6121TIP3   OH239777   1.795   5.713   2.691  0.8624  0.0977 -0.5599
 6121TIP3    H139778   1.724   5.689   2.632 -1.1231 -0.3591  1.8773
 6121TIP3    H239779   1.819   5.631   2.735  0.8548  0.7573  0.7260
 6122TIP3   OH239780   5.127   1.227   5.213 -0.4500 -0.3391  0.8043
 6122TIP3    H139781   5.118   1.296   5.147 -2.2028  0.4484  1.7844
 6122TIP3    H239782   5.185   1.163   5.173 -1.8929 -0.1915 -1.7791
 6123TIP3   OH239783   3.338   0.056  14.124  0.3994  0.0849  0.5390
 6123TIP3    H139784   3.268   0.055  14.189  0.2493 -0.3989  0.3671
 6123TIP3    H239785   3.299   0.098  14.047  0.4142  0.1588  0.5713
 6124TIP3   OH239786   1.243   0.587   1.380 -0.0965  0.0828 -0.9212
 6124TIP3    H139787   1.216   0.516   1.438  0.7561  1.0003  0.6903
 6124TIP3    H239788   1.311   0.633   1.430 -1.0804  2.4121 -1.6224
 6125TIP3   OH239789   6.464   4.630  10.826 -0.3954 -0.1038 -0.2667
 6125TIP3    H139790   6.482   4.724  10.836 -2.2898  0.1328  1.3599
 6125TIP3    H239791   6.445   4.599  10.914  0.2361 -2.0756 -0.7598
 6126TIP3   OH239792   5.722   1.553   0.238 -0.2866 -0.1905 -0.4041
 6126TIP3    H139793   5.698   1.645   0.235 -2.3651 -0.4576  2.9259
 6126TIP3    H239794   5.639   1.506   0.229  0.7674 -1.8498 -2.4341
 6127TIP3   OH239795   4.712   2.893   1.309  0.0194 -0.0578 -0.6124
 6127TIP3    H139796   4.721   2.798   1.301 -2.7695 -0.2643 -3.0748
 6127TIP3    H239797   4.784   2.928   1.255 -0.6857 -0.9101 -2.1717
 6128TIP3   OH239798   1.790   6.423   0.997  0.1184  0.0458  0.3542
 6128TIP3    H139799   1.704   6.409   1.037  0.0149  1.0089  0.4960
 6128TIP3    H239800   1.834   6.338   1.004 -1.1833 -0.7431 -0.6340
 6129TIP3   OH239801   2.181   3.716  16.782 -0.5625  0.0197 -0.0398
 6129TIP3    H139802   2.099   3.706  16.733 -0.9250  0.2696  0.5031
 6129TIP3    H239803   2.236   3.770  16.725 -0.5087 -0.7252 -0.7080
 6130TIP3   OH239804   3.164   6.369  12.008  0.4860 -0.1044 -0.0601
 6130TIP3    H139805   3.152   6.342  11.917  0.7741  1.6584 -0.6586
 6130TIP3    H239806   3.224   6.304  12.045 -0.4423 -1.4483 -0.7948
 6131TIP3   OH239807   3.823   2.138   0.373  0.1650  0.5999 -0.4962
 6131TIP3    H139808   3.839   2.187   0.454 -2.0688  0.3439  0.1638
 6131TIP3    H239809   3.893   2.073   0.371  0.2948  0.6295  1.2373
 6132TIP3   OH239810   6.536   4.824  16.567  0.1588 -0.2024  0.4499
 6132TIP3    H139811   6.456   4.808  16.617  0.6074 -2.7501  0.4791
 6132TIP3    H239812   6.506   4.851  16.480 -0.6736  0.6638  0.9906
 6133TIP3   OH239813   1.379   2.864  13.742 -0.0850  0.4030  0.5319
 6133TIP3    H139814   1.352   2.875  13.651 -0.4131  1.1801  0.7123
 6133TIP3    H239815   1.417   2.776  13.746 -2.1084 -0.5320  0.1486
 6134TIP3   OH239816   6.000   5.881  15.420 -0.1332  0.0843 -0.0995
 6134TIP3    H139817   5.930   5.869  15.355  0.7163 -0.4628 -0.9326
 6134TIP3    H239818   6.019   5.974  15.417 -0.3584  0.1250 -0.3614
 6135TIP3   OH239819   5.501   5.085   5.056  0.4826 -0.2337 -0.0066
 6135TIP3    H139820   5.543   5.006   5.023  0.4999  0.5806 -2.0954
 6135TIP3    H239821   5.408   5.072   5.037  0.4542  0.1195 -0.1249
 6136TIP3   OH239822   5.672   1.013  15.113  0.2728  0.2622  0.1700
 6136TIP3    H139823   5.611   1.084  15.094  0.8571  1.0656  1.1936
 6136TIP3    H239824   5.631   0.965  15.185  0.8198  0.8182  0.8770
 6137TIP3   OH239825   0.536   6.025  16.125 -0.7032 -0.7679 -0.5945
 6137TIP3    H139826   0.534   6.098  16.187  0.5294 -1.3466  0.1746
 6137TIP3    H239827   0.490   5.954  16.170  0.1159 -1.1617 -0.3563
 6138TIP3   OH239828   2.483   5.873   5.174  0.0598 -0.0557 -0.5830
 6138TIP3    H139829   2.416   5.805   5.164  1.2783 -1.2560 -0.9398
 6138TIP3    H239830   2.439   5.944   5.220 -1.0897 -1.3489  0.3826
 6139TIP3   OH239831   3.229   4.803  15.311 -0.1314 -0.7105 -0.3805
 6139TIP3    H139832   3.323   4.818  15.321 -0.1498 -1.0444  0.3743
 6139TIP3    H239833   3.198   4.784  15.400 -0.6776 -1.9230 -0.8062
 6140TIP3   OH239834   2.966   0.495   3.316 -0.6844  0.2529  0.2092
 6140TIP3    H139835   2.882   0.466   3.280 -1.1469  0.2518  1.2650
 6140TIP3    H239836   2.951   0.501   3.410  0.3919  0.6372  0.3664
 6141TIP3   OH239837   1.770   4.159  14.787 -0.4311  0.2856 -0.0643
 6141TIP3    H139838   1.865   4.165  14.785 -0.4184 -0.0855 -1.3775
 6141TIP3    H239839   1.745   4.203  14.869  0.9393 -1.0310  1.1324
 6142TIP3   OH239840   1.477   0.749   2.082  0.1867 -0.1952  0.3682
 6142TIP3    H139841   1.493   0.771   1.990  1.5563  0.9515  0.8551
 6142TIP3    H239842   1.503   0.657   2.089  0.6291 -0.1244 -0.2630
 6143TIP3   OH239843   3.691   5.770  16.572 -1.4971 -0.2390 -0.4103
 6143TIP3    H139844   3.715   5.850  16.618 -2.8038  0.0652 -0.2348
 6143TIP3    H239845   3.639   5.800  16.497 -0.0825 -0.7772 -1.6702
 6144TIP3   OH239846   3.670   3.812  12.347  0.2124 -0.3675 -0.1055
 6144TIP3    H139847   3.591   3.767  12.316 -0.9174  1.1300  0.5080
 6144TIP3    H239848   3.663   3.900  12.312  0.6396  0.3419  1.5215
 6145TIP3   OH239849   3.981   1.258   5.314  0.3307 -0.2391 -0.7538
 6145TIP3    H139850   4.041   1.266   5.388 -0.1685 -0.4724 -0.3166
 6145TIP3    H239851   3.898   1.231   5.353  0.6483 -2.7389 -1.6443
 6146TIP3   OH239852   2.090   3.365   4.379 -0.2858 -0.0993 -0.0401
 6146TIP3    H139853   2.081   3.459   4.366 -1.2496  0.7972  5.0719
 6146TIP3    H239854   2.001   3.331   4.376 -0.3389 -0.1609  1.5872
 6147TIP3   OH239855   0.622   6.380   5.399 -0.0444  0.2155  0.2692
 6147TIP3    H139856   0.718   6.384   5.394  0.2395 -1.1295  2.6753
 6147TIP3    H239857   0.596   6.469   5.425  0.8001  0.0940  1.6528
 6148TIP3   OH239858   0.505   0.485  12.856 -0.4651 -0.1822  0.5708
 6148TIP3    H139859   0.440   0.472  12.788  1.1557 -1.3259 -0.8500
 6148TIP3    H239860   0.467   0.445  12.934 -0.9104 -2.1090 -0.5792
 6149TIP3   OH239861   3.874   5.111   0.964  0.3852  0.1761  0.1331
 6149TIP3    H139862   3.913   5.158   0.890 -0.7611  0.4647 -0.3113
 6149TIP3    H239863   3.791   5.156   0.980  1.2166  1.0175  2.5256
 6150TIP3   OH239864   1.685   0.792  11.935 -0.4198 -0.0472 -0.1788
 6150TIP3    H139865   1.714   0.734  11.865 -1.9637 -2.2033  0.8552
 6150TIP3    H239866   1.717   0.751  12.015 -1.8501  0.3278  0.6149
 6151TIP3   OH239867   5.674   5.327  12.344 -0.8166 -0.8600 -0.5556
 6151TIP3    H139868   5.612   5.367  12.283 -0.6589 -0.4254 -0.4428
 6151TIP3    H239869   5.621   5.298  12.418 -0.6515  1.7804  0.7156
 6152TIP3   OH239870   3.305   0.029  11.284 -0.3469 -0.1618 -0.1560
 6152TIP3    H139871   3.292  -0.065  11.271 -0.5792  0.0503 -1.6170
 6152TIP3    H239872   3.398   0.038  11.303 -0.3707 -0.7069  0.2432
 6153TIP3   OH239873   5.205   3.528  13.025 -0.4191 -0.3092 -0.0518
 6153TIP3    H139874   5.253   3.610  13.041  1.9343 -1.3703 -1.0985
 6153TIP3    H239875   5.164   3.541  12.940  0.2389 -0.2984 -0.3787
 6154TIP3   OH239876   0.526   6.113  11.890  0.6139  0.6648 -0.4775
 6154TIP3    H139877   0.614   6.150  11.897  0.2450  1.5094 -0.1908
 6154TIP3    H239878   0.502   6.090  11.980  0.5067  0.5063 -0.5447
 6155TIP3   OH239879   2.979   4.071   0.748  0.4378  0.2345  0.2524
 6155TIP3    H139880   2.922   4.072   0.671 -3.1207 -1.8899  2.5618
 6155TIP3    H239881   2.945   4.140   0.804  1.0097 -0.2191  1.1863
 6156TIP3   OH239882   2.419   0.872  11.748  0.1850 -0.2256 -0.2061
 6156TIP3    H139883   2.398   0.947  11.693  0.9293  0.1713  0.0351
 6156TIP3    H239884   2.346   0.812  11.736 -0.1390  0.2873 -0.8511
 6157TIP3   OH239885   3.835   0.518  17.170 -0.2107  0.1232 -0.0774
 6157TIP3    H139886   3.756   0.506  17.117  1.6955 -0.3690 -3.0840
 6157TIP3    H239887   3.831   0.609  17.199 -1.8643  0.1039 -0.1253
 6158TIP3   OH239888   4.655   6.387   0.291  0.6804  0.2184  0.7802
 6158TIP3    H139889   4.563   6.394   0.267  0.6884  1.3382  1.0106
 6158TIP3    H239890   4.655   6.354   0.381  0.5106  0.0296  0.7101
 6159TIP3   OH239891   5.786   3.135   3.858 -0.8732  0.3683  0.3336
 6159TIP3    H139892   5.862   3.120   3.802 -0.0924  1.1626  1.1565
 6159TIP3    H239893   5.747   3.048   3.870 -0.0774 -0.0497 -0.0569
 6160TIP3   OH239894   2.398   0.250   3.276  0.7609  0.3222  0.2734
 6160TIP3    H139895   2.415   0.166   3.234 -0.9889 -0.1528  0.4354
 6160TIP3    H239896   2.385   0.230   3.368 -1.9054  0.3538  0.0017
 6161TIP3   OH239897   0.250   3.579  13.705  0.5371 -0.1917  0.3377
 6161TIP3    H139898   0.292   3.631  13.637 -0.5946  3.9074  2.4008
 6161TIP3    H239899   0.320   3.560  13.768  1.0211 -1.5636 -0.5776
 6162TIP3   OH239900   4.591   0.348   0.694  0.1755  0.4123  0.6386
 6162TIP3    H139901   4.630   0.348   0.606  0.3439  0.3403  0.7139
 6162TIP3    H239902   4.557   0.437   0.705 -0.1242  0.3351  0.3784
 6163TIP3   OH239903   0.190   0.382  12.029  0.0316  0.4072  0.3888
 6163TIP3    H139904   0.225   0.438  11.960  1.2425  0.6922  1.2036
 6163TIP3    H239905   0.102   0.416  12.045 -0.3282  0.2558 -1.0791
 6164TIP3   OH239906   5.564   0.774  16.623 -0.1845 -0.6122 -0.4609
 6164TIP3    H139907   5.621   0.836  16.669  1.0283 -2.2354  0.3238
 6164TIP3    H239908   5.527   0.719  16.693  0.1382 -1.8714 -1.2566
 6165TIP3   OH239909   4.553   4.913  16.003 -0.4673 -0.0472  0.3084
 6165TIP3    H139910   4.601   4.837  16.037  0.6805 -0.0857 -1.2702
 6165TIP3    H239911   4.493   4.937  16.074 -0.2265 -1.8592  1.1935
 6166TIP3   OH239912   2.970   1.126  13.711  0.1060 -0.0727 -0.4865
 6166TIP3    H139913   2.970   1.142  13.616 -0.3998 -0.7517 -0.6100
 6166TIP3    H239914   3.057   1.152  13.740  0.1943  0.3512 -1.1003
 6167TIP3   OH239915   5.038   4.671  10.939 -0.1196 -0.2467 -0.4833
 6167TIP3    H139916   5.092   4.593  10.925  0.3116  0.0216 -0.3231
 6167TIP3    H239917   5.041   4.718  10.855 -1.2394 -0.9248 -0.9230
 6168TIP3   OH239918   3.892   5.570  12.304  0.0744  0.0161  0.1135
 6168TIP3    H139919   3.897   5.666  12.297 -0.4149  0.4452  3.6899
 6168TIP3    H239920   3.872   5.554  12.396  2.3804 -3.6471  0.1827
 6169TIP3   OH239921   0.310   3.210  16.675 -0.6229  0.5344  0.3844
 6169TIP3    H139922   0.235   3.259  16.710 -0.8419  1.1951 -0.9445
 6169TIP3    H239923   0.379   3.276  16.666 -0.8531  0.5828 -1.2406
 6170TIP3   OH239924   0.140   3.705  11.134 -0.7013  0.2757 -0.1971
 6170TIP3    H139925   0.114   3.651  11.060  0.4901  1.4026 -1.5003
 6170TIP3    H239926   0.081   3.780  11.132 -1.7064 -0.4543  1.0003
 6171TIP3   OH239927   4.589   3.272  12.639  0.2980  0.0602 -0.0537
 6171TIP3    H139928   4.509   3.245  12.683  0.7842 -1.8403 -0.2658
 6171TIP3    H239929   4.561   3.295  12.550 -0.1546  0.4513  0.1889
 6172TIP3   OH239930   1.513   4.955  17.260  0.1461 -0.1248  0.0607
 6172TIP3    H139931   1.593   4.906  17.277  0.1132 -0.3769 -0.5013
 6172TIP3    H239932   1.540   5.047  17.262  1.1259 -0.2238 -3.2291
 6173TIP3   OH239933   5.996   5.184   5.718 -0.4513  0.2026  0.4566
 6173TIP3    H139934   6.074   5.168   5.771  0.0404 -0.6933 -0.4866
 6173TIP3    H239935   6.008   5.272   5.684 -1.7825  1.6778  3.4248
 6174TIP3   OH239936   4.083   4.998  17.042 -0.0988  0.9305  0.1699
 6174TIP3    H139937   4.098   5.069  17.104 -0.5055  0.7487  0.4746
 6174TIP3    H239938   4.163   4.995  16.990 -1.2032  3.6541 -1.9155
 6175TIP3   OH239939   3.630   5.946  15.860 -0.0968  0.7775 -0.4316
 6175TIP3    H139940   3.562   5.995  15.908  0.5963  1.2454  0.0879
 6175TIP3    H239941   3.654   6.003  15.787 -0.8143  0.2662 -1.0881
 6176TIP3   OH239942   2.123   1.759  16.843 -0.1124  0.3017 -0.3581
 6176TIP3    H139943   2.085   1.710  16.769  2.1710 -0.2086 -1.2544
 6176TIP3    H239944   2.146   1.692  16.907  0.5615  0.4487 -0.4395
 6177TIP3   OH239945   1.958   5.493   6.190  0.2337 -0.2428  0.1562
 6177TIP3    H139946   1.992   5.429   6.253  1.0328  0.5562  0.5697
 6177TIP3    H239947   1.866   5.469   6.179  0.1538 -0.5986  1.3905
 6178TIP3   OH239948   3.854   1.471   1.580 -0.3439  0.1967 -0.0439
 6178TIP3    H139949   3.920   1.484   1.647 -2.2155  0.1287  1.9465
 6178TIP3    H239950   3.854   1.552   1.529 -0.3722  1.1608  1.4578
 6179TIP3   OH239951   5.517   1.562  16.175  0.0035 -0.1263  0.2936
 6179TIP3    H139952   5.451   1.628  16.200  0.1267 -0.6000  1.9857
 6179TIP3    H239953   5.566   1.604  16.104 -3.1853 -0.4362 -2.3073
 6180TIP3   OH239954   6.465   1.182  13.520  0.5365  0.6222  0.4522
 6180TIP3    H139955   6.507   1.216  13.600 -0.3054  0.8789  0.7884
 6180TIP3    H239956   6.454   1.259  13.464 -1.2610  0.9337  1.1667
 6181TIP3   OH239957   5.867   4.439   0.814  0.2720  0.1942  0.5485
 6181TIP3    H139958   5.905   4.384   0.883 -3.7255 -2.0134  1.2547
 6181TIP3    H239959   5.911   4.411   0.734  0.6520 -1.7437  1.3693
 6182TIP3   OH239960   3.473   6.337   2.405 -0.2239  0.3133 -0.6903
 6182TIP3    H139961   3.426   6.294   2.477  1.1620 -0.4559 -0.2290
 6182TIP3    H239962   3.563   6.342   2.435  0.5349 -0.6911 -2.6821
 6183TIP3   OH239963   3.690   4.674   0.219 -0.6751 -0.6095  0.4011
 6183TIP3    H139964   3.766   4.719   0.257 -1.5049  0.3745  0.9392
 6183TIP3    H239965   3.723   4.636   0.137  0.0663  1.0329 -0.1118
 6184TIP3   OH239966   4.967   5.647   3.229 -0.5033 -0.0666  0.2435
 6184TIP3    H139967   5.058   5.665   3.251  0.1581 -0.1328 -2.1403
 6184TIP3    H239968   4.969   5.623   3.136 -2.6530 -2.3640  0.6718
 6185TIP3   OH239969   5.119   0.623   3.270  0.1000 -0.2402  0.8165
 6185TIP3    H139970   5.188   0.689   3.268  1.3244 -1.4603  1.3351
 6185TIP3    H239971   5.057   0.651   3.202  1.1405  0.8258  0.2695
 6186TIP3   OH239972   5.536   4.172   1.677 -0.4274  0.5169  0.6855
 6186TIP3    H139973   5.487   4.152   1.757  0.9322  0.4423  1.5285
 6186TIP3    H239974   5.613   4.115   1.681 -1.0196 -0.5730 -1.4234
 6187TIP3   OH239975   6.653   1.536   4.521 -0.4407  0.1803  0.1734
 6187TIP3    H139976   6.647   1.484   4.441 -0.9167 -0.1366  0.4105
 6187TIP3    H239977   6.613   1.620   4.499 -1.3867 -0.2154  0.3277
 6188TIP3   OH239978   1.236   2.756  17.036  0.6942  0.0009 -0.7555
 6188TIP3    H139979   1.320   2.721  17.063  0.2979  0.1022  0.6938
 6188TIP3    H239980   1.216   2.710  16.954  0.3603 -2.9371  0.8414
 6189TIP3   OH239981   4.986   2.294  13.289 -0.2700 -0.0535  0.4365
 6189TIP3    H139982   4.916   2.237  13.256  0.4049 -2.1252  2.3625
 6189TIP3    H239983   5.064   2.238  13.291  1.0290  1.6665  0.1173
 6190TIP3   OH239984   1.015   5.308  13.768 -0.1970 -0.5527  0.3915
 6190TIP3    H139985   1.004   5.371  13.697  0.3557 -0.5789  0.2755
 6190TIP3    H239986   0.993   5.224  13.729  0.5182 -0.6241  0.1218
 6191TIP3   OH239987   3.347   4.413  16.430 -0.0295  0.2895  0.5132
 6191TIP3    H139988   3.363   4.395  16.523 -0.7167 -2.6224  0.1840
 6191TIP3    H239989   3.423   4.377  16.385 -1.2195 -1.5552 -0.1872
 6192TIP3   OH239990   1.489   1.360  15.193 -0.3698  0.3841  0.0032
 6192TIP3    H139991   1.479   1.302  15.118 -1.1484 -0.2253  0.5630
 6192TIP3    H239992   1.446   1.314  15.265  1.2286  0.4780  1.0901
 6193TIP3   OH239993   1.818   0.113  11.971 -0.3946  0.2268 -0.4091
 6193TIP3    H139994   1.900   0.161  11.973 -0.0321 -0.3925  0.8226
 6193TIP3    H239995   1.778   0.129  12.057 -1.6231  0.6113 -1.0283
 6194TIP3   OH239996   6.491   3.096   1.825 -0.5922  0.1176 -0.3151
 6194TIP3    H139997   6.423   3.157   1.851 -1.2450 -1.0614  0.8568
 6194TIP3    H239998   6.472   3.016   1.874  2.1538  0.0359  0.7973
 6195TIP3   OH239999   6.631   4.613   3.922 -0.1737  0.0941 -0.3108
 6195TIP3    H140000   6.564   4.676   3.895  0.7366  0.1474 -2.6317
 6195TIP3    H240001   6.710   4.665   3.933  0.0358 -0.3104  0.1845
 6196TIP3   OH240002   0.115   3.559  12.561 -0.1278 -0.5056 -0.1623
 6196TIP3    H140003   0.098   3.476  12.605  1.5573  0.0220  1.6216
 6196TIP3    H240004   0.182   3.538  12.496  0.7916 -0.4605  0.7437
 6197TIP3   OH240005   3.738   2.429   5.722 -0.1639 -0.0397  0.2353
 6197TIP3    H140006   3.787   2.492   5.775  0.9037 -0.7839  0.1681
 6197TIP3    H240007   3.715   2.359   5.783 -0.2285 -0.1931  0.0361
 6198TIP3   OH240008   1.593   0.177   4.915  0.2303 -0.0383 -0.0493
 6198TIP3    H140009   1.670   0.124   4.935  0.1416  0.1696  0.8582
 6198TIP3    H240010   1.549   0.129   4.845 -0.3339 -1.6465  1.3682
 6199TIP3   OH240011   4.760   0.666   0.536  0.3222  0.5552 -0.1097
 6199TIP3    H140012   4.750   0.712   0.452  0.9485 -0.9295 -1.0396
 6199TIP3    H240013   4.746   0.574   0.514 -0.5724  0.2274  1.6325
 6200TIP3   OH240014   6.651   0.243  14.199  0.4334 -0.5289 -0.0733
 6200TIP3    H140015   6.660   0.318  14.142 -1.9197 -0.2485 -0.1538
 6200TIP3    H240016   6.714   0.259  14.270  2.2067 -0.0892 -1.6662
 6201TIP3   OH240017   4.078   4.204  12.608 -0.3108  0.6413  0.1152
 6201TIP3    H140018   4.035   4.200  12.522 -0.8504 -0.6177  0.4209
 6201TIP3    H240019   4.007   4.220  12.670 -0.4603 -1.8125  0.6650
 6202TIP3   OH240020   4.824   0.522  12.355  0.2912 -0.4248 -0.4640
 6202TIP3    H140021   4.905   0.569  12.340  1.3045 -1.3444  1.6713
 6202TIP3    H240022   4.840   0.434  12.321  0.4160 -0.7658  0.4501
 6203TIP3   OH240023   4.236   1.888  12.694 -0.1935  0.1522 -0.2246
 6203TIP3    H140024   4.298   1.863  12.625  0.4075 -0.0250  0.3775
 6203TIP3    H240025   4.205   1.975  12.667 -0.2309 -0.0651 -0.9002
 6204TIP3   OH240026   2.209   3.641   1.721 -0.2391  0.2061  0.6096
 6204TIP3    H140027   2.193   3.568   1.782  0.0656 -0.3221  0.0688
 6204TIP3    H240028   2.184   3.719   1.771 -0.8424 -0.2847  1.1049
 6205TIP3   OH240029   2.820   1.293  14.723 -0.0826 -0.6499 -0.3845
 6205TIP3    H140030   2.856   1.220  14.672  2.2886 -0.6085  1.0833
 6205TIP3    H240031   2.771   1.251  14.794  1.0448 -0.8328  0.2993
 6206TIP3   OH240032   5.469   2.988  11.746  0.4863  0.7773  0.2140
 6206TIP3    H140033   5.542   3.004  11.687 -1.3967  0.6463 -2.3050
 6206TIP3    H240034   5.431   3.074  11.761  0.3741  0.6895  0.4336
 6207TIP3   OH240035   1.473   2.451   2.623  1.1809  0.0905 -0.0049
 6207TIP3    H140036   1.421   2.477   2.547 -0.1582  0.1741  0.9031
 6207TIP3    H240037   1.411   2.406   2.680  1.8821  1.0208  1.5447
 6208TIP3   OH240038   1.776   5.526   3.088 -0.0631  0.3138 -0.3236
 6208TIP3    H140039   1.714   5.547   3.157  1.2191  0.4083  0.8416
 6208TIP3    H240040   1.837   5.464   3.128  1.4263  1.3082 -0.9601
 6209TIP3   OH240041   0.953   5.840  16.745  0.8696 -0.0323 -0.3946
 6209TIP3    H140042   0.890   5.770  16.760  1.5679 -0.5203  0.3069
 6209TIP3    H240043   0.980   5.868  16.833  0.0842  1.6092 -0.6319
 6210TIP3   OH240044   1.497   0.205   0.286 -0.3600  0.6382 -0.0331
 6210TIP3    H140045   1.471   0.124   0.329 -1.5505  0.1067 -1.6422
 6210TIP3    H240046   1.503   0.269   0.357 -0.4275 -0.5963  1.1343
 6211TIP3   OH240047   4.173   1.336  15.737 -0.2867 -0.1718 -0.3581
 6211TIP3    H140048   4.113   1.288  15.794 -0.7906  0.5559 -0.2639
 6211TIP3    H240049   4.254   1.342  15.787 -1.1559  1.7205  0.9355
 6212TIP3   OH240050   0.443   5.448   1.097  0.3880 -0.6480 -0.7999
 6212TIP3    H140051   0.460   5.473   1.188 -0.3901  1.1309 -1.1114
 6212TIP3    H240052   0.383   5.373   1.104 -0.6337  0.2255  0.1642
 6213TIP3   OH240053   1.310   0.305  11.492 -0.0002  0.3165  0.4223
 6213TIP3    H140054   1.221   0.337  11.480  0.0700  1.1323  1.8470
 6213TIP3    H240055   1.337   0.277  11.405 -2.1176 -1.2700  0.1851
 6214TIP3   OH240056   6.520   5.589  11.210  0.1045 -0.0689  0.4776
 6214TIP3    H140057   6.577   5.532  11.159  0.1507  0.3211  0.0922
 6214TIP3    H240058   6.569   5.670  11.219 -0.3115  0.2047  0.3040
 6215TIP3   OH240059   3.733   5.573  14.234  0.5614 -0.1727  0.2104
 6215TIP3    H140060   3.653   5.520  14.242 -0.6840  1.6450  0.2585
 6215TIP3    H240061   3.716   5.650  14.288  1.9345  0.7438 -0.6195
 6216TIP3   OH240062   0.156   2.511  14.518 -0.6794  0.2343  0.5901
 6216TIP3    H140063   0.080   2.569  14.508  0.6108  1.8954  0.1175
 6216TIP3    H240064   0.229   2.569  14.538  0.7027 -1.2202 -0.0077
 6217TIP3   OH240065   3.467   3.486  10.800 -0.3877  0.0290  0.0856
 6217TIP3    H140066   3.512   3.413  10.758 -0.8938 -0.3400  0.1641
 6217TIP3    H240067   3.374   3.466  10.787 -0.5943 -0.6007  2.1943
 6218TIP3   OH240068   4.617   5.128  13.070 -0.2886 -0.1482  0.4712
 6218TIP3    H140069   4.551   5.165  13.012 -0.6999 -0.3892  0.7862
 6218TIP3    H240070   4.623   5.191  13.142 -0.1632 -0.1218  0.4385
 6219TIP3   OH240071   2.911   0.459  15.066 -0.4721 -0.3406 -0.3099
 6219TIP3    H140072   2.898   0.471  14.972  1.5197 -2.0785 -0.8885
 6219TIP3    H240073   2.987   0.513  15.088 -1.4898  0.8135  0.5670
 6220TIP3   OH240074   1.627   1.037  15.252  0.3410 -0.0008 -0.2665
 6220TIP3    H140075   1.691   0.983  15.205  1.7792  1.2774  0.1545
 6220TIP3    H240076   1.668   1.123  15.258 -1.2181  0.7283  0.4873
 6221TIP3   OH240077   2.383   4.276  14.650  0.4618 -0.1618 -0.1042
 6221TIP3    H140078   2.422   4.333  14.584  0.2858  0.3391  0.2154
 6221TIP3    H240079   2.405   4.317  14.734 -0.9330  0.2609  0.0749
 6222TIP3   OH240080   1.722   1.016   4.400  0.2020  0.4063 -0.0684
 6222TIP3    H140081   1.807   1.012   4.445  0.5318  0.1897 -0.6976
 6222TIP3    H240082   1.739   1.067   4.322 -0.0690 -0.2907 -0.5908
 6223TIP3   OH240083   6.406   5.880   6.184 -0.7465 -0.0312 -0.1847
 6223TIP3    H140084   6.486   5.870   6.133 -0.0471  0.9694  0.6872
 6223TIP3    H240085   6.386   5.792   6.216  0.2926 -0.1952  0.0199
 6224TIP3   OH240086   4.194   3.480  16.824  0.1285  0.1253 -0.2744
 6224TIP3    H140087   4.282   3.512  16.846 -0.4725  2.2278 -0.7177
 6224TIP3    H240088   4.177   3.411  16.888  1.6941  0.3750  0.4700
 6225TIP3   OH240089   6.080   5.395  13.982 -0.1848  0.6668  0.2148
 6225TIP3    H140090   6.025   5.353  14.048 -1.8138  2.8599  0.3880
 6225TIP3    H240091   6.094   5.484  14.016 -1.7239  2.1433 -2.6054
 6226TIP3   OH240092   1.607   2.759   3.427  0.0107 -0.5749  0.0622
 6226TIP3    H140093   1.648   2.842   3.404 -1.2588  0.3573  1.0402
 6226TIP3    H240094   1.653   2.694   3.374 -0.6693  1.0302 -2.6598
 6227TIP3   OH240095   2.056   3.628   4.309  0.1399  0.0222  0.0389
 6227TIP3    H140096   2.118   3.700   4.316  1.3852 -1.0224  0.2233
 6227TIP3    H240097   2.063   3.600   4.217 -0.3735  0.1734 -0.0460
 6228TIP3   OH240098   5.077   0.252  13.870 -0.3608 -0.1194 -0.3822
 6228TIP3    H140099   5.023   0.236  13.947 -0.0559 -1.4932 -0.4149
 6228TIP3    H240100   5.155   0.297  13.904 -0.3239 -0.5302  0.0969
 6229TIP3   OH240101   0.296   2.562  12.546 -0.6179  0.3472 -0.3814
 6229TIP3    H140102   0.208   2.601  12.545 -0.5280  0.6350 -2.7468
 6229TIP3    H240103   0.348   2.619  12.489  1.1852  0.2616  1.0873
 6230TIP3   OH240104   1.911   2.098   4.227  0.1780  0.2001  0.9129
 6230TIP3    H140105   1.834   2.072   4.278  1.1232 -2.1089  1.2750
 6230TIP3    H240106   1.919   2.030   4.160  1.6892  0.6183  0.6411
 6231TIP3   OH240107   4.374   1.146  14.019  0.6898 -0.2939  0.0929
 6231TIP3    H140108   4.307   1.211  14.037 -0.0426 -0.6708 -1.1691
 6231TIP3    H240109   4.451   1.197  13.993  0.8031  0.1272  1.2080
 6232TIP3   OH240110   0.204   1.718  15.959 -0.3147  0.3134 -0.0033
 6232TIP3    H140111   0.128   1.670  15.991 -0.3630 -0.5373 -1.3019
 6232TIP3    H240112   0.275   1.693  16.019 -0.1477 -2.1105 -1.0694
 6233TIP3   OH240113   6.578   3.289   5.112  0.3685 -0.7302 -0.4213
 6233TIP3    H140114   6.663   3.262   5.147  0.5627 -1.1666 -1.1998
 6233TIP3    H240115   6.597   3.368   5.062 -0.0116  0.2469  0.9257
 6234TIP3   OH240116   5.540   3.741   1.948  0.2648  0.5676  0.0878
 6234TIP3    H140117   5.540   3.821   2.000 -0.3149  0.0518  0.9225
 6234TIP3    H240118   5.500   3.675   2.006  0.3472 -0.2207 -0.7247
 6235TIP3   OH240119   1.138   4.317  14.338 -0.2141 -0.4579 -0.2261
 6235TIP3    H140120   1.115   4.259  14.265  2.2089 -0.6180 -0.9585
 6235TIP3    H240121   1.187   4.260  14.398  1.6162  0.6218 -0.6321
 6236TIP3   OH240122   2.378   1.507   4.867 -0.3097  0.0544  0.0272
 6236TIP3    H140123   2.411   1.417   4.872 -0.5369 -0.1113 -1.2472
 6236TIP3    H240124   2.444   1.559   4.911  1.6470 -0.2809 -2.3157
 6237TIP3   OH240125   3.772   0.898   2.285  0.4616  0.4334 -0.5096
 6237TIP3    H140126   3.794   0.817   2.333 -1.7613 -1.8269 -2.9616
 6237TIP3    H240127   3.838   0.903   2.216  1.3653  1.5085  0.4018
 6238TIP3   OH240128   2.804   5.517  12.144 -0.4187  0.0804 -0.0172
 6238TIP3    H140129   2.742   5.475  12.204 -1.1572  1.1248 -0.0111
 6238TIP3    H240130   2.806   5.608  12.172  2.4297 -0.2083  1.0281
 6239TIP3   OH240131   5.749   0.855   3.126 -0.6992 -0.5898  1.0688
 6239TIP3    H140132   5.815   0.908   3.081  0.1379 -1.0997  1.6709
 6239TIP3    H240133   5.750   0.886   3.216 -1.8361 -0.0874  0.9312
 6240TIP3   OH240134   3.473   0.396   0.381  0.4320  0.5037  0.6969
 6240TIP3    H140135   3.482   0.302   0.392 -0.3031 -0.0542 -2.4694
 6240TIP3    H240136   3.387   0.417   0.420  0.3425 -0.2242  0.9000
 6241TIP3   OH240137   5.107   3.573   3.342  0.4502 -0.0333 -0.2502
 6241TIP3    H140138   5.161   3.644   3.309  1.2787 -0.0808  0.9421
 6241TIP3    H240139   5.122   3.572   3.436 -1.0217 -0.5706  0.0160
 6242TIP3   OH240140   5.337   2.941  11.993  0.1028 -0.2633 -0.1000
 6242TIP3    H140141   5.270   2.872  11.997  0.3859 -0.5416 -0.0767
 6242TIP3    H240142   5.364   2.942  11.902 -0.7190  0.6159 -0.3424
 6243TIP3   OH240143   2.681   0.636   4.470  0.4978 -0.4468  0.2146
 6243TIP3    H140144   2.689   0.728   4.491  1.8179 -0.6288  0.6091
 6243TIP3    H240145   2.598   0.609   4.509 -0.5010  0.8289 -0.9461
 6244TIP3   OH240146   5.241   2.798   0.745  0.7371  0.5782  0.0236
 6244TIP3    H140147   5.273   2.714   0.776  0.8374  0.3132 -0.7745
 6244TIP3    H240148   5.160   2.777   0.699  1.0383  0.8380 -0.6440
 6245TIP3   OH240149   5.287   0.873  11.402  0.3887 -0.6132 -0.6747
 6245TIP3    H140150   5.345   0.807  11.364  0.5804 -1.3113  0.7547
 6245TIP3    H240151   5.215   0.823  11.441  0.2862  0.0403  0.0186
 6246TIP3   OH240152   4.814   6.544   5.060 -0.9627 -0.1203  0.0582
 6246TIP3    H140153   4.771   6.624   5.030 -0.1243  0.3089 -0.0180
 6246TIP3    H240154   4.747   6.498   5.111 -1.4530  0.6203  0.0875
 6247TIP3   OH240155   2.580   3.355  17.096 -0.1403 -0.4501  0.0133
 6247TIP3    H140156   2.569   3.336  17.002 -0.6614  0.4334 -0.1167
 6247TIP3    H240157   2.577   3.450  17.102 -0.0465 -0.4968  0.9277
 6248TIP3   OH240158   5.576   0.375   4.987 -0.0066  0.5005  0.0834
 6248TIP3    H140159   5.517   0.318   4.939  0.6442  0.8261 -1.1388
 6248TIP3    H240160   5.564   0.462   4.949 -0.7587  1.1654  1.7159
 6249TIP3   OH240161   1.994   6.498  15.169  0.5856 -0.5055  0.4306
 6249TIP3    H140162   1.996   6.572  15.109  1.4767 -1.6317 -1.0240
 6249TIP3    H240163   2.075   6.506  15.219  0.0728  0.1717  1.1720
 6250TIP3   OH240164   5.755   6.348   5.391 -0.2450 -0.0375 -0.1017
 6250TIP3    H140165   5.780   6.435   5.424  1.5700 -0.6242  0.1634
 6250TIP3    H240166   5.660   6.347   5.398 -0.2767  1.7342  0.3884
 6251TIP3   OH240167   3.114   0.709   5.119  0.0921 -0.3104 -0.0387
 6251TIP3    H140168   3.127   0.665   5.036  0.1535 -0.2453 -0.0641
 6251TIP3    H240169   3.193   0.690   5.169  0.4471  0.3709 -0.3229
 6252TIP3   OH240170   1.869   6.718  16.311 -0.2647  0.5693  0.4004
 6252TIP3    H140171   1.953   6.673  16.302 -1.0911 -1.0441  0.3935
 6252TIP3    H240172   1.892   6.808  16.334  1.4488 -0.0360  1.1972
 6253TIP3   OH240173   3.059   4.647  14.253  0.2484 -0.4802  0.3436
 6253TIP3    H140174   2.983   4.689  14.293  1.2384  1.1573  0.5935
 6253TIP3    H240175   3.057   4.675  14.161  1.5633  1.2025  0.7701
 6254TIP3   OH240176   3.245   0.106  16.367  0.2571  0.9398  0.1650
 6254TIP3    H140177   3.174   0.072  16.312  0.3768 -0.0505  0.5932
 6254TIP3    H240178   3.285   0.175  16.314  0.6671 -0.2884 -1.2000
 6255TIP3   OH240179   3.805   1.030  11.270 -0.4608  0.0565  0.1276
 6255TIP3    H140180   3.896   1.057  11.260 -0.1430 -1.0452 -0.0138
 6255TIP3    H240181   3.772   1.022  11.180 -0.0968 -1.4998  0.1090
 6256TIP3   OH240182   2.910   2.998   1.142  0.0540 -0.3466  0.1217
 6256TIP3    H140183   2.910   3.062   1.213 -1.8326  0.0050 -0.1412
 6256TIP3    H240184   2.821   3.002   1.106  0.9249 -0.5540 -2.2221
 6257TIP3   OH240185   6.265   2.425   5.747 -0.1204 -0.1426  0.6993
 6257TIP3    H140186   6.215   2.356   5.792 -1.8521 -0.8077 -1.9955
 6257TIP3    H240187   6.329   2.377   5.694  0.7238  0.5301  1.0828
 6258TIP3   OH240188   2.731   4.132  10.869 -0.2497 -0.5415 -0.7595
 6258TIP3    H140189   2.754   4.223  10.888  1.0476 -0.6384 -1.7041
 6258TIP3    H240190   2.635   4.130  10.873 -0.2387  0.3663  1.3585
 6259TIP3   OH240191   6.160   6.300   2.698  0.3926  0.1348 -0.5167
 6259TIP3    H140192   6.159   6.236   2.626 -3.2854 -2.1422  1.1989
 6259TIP3    H240193   6.118   6.378   2.661  0.9508 -0.0203 -1.5126
 6260TIP3   OH240194   1.121   3.616  15.996  0.0221 -0.0283 -0.3969
 6260TIP3    H140195   1.191   3.681  16.006  1.6152 -1.5523 -1.2451
 6260TIP3    H240196   1.068   3.626  16.075  1.1820  1.1708  0.2674
 6261TIP3   OH240197   2.728   3.661  14.921 -0.0332  0.6366  0.5472
 6261TIP3    H140198   2.780   3.741  14.925 -0.9092  1.2182  0.6137
 6261TIP3    H240199   2.678   3.668  14.840 -0.1185  0.1566  0.5518
 6262TIP3   OH240200   2.569   3.631  16.437 -0.0769  1.1093 -0.0673
 6262TIP3    H140201   2.617   3.613  16.518 -1.8589  0.6016  0.9400
 6262TIP3    H240202   2.635   3.623  16.367  1.2480  0.3187  1.2188
 6263TIP3   OH240203   3.674   3.627  16.999  0.0506 -0.0945 -0.3408
 6263TIP3    H140204   3.641   3.545  16.961 -0.3304 -0.9982  1.7701
 6263TIP3    H240205   3.595   3.674  17.026  0.2894  0.7678 -1.1220
 6264TIP3   OH240206   4.195   2.082   0.207  0.0956 -0.4473  0.0573
 6264TIP3    H140207   4.247   2.010   0.242  0.4412  0.7221  2.1380
 6264TIP3    H240208   4.219   2.158   0.261 -0.6633  1.1132 -1.6733
 6265TIP3   OH240209   6.339   6.462  12.062  0.1399 -0.2709  0.1944
 6265TIP3    H140210   6.316   6.461  11.969 -1.7779  0.3085  0.6057
 6265TIP3    H240211   6.368   6.373  12.080  0.2284 -0.4830 -0.8836
 6266TIP3   OH240212   2.574   5.116   3.400 -0.2102  0.3265  0.0621
 6266TIP3    H140213   2.554   5.062   3.477 -0.3283 -1.0860 -0.9222
 6266TIP3    H240214   2.612   5.196   3.436  0.4844 -0.6358  1.5708
 6267TIP3   OH240215   1.271   4.313   1.001 -0.0984 -0.2794  0.1364
 6267TIP3    H140216   1.203   4.252   0.971  0.9657 -1.7382  0.5669
 6267TIP3    H240217   1.299   4.359   0.922  1.1919 -2.5638 -0.8500
 6268TIP3   OH240218   0.596   5.871  14.259  0.0924  0.1433  0.1864
 6268TIP3    H140219   0.621   5.942  14.200 -0.1035  0.0957  0.0455
 6268TIP3    H240220   0.576   5.797  14.201 -0.7555  0.2978  0.2704
 6269TIP3   OH240221   6.410   1.427  14.043  0.0993  0.0689  0.0105
 6269TIP3    H140222   6.416   1.417  14.139  0.4035  1.5567  0.1629
 6269TIP3    H240223   6.442   1.515  14.026  0.0686 -0.1875 -1.4862
 6270TIP3   OH240224   6.475   3.514  13.754 -0.1101  0.2894  0.2119
 6270TIP3    H140225   6.567   3.508  13.727  0.4462 -0.0499  2.0506
 6270TIP3    H240226   6.427   3.469  13.684  1.3247 -1.2018  0.1128
 6271TIP3   OH240227   1.318   3.999   0.693 -0.2976  0.2695 -0.4198
 6271TIP3    H140228   1.273   4.033   0.616 -0.1459  0.6269 -0.3529
 6271TIP3    H240229   1.300   3.905   0.692 -1.0612  0.4082 -0.3814
 6272TIP3   OH240230   6.748   0.226   5.630 -0.5670 -0.0787 -0.0927
 6272TIP3    H140231   6.741   0.306   5.578 -1.6644 -0.8446 -1.1572
 6272TIP3    H240232   6.801   0.167   5.576 -1.7916 -0.9129 -0.4195
 6273TIP3   OH240233   3.301   3.456  15.735 -0.5709  0.3307 -0.1388
 6273TIP3    H140234   3.272   3.382  15.788 -2.4895  1.5294  0.5757
 6273TIP3    H240235   3.354   3.510  15.795 -2.8839  1.7765  0.7463
 6274TIP3   OH240236   5.129   2.125  17.044 -0.3829  0.9255  0.4150
 6274TIP3    H140237   5.164   2.185  16.978 -0.8308  0.7834  0.0344
 6274TIP3    H240238   5.178   2.145  17.124 -0.5495  1.8280  0.3066
 6275TIP3   OH240239   1.849   5.781  13.355  0.2904  0.5568  0.3410
 6275TIP3    H140240   1.850   5.781  13.259 -0.3558 -1.2659  0.3054
 6275TIP3    H240241   1.841   5.874  13.378  0.0443  1.0018 -1.3658
 6276TIP3   OH240242   1.158   6.305   1.274 -1.0019 -0.1778 -0.1324
 6276TIP3    H140243   1.194   6.330   1.189 -1.7059  1.6796  0.0631
 6276TIP3    H240244   1.064   6.301   1.261 -0.9941 -2.0619  0.0767
 6277TIP3   OH240245   6.664   6.122   2.056  0.4692 -0.7134 -0.0277
 6277TIP3    H140246   6.690   6.128   2.148  0.4611  1.0118 -0.1079
 6277TIP3    H240247   6.609   6.198   2.042  1.8375  0.0014 -1.8868
 6278TIP3   OH240248   4.396   1.042  11.181  0.8274 -0.0737  0.3202
 6278TIP3    H140249   4.324   1.082  11.230  2.0616  1.4266  1.0026
 6278TIP3    H240250   4.376   1.061  11.089  1.1377  1.7876  0.6004
 6279TIP3   OH240251   5.582   2.013   0.404  0.4601 -0.3045  0.2379
 6279TIP3    H140252   5.659   1.957   0.413 -0.5252 -1.5557  1.3007
 6279TIP3    H240253   5.605   2.074   0.333  2.9186  0.2524  1.4108
 6280TIP3   OH240254   2.167   5.189  11.496  0.5709  0.6160 -0.5007
 6280TIP3    H140255   2.233   5.257  11.480  1.2150  0.3927  1.0524
 6280TIP3    H240256   2.155   5.147  11.411 -0.3744  3.1057 -1.6930
 6281TIP3   OH240257   5.528   3.218  16.502 -0.2213  0.1308  0.5054
 6281TIP3    H140258   5.433   3.211  16.491 -0.2726  0.6397  0.6326
 6281TIP3    H240259   5.560   3.129  16.484 -0.7356 -0.0845  0.6227
 6282TIP3   OH240260   0.299   4.437   2.827 -0.9613  0.9667 -0.1100
 6282TIP3    H140261   0.231   4.503   2.814 -1.1778  0.4104 -2.2928
 6282TIP3    H240262   0.351   4.440   2.747 -1.1044 -1.5934 -0.3940
 6283TIP3   OH240263   5.371   4.582  15.747  0.5712 -0.6076 -0.3713
 6283TIP3    H140264   5.452   4.620  15.780 -0.2537 -0.0007  1.0512
 6283TIP3    H240265   5.305   4.651  15.760 -0.7709 -2.1167  1.3688
 6284TIP3   OH240266   3.487   2.788  16.688 -0.2870 -0.1009 -0.1408
 6284TIP3    H140267   3.457   2.720  16.627 -1.9296  0.3003  0.1741
 6284TIP3    H240268   3.565   2.825  16.646  1.3109 -2.8082  0.1384
 6285TIP3   OH240269   2.428   5.583  16.825 -0.1059  0.1663 -0.9705
 6285TIP3    H140270   2.453   5.675  16.839 -0.9588  0.2002  0.5104
 6285TIP3    H240271   2.334   5.586  16.809 -0.3567 -0.5420  0.2684
 6286TIP3   OH240272   0.286   6.239  17.118  0.1680  0.1394 -0.3236
 6286TIP3    H140273   0.348   6.179  17.158  1.1612  0.7833 -0.8568
 6286TIP3    H240274   0.231   6.184  17.062  1.4070 -0.2273 -1.2263
 6287TIP3   OH240275   2.774   1.327  13.198 -0.0107  0.4857 -0.7399
 6287TIP3    H140276   2.854   1.274  13.201  0.6991  1.5869  0.2266
 6287TIP3    H240277   2.774   1.364  13.110  0.4537  0.3616 -0.7955
 6288TIP3   OH240278   1.614   4.521   4.639 -0.2402 -0.0897  0.3538
 6288TIP3    H140279   1.589   4.458   4.707  0.8569  0.6705  1.5032
 6288TIP3    H240280   1.562   4.599   4.658 -2.0908 -0.7795 -1.4570
 6289TIP3   OH240281   3.157   3.005  11.642 -0.0591  0.2076 -0.2196
 6289TIP3    H140282   3.197   2.959  11.568  2.4890  3.0985 -0.8977
 6289TIP3    H240283   3.107   3.076  11.601 -0.5884  0.4283  0.7824
 6290TIP3   OH240284   4.187   0.919   0.117  0.0353 -0.0931  0.5313
 6290TIP3    H140285   4.194   0.924   0.213  0.2631 -0.8593  0.5586
 6290TIP3    H240286   4.212   1.006   0.087  0.2863  0.0573  1.1510
 6291TIP3   OH240287   1.693   1.092   5.115 -0.4286  0.1216  0.1797
 6291TIP3    H140288   1.709   1.184   5.093 -0.9729  0.6843  1.9504
 6291TIP3    H240289   1.755   1.073   5.185 -0.4497 -0.8109 -0.0449
 6292TIP3   OH240290   5.818   5.089  14.767  0.1724 -0.3070 -0.4031
 6292TIP3    H140291   5.797   4.996  14.751 -0.7601 -0.1273 -0.3034
 6292TIP3    H240292   5.870   5.115  14.691  0.2190 -0.8422 -0.5606
 6293TIP3   OH240293   5.712   1.982  16.103  0.0167  0.1599 -0.1275
 6293TIP3    H140294   5.727   2.064  16.151  2.4631  0.9451 -2.0447
 6293TIP3    H240295   5.645   2.005  16.038 -2.5299 -0.6330  2.0453
 6294TIP3   OH240296   4.146   0.547   0.780  0.4544 -0.3519  0.6142
 6294TIP3    H140297   4.183   0.525   0.866  0.8609 -0.9862  0.2867
 6294TIP3    H240298   4.160   0.468   0.727  1.3691  0.4527 -0.4101
 6295TIP3   OH240299   3.412   1.398  14.837  0.1845 -0.8877 -0.4051
 6295TIP3    H140300   3.491   1.387  14.891  0.5476 -0.9559 -0.9379
 6295TIP3    H240301   3.427   1.480  14.790 -1.3123  0.6272  1.5514
 6296TIP3   OH240302   1.333   4.020  14.781 -0.0148  0.2620  0.6278
 6296TIP3    H140303   1.425   3.996  14.772 -0.2324 -0.9266  1.3811
 6296TIP3    H240304   1.334   4.100  14.832  0.6495  0.9531 -0.4337
 6297TIP3   OH240305   4.410   4.665   2.219 -0.3182 -0.5596 -0.3504
 6297TIP3    H140306   4.376   4.751   2.244 -2.9572 -2.1159  1.9746
 6297TIP3    H240307   4.360   4.641   2.141 -0.6118 -0.5834 -0.1549
 6298TIP3   OH240308   2.206   3.059  11.689 -0.2074 -0.0334  0.4160
 6298TIP3    H140309   2.166   3.001  11.753 -0.2396  1.5529  1.8924
 6298TIP3    H240310   2.222   3.003  11.613 -0.7356 -1.8215  1.5637
 6299TIP3   OH240311   1.307   3.851  13.194  0.0147 -0.5536  0.1456
 6299TIP3    H140312   1.342   3.892  13.115 -0.4726  0.1457  0.2779
 6299TIP3    H240313   1.214   3.835  13.174  0.0684 -1.0618  0.3050
 6300TIP3   OH240314   1.895   0.319   0.751  0.8636  0.2278 -0.1294
 6300TIP3    H140315   1.870   0.235   0.788  0.5454  0.1252 -0.5661
 6300TIP3    H240316   1.989   0.327   0.768  0.7094  0.2136  0.7459
 6301TIP3   OH240317   3.692   3.546  14.916  0.6305  0.5075 -0.3141
 6301TIP3    H140318   3.601   3.564  14.940  0.4539 -2.4516  1.8416
 6301TIP3    H240319   3.686   3.485  14.843  0.7864 -0.3670  0.3762
 6302TIP3   OH240320   2.676   3.413  11.118  0.0473  0.0497  0.2487
 6302TIP3    H140321   2.734   3.451  11.052 -0.6225 -2.2760 -1.8181
 6302TIP3    H240322   2.618   3.485  11.143  1.9431  1.6730  0.2723
 6303TIP3   OH240323   1.792   3.913   3.711 -0.3220 -0.5925  0.3148
 6303TIP3    H140324   1.706   3.919   3.669  0.3975  1.2626 -1.0294
 6303TIP3    H240325   1.840   3.851   3.656  0.2290  0.9258 -1.0081
 6304TIP3   OH240326   3.137   4.934   4.196 -0.3132 -0.1931  0.5525
 6304TIP3    H140327   3.044   4.914   4.197 -0.3883 -0.0365  3.4973
 6304TIP3    H240328   3.157   4.950   4.103 -3.2263  0.0050 -0.1296
 6305TIP3   OH240329   2.013   1.917   1.324 -0.1827 -0.3033  0.1275
 6305TIP3    H140330   1.929   1.880   1.353 -0.3120 -0.0898  0.0277
 6305TIP3    H240331   1.994   1.956   1.239 -0.0102 -0.1397  0.1644
 6306TIP3   OH240332   0.409   4.069  12.627 -0.3537  0.3476 -0.0758
 6306TIP3    H140333   0.413   4.156  12.666 -1.1595 -0.1885  1.3091
 6306TIP3    H240334   0.490   4.060  12.578  1.3467  0.6825  2.4492
 6307TIP3   OH240335   5.775   3.930   5.502 -0.0952 -0.3317  0.1814
 6307TIP3    H140336   5.693   3.971   5.526  0.4522  1.2141 -0.4369
 6307TIP3    H240337   5.814   3.990   5.437  0.5746 -2.0248 -1.0670
 6308TIP3   OH240338   0.040   4.620   3.038  0.1439 -0.5656  0.0968
 6308TIP3    H140339   0.062   4.538   3.081 -1.7138 -0.2408  1.8390
 6308TIP3    H240340  -0.016   4.666   3.101 -1.7411  0.5026 -2.2010
 6309TIP3   OH240341   6.372   4.337   2.576 -0.6284  0.2809  0.4159
 6309TIP3    H140342   6.424   4.273   2.625 -1.2105  0.0559  0.7583
 6309TIP3    H240343   6.434   4.405   2.551  0.6621 -1.7206 -2.3876
 6310TIP3   OH240344   0.703   5.418  16.686 -0.1580 -0.0029 -0.1183
 6310TIP3    H140345   0.722   5.326  16.671 -1.4165 -0.3575  0.3666
 6310TIP3    H240346   0.723   5.460  16.602 -1.3357 -1.0192 -0.9385
 6311TIP3   OH240347   2.854   6.143  12.831 -0.2771 -0.6931  1.1287
 6311TIP3    H140348   2.939   6.106  12.853  0.1047 -0.3626  0.2194
 6311TIP3    H240349   2.869   6.238  12.827 -0.8234 -0.5822  1.5562
 6312TIP3   OH240350   1.071   0.448   1.090 -0.1278 -0.5524 -0.1872
 6312TIP3    H140351   1.135   0.473   1.024 -0.1520 -0.4198 -0.1596
 6312TIP3    H240352   1.124   0.409   1.161  0.0374  0.6473  0.3649
 6313TIP3   OH240353   5.870   6.757  12.008 -0.1404 -0.2760  0.5901
 6313TIP3    H140354   5.868   6.763  12.103  1.8373 -1.4490  0.7547
 6313TIP3    H240355   5.929   6.827  11.981 -0.0267 -0.4876  0.2868
 6314TIP3   OH240356   0.168   6.642  15.671 -0.0816  0.0783  0.1774
 6314TIP3    H140357   0.149   6.690  15.591  1.0021  1.3602  0.6648
 6314TIP3    H240358   0.252   6.600  15.654  0.4134  0.7929  0.8251
 6315TIP3   OH240359   4.560   0.925  16.431  0.3957 -0.2003 -0.6352
 6315TIP3    H140360   4.478   0.943  16.476  0.8116  1.8427 -0.5880
 6315TIP3    H240361   4.624   0.983  16.472  1.5693 -0.7817 -1.5523
 6316TIP3   OH240362   0.901   1.315  11.454 -0.1021  1.2019  0.1668
 6316TIP3    H140363   0.922   1.247  11.518 -0.0883  0.1122 -0.9564
 6316TIP3    H240364   0.820   1.285  11.412  1.2606  0.4597 -2.1682
 6317TIP3   OH240365   0.261   5.744  14.956  0.1268  0.7397 -0.2085
 6317TIP3    H140366   0.250   5.654  14.927  1.1518  0.2940  0.7119
 6317TIP3    H240367   0.256   5.739  15.051  1.5316  1.4442 -0.0811
 6318TIP3   OH240368   0.617   2.714  13.968  0.5436 -0.1070 -0.8410
 6318TIP3    H140369   0.644   2.764  13.891  0.0247  0.8427 -0.4234
 6318TIP3    H240370   0.527   2.688  13.950 -0.1568  1.5207  0.1002
 6319TIP3   OH240371   0.361   3.024  13.367 -0.0162 -0.2766 -0.7058
 6319TIP3    H140372   0.320   2.952  13.416  1.0844 -0.4555  0.0151
 6319TIP3    H240373   0.295   3.093  13.365 -0.1351 -0.3011  0.9844
 6320TIP3   OH240374   6.591   1.270  17.095  0.3318 -0.2198 -0.1302
 6320TIP3    H140375   6.573   1.180  17.069 -0.9841  0.4179 -1.5784
 6320TIP3    H240376   6.580   1.321  17.014 -1.1322  1.5249  1.0923
 6321TIP3   OH240377   3.904   0.848   1.647  0.0139 -0.1298  0.0145
 6321TIP3    H140378   3.918   0.884   1.559  2.0354 -0.7730  0.0238
 6321TIP3    H240379   3.978   0.880   1.698 -1.1719  0.3008  1.5500
 6322TIP3   OH240380   4.290   6.447  13.550 -0.0606  0.5993  0.0276
 6322TIP3    H140381   4.276   6.539  13.529 -1.0269  0.5542  0.4021
 6322TIP3    H240382   4.203   6.415  13.577  0.4159 -0.2191  0.6460
 6323TIP3   OH240383   2.192   6.454   2.171 -0.2037 -0.5719  0.1451
 6323TIP3    H140384   2.205   6.360   2.176  1.6268 -0.3298  0.9957
 6323TIP3    H240385   2.241   6.489   2.246  0.4620  1.1335 -1.0151
 6324TIP3   OH240386   1.393   4.713  16.853 -0.4378 -0.5795  0.1158
 6324TIP3    H140387   1.366   4.775  16.921  0.6812  1.6659 -1.3720
 6324TIP3    H240388   1.323   4.716  16.789  0.5906  0.9070 -1.0069
 6325TIP3   OH240389   4.839   4.929  13.093 -0.4267 -0.1434 -0.2100
 6325TIP3    H140390   4.785   5.002  13.122  1.4629  1.4789 -0.5093
 6325TIP3    H240391   4.832   4.865  13.163 -2.7155 -0.0340 -0.2685
 6326TIP3   OH240392   3.103   5.083  15.403  0.2801 -0.9414  0.1579
 6326TIP3    H140393   3.137   5.108  15.317 -1.3524 -3.2208 -1.2406
 6326TIP3    H240394   3.181   5.056  15.452  1.1135 -0.8282 -1.0475
 6327TIP3   OH240395   6.453   1.736   0.523  0.1366  1.1141 -0.0038
 6327TIP3    H140396   6.520   1.778   0.577 -0.0099  1.4592 -0.0854
 6327TIP3    H240397   6.488   1.738   0.434 -1.0294  3.6306 -0.5055
 6328TIP3   OH240398   1.163   5.046   4.580 -0.7505  0.0295  0.2496
 6328TIP3    H140399   1.140   4.959   4.612 -0.0157 -0.1704  0.2571
 6328TIP3    H240400   1.183   5.033   4.487  0.2611  0.0154  0.4635
 6329TIP3   OH240401   5.646   1.485  16.898  0.2451 -0.2339 -0.3945
 6329TIP3    H140402   5.591   1.442  16.832  0.1063 -0.7466  0.0444
 6329TIP3    H240403   5.586   1.505  16.970 -0.2217  2.8421 -1.4849
 6330TIP3   OH240404   5.395   6.571   1.824 -0.1558  0.1384 -0.0763
 6330TIP3    H140405   5.398   6.481   1.856 -1.3777  0.4203  0.8936
 6330TIP3    H240406   5.302   6.588   1.808 -0.0861  1.6113  0.9015
 6331TIP3   OH240407   6.428   4.100   4.167  0.2249 -0.0388 -0.1019
 6331TIP3    H140408   6.372   4.092   4.244 -0.0793 -0.3745 -0.3558
 6331TIP3    H240409   6.429   4.012   4.128 -0.3016  0.3219 -0.9580
 6332TIP3   OH240410   3.700   1.720   2.368  0.3062  0.0179  0.5957
 6332TIP3    H140411   3.744   1.646   2.408 -0.6441 -0.9357 -0.0358
 6332TIP3    H240412   3.630   1.742   2.429  0.1813 -0.0572  0.4834
 6333TIP3   OH240413   1.654   5.457   5.956 -0.1210  0.6334  0.6106
 6333TIP3    H140414   1.688   5.393   6.018  0.3121  0.3101  0.0449
 6333TIP3    H240415   1.566   5.425   5.935  0.1434  0.1422  0.2270
 6334TIP3   OH240416   5.869   3.346   6.386  0.6771  0.5067  0.4244
 6334TIP3    H140417   5.919   3.287   6.442  0.9485  1.1484  0.8719
 6334TIP3    H240418   5.927   3.421   6.373  0.7039  0.2855 -0.8866
 6335TIP3   OH240419   4.835   3.701   0.158  0.4490  0.4672 -0.5959
 6335TIP3    H140420   4.895   3.764   0.199 -0.1874  0.4760  0.3702
 6335TIP3    H240421   4.801   3.650   0.232 -2.5016  1.9830 -0.7371
 6336TIP3   OH240422   4.413   1.937  16.519 -0.5275  0.2219 -0.1234
 6336TIP3    H140423   4.409   1.982  16.603 -0.1575 -0.2015  0.1243
 6336TIP3    H240424   4.502   1.903  16.513 -0.6761 -0.1194 -0.4908
 6337TIP3   OH240425   2.425   0.025  16.045 -0.3695 -0.3262  0.8499
 6337TIP3    H140426   2.401  -0.037  15.976 -1.1355 -0.3742  1.1561
 6337TIP3    H240427   2.343   0.065  16.072  0.1595  1.0898  0.4193
 6338TIP3   OH240428   6.084   3.600   1.728 -0.2856  0.2916 -0.1492
 6338TIP3    H140429   6.074   3.577   1.821 -0.4999  1.5620  0.1559
 6338TIP3    H240430   6.155   3.664   1.726  0.3263 -0.3901 -0.9885
 6339TIP3   OH240431   1.149   2.398   0.610 -0.3004  0.4019  0.2392
 6339TIP3    H140432   1.107   2.437   0.687  1.0183 -1.2927  1.9244
 6339TIP3    H240433   1.098   2.318   0.593  0.5967 -0.2591  0.6146
 6340TIP3   OH240434   0.325   4.864   1.928  0.4800 -0.5402 -0.4577
 6340TIP3    H140435   0.235   4.872   1.959  0.8504 -0.4012  0.6170
 6340TIP3    H240436   0.376   4.845   2.006  1.4197 -0.3755 -1.0155
 6341TIP3   OH240437   1.471   3.828   4.939  0.1609  0.2499 -0.3638
 6341TIP3    H140438   1.476   3.898   4.873 -2.2253 -0.3662 -1.2919
 6341TIP3    H240439   1.377   3.814   4.952  0.5340  0.1403  3.0333
 6342TIP3   OH240440   2.562   0.003   6.467 -0.0677 -0.0992  0.6563
 6342TIP3    H140441   2.576   0.089   6.427 -0.1648 -0.2108  0.3813
 6342TIP3    H240442   2.642  -0.013   6.517 -0.1702  0.2809  0.9423
 6343TIP3   OH240443   3.863   2.843  10.747 -0.0590 -0.6244 -0.2215
 6343TIP3    H140444   3.813   2.923  10.765  0.7323 -0.2537  0.4039
 6343TIP3    H240445   3.930   2.870  10.684  1.6114 -0.2192  1.6220
 6344TIP3   OH240446   5.543   3.012   4.085  0.1172 -0.0409 -0.1544
 6344TIP3    H140447   5.495   3.095   4.089  0.0945 -0.0694  0.2655
 6344TIP3    H240448   5.570   3.004   3.994 -0.2313  0.2304 -0.2861
 6345TIP3   OH240449   3.657   4.394  14.681 -0.1385 -0.6323 -0.4783
 6345TIP3    H140450   3.578   4.421  14.634  0.0183 -2.7687 -2.1406
 6345TIP3    H240451   3.642   4.303  14.703  0.8035 -0.3329  1.6143
 6346TIP3   OH240452   1.591   5.133  11.164  0.3609  0.4973  0.0646
 6346TIP3    H140453   1.660   5.122  11.229 -0.2102 -2.3621  0.3392
 6346TIP3    H240454   1.634   5.113  11.080 -0.0637 -1.3892  0.2463
 6347TIP3   OH240455   5.269   6.009  16.283 -0.0821  0.5366  0.2309
 6347TIP3    H140456   5.295   6.097  16.309  1.2909  0.8886 -2.0049
 6347TIP3    H240457   5.320   5.951  16.340 -0.3260  1.1787  1.1186
 6348TIP3   OH240458   6.277   0.689  12.608 -0.6667  0.3822 -0.4008
 6348TIP3    H140459   6.204   0.627  12.600 -1.8994  1.5470  1.1334
 6348TIP3    H240460   6.330   0.654  12.680 -1.0131  0.7372  0.0365
 6349TIP3   OH240461   2.909   4.538   0.256 -0.4693  0.2937 -0.1767
 6349TIP3    H140462   2.934   4.573   0.170 -0.9247  2.2148  0.4232
 6349TIP3    H240463   2.921   4.611   0.316 -2.4897 -0.2715  0.9932
 6350TIP3   OH240464   3.300   5.780  11.116  0.6224  0.1425  0.2065
 6350TIP3    H140465   3.332   5.714  11.055 -0.8845 -0.0317 -0.4348
 6350TIP3    H240466   3.307   5.738  11.202 -2.4327 -1.8595 -0.3617
 6351TIP3   OH240467   6.432   0.219   1.155 -0.1736  0.4114 -0.1971
 6351TIP3    H140468   6.473   0.181   1.078 -0.4422 -0.1040 -0.0949
 6351TIP3    H240469   6.503   0.225   1.220 -0.0647  0.3408 -0.3096
 6352TIP3   OH240470   3.906   4.825   3.930  0.1837 -0.2223 -0.1228
 6352TIP3    H140471   3.946   4.762   3.870 -0.7381 -1.6962  0.7567
 6352TIP3    H240472   3.980   4.862   3.979  0.6561 -1.5996  0.2514
 6353TIP3   OH240473   5.212   2.722  16.167 -0.1292  0.0383 -0.2763
 6353TIP3    H140474   5.226   2.628  16.159 -0.5729  0.0022 -0.6675
 6353TIP3    H240475   5.136   2.731  16.224  0.1197  0.1770  0.0443
 6354TIP3   OH240476   3.970   3.320  13.685  0.3139 -0.1649 -0.1756
 6354TIP3    H140477   4.055   3.290  13.718  0.2163  0.4840  0.7398
 6354TIP3    H240478   3.990   3.400  13.637  0.1614  0.3985  0.6664
 6355TIP3   OH240479   5.751   3.259   6.686 -0.3546 -0.2834  0.5626
 6355TIP3    H140480   5.830   3.220   6.647 -0.4011 -1.4205  1.5541
 6355TIP3    H240481   5.680   3.200   6.661 -0.8917  0.6720 -0.2236
 6356TIP3   OH240482   1.966   3.113  12.209  0.0731  0.0337  0.3650
 6356TIP3    H140483   1.956   3.083  12.119 -0.3488 -0.3891  0.5454
 6356TIP3    H240484   2.046   3.071  12.241  0.6727  0.8252 -0.0595
 6357TIP3   OH240485   6.297   2.839  16.303  0.1995 -0.0376  0.6658
 6357TIP3    H140486   6.383   2.831  16.263  0.4304  1.7499  0.7106
 6357TIP3    H240487   6.295   2.772  16.371  1.0871 -0.8784 -0.1113
 6358TIP3   OH240488   0.410   1.844  10.868 -0.4769  0.5199  0.3589
 6358TIP3    H140489   0.458   1.762  10.882 -0.8094  0.7007  3.0459
 6358TIP3    H240490   0.447   1.879  10.787  1.5418 -0.9899  0.5399
 6359TIP3   OH240491   2.321   0.194   0.804 -0.5681  0.2483 -0.4263
 6359TIP3    H140492   2.262   0.266   0.783  1.2381  1.6524 -0.9218
 6359TIP3    H240493   2.408   0.233   0.803  0.3959 -1.7437  0.2855
 6360TIP3   OH240494   3.460   4.563   1.100  0.2465  0.0675  0.4630
 6360TIP3    H140495   3.442   4.620   1.175 -1.6302 -1.2919  1.1223
 6360TIP3    H240496   3.490   4.481   1.138 -1.4119 -0.8859 -0.1714
 6361TIP3   OH240497   4.961   4.519  10.633 -0.1680  0.2138  0.0983
 6361TIP3    H140498   4.941   4.612  10.621  2.2626  0.6271 -1.5577
 6361TIP3    H240499   5.035   4.519  10.694  0.1151 -0.5746 -0.2370
 6362TIP3   OH240500   1.579   6.311   0.729 -0.6118 -0.1145  0.0710
 6362TIP3    H140501   1.641   6.238   0.727 -1.0638 -0.5276  0.8278
 6362TIP3    H240502   1.495   6.271   0.748 -1.0115  0.5152 -0.3361
 6363TIP3   OH240503   5.461   3.289   1.468  0.2498 -0.8694  0.3611
 6363TIP3    H140504   5.449   3.362   1.528 -0.0946  0.0577 -0.7994
 6363TIP3    H240505   5.374   3.251   1.458  0.4325 -1.4700  0.9822
 6364TIP3   OH240506   3.333   2.368  16.084 -0.4659 -0.5157  0.1230
 6364TIP3    H140507   3.410   2.389  16.135  0.4457 -2.3002 -0.4433
 6364TIP3    H240508   3.307   2.452  16.044 -0.1327  0.5331  1.9814
 6365TIP3   OH240509   0.544   2.659   1.906  0.6171  0.1016 -0.1354
 6365TIP3    H140510   0.554   2.649   1.812  1.2342  1.8122 -0.2906
 6365TIP3    H240511   0.454   2.633   1.924  0.6963 -0.8922 -1.0734
 6366TIP3   OH240512   6.264   4.266  13.648 -0.3390 -0.0751  0.2494
 6366TIP3    H140513   6.307   4.344  13.615 -0.4585 -0.0753  0.0916
 6366TIP3    H240514   6.332   4.198  13.644 -0.2359  0.0196  0.3843
 6367TIP3   OH240515   5.393   1.116  16.682 -0.3160  0.6783 -0.5859
 6367TIP3    H140516   5.348   1.086  16.761  0.0247 -1.5774 -1.1812
 6367TIP3    H240517   5.469   1.058  16.673  1.5059  2.9689 -0.8360
 6368TIP3   OH240518   3.745   6.720  13.625  0.8163 -0.1633  0.0871
 6368TIP3    H140519   3.703   6.700  13.541 -0.5091  1.2611  0.3455
 6368TIP3    H240520   3.727   6.644  13.680 -4.0426  1.3611  1.0698
 6369TIP3   OH240521   6.114   4.414   5.678  0.3259 -0.0721  0.2582
 6369TIP3    H140522   6.068   4.449   5.754 -0.8046 -0.1676 -0.3538
 6369TIP3    H240523   6.087   4.322   5.673  0.3647 -0.0581 -0.2758
 6370TIP3   OH240524   3.188   1.124   2.034 -0.6621 -0.0612  0.2080
 6370TIP3    H140525   3.217   1.215   2.028 -0.0401 -0.3307 -1.2590
 6370TIP3    H240526   3.256   1.074   1.990 -1.0662 -1.2411  0.8722
 6371TIP3   OH240527   4.193   1.717  12.895  0.6239  0.2321 -0.0653
 6371TIP3    H140528   4.211   1.779  12.824 -1.0046 -0.9090 -1.5729
 6371TIP3    H240529   4.188   1.632  12.851 -2.5320 -0.2669  0.9895
 6372TIP3   OH240530   4.521   6.691  11.586  0.3475 -0.0116  0.4974
 6372TIP3    H140531   4.472   6.707  11.505  0.5221  0.7666  0.5395
 6372TIP3    H240532   4.606   6.732  11.571  0.0076  1.1147  1.4736
 6373TIP3   OH240533   1.911   4.656  16.129 -0.0443 -0.5462  0.2408
 6373TIP3    H140534   1.879   4.602  16.201 -1.3861 -0.5179 -0.2869
 6373TIP3    H240535   1.862   4.624  16.053  3.2349 -2.4480 -1.3016
 6374TIP3   OH240536   5.782   1.008  12.203  0.4773  0.0226  0.5201
 6374TIP3    H140537   5.822   1.080  12.252 -1.1442  1.8769 -0.7162
 6374TIP3    H240538   5.696   0.997  12.242 -0.0733  0.1942 -0.5950
 6375TIP3   OH240539   2.659   3.614   0.186 -0.4011 -0.6207 -0.1444
 6375TIP3    H140540   2.581   3.592   0.236 -0.3981 -1.6434 -0.5781
 6375TIP3    H240541   2.732   3.575   0.234 -0.1786  0.0680  0.0937
 6376TIP3   OH240542   2.426   2.654   5.686 -0.4257  0.3681 -0.1269
 6376TIP3    H140543   2.420   2.582   5.623 -1.0633 -0.4597  0.8623
 6376TIP3    H240544   2.337   2.667   5.718 -0.1269  0.8228  0.5610
 6377TIP3   OH240545   5.876   0.211  16.322 -0.4100 -0.1683  0.2130
 6377TIP3    H140546   5.845   0.130  16.281  0.4085 -0.7486  0.7208
 6377TIP3    H240547   5.873   0.276  16.251 -0.0068 -0.9045 -0.4965
 6378TIP3   OH240548   4.411   1.209  15.085 -0.2223 -0.4498 -0.5292
 6378TIP3    H140549   4.363   1.146  15.031 -0.2053 -0.4976 -0.4902
 6378TIP3    H240550   4.364   1.291  15.074  0.8388 -0.0168 -2.0509
 6379TIP3   OH240551   4.822   4.466  11.752  0.2559 -0.2933 -0.1793
 6379TIP3    H140552   4.739   4.496  11.789  0.9529  0.9761  0.4191
 6379TIP3    H240553   4.843   4.530  11.684  1.0365 -0.2410  0.0964
 6380TIP3   OH240554   3.142   2.528   2.595  0.6056  0.4612 -0.3777
 6380TIP3    H140555   3.196   2.486   2.528  1.5500  1.4224 -0.2539
 6380TIP3    H240556   3.152   2.622   2.578  0.4732  0.7071  0.8023
 6381TIP3   OH240557   2.915   3.092   3.437  0.0233 -0.0726  0.4186
 6381TIP3    H140558   2.858   3.163   3.409  0.3950 -0.0803 -0.4003
 6381TIP3    H240559   3.001   3.133   3.450  0.2864 -0.3922 -0.2528
 6382TIP3   OH240560   6.038   0.762  15.637 -0.2319  0.0207  0.3242
 6382TIP3    H140561   6.003   0.686  15.685  1.4566  0.1090  1.7788
 6382TIP3    H240562   6.132   0.747  15.633 -0.0912  1.0783 -1.1745
 6383TIP3   OH240563   3.081   5.099   3.005  0.3005  0.2403 -0.0378
 6383TIP3    H140564   3.046   5.013   2.984  2.1909 -1.3269  2.5238
 6383TIP3    H240565   3.017   5.137   3.065  1.2489 -1.2643  2.1030
 6384TIP3   OH240566   3.877   1.795   5.229 -0.2007  0.5520  0.0390
 6384TIP3    H140567   3.879   1.702   5.251  0.5794  0.6899  0.6062
 6384TIP3    H240568   3.795   1.828   5.266 -0.8324 -0.0487 -0.7927
 6385TIP3   OH240569   3.382   0.001   4.131  0.0545  0.1748  0.1659
 6385TIP3    H140570   3.437   0.025   4.057 -1.5532  0.2260 -1.0689
 6385TIP3    H240571   3.332   0.080   4.151 -0.7911 -0.3371  0.1365
 6386TIP3   OH240572   1.048   0.076  11.351 -0.5243 -0.1175  0.9267
 6386TIP3    H140573   1.140   0.102  11.352 -0.6059  0.2385  0.0192
 6386TIP3    H240574   1.008   0.125  11.422 -0.3357  0.9663  0.2973
 6387TIP3   OH240575   4.166   2.291   2.865  0.3174  0.3378 -0.0115
 6387TIP3    H140576   4.165   2.199   2.891  0.8862 -0.1096 -1.4596
 6387TIP3    H240577   4.203   2.337   2.940  0.1988 -0.6317  0.6556
 6388TIP3   OH240578   0.792   1.976   2.676  0.0609  0.3045 -0.1904
 6388TIP3    H140579   0.821   1.901   2.728 -2.2986  0.1254  0.9780
 6388TIP3    H240580   0.855   2.045   2.695  1.1776 -0.7899  0.2035
 6389TIP3   OH240581   2.026   5.693  16.169  0.0933 -0.2826  0.0314
 6389TIP3    H140582   2.033   5.629  16.098 -0.0478 -0.2493 -0.0114
 6389TIP3    H240583   1.936   5.725  16.164  0.6885  1.3056 -1.1151
 6390TIP3   OH240584   0.052   5.941  11.066  0.5132 -0.3182 -0.3054
 6390TIP3    H140585   0.130   5.970  11.019 -0.0039  0.7953 -0.5162
 6390TIP3    H240586  -0.017   5.944  10.999  0.1307 -0.4800  0.0831
 6391TIP3   OH240587   4.227   6.332  11.260 -0.0704 -0.5497 -0.2737
 6391TIP3    H140588   4.204   6.408  11.313  1.8089 -2.1324  3.1660
 6391TIP3    H240589   4.166   6.264  11.287  0.7731 -1.3372 -0.2810
 6392TIP3   OH240590   1.394   1.109  12.440 -0.3255 -0.3026  0.3012
 6392TIP3    H140591   1.467   1.060  12.401 -0.3569 -1.2900  1.4459
 6392TIP3    H240592   1.366   1.168  12.370  1.9185  0.5079 -0.0065
 6393TIP3   OH240593   0.349   6.302  13.325 -0.1130  0.5443 -0.2797
 6393TIP3    H140594   0.330   6.208  13.326  0.6983  0.3705  0.3548
 6393TIP3    H240595   0.318   6.334  13.409  1.6032  0.3936  0.4599
 6394TIP3   OH240596   1.504   0.743  16.151 -0.3527  0.0784  0.3159
 6394TIP3    H140597   1.435   0.808  16.146 -1.0522 -0.6534  0.1739
 6394TIP3    H240598   1.464   0.663  16.116  0.4240 -0.4716  0.6501
 6395TIP3   OH240599   1.047   3.681   0.158  1.0336 -0.0916 -0.1075
 6395TIP3    H140600   1.077   3.652   0.244  0.8908  2.0148  0.7168
 6395TIP3    H240601   0.964   3.725   0.175  1.3289  0.9612 -1.2145
 6396TIP3   OH240602   5.607   5.982   3.434  0.5088  0.1765 -0.1605
 6396TIP3    H140603   5.520   5.995   3.470 -0.2228 -0.1550 -1.7222
 6396TIP3    H240604   5.664   6.036   3.488 -0.6508  0.3702  0.9032
 6397TIP3   OH240605   2.860   5.268  16.214 -0.1475 -0.0246  0.0082
 6397TIP3    H140606   2.914   5.190  16.203  0.3392  0.2024  0.7190
 6397TIP3    H240607   2.803   5.269  16.137  0.2800 -0.7283 -0.3240
 6398TIP3   OH240608   3.296   4.042  15.378  0.7165 -0.5550  0.4534
 6398TIP3    H140609   3.319   3.964  15.329  1.3596  0.0498 -0.2205
 6398TIP3    H240610   3.350   4.038  15.457  1.0900 -0.5527  0.1973
 6399TIP3   OH240611   3.619   0.509  16.524 -0.0198  0.0817  0.2738
 6399TIP3    H140612   3.656   0.475  16.442  0.3884 -0.2980  0.6051
 6399TIP3    H240613   3.605   0.602  16.508  0.0086 -0.0025 -0.2462
 6400TIP3   OH240614   3.717   0.846  11.677 -0.4321 -0.3530 -0.2447
 6400TIP3    H140615   3.663   0.811  11.606  0.0159 -1.9046  0.1434
 6400TIP3    H240616   3.781   0.777  11.695 -0.7342 -0.1488  1.8773
 6401TIP3   OH240617   6.726   2.116   1.913  0.6450  0.1279  0.2751
 6401TIP3    H140618   6.667   2.041   1.920  0.1283  0.6703  2.2899
 6401TIP3    H240619   6.746   2.121   1.819 -2.5659 -0.0618 -0.5539
 6402TIP3   OH240620   6.011   4.162   3.180  0.1474  0.4726 -0.3731
 6402TIP3    H140621   5.980   4.250   3.158 -0.3108 -0.1896 -2.7500
 6402TIP3    H240622   6.105   4.164   3.160 -0.1203  0.0856 -1.7588
 6403TIP3   OH240623   3.751   5.675   5.310  0.2103 -0.8624 -0.1796
 6403TIP3    H140624   3.760   5.663   5.404 -0.6264  0.7841  0.1532
 6403TIP3    H240625   3.756   5.587   5.273 -0.0182 -1.5860  1.4482
 6404TIP3   OH240626   1.877   5.383   3.607 -0.3065  0.4164 -0.0248
 6404TIP3    H140627   1.852   5.321   3.676  3.7044  0.2719  1.5842
 6404TIP3    H240628   1.888   5.329   3.529  1.3863 -0.7070  0.9164
 6405TIP3   OH240629   3.996   4.081  11.986 -0.1321  0.1191  0.1504
 6405TIP3    H140630   4.061   4.025  12.030  1.2513  0.7777 -0.9557
 6405TIP3    H240631   3.942   4.020  11.936 -0.7382 -0.4955  1.5289
 6406TIP3   OH240632   5.930   4.099   0.069  0.1606  0.2164 -0.4220
 6406TIP3    H140633   5.927   4.029   0.135  1.6352 -0.5876 -1.1454
 6406TIP3    H240634   6.017   4.136   0.078 -0.1090  1.0118 -1.0153
 6407TIP3   OH240635   6.121   3.230   1.050  0.1402 -0.1264  0.4997
 6407TIP3    H140636   6.075   3.230   0.966  0.2208 -0.9951  0.4506
 6407TIP3    H240637   6.169   3.147   1.052 -0.1041 -0.2576  1.5382
 6408TIP3   OH240638   0.057   0.851  15.200 -0.2496 -0.1523 -0.0840
 6408TIP3    H140639  -0.010   0.790  15.231 -0.7831  1.4048  2.0688
 6408TIP3    H240640   0.081   0.902  15.278  1.2128  1.4147 -1.4692
 6409TIP3   OH240641   1.370   2.597  13.399  0.3073 -0.4579 -0.1581
 6409TIP3    H140642   1.359   2.508  13.434 -1.3281 -0.2889 -0.1906
 6409TIP3    H240643   1.435   2.637  13.457 -0.9925 -0.7825  1.5990
 6410TIP3   OH240644   5.952   0.152  14.325  0.4296  0.0007 -0.0885
 6410TIP3    H140645   5.874   0.117  14.282  0.7987 -0.7296 -0.1743
 6410TIP3    H240646   6.025   0.103  14.286  1.2317  2.5780 -2.0679
 6411TIP3   OH240647   0.622   6.308  16.727 -0.0318  0.2089 -0.2674
 6411TIP3    H140648   0.615   6.284  16.820 -2.0114 -0.0737 -0.4483
 6411TIP3    H240649   0.627   6.403  16.727 -1.7548  0.3393  0.1095
 6412TIP3   OH240650   1.683   4.102   0.190 -0.3115  0.2167  0.3051
 6412TIP3    H140651   1.673   4.056   0.107  0.2863  0.0114  0.3364
 6412TIP3    H240652   1.759   4.159   0.176  0.9575 -1.1559  1.2696
 6413TIP3   OH240653   5.057   5.463  11.119 -0.0735  0.3685  0.0560
 6413TIP3    H140654   5.058   5.546  11.072 -0.2923  0.2713 -0.1239
 6413TIP3    H240655   5.022   5.485  11.205  1.0052  0.6771  0.4272
 6414TIP3   OH240656   3.210   0.114   0.906  0.2602  0.2605 -0.3410
 6414TIP3    H140657   3.201   0.196   0.954  0.2248 -1.0604  2.0734
 6414TIP3    H240658   3.295   0.079   0.933 -0.9033 -1.8018  0.9632
 6415TIP3   OH240659   0.235   3.106  11.568  0.4057  0.3228 -0.1732
 6415TIP3    H140660   0.284   3.176  11.611 -1.0272 -0.9171  3.9912
 6415TIP3    H240661   0.143   3.126  11.587 -0.2719 -0.8802 -1.9613
 6416TIP3   OH240662   2.511   1.942   5.256 -0.1695 -0.1267 -0.3379
 6416TIP3    H140663   2.533   2.031   5.282 -0.8909  0.0536 -0.3170
 6416TIP3    H240664   2.542   1.936   5.165  1.4375 -0.4340  0.1976
 6417TIP3   OH240665   1.426   0.048  16.931 -0.6043 -0.3852 -0.6688
 6417TIP3    H140666   1.391  -0.040  16.946  0.5238 -0.6072  0.9218
 6417TIP3    H240667   1.364   0.106  16.976  0.3463 -0.6818  1.1318
 6418TIP3   OH240668   5.340   3.328  11.205  0.5045 -1.3906 -0.1153
 6418TIP3    H140669   5.276   3.278  11.154  0.0783 -1.5448  0.5604
 6418TIP3    H240670   5.354   3.276  11.284 -0.0091 -0.4361  0.6365
 6419TIP3   OH240671   2.003   5.028  16.816 -0.4054  0.2118 -0.0746
 6419TIP3    H140672   2.064   4.962  16.847 -0.4917  0.4186  0.5623
 6419TIP3    H240673   2.048   5.072  16.745  0.0763  0.1801  0.2120
 6420TIP3   OH240674   3.498   4.757  16.145  0.0490  0.2592 -0.0737
 6420TIP3    H140675   3.491   4.728  16.236 -1.5229  1.1886  0.1365
 6420TIP3    H240676   3.480   4.679  16.093 -0.8533  0.1069  0.4453
 6421TIP3   OH240677   0.198   5.506  16.303  0.3212  0.4029 -0.0465
 6421TIP3    H140678   0.255   5.497  16.379 -0.9666 -3.7984  0.6672
 6421TIP3    H240679   0.113   5.529  16.339  0.0451 -0.1064 -0.3654
 6422TIP3   OH240680   2.086   2.167  16.618  0.0993  0.0034  0.0526
 6422TIP3    H140681   1.994   2.194  16.627  0.2876  1.0918 -0.9930
 6422TIP3    H240682   2.081   2.078  16.584 -0.5749 -0.0813  0.3475
 6423TIP3   OH240683   6.250   5.361   0.054  0.1381 -0.4346  0.4893
 6423TIP3    H140684   6.261   5.343  -0.039  2.1537  0.0603  0.5814
 6423TIP3    H240685   6.158   5.383   0.064 -0.0225 -0.0492 -1.4703
 6424TIP3   OH240686   5.061   3.367   5.962  0.6661  0.5104  0.5969
 6424TIP3    H140687   5.156   3.362   5.971  0.7264  1.5367  0.6855
 6424TIP3    H240688   5.027   3.324   6.039  1.0369 -0.9086 -0.0005
 6425TIP3   OH240689   4.671   5.081  17.146 -0.3001  0.8622 -0.5031
 6425TIP3    H140690   4.758   5.121  17.144 -0.3202  1.0206  0.8031
 6425TIP3    H240691   4.685   4.993  17.181 -0.5358  0.5106 -1.2810
 6426TIP3   OH240692   5.028   3.772  15.587  0.1319  0.2001 -0.5097
 6426TIP3    H140693   5.075   3.692  15.613 -1.4052 -0.7300 -0.5098
 6426TIP3    H240694   5.016   3.762  15.492  0.3891  0.7024 -0.6011
 6427TIP3   OH240695   5.272   3.449   3.841 -0.0363  0.0333  0.2381
 6427TIP3    H140696   5.206   3.429   3.907  0.2223 -1.0911  0.1888
 6427TIP3    H240697   5.343   3.491   3.889  0.0472 -0.5540  0.6442
 6428TIP3   OH240698   3.207   3.845  16.159  0.0355  0.5565  0.2922
 6428TIP3    H140699   3.266   3.896  16.214 -1.6977  3.3691 -0.2622
 6428TIP3    H240700   3.162   3.786  16.220  3.1641 -1.6684  0.7357
 6429TIP3   OH240701   3.992   2.366   2.662 -0.2982  0.1855 -0.7402
 6429TIP3    H140702   3.996   2.461   2.649  0.8368  0.3725  0.7240
 6429TIP3    H240703   4.056   2.349   2.731 -0.4505 -1.6614 -1.0204
 6430TIP3   OH240704   0.230   4.803   1.684 -0.1932  0.1382  0.1346
 6430TIP3    H140705   0.285   4.734   1.648  0.2380  0.1586  0.7440
 6430TIP3    H240706   0.274   4.829   1.765  1.0239  2.8500 -1.2663
 6431TIP3   OH240707   1.220   3.245  11.294  0.3687 -0.1814  0.4662
 6431TIP3    H140708   1.259   3.239  11.206 -0.6547 -0.2544 -0.0007
 6431TIP3    H240709   1.273   3.311  11.339  0.4670  0.3859 -0.4452
 6432TIP3   OH240710   4.712   0.275   3.434 -0.3680 -0.0820 -0.3133
 6432TIP3    H140711   4.663   0.196   3.456 -0.4963  0.0217 -0.2258
 6432TIP3    H240712   4.686   0.339   3.500  0.9133 -0.4282  0.5636
 6433TIP3   OH240713   5.087   4.308  16.389  0.0233  0.0445  0.1872
 6433TIP3    H140714   5.017   4.253  16.353 -2.0119  0.7879  2.6685
 6433TIP3    H240715   5.106   4.371  16.319 -2.4424  0.3401 -0.3203
 6434TIP3   OH240716   3.066   1.876  15.364 -0.7353 -0.2627 -0.0677
 6434TIP3    H140717   3.145   1.827  15.344  0.4382  1.7265 -0.5622
 6434TIP3    H240718   3.008   1.859  15.289  0.0322 -0.1045 -0.7004
 6435TIP3   OH240719   3.069   6.780  15.203 -0.3991  0.3981  0.6132
 6435TIP3    H140720   3.067   6.752  15.294 -1.0866  0.2490  0.5561
 6435TIP3    H240721   3.002   6.849  15.198 -0.3919  0.3771  0.2169
 6436TIP3   OH240722   2.203   1.968   4.425  0.1754  0.0252 -0.6866
 6436TIP3    H140723   2.188   1.952   4.332 -0.4176 -0.8807 -0.4430
 6436TIP3    H240724   2.250   2.052   4.427  0.0491  0.1407 -1.7858
 6437TIP3   OH240725   1.804   3.640  16.291  0.4623  0.1869 -0.7208
 6437TIP3    H140726   1.900   3.644  16.284  0.6883  0.0059  1.6099
 6437TIP3    H240727   1.787   3.580  16.362 -1.4168  0.2957 -1.0189
 6438TIP3   OH240728   1.810   6.699   0.981  0.0551 -0.5789  0.1027
 6438TIP3    H140729   1.849   6.737   1.060 -0.9520  0.7884 -0.0279
 6438TIP3    H240730   1.820   6.604   0.994 -0.0543 -0.3964  1.8641
 6439TIP3   OH240731   2.501   1.296  16.888  0.0792  0.0092  0.8353
 6439TIP3    H140732   2.574   1.303  16.826 -1.6614  2.1479 -1.2027
 6439TIP3    H240733   2.491   1.202  16.903  0.7217 -0.6251 -2.0842
 6440TIP3   OH240734   5.344   6.047  11.234 -0.4973 -0.3482  0.6241
 6440TIP3    H140735   5.425   6.023  11.188 -0.7406 -0.0449  0.0264
 6440TIP3    H240736   5.283   5.976  11.213 -0.2457 -0.8322  1.4790
 6441TIP3   OH240737   0.028   6.653   5.227  0.2837  0.1615  0.2252
 6441TIP3    H140738  -0.014   6.568   5.239 -2.1149  0.9720 -1.5627
 6441TIP3    H240739   0.088   6.641   5.154  1.8547 -0.5381  1.5705
 6442TIP3   OH240740   0.831   6.157  12.062 -0.2576 -0.0662 -0.2513
 6442TIP3    H140741   0.875   6.217  12.002  1.2319 -1.5065 -0.6872
 6442TIP3    H240742   0.776   6.213  12.116  1.0876  1.6927 -0.6079
 6443TIP3   OH240743   0.869   2.571  16.479 -0.2388 -0.4648 -0.3946
 6443TIP3    H140744   0.831   2.568  16.567  2.1788 -0.7586  0.7149
 6443TIP3    H240745   0.810   2.518  16.425 -1.8893 -0.1005  0.9595
 6444TIP3   OH240746   2.375   4.138  17.166  0.4080 -0.4466  0.5304
 6444TIP3    H140747   2.281   4.153  17.161  0.0624 -2.3683  0.5081
 6444TIP3    H240748   2.406   4.201  17.231 -1.0112 -0.2619  1.0522
 6445TIP3   OH240749   0.796   1.046   2.980  0.3286  0.2131 -0.1886
 6445TIP3    H140750   0.769   1.132   3.012 -0.9515 -0.6261  1.1052
 6445TIP3    H240751   0.835   1.003   3.057  0.7843 -0.4345 -0.7709
 6446TIP3   OH240752   5.595   5.650   4.508  0.1278 -0.3600  0.1388
 6446TIP3    H140753   5.549   5.733   4.502 -1.0743 -1.0474 -0.4962
 6446TIP3    H240754   5.533   5.590   4.549  0.9060 -0.9986  0.4219
 6447TIP3   OH240755   5.209   4.071   2.434 -0.3566  0.6266  0.1969
 6447TIP3    H140756   5.135   4.125   2.462 -0.1424  1.9685 -1.5987
 6447TIP3    H240757   5.183   4.038   2.348  0.4171 -0.3816  0.3326
 6448TIP3   OH240758   1.243   6.584  16.537  0.1787 -0.3520  0.2481
 6448TIP3    H140759   1.248   6.678  16.519 -0.4216 -0.2191  0.7588
 6448TIP3    H240760   1.309   6.570  16.604  0.6215 -0.3910 -0.1881
 6449TIP3   OH240761   6.378   2.548   2.279  0.1720  0.0756 -0.3904
 6449TIP3    H140762   6.308   2.508   2.330  1.2774 -1.1817  0.2104
 6449TIP3    H240763   6.344   2.552   2.190 -0.5080 -0.9315 -0.1920
 6450TIP3   OH240764   3.888   3.464  15.420 -0.6954 -0.5632 -0.1121
 6450TIP3    H140765   3.844   3.444  15.338  1.0394 -1.3719 -0.9028
 6450TIP3    H240766   3.864   3.554  15.440 -1.5663 -0.5396 -1.2120
 6451TIP3   OH240767   4.716   5.099   1.956 -0.7388 -0.1543  0.4562
 6451TIP3    H140768   4.767   5.027   1.993 -0.8240 -1.2692 -1.5059
 6451TIP3    H240769   4.755   5.178   1.995  2.2672 -0.9676 -0.6080
 6452TIP3   OH240770   5.201   3.707  16.040  0.1042  0.3173 -0.3860
 6452TIP3    H140771   5.245   3.778  16.086 -1.0305  1.6972 -1.3684
 6452TIP3    H240772   5.167   3.747  15.961  1.8491 -1.9278 -2.4299
 6453TIP3   OH240773   3.040   2.456   1.132 -0.1499  0.1387 -0.3884
 6453TIP3    H140774   3.037   2.361   1.140  0.8702  0.0030 -1.3322
 6453TIP3    H240775   2.954   2.480   1.096 -0.3230 -0.4455 -0.3684
 6454TIP3   OH240776   6.788   0.525   2.273 -0.3888  0.2317  0.2742
 6454TIP3    H140777   6.810   0.545   2.182 -1.1197  0.1415  0.0757
 6454TIP3    H240778   6.702   0.484   2.269 -0.5541  0.4852  1.0335
 6455TIP3   OH240779   2.919   0.501   4.472  0.6498 -0.2801 -0.1300
 6455TIP3    H140780   2.836   0.545   4.489  3.8302  5.2001  4.8415
 6455TIP3    H240781   2.939   0.523   4.381 -1.3094  2.4883 -0.0249
 6456TIP3   OH240782   2.906   4.803   4.133  0.1919 -0.0716  0.2672
 6456TIP3    H140783   2.852   4.788   4.055 -1.6817  1.7520  1.1185
 6456TIP3    H240784   2.917   4.717   4.172  0.0311 -0.8276 -1.3083
 6457TIP3   OH240785   3.839   2.349  12.879  0.3303 -0.1478  0.5591
 6457TIP3    H140786   3.744   2.343  12.874  0.3959 -0.2901 -0.8171
 6457TIP3    H240787   3.856   2.432  12.923 -0.4386  0.4460 -0.2392
 6458TIP3   OH240788   4.750   0.755  14.468  0.6434 -0.2513  0.0565
 6458TIP3    H140789   4.741   0.768  14.373 -2.3071 -2.1508 -0.0500
 6458TIP3    H240790   4.757   0.660  14.479 -0.0003 -0.1265  1.8027
 6459TIP3   OH240791   4.679   3.691   0.585 -0.5153 -0.0288 -0.2679
 6459TIP3    H140792   4.677   3.775   0.631  0.5644 -0.4217  0.5229
 6459TIP3    H240793   4.705   3.627   0.652 -2.0661 -1.1394 -0.6632
 6460TIP3   OH240794   0.264   6.133  12.919  1.0484 -0.3082 -0.3029
 6460TIP3    H140795   0.308   6.202  12.967  0.7602 -1.2111  1.3557
 6460TIP3    H240796   0.225   6.077  12.987 -1.8632 -0.0837 -1.6147
 6461TIP3   OH240797   6.578   2.398   5.540  0.3606  0.0713  0.2123
 6461TIP3    H140798   6.639   2.466   5.569  0.3685 -0.2359  0.9312
 6461TIP3    H240799   6.627   2.348   5.475  0.4018  0.6655 -0.2250
 6462TIP3   OH240800   0.742   5.582  12.416  0.1916  0.4593 -0.2158
 6462TIP3    H140801   0.810   5.514  12.408 -0.4331 -0.0990 -0.9231
 6462TIP3    H240802   0.785   5.653  12.464  0.9835 -0.2726  0.1972
 6463TIP3   OH240803   2.695   2.686   5.579 -0.6295  0.8522  0.1180
 6463TIP3    H140804   2.614   2.727   5.609 -2.6189 -2.3351 -0.4781
 6463TIP3    H240805   2.717   2.622   5.647 -0.7943 -0.9494 -1.4393
 6464TIP3   OH240806   1.260   4.626   2.989  0.6791  0.3377 -0.0013
 6464TIP3    H140807   1.312   4.609   2.911  0.2696 -0.4346 -0.1166
 6464TIP3    H240808   1.194   4.690   2.962  1.8865  1.7438  0.2877
 6465TIP3   OH240809   2.643   1.580   0.079 -0.1132 -0.1553  0.1894
 6465TIP3    H140810   2.576   1.598   0.013  0.9028 -1.7804 -1.3765
 6465TIP3    H240811   2.596   1.584   0.163 -1.5395  1.5240 -0.6025
 6466TIP3   OH240812   2.606   0.538  14.011  0.3666  0.3005  0.2052
 6466TIP3    H140813   2.602   0.470  13.943  0.7699 -0.2520  0.7178
 6466TIP3    H240814   2.649   0.612  13.969  1.8809 -0.5142  0.2219
 6467TIP3   OH240815   4.847   5.628  12.650  0.7263  0.3590 -0.4363
 6467TIP3    H140816   4.881   5.701  12.701 -0.8804 -0.0908  1.4134
 6467TIP3    H240817   4.925   5.588  12.611  1.8832  1.5792  0.5039
 6468TIP3   OH240818   1.775   2.601  12.602  0.0510 -0.4800  0.2489
 6468TIP3    H140819   1.717   2.538  12.643  3.2185 -2.0473  2.7177
 6468TIP3    H240820   1.858   2.554  12.590  1.7164  2.3790 -0.4818
 6469TIP3   OH240821   0.911   0.348   2.825 -0.4806 -0.6089 -0.5758
 6469TIP3    H140822   0.934   0.421   2.883  0.2161  0.3459 -1.9755
 6469TIP3    H240823   0.828   0.375   2.786 -0.3362 -0.6669 -0.9246
 6470TIP3   OH240824   5.949   0.777  13.769 -0.1894  0.1109  0.0407
 6470TIP3    H140825   5.976   0.850  13.714 -1.8882  0.1808 -0.7604
 6470TIP3    H240826   5.898   0.720  13.711  1.5078 -2.0345  0.4963
 6471TIP3   OH240827   0.660   0.222  13.636 -0.2465 -0.3959 -0.1837
 6471TIP3    H140828   0.638   0.313  13.618  1.1659  0.4004  1.7459
 6471TIP3    H240829   0.609   0.200  13.714  1.0853 -0.4953  0.6884
 6472TIP3   OH240830   5.217   1.445  13.878  0.7148 -0.4427 -0.6367
 6472TIP3    H140831   5.125   1.419  13.890 -0.2188  1.8923 -2.1956
 6472TIP3    H240832   5.265   1.386  13.937 -1.9115 -0.6290  1.5485
 6473TIP3   OH240833   1.819   5.616  14.513  0.2164 -0.4175 -1.0319
 6473TIP3    H140834   1.910   5.619  14.541 -0.1327  0.4526  0.0467
 6473TIP3    H240835   1.781   5.545  14.564  0.0837 -0.2400 -0.8890
 6474TIP3   OH240836   1.973   3.115   4.110 -0.6388  0.5926  0.0032
 6474TIP3    H140837   1.916   3.104   4.034 -1.6208 -1.4598  0.9629
 6474TIP3    H240838   1.945   3.199   4.147 -2.3254  0.1584 -0.1734
 6475TIP3   OH240839   2.180   6.347   0.992 -0.1657 -0.3904 -1.0529
 6475TIP3    H140840   2.166   6.435   1.026 -0.7666 -0.6212 -0.6923
 6475TIP3    H240841   2.241   6.307   1.053  0.2089 -0.1854 -1.2885
 6476TIP3   OH240842   1.086   5.157   5.453 -0.1183  0.6287 -0.6215
 6476TIP3    H140843   1.137   5.207   5.517  0.9434 -0.8383 -0.2500
 6476TIP3    H240844   1.128   5.176   5.369  0.7745 -0.1818 -0.3828
 6477TIP3   OH240845   3.680   2.747   2.274 -0.3856  0.8788  0.6067
 6477TIP3    H140846   3.591   2.778   2.254 -0.7402  0.7095  1.8508
 6477TIP3    H240847   3.732   2.773   2.198 -1.2742  1.9477  0.3378
 6478TIP3   OH240848   5.024   6.096  17.058 -0.3906  0.0221  0.3625
 6478TIP3    H140849   4.930   6.114  17.058 -0.6361 -0.9465 -1.6490
 6478TIP3    H240850   5.037   6.034  17.130 -1.5040 -0.6190  0.0393
 6479TIP3   OH240851   6.525   0.810   3.217 -0.0202  0.1079  0.1131
 6479TIP3    H140852   6.511   0.901   3.243 -1.4835  0.4068 -1.5268
 6479TIP3    H240853   6.604   0.812   3.163 -1.2566  0.8692 -1.7842
 6480TIP3   OH240854   3.357   4.453  13.055  0.4000  1.1200  0.0835
 6480TIP3    H140855   3.425   4.390  13.082  0.9836  1.8175  0.2569
 6480TIP3    H240856   3.391   4.538  13.081 -0.0390  1.5985 -0.8492
 6481TIP3   OH240857   2.672   6.381   2.502  0.2038 -0.4850 -0.3541
 6481TIP3    H140858   2.704   6.291   2.503 -0.9573 -0.9120  0.1074
 6481TIP3    H240859   2.729   6.426   2.439  1.7287 -1.1687  0.4804
 6482TIP3   OH240860   3.818   5.863  10.824  0.4213 -0.0416  0.5627
 6482TIP3    H140861   3.913   5.859  10.839  0.6043 -0.7721 -0.6506
 6482TIP3    H240862   3.782   5.793  10.877  0.6183 -0.0527  0.6821
 6483TIP3   OH240863   0.997   1.693  17.054 -0.5263 -0.5084 -0.1714
 6483TIP3    H140864   0.908   1.657  17.051 -0.8659  0.3612 -1.6102
 6483TIP3    H240865   1.028   1.687  16.964 -0.2611  1.9217 -0.2932
 6484TIP3   OH240866   2.761   3.012   2.280  0.5603  0.1255  0.5830
 6484TIP3    H140867   2.795   3.087   2.232 -2.0294  0.7037 -0.5135
 6484TIP3    H240868   2.831   2.988   2.341  2.6096  1.5302 -1.0977
 6485TIP3   OH240869   3.868   1.798  12.613  0.1494  0.7733 -0.0161
 6485TIP3    H140870   3.800   1.833  12.555  1.9279  2.5433 -1.1592
 6485TIP3    H240871   3.878   1.864  12.681  1.1063  0.8151 -0.1882
 6486TIP3   OH240872   1.068   3.170  15.237  0.4548  0.2118  0.1015
 6486TIP3    H140873   1.106   3.252  15.268  1.4235 -0.6973  1.4417
 6486TIP3    H240874   1.117   3.149  15.157  2.2618 -0.4917  1.3264
 6487TIP3   OH240875   6.335   1.843  12.786  0.0620 -0.4973 -0.2304
 6487TIP3    H140876   6.300   1.860  12.698  0.6480  0.1349 -0.3505
 6487TIP3    H240877   6.430   1.845  12.775  0.1660  0.9147  0.6414
 6488TIP3   OH240878   3.628   2.410   1.341  0.2976 -0.0058  0.0909
 6488TIP3    H140879   3.580   2.448   1.414 -1.2090  1.9305 -1.7508
 6488TIP3    H240880   3.609   2.316   1.345 -0.6742  0.2245  1.5136
 6489TIP3   OH240881   5.500   3.063   4.373 -0.5157 -0.5685  0.5003
 6489TIP3    H140882   5.496   3.038   4.281  1.2726 -1.2944  0.5852
 6489TIP3    H240883   5.409   3.062   4.402 -1.1261 -0.1289 -1.2933
 6490TIP3   OH240884   5.206   4.016   4.600 -0.0207  0.3069  0.0664
 6490TIP3    H140885   5.149   4.092   4.611 -1.8207 -1.2408  2.4130
 6490TIP3    H240886   5.154   3.942   4.631  2.5978 -1.5068  0.4798
 6491TIP3   OH240887   1.760   6.684   3.889  0.1328 -0.0514 -0.0488
 6491TIP3    H140888   1.739   6.608   3.943 -2.4257  0.6512  0.0573
 6491TIP3    H240889   1.771   6.648   3.801  1.0678 -0.7779  0.3470
 6492TIP3   OH240890   0.463   5.389  15.806  0.4448  0.4907  0.4953
 6492TIP3    H140891   0.471   5.451  15.879  0.9902  1.2063 -0.1530
 6492TIP3    H240892   0.392   5.331  15.832  0.5364  0.8159  1.5373
 6493TIP3   OH240893   0.030   3.293   3.212 -0.2811  0.4925  0.3959
 6493TIP3    H140894   0.071   3.379   3.216  1.0721 -0.1378  0.5789
 6493TIP3    H240895   0.057   3.250   3.293  0.6618 -0.7845 -0.5592
 6494TIP3   OH240896   4.482   0.016  16.748 -0.5462  0.2104  0.7384
 6494TIP3    H140897   4.549   0.023  16.817 -1.1324 -0.6353  1.4182
 6494TIP3    H240898   4.464  -0.078  16.743 -2.3884  0.5049  1.2633
 6495TIP3   OH240899   1.033   6.743   0.535 -0.0487  0.3201 -0.0313
 6495TIP3    H140900   1.043   6.788   0.620  0.5104 -1.2783  0.7976
 6495TIP3    H240901   1.121   6.712   0.515 -0.5609 -1.1402 -0.1237
 6496TIP3   OH240902   1.735   1.519   4.103 -0.0458  0.1185 -0.2470
 6496TIP3    H140903   1.653   1.510   4.053 -0.2964 -1.9724  0.4246
 6496TIP3    H240904   1.796   1.462   4.056  0.9858  1.4950 -0.6100
 6497TIP3   OH240905   6.433   4.809   0.608  0.2129  0.0307 -0.2819
 6497TIP3    H140906   6.405   4.728   0.651  1.9128 -0.2445  0.3595
 6497TIP3    H240907   6.454   4.783   0.519  0.2336 -0.1265 -0.2316
 6498TIP3   OH240908   6.141   5.329  13.460  0.1049  0.3184  0.2759
 6498TIP3    H140909   6.064   5.313  13.514 -0.3184 -0.6410 -0.5599
 6498TIP3    H240910   6.188   5.246  13.462 -0.5855 -0.1888 -1.8135
 6499TIP3   OH240911   4.537   0.293  15.874  0.1282  0.2442  0.6846
 6499TIP3    H140912   4.583   0.377  15.871 -0.4915  0.7538  3.2961
 6499TIP3    H240913   4.447   0.316  15.898  0.4948 -1.1936  4.0550
 6500TIP3   OH240914   1.256   1.476  15.383  0.2541  0.2231  0.1278
 6500TIP3    H140915   1.294   1.390  15.401 -0.4787 -0.2393 -0.4796
 6500TIP3    H240916   1.183   1.458  15.323 -1.1669  1.0289  1.5367
 6501TIP3   OH240917   3.706   5.853  10.555  0.0309  0.2292  0.0499
 6501TIP3    H140918   3.726   5.834  10.647  1.5923 -0.1261 -0.3303
 6501TIP3    H240919   3.630   5.911  10.559  0.7034  1.0759  1.6099
 6502TIP3   OH240920   0.048   0.576   2.006  1.0458 -0.1580  0.1378
 6502TIP3    H140921   0.019   0.577   1.915 -0.7148  0.3305  0.6764
 6502TIP3    H240922   0.115   0.508   2.009 -0.8660 -2.2022 -0.9441
 6503TIP3   OH240923   6.595   3.880  11.464  0.4371 -0.2287 -0.0634
 6503TIP3    H140924   6.639   3.961  11.438  0.7327 -0.6443 -0.8907
 6503TIP3    H240925   6.582   3.832  11.382 -0.7720 -0.5109  0.2815
 6504TIP3   OH240926   3.070   3.676  16.909  0.2986  0.3386  0.2367
 6504TIP3    H140927   3.110   3.699  16.993  1.4308  0.2085 -0.2640
 6504TIP3    H240928   3.125   3.717  16.843  0.8855 -1.6173 -0.5680
 6505TIP3   OH240929   0.656   1.472   0.228  0.0930 -0.1111  0.0267
 6505TIP3    H140930   0.599   1.545   0.206  0.4018  0.0419 -0.2808
 6505TIP3    H240931   0.737   1.513   0.257  0.7180 -0.3177 -1.3464
 6506TIP3   OH240932   2.048   1.838   5.252  0.4238 -0.0283  0.0185
 6506TIP3    H140933   2.107   1.828   5.177 -1.2420 -1.9367 -1.1840
 6506TIP3    H240934   2.069   1.764   5.309 -0.3472 -0.3786 -0.1309
 6507TIP3   OH240935   4.593   1.972   3.413  0.0969  0.5062  0.6470
 6507TIP3    H140936   4.539   1.982   3.334 -0.0166 -0.4611  0.5884
 6507TIP3    H240937   4.553   1.899   3.460  0.0210  1.2208  1.7350
 6508TIP3   OH240938   6.056   1.368  16.270  0.3728 -0.2912 -0.2385
 6508TIP3    H140939   5.967   1.382  16.302  1.5565  0.7964  2.9607
 6508TIP3    H240940   6.089   1.296  16.323  1.6555 -0.1496 -0.8134
 6509TIP3   OH240941   1.416   2.363  13.672  0.6103  0.2677 -0.0851
 6509TIP3    H140942   1.334   2.402  13.643  0.4354  2.2197  2.6668
 6509TIP3    H240943   1.397   2.270  13.682 -0.9091  0.5036 -0.5714
 6510TIP3   OH240944   5.013   6.478   0.432 -0.7617  0.2482 -0.0291
 6510TIP3    H140945   4.983   6.505   0.345 -0.5043  1.1017  0.1414
 6510TIP3    H240946   5.108   6.471   0.424 -0.7363  0.3356  0.1851
 6511TIP3   OH240947   5.061   2.047  11.089  0.0359  0.0753  0.4900
 6511TIP3    H140948   5.041   2.096  11.169 -0.8513  0.6961 -0.0951
 6511TIP3    H240949   5.150   2.073  11.066 -0.2478  1.0559  0.4588
 6512TIP3   OH240950   5.734   0.904   0.683  0.0132 -0.6190 -0.2054
 6512TIP3    H140951   5.773   0.977   0.730  0.0744 -0.7234 -0.0927
 6512TIP3    H240952   5.745   0.925   0.591 -1.7000  0.4611 -0.2053
 6513TIP3   OH240953   6.607   0.195   1.366  0.1150 -0.0786  0.2956
 6513TIP3    H140954   6.571   0.273   1.407  1.4193  0.2681  0.8332
 6513TIP3    H240955   6.584   0.124   1.426  1.8091  0.3929  1.5965
 6514TIP3   OH240956   5.017   6.073   3.348  0.0374 -0.0817  0.0868
 6514TIP3    H140957   5.045   6.159   3.378  2.5029 -0.7467 -0.0875
 6514TIP3    H240958   4.947   6.091   3.285 -0.9024  1.6392  1.5407
 6515TIP3   OH240959   2.988   2.724   2.304  0.8030  0.0870  0.3110
 6515TIP3    H140960   3.006   2.797   2.245  1.8073 -0.6773 -0.3676
 6515TIP3    H240961   3.020   2.647   2.257 -1.1982 -0.9472  0.5463
 6516TIP3   OH240962   3.839   0.342  12.362  0.5233  0.3208 -0.3671
 6516TIP3    H140963   3.930   0.370  12.374  0.0824  2.5505 -1.7703
 6516TIP3    H240964   3.814   0.376  12.277 -1.2452 -1.4474 -0.6386
 6517TIP3   OH240965   5.736   4.104  16.558 -0.2118 -0.2073  0.2386
 6517TIP3    H140966   5.792   4.178  16.583 -1.2513  0.3837  0.8622
 6517TIP3    H240967   5.771   4.030  16.607  0.3674  0.0295  0.1977
 6518TIP3   OH240968   5.749   0.798  14.642 -0.9514 -0.7711 -0.3989
 6518TIP3    H140969   5.786   0.767  14.560 -0.0209 -0.2337 -0.1980
 6518TIP3    H240970   5.699   0.723  14.675 -1.8657 -0.7859 -1.7453
 6519TIP3   OH240971   0.484   3.058   1.650  0.2622  0.1256  0.0299
 6519TIP3    H140972   0.527   3.142   1.662 -0.0920  0.3703 -0.3818
 6519TIP3    H240973   0.479   3.020   1.738  0.6035  0.4441  0.1848
 6520TIP3   OH240974   2.596   6.430  11.042 -0.1835  0.0906  0.8707
 6520TIP3    H140975   2.588   6.514  10.997 -1.2836  0.6161  1.9969
 6520TIP3    H240976   2.536   6.372  10.996 -0.0269  0.1321  0.6068
 6521TIP3   OH240977   5.897   3.696   4.215  0.7434 -0.4426  0.6052
 6521TIP3    H140978   5.812   3.655   4.201 -0.4702  2.2540 -0.5700
 6521TIP3    H240979   5.881   3.763   4.282  1.6493  0.8404 -0.4130
 6522TIP3   OH240980   1.136   0.725   5.197 -0.2385  0.0315  0.2250
 6522TIP3    H140981   1.041   0.731   5.193 -0.1984  0.7627  0.2395
 6522TIP3    H240982   1.167   0.772   5.119  0.1163  0.1291  0.4199
 6523TIP3   OH240983   3.293   3.622  11.707 -0.0771  0.3999 -0.1073
 6523TIP3    H140984   3.211   3.580  11.683  0.5843 -2.4819  2.1642
 6523TIP3    H240985   3.272   3.674  11.784 -0.0788  1.0294 -0.5255
 6524TIP3   OH240986   4.558   6.066  15.915 -0.0927  0.6941 -0.0515
 6524TIP3    H140987   4.527   6.081  15.826 -1.1109  1.8677  0.4770
 6524TIP3    H240988   4.521   5.981  15.939  0.0750  0.4357 -0.6876
 6525TIP3   OH240989   4.182   2.463   6.114  0.3184  0.1540  0.5617
 6525TIP3    H140990   4.189   2.476   6.020 -2.0329  0.1702  0.3381
 6525TIP3    H240991   4.184   2.551   6.152  0.3203  0.2066  0.4372
 6526TIP3   OH240992   5.024   6.008  12.178 -0.0201  0.6213  0.5739
 6526TIP3    H140993   5.065   5.976  12.097 -1.8656  2.8473 -1.3813
 6526TIP3    H240994   5.098   6.023  12.237  1.4943 -0.2944 -0.9755
 6527TIP3   OH240995   4.511   2.776   0.909  0.2241 -0.4847 -0.0198
 6527TIP3    H140996   4.439   2.814   0.860 -0.5907 -0.7972  0.9096
 6527TIP3    H240997   4.539   2.846   0.968  0.3318 -0.5408 -0.0046
 6528TIP3   OH240998   6.790   1.195  14.564  0.0546 -0.0676  0.3350
 6528TIP3    H140999   6.780   1.241  14.647 -1.7119  0.5934 -0.1918
 6528TIP3    H241000   6.718   1.132  14.563  0.4851 -0.5614 -0.3921
 6529TIP3   OH241001   1.479   3.759  12.658  0.2251 -0.4732 -0.1527
 6529TIP3    H141002   1.394   3.798  12.640  0.2160  0.4097  1.5777
 6529TIP3    H241003   1.471   3.667  12.631 -1.5339 -0.5916  0.6635
 6530TIP3   OH241004   4.080   1.385   2.003  0.4445  0.1587 -0.3435
 6530TIP3    H141005   4.143   1.451   2.032  0.2656  0.0048  0.4103
 6530TIP3    H241006   4.003   1.400   2.058  0.7200 -1.2476  0.4740
 6531TIP3   OH241007   0.199   4.427   3.169  0.3395  0.3740  0.1700
 6531TIP3    H141008   0.188   4.469   3.255  0.7940  1.0609 -0.1055
 6531TIP3    H241009   0.292   4.434   3.150  0.3238 -0.2371 -0.1532
 6532TIP3   OH241010   3.256   1.957   2.705  0.2872 -0.2325 -0.5249
 6532TIP3    H141011   3.166   1.923   2.708  0.0355  0.4502 -0.3043
 6532TIP3    H241012   3.261   2.004   2.621  0.9131 -1.5450 -1.2589
 6533TIP3   OH241013   5.650   2.892  16.710  0.2201 -0.2088 -0.1580
 6533TIP3    H141014   5.571   2.905  16.764  0.5240  0.9175  0.0333
 6533TIP3    H241015   5.627   2.930  16.625  0.0694 -1.1516 -0.5464
 6534TIP3   OH241016   1.101   3.972   3.970 -0.1541  0.3904  0.3404
 6534TIP3    H141017   1.065   3.894   4.012 -1.7718  0.9716  0.1221
 6534TIP3    H241018   1.132   3.941   3.885  2.2324 -0.6000  1.4907
 6535TIP3   OH241019   3.795   5.631  13.596  0.4467 -0.5369 -0.6358
 6535TIP3    H141020   3.760   5.562  13.652 -0.8151  1.3298  1.0044
 6535TIP3    H241021   3.741   5.629  13.517 -0.3869 -0.6178 -0.0682
 6536TIP3   OH241022   1.360   0.792  15.107  0.1008 -0.1036  0.3389
 6536TIP3    H141023   1.325   0.852  15.172 -0.5925 -1.4806  1.2749
 6536TIP3    H241024   1.290   0.783  15.042 -0.1124 -0.5137  0.6222
 6537TIP3   OH241025   3.807   4.837   3.269  0.1956 -0.4439 -0.5007
 6537TIP3    H141026   3.818   4.857   3.362  1.8582  0.6520 -0.8918
 6537TIP3    H241027   3.821   4.920   3.225 -0.3206 -1.0021 -1.7662
 6538TIP3   OH241028   3.144   6.398  11.088 -0.0963 -0.0794 -0.3164
 6538TIP3    H141029   3.147   6.490  11.112  1.5719 -0.6024  1.8592
 6538TIP3    H241030   3.210   6.388  11.019  0.9614  0.1121  0.6350
 6539TIP3   OH241031   5.754   6.455  16.210  0.4566 -0.5002 -0.0356
 6539TIP3    H141032   5.818   6.490  16.148  0.8568 -0.0904  0.5931
 6539TIP3    H241033   5.670   6.462  16.165  0.9014 -1.4019 -1.0172
 6540TIP3   OH241034   3.083   2.848   3.696 -0.1534  0.6973 -0.8989
 6540TIP3    H141035   3.071   2.778   3.632 -4.2591  2.2585 -2.2320
 6540TIP3    H241036   3.046   2.813   3.777  0.8708  0.2414 -0.6197
 6541TIP3   OH241037   4.256   5.170   5.504 -0.5285 -0.0399 -0.1905
 6541TIP3    H141038   4.234   5.114   5.578 -1.7305  0.0777 -0.4418
 6541TIP3    H241039   4.204   5.249   5.517 -0.1835  0.2902 -0.7721
 6542TIP3   OH241040   6.619   3.775   4.584 -0.5502  0.1515  0.1408
 6542TIP3    H141041   6.568   3.797   4.506 -0.2696 -0.5372 -0.2441
 6542TIP3    H241042   6.710   3.774   4.554 -0.5741 -1.9968 -0.0009
 6543TIP3   OH241043   3.574   2.728  14.558  0.1124 -0.0385 -0.2864
 6543TIP3    H141044   3.574   2.804  14.616 -1.8935  1.0250 -1.5194
 6543TIP3    H241045   3.550   2.764  14.472  0.9166 -1.8293 -1.3219
 6544TIP3   OH241046   1.612   6.548   4.099  0.0312 -0.1884 -0.1398
 6544TIP3    H141047   1.552   6.496   4.046  1.5478 -1.4237 -0.7343
 6544TIP3    H241048   1.559   6.621   4.130 -2.3431 -2.2524  1.0665
 6545TIP3   OH241049   0.074   4.464  14.906  0.4162 -0.1994  0.6718
 6545TIP3    H141050   0.069   4.368  14.911  0.2544 -0.5667 -3.3296
 6545TIP3    H241051  -0.010   4.491  14.868  0.7772  1.4609  0.9698
 6546TIP3   OH241052   1.463   6.580  15.290  0.1338  0.2791 -0.2752
 6546TIP3    H141053   1.552   6.547  15.280  0.2660  0.2903  0.7179
 6546TIP3    H241054   1.447   6.633  15.212  0.8611 -0.0277 -0.6308
 6547TIP3   OH241055   1.065   0.751   0.163 -0.5228 -0.6651 -0.0079
 6547TIP3    H141056   1.051   0.667   0.119 -1.3924 -1.7451  2.1475
 6547TIP3    H241057   1.125   0.730   0.235 -0.0241  0.7659  0.0098
 6548TIP3   OH241058   6.580   5.115   2.365  0.3745  0.2638  0.1026
 6548TIP3    H141059   6.565   5.031   2.320  3.3520 -0.2373 -0.2004
 6548TIP3    H241060   6.622   5.090   2.447 -0.1089  1.4195  0.7171
 6549TIP3   OH241061   3.859   0.979   6.175  0.3128 -0.5043 -0.1713
 6549TIP3    H141062   3.924   1.021   6.117 -1.1653  0.1221 -1.4498
 6549TIP3    H241063   3.844   0.893   6.136  0.9456 -0.9695  0.5879
 6550TIP3   OH241064   6.464   4.169  15.807 -0.5687  0.5441  0.4969
 6550TIP3    H141065   6.530   4.102  15.791  0.4235  0.9956  2.4395
 6550TIP3    H241066   6.476   4.231  15.734 -1.2986 -1.1748 -1.1408
 6551TIP3   OH241067   2.659   1.702   1.613 -0.1219  0.5417 -0.5397
 6551TIP3    H141068   2.580   1.753   1.633  0.6334  2.3367 -1.9039
 6551TIP3    H241069   2.668   1.709   1.518  0.7058 -1.1720 -0.6182
 6552TIP3   OH241070   3.926   2.055  14.797  0.2494  0.2055  0.2838
 6552TIP3    H141071   3.873   1.996  14.744  0.6334  0.3498 -0.2624
 6552TIP3    H241072   3.896   2.039  14.887 -0.3714 -0.0682  0.0350
 6553TIP3   OH241073   0.702   0.609  13.368 -0.3919 -0.4519  0.3307
 6553TIP3    H141074   0.786   0.631  13.328 -1.9338 -1.6711 -4.2577
 6553TIP3    H241075   0.657   0.693  13.376 -0.2419 -0.1884 -1.2674
 6554TIP3   OH241076   3.156   3.279  16.168  0.2259 -0.2120  0.4044
 6554TIP3    H141077   3.140   3.207  16.229  2.0504 -1.3912 -0.4294
 6554TIP3    H241078   3.069   3.307  16.141 -0.5568 -1.3370  1.6301
 6555TIP3   OH241079   2.491   6.519   4.273 -0.0068 -0.2845 -0.3442
 6555TIP3    H141080   2.491   6.615   4.269  0.0935 -0.1339  2.0307
 6555TIP3    H241081   2.556   6.498   4.340 -0.5815 -1.9910 -0.2794
 6556TIP3   OH241082   2.206   1.738   3.297  0.0267  0.0906 -0.3056
 6556TIP3    H141083   2.113   1.744   3.275  0.2921 -0.6296 -1.7321
 6556TIP3    H241084   2.245   1.690   3.224  1.3124 -0.7266  0.8651
 6557TIP3   OH241085   3.385   6.663   5.820 -0.1221 -0.0316  0.0967
 6557TIP3    H141086   3.305   6.619   5.851 -0.5367  0.3573 -0.4092
 6557TIP3    H241087   3.413   6.611   5.745  0.0210 -0.0867  0.1886
 6558TIP3   OH241088   5.555   0.023  11.426 -0.4574  0.6051  0.1040
 6558TIP3    H141089   5.503   0.101  11.406 -0.3980  0.2134 -1.7946
 6558TIP3    H241090   5.587   0.037  11.515 -1.3863  2.2066  0.2183
 6559TIP3   OH241091   5.456   2.667  11.247 -0.2946 -0.5231  0.1088
 6559TIP3    H141092   5.427   2.577  11.262 -0.8273 -0.4026 -0.1815
 6559TIP3    H241093   5.546   2.669  11.280  0.4015 -1.6598 -1.5508
 6560TIP3   OH241094   4.856   4.002  15.366 -0.1211 -0.0565  0.2354
 6560TIP3    H141095   4.834   4.038  15.280  1.6187 -2.9361 -1.5726
 6560TIP3    H241096   4.939   4.045  15.389 -0.2368  0.2098  0.1641
 6561TIP3   OH241097   4.745   0.768  15.460 -0.2052  0.0285 -0.6843
 6561TIP3    H141098   4.739   0.704  15.389  0.5794 -1.0724  0.2195
 6561TIP3    H241099   4.812   0.733  15.519 -1.3862  0.5062  1.0166
 6562TIP3   OH241100   6.457   0.338  14.903 -0.2884 -0.0248  0.1076
 6562TIP3    H141101   6.398   0.361  14.831  0.1531  0.5355 -0.0834
 6562TIP3    H241102   6.411   0.270  14.951 -1.1988  0.5708  0.0973
 6563TIP3   OH241103   2.967   1.748   6.069  0.0968  0.8014  0.5053
 6563TIP3    H141104   2.994   1.671   6.118  1.5361  0.3121 -0.9748
 6563TIP3    H241105   3.045   1.776   6.022 -0.9535  1.8435 -0.7269
 6564TIP3   OH241106   4.972   1.375   3.692 -0.5896 -0.3975 -0.2562
 6564TIP3    H141107   4.954   1.304   3.753 -1.9002 -0.8023 -1.0682
 6564TIP3    H241108   4.889   1.423   3.686  0.6737  2.2935  1.5712
 6565TIP3   OH241109   3.731   3.889  11.096 -0.3688  0.6371 -0.3791
 6565TIP3    H141110   3.795   3.820  11.080  0.4900  1.6729 -1.5972
 6565TIP3    H241111   3.680   3.858  11.171  0.4220 -0.9967 -0.4873
 6566TIP3   OH241112   5.489   4.348   0.817 -0.1367  0.0617 -0.2854
 6566TIP3    H141113   5.568   4.377   0.862  0.2151 -0.7358 -0.3731
 6566TIP3    H241114   5.439   4.428   0.802  0.6815  0.5854 -0.2797
 6567TIP3   OH241115   0.351   4.438  14.166  0.0209  0.2879  0.1696
 6567TIP3    H141116   0.260   4.412  14.148 -0.0543  0.6345  0.0547
 6567TIP3    H241117   0.345   4.492  14.245 -0.0155  1.2583 -0.4779
 6568TIP3   OH241118   3.720   1.057  16.956  0.8331 -0.0922  0.1963
 6568TIP3    H141119   3.678   1.132  16.914 -1.4871 -1.8373 -0.8655
 6568TIP3    H241120   3.806   1.051  16.915  0.0230  0.4404 -1.7105
 6569TIP3   OH241121   5.858   2.037   1.153 -0.4633 -0.1777 -0.1738
 6569TIP3    H141122   5.873   2.118   1.103 -2.1895 -0.7268 -1.7159
 6569TIP3    H241123   5.899   2.053   1.237  0.9101  1.5620 -1.1045
 6570TIP3   OH241124   3.007   1.355  15.105  0.4035 -0.0302 -0.4366
 6570TIP3    H141125   3.028   1.448  15.097  0.2602  0.3678  2.6567
 6570TIP3    H241126   2.912   1.350  15.097  0.2302  0.3705  1.2188
 6571TIP3   OH241127   5.936   1.085   4.620  0.2834 -0.2462 -0.5501
 6571TIP3    H141128   5.898   1.159   4.667 -1.3698 -0.4912 -1.3888
 6571TIP3    H241129   5.905   1.008   4.668  1.3206 -0.4288 -0.1520
 6572TIP3   OH241130   0.563   4.070  14.077 -0.9226 -0.1000 -0.2563
 6572TIP3    H141131   0.622   4.062  14.152  0.4851  0.8128 -1.2189
 6572TIP3    H241132   0.575   4.159  14.045  1.0287 -1.3214 -3.4981
 6573TIP3   OH241133   4.049   4.870  12.861 -0.1966 -0.7113 -0.1690
 6573TIP3    H141134   4.089   4.799  12.811  1.6321  0.0057  0.2043
 6573TIP3    H241135   3.964   4.884  12.819  0.1633 -1.9127 -1.3637
 6574TIP3   OH241136   5.666   4.132  12.685  0.3100 -0.6141 -0.6557
 6574TIP3    H141137   5.626   4.207  12.730 -1.0739 -1.4194 -0.4965
 6574TIP3    H241138   5.598   4.101  12.626  1.2205 -1.1630 -1.4347
 6575TIP3   OH241139   5.217   6.327  14.257  0.0064 -0.4182  0.3363
 6575TIP3    H141140   5.241   6.240  14.290  1.5149  0.2349  1.0421
 6575TIP3    H241141   5.136   6.349  14.302  0.2892 -0.9302  1.1067
 6576TIP3   OH241142   1.458   6.503  16.702 -0.8791 -0.0425 -0.2242
 6576TIP3    H141143   1.550   6.528  16.707 -1.3944  2.0635 -0.4838
 6576TIP3    H241144   1.417   6.547  16.777 -1.6490 -1.1817  0.0481
 6577TIP3   OH241145   3.172   1.295   4.650 -0.1584 -0.0356  0.1109
 6577TIP3    H141146   3.219   1.368   4.688 -0.4617  0.1140  0.2058
 6577TIP3    H241147   3.092   1.333   4.614 -0.5233 -0.3752  0.5404
 6578TIP3   OH241148   1.175   0.586   2.738  0.1484  0.3516 -0.1770
 6578TIP3    H141149   1.118   0.654   2.773  1.0236  0.4484  1.1251
 6578TIP3    H241150   1.264   0.619   2.753  0.7155 -1.9613  2.5937
 6579TIP3   OH241151   4.883   1.146  13.880  0.3769 -0.5942 -0.3022
 6579TIP3    H141152   4.913   1.237  13.869  0.2319 -0.4367  0.5695
 6579TIP3    H241153   4.947   1.094  13.830  0.6087 -0.0399 -0.6000
 6580TIP3   OH241154   6.383   6.579   5.236 -0.1385  0.0979 -0.4454
 6580TIP3    H141155   6.371   6.540   5.150 -1.7167  0.8260 -0.5948
 6580TIP3    H241156   6.388   6.504   5.296  0.3529 -0.3964 -1.0898
 6581TIP3   OH241157   6.789   3.562   3.724  0.0261 -0.0178 -0.1929
 6581TIP3    H141158   6.879   3.593   3.713  0.0510 -0.1963 -0.5204
 6581TIP3    H241159   6.770   3.516   3.642 -0.9386  1.4512 -0.8404
 6582TIP3   OH241160   4.465   2.868  12.394  0.4190  0.6545 -0.0177
 6582TIP3    H141161   4.518   2.866  12.474  1.8307  1.6120 -0.8946
 6582TIP3    H241162   4.488   2.951  12.352 -0.7713  0.4595 -1.1149
 6583TIP3   OH241163   5.190   5.119   4.864 -0.4054 -0.4581 -0.2347
 6583TIP3    H141164   5.192   5.172   4.784 -2.5739  0.6301  0.3645
 6583TIP3    H241165   5.194   5.182   4.935  1.5774 -1.4279  0.5894
 6584TIP3   OH241166   0.072   2.963   6.257  0.4091 -0.2820  0.3748
 6584TIP3    H141167   0.136   3.035   6.262 -0.2799  0.3333  0.5057
 6584TIP3    H241168   0.113   2.899   6.199  1.0977  0.1552  0.3602
 6585TIP3   OH241169   5.442   4.250  15.082 -0.5405 -0.1341 -0.7122
 6585TIP3    H141170   5.426   4.304  15.004 -1.7100  0.3906 -0.1303
 6585TIP3    H241171   5.380   4.283  15.147 -0.3930 -1.3482  0.0734
 6586TIP3   OH241172   5.958   2.993  16.006  0.5470 -0.6346  0.0700
 6586TIP3    H141173   5.997   3.069  16.049  1.7983 -1.5455  0.6457
 6586TIP3    H241174   5.905   2.952  16.074 -0.6732  0.0680 -0.4352
 6587TIP3   OH241175   5.432   5.408   3.828 -0.0124  0.0577 -0.3882
 6587TIP3    H141176   5.456   5.393   3.919 -0.0237  1.0452 -0.2085
 6587TIP3    H241177   5.445   5.323   3.785 -0.1386 -0.4464  0.5540
 6588TIP3   OH241178   5.008   0.112  14.486 -0.1607 -0.6918 -0.2132
 6588TIP3    H141179   4.943   0.069  14.542  0.6229 -0.7038  0.7195
 6588TIP3    H241180   5.042   0.184  14.540  1.0801 -1.1046 -0.4138
 6589TIP3   OH241181   0.864   1.740   3.956  0.1224  0.1797  0.3642
 6589TIP3    H141182   0.860   1.820   4.008 -0.8912  0.1663  0.3288
 6589TIP3    H241183   0.817   1.675   4.008  0.6567 -0.3122  0.2449
 6590TIP3   OH241184   0.690   0.836   1.218 -0.3150  0.1485  0.3116
 6590TIP3    H141185   0.745   0.762   1.192 -0.1140  0.3319  0.2100
 6590TIP3    H241186   0.610   0.826   1.166 -0.0689  0.3027 -0.1071
 6591TIP3   OH241187   3.912   1.292  14.342  0.0828 -0.1451 -0.1672
 6591TIP3    H141188   3.843   1.252  14.289  0.8553  0.2835 -1.5798
 6591TIP3    H241189   3.901   1.256  14.429 -2.0426  0.0688 -0.3113
 6592TIP3   OH241190   5.062   6.254  11.685  0.3176  0.0354  0.9303
 6592TIP3    H141191   5.143   6.214  11.652  0.2462  0.4274  0.2470
 6592TIP3    H241192   5.017   6.284  11.606 -1.6237 -2.2236  1.0563
 6593TIP3   OH241193   1.396   4.545   6.319 -0.1151 -0.3245  0.4012
 6593TIP3    H141194   1.322   4.579   6.269 -0.4425 -2.0206 -0.3413
 6593TIP3    H241195   1.396   4.451   6.301  0.6083 -0.7808  2.5312
 6594TIP3   OH241196   4.672   1.225   0.815 -0.6068  0.3454  0.8730
 6594TIP3    H141197   4.678   1.130   0.819 -0.1690  0.4003  1.8717
 6594TIP3    H241198   4.583   1.245   0.845  0.0312  0.3386  2.8953
 6595TIP3   OH241199   2.044   3.210  14.373  0.3920 -0.1950  0.4787
 6595TIP3    H141200   2.045   3.241  14.283 -1.1315 -1.8689 -0.1704
 6595TIP3    H241201   2.002   3.281  14.422  0.3482  0.3272 -0.2954
 6596TIP3   OH241202   5.869   2.201  14.215 -0.8638 -0.2034 -0.0712
 6596TIP3    H141203   5.871   2.166  14.304 -2.3532 -1.1244 -0.3597
 6596TIP3    H241204   5.778   2.191  14.187 -1.3150  3.4338 -0.4203
 6597TIP3   OH241205   6.632   0.946  16.404 -0.5222  0.0858 -0.3228
 6597TIP3    H141206   6.596   0.868  16.362 -1.1975  0.1906  0.0497
 6597TIP3    H241207   6.726   0.941  16.388 -0.5920 -0.6802 -0.5097
 6598TIP3   OH241208   0.012   6.148   1.836 -0.4497  0.2983 -0.1965
 6598TIP3    H141209  -0.035   6.142   1.919 -0.2930  0.9550 -0.0537
 6598TIP3    H241210   0.050   6.236   1.837  2.3553 -0.8249  0.5337
 6599TIP3   OH241211   1.322   3.275   2.519  0.8342 -0.0764 -0.1922
 6599TIP3    H141212   1.328   3.209   2.588 -0.2944 -2.2045 -1.9741
 6599TIP3    H241213   1.230   3.274   2.493  1.6733 -1.6997 -3.7448
 6600TIP3   OH241214   3.532   2.829  13.416 -0.5851 -0.0370  0.6663
 6600TIP3    H141215   3.524   2.736  13.395  0.0830  0.0649 -0.0798
 6600TIP3    H241216   3.491   2.838  13.502  0.2131 -1.1918  1.1906
 6601TIP3   OH241217   4.818   5.471  16.846 -0.0737  0.1924  0.6757
 6601TIP3    H141218   4.851   5.504  16.762  0.2091 -1.5703  0.0465
 6601TIP3    H241219   4.723   5.485  16.842 -0.5712 -2.7792 -1.4322
 6602TIP3   OH241220   2.772   3.212   1.996 -0.3063  0.4354 -0.2877
 6602TIP3    H141221   2.696   3.193   2.052  0.8011 -1.4441  0.6679
 6602TIP3    H241222   2.733   3.245   1.914 -2.1354 -0.0905  0.3110
 6603TIP3   OH241223   3.247   6.559   4.096  0.4664 -0.2189 -0.0484
 6603TIP3    H141224   3.324   6.503   4.093  0.8511  0.3519 -1.5724
 6603TIP3    H241225   3.279   6.644   4.127  0.1894 -0.3442  0.6121
 6604TIP3   OH241226   0.955   4.290   1.275 -0.4718  0.0929 -0.3957
 6604TIP3    H141227   0.967   4.210   1.223  0.2144 -1.0691  1.4377
 6604TIP3    H241228   1.037   4.338   1.264  0.6763 -1.3134  1.4142
 6605TIP3   OH241229   0.723   0.979   1.468  0.0548 -0.2238 -0.2125
 6605TIP3    H141230   0.678   0.941   1.393 -0.7111  0.6953 -0.2350
 6605TIP3    H241231   0.795   0.919   1.486  1.3914  0.4366 -2.8100
 6606TIP3   OH241232   3.664   1.195   5.016  0.7928  0.4833 -0.2887
 6606TIP3    H141233   3.721   1.247   4.961  0.0087  0.4670 -1.1337
 6606TIP3    H241234   3.681   1.104   4.991  0.4549  0.4747 -0.5045
 6607TIP3   OH241235   4.516   0.130   3.698 -0.2412 -0.1266  0.3483
 6607TIP3    H141236   4.508   0.039   3.669 -1.1333 -0.7885  2.4980
 6607TIP3    H241237   4.532   0.124   3.793 -0.1979  1.9625  0.5242
 6608TIP3   OH241238   1.973   0.379   4.914  0.2267  0.0019  0.1481
 6608TIP3    H141239   1.981   0.287   4.889 -0.7173  0.2975 -1.4320
 6608TIP3    H241240   1.967   0.379   5.009 -0.5633 -1.6411  0.1205
 6609TIP3   OH241241   3.073   3.134   1.509  0.4090  0.5499 -0.2206
 6609TIP3    H141242   3.032   3.092   1.585 -0.5864  1.1995 -0.3657
 6609TIP3    H241243   2.999   3.172   1.460  1.2343  2.5319 -0.0428
 6610TIP3   OH241244   5.550   4.029   5.218  0.4414  0.2318 -0.0052
 6610TIP3    H141245   5.463   3.996   5.196 -1.0632  2.8241  1.6056
 6610TIP3    H241246   5.607   3.953   5.209 -1.7252 -1.2688 -2.3539
 6611TIP3   OH241247   0.872   6.473  15.148 -0.1685 -0.0153  0.0294
 6611TIP3    H141248   0.958   6.446  15.180 -0.1184 -2.2750 -1.6985
 6611TIP3    H241249   0.816   6.472  15.226  1.0410  0.0259  0.9327
 6612TIP3   OH241250   3.874   6.691  16.250  0.0907 -0.5063  0.4586
 6612TIP3    H141251   3.884   6.619  16.312  0.0672 -0.6650  0.2799
 6612TIP3    H241252   3.948   6.749  16.267 -0.4102 -0.0883  1.2442
 6613TIP3   OH241253   2.537   3.649   5.673  0.6531 -0.2556 -0.3342
 6613TIP3    H141254   2.563   3.561   5.698  1.9689 -0.9688 -3.7609
 6613TIP3    H241255   2.619   3.696   5.659 -0.0025  0.8189 -0.7536
 6614TIP3   OH241256   5.080   5.682  16.138 -0.3492 -0.0929  0.6005
 6614TIP3    H141257   5.007   5.711  16.084 -2.0626 -1.2902  2.1277
 6614TIP3    H241258   5.077   5.739  16.215 -1.6455 -1.9704  2.0558
 6615TIP3   OH241259   3.237   6.518  10.759 -0.1466 -0.5062 -0.7253
 6615TIP3    H141260   3.266   6.429  10.738  0.8073 -0.5171  0.4924
 6615TIP3    H241261   3.275   6.535  10.845 -0.3189  1.0850 -0.9414
 6616TIP3   OH241262   1.660   5.164   0.681 -0.1507  0.4556 -0.3947
 6616TIP3    H141263   1.565   5.157   0.695 -0.0439  0.9575  0.7747
 6616TIP3    H241264   1.692   5.074   0.684 -0.6258  0.2622 -1.0844
 6617TIP3   OH241265   2.435   4.434  16.067 -0.1724  0.0551  0.0112
 6617TIP3    H141266   2.362   4.496  16.071 -0.6503 -0.4538 -0.5721
 6617TIP3    H241267   2.479   4.454  15.985  1.1211  1.1931  0.9510
 6618TIP3   OH241268   3.913   0.350  16.383  0.2934 -0.4163  0.1764
 6618TIP3    H141269   3.920   0.406  16.306 -1.7289  2.4345  1.8486
 6618TIP3    H241270   3.965   0.395  16.450 -1.2210 -0.5557  1.5101
 6619TIP3   OH241271   0.509   5.005  12.886 -0.0880 -0.4214 -0.1195
 6619TIP3    H141272   0.507   4.911  12.906  1.1236 -0.6420 -0.8952
 6619TIP3    H241273   0.546   5.009  12.798 -0.1043  0.7971 -0.0808
 6620TIP3   OH241274   2.521   4.913  15.348 -0.1193  0.0267  0.1499
 6620TIP3    H141275   2.550   5.001  15.372  0.1831 -0.2571  0.8608
 6620TIP3    H241276   2.504   4.870  15.432  1.0380 -1.0288 -0.1311
 6621TIP3   OH241277   1.649   1.885  16.177 -0.0311  0.0414 -0.0404
 6621TIP3    H141278   1.690   1.840  16.103  0.1423 -0.4019  0.3222
 6621TIP3    H241279   1.557   1.893  16.152 -0.3296 -1.6193  0.3986
 6622TIP3   OH241280   3.637   0.672   2.817 -0.2227  0.0998 -0.0329
 6622TIP3    H141281   3.668   0.705   2.733  0.4132 -0.3915  0.0024
 6622TIP3    H241282   3.641   0.747   2.876  0.0416  0.2652 -0.2592
 6623TIP3   OH241283   4.352   4.039  12.115  0.2496  0.3651  0.0532
 6623TIP3    H141284   4.312   3.983  12.180 -0.4231  1.4601  0.6182
 6623TIP3    H241285   4.323   4.003  12.031  0.1721 -0.3665  0.3884
 6624TIP3   OH241286   0.662   1.857  15.988  0.2153  0.6972  0.0390
 6624TIP3    H141287   0.663   1.942  15.944 -1.2110  0.3435 -0.7205
 6624TIP3    H241288   0.656   1.878  16.081 -2.2623  1.4742 -0.2219
 6625TIP3   OH241289   2.803   5.845  15.514  0.1610  0.5510 -0.2481
 6625TIP3    H141290   2.776   5.763  15.473 -0.8652  0.6700  0.1628
 6625TIP3    H241291   2.783   5.913  15.449 -1.2194  0.7112  0.3043
 6626TIP3   OH241292   6.217   6.286   3.351  0.1397  0.1128 -0.1300
 6626TIP3    H141293   6.173   6.323   3.274  0.9520  1.5731  0.0713
 6626TIP3    H241294   6.153   6.225   3.387 -1.1633  1.0796 -0.6704
 6627TIP3   OH241295   5.208   4.890  14.339 -0.0742  0.3870  0.4713
 6627TIP3    H141296   5.159   4.815  14.371 -0.0340  0.0615 -0.2057
 6627TIP3    H241297   5.250   4.859  14.259  1.8849  0.4021  1.4265
 6628TIP3   OH241298   0.750   3.941  16.855  0.1359  0.0936  0.0540
 6628TIP3    H141299   0.817   4.009  16.857  0.4348 -0.0975 -1.8268
 6628TIP3    H241300   0.694   3.960  16.931  0.7772  1.8415  0.1313
 6629TIP3   OH241301   2.496   4.467   6.145 -0.1905  0.0295  0.2941
 6629TIP3    H141302   2.575   4.415   6.131 -2.2226 -3.2712 -0.0078
 6629TIP3    H241303   2.496   4.485   6.239  0.0443 -1.5327  0.6153
 6630TIP3   OH241304   5.064   5.404  12.380  0.2281  0.2286  0.4427
 6630TIP3    H141305   5.078   5.390  12.286 -0.0602 -0.1849  0.4592
 6630TIP3    H241306   4.979   5.449  12.384 -0.6739 -1.3937  0.5962
 6631TIP3   OH241307   0.133   5.599   5.080  0.2221  0.4669  0.5268
 6631TIP3    H141308   0.051   5.557   5.107  0.5860 -1.3076 -0.9804
 6631TIP3    H241309   0.200   5.532   5.091  1.1182  1.1792 -0.3496
 6632TIP3   OH241310   4.901   1.888   5.535 -0.6328  0.2094  0.1585
 6632TIP3    H141311   4.811   1.855   5.533 -0.2154 -1.0020  0.4138
 6632TIP3    H241312   4.939   1.847   5.613  0.1022  0.8209  0.1295
 6633TIP3   OH241313   6.439   3.911  13.038 -0.1427 -0.2965 -0.3934
 6633TIP3    H141314   6.482   3.985  12.995 -1.5655  0.0398 -1.3177
 6633TIP3    H241315   6.347   3.937  13.044 -0.4782 -1.5492  0.2555
 6634TIP3   OH241316   4.015   3.752   1.104  0.5365  0.1150 -0.1226
 6634TIP3    H141317   4.093   3.754   1.158  0.2872  0.1460  0.2375
 6634TIP3    H241318   4.047   3.767   1.015  1.2136 -1.8836 -0.2802
 6635TIP3   OH241319   4.938   5.499  13.408 -0.0795  0.3458  0.1882
 6635TIP3    H141320   5.012   5.549  13.442  1.9293 -0.8383 -2.1351
 6635TIP3    H241321   4.916   5.542  13.325 -0.6568 -0.5180 -0.1216
 6636TIP3   OH241322   1.966   6.332   3.081 -0.8191  0.1190  0.1460
 6636TIP3    H141323   1.981   6.237   3.077  0.2287  0.2671  0.3623
 6636TIP3    H241324   1.974   6.361   2.991 -0.2774  0.1234  0.1937
 6637TIP3   OH241325   6.671   0.587   0.458  0.2798  0.1069  0.1900
 6637TIP3    H141326   6.752   0.568   0.506  0.9584  1.3170 -0.4335
 6637TIP3    H241327   6.657   0.681   0.471 -1.0356 -0.0893  0.2864
 6638TIP3   OH241328   2.936   5.906   3.232 -0.2492 -0.4400  0.4628
 6638TIP3    H141329   2.904   5.855   3.306  0.5114 -1.4647  0.1233
 6638TIP3    H241330   3.028   5.878   3.222 -0.5429 -0.9200 -1.3216
 6639TIP3   OH241331   6.002   1.690   3.952 -0.2337 -0.0044  0.5429
 6639TIP3    H141332   6.096   1.703   3.941 -0.4802  1.1363 -0.3679
 6639TIP3    H241333   5.980   1.622   3.889 -0.4228  1.4881 -1.0492
 6640TIP3   OH241334   0.033   5.200  13.505 -0.3916  0.0591  0.1001
 6640TIP3    H141335   0.068   5.123  13.460 -0.8838  0.1686 -0.4876
 6640TIP3    H241336  -0.031   5.237  13.444 -0.3199  0.8130  0.4640
 6641TIP3   OH241337   0.618   0.401  12.359 -0.4270 -0.5701 -0.2132
 6641TIP3    H141338   0.613   0.493  12.334  0.4993  0.2647  2.3745
 6641TIP3    H241339   0.708   0.389  12.389 -0.6619 -2.2214 -0.0392
 6642TIP3   OH241340   6.347   0.891   1.912  0.6882  0.1907 -0.0946
 6642TIP3    H141341   6.403   0.818   1.941  1.2421 -0.3916 -2.4179
 6642TIP3    H241342   6.409   0.956   1.878  0.0682  0.5830 -0.4949
 6643TIP3   OH241343   2.725   5.513   1.917 -0.2453  0.1280 -0.0897
 6643TIP3    H141344   2.715   5.422   1.944 -0.7510 -0.4684 -2.1479
 6643TIP3    H241345   2.813   5.518   1.880 -0.7839  0.0399 -1.4441
 6644TIP3   OH241346   3.117   5.894   5.319  0.8481 -0.4336 -0.3209
 6644TIP3    H141347   3.101   5.803   5.296  2.7344 -0.7185 -0.6694
 6644TIP3    H241348   3.128   5.893   5.414  0.1272 -0.4214 -0.2276
 6645TIP3   OH241349   4.104   1.886   3.863  0.0124  0.4391  0.0908
 6645TIP3    H141350   4.061   1.861   3.945 -1.6898  0.1729 -0.8236
 6645TIP3    H241351   4.085   1.813   3.804  2.4409 -0.0569 -0.1766
 6646TIP3   OH241352   3.510   1.469   5.873 -0.2824 -0.4940 -0.2943
 6646TIP3    H141353   3.552   1.440   5.954  0.4616 -2.4194 -1.2798
 6646TIP3    H241354   3.423   1.500   5.900  0.3160 -0.1372  1.3288
 6647TIP3   OH241355   4.006   6.746   5.555 -0.2956 -0.4790 -0.0173
 6647TIP3    H141356   3.968   6.740   5.642  0.1678  0.9011  0.3076
 6647TIP3    H241357   4.100   6.735   5.569 -0.1518  0.3443 -0.2381
 6648TIP3   OH241358   2.049   6.399   6.478 -0.3941  0.1462 -0.5146
 6648TIP3    H141359   1.967   6.418   6.524 -0.3947 -1.2764  0.1189
 6648TIP3    H241360   2.038   6.438   6.391 -1.4898  0.4905 -0.2352
 6649TIP3   OH241361   4.034   0.525  13.117  0.2655 -0.0548  0.6171
 6649TIP3    H141362   3.957   0.475  13.146  0.6045 -0.0953  1.4910
 6649TIP3    H241363   4.080   0.546  13.198  2.3576 -1.9079  0.0037
 6650TIP3   OH241364   0.254   1.803  17.263  0.0542 -0.0392 -0.1098
 6650TIP3    H141365   0.182   1.758  17.307  0.5113 -0.7523 -0.0753
 6650TIP3    H241366   0.332   1.753  17.287  0.6596  1.1120  0.3952
 6651TIP3   OH241367   5.983   3.210   2.078 -0.7145  0.0571 -0.4616
 6651TIP3    H141368   5.935   3.293   2.075  0.0567  0.4909 -1.4490
 6651TIP3    H241369   5.951   3.161   2.002 -1.1810 -0.5806  0.1271
 6652TIP3   OH241370   4.711   4.477   3.235  0.1579  0.1702  0.2002
 6652TIP3    H141371   4.656   4.401   3.253  1.5653 -0.8937  0.1738
 6652TIP3    H241372   4.666   4.522   3.163 -0.8626 -0.4464  0.4298
 6653TIP3   OH241373   2.318   5.043   5.385  0.1385  0.0657  0.5375
 6653TIP3    H141374   2.403   5.070   5.419  0.4305 -1.1060  0.7693
 6653TIP3    H241375   2.268   5.125   5.379  0.6124  0.5366  2.2771
 6654TIP3   OH241376   4.611   2.787  11.992  0.2097  0.5520 -0.1560
 6654TIP3    H141377   4.650   2.749  11.913  0.0307  0.2213 -0.0877
 6654TIP3    H241378   4.651   2.739  12.064 -0.6086 -0.0706 -0.0995
 6655TIP3   OH241379   1.431   2.333   2.060  0.1569 -0.1285 -0.2843
 6655TIP3    H141380   1.387   2.399   2.112 -0.1066 -0.3408 -0.2377
 6655TIP3    H241381   1.506   2.378   2.021 -0.5827  0.4570 -1.0655
 6656TIP3   OH241382   0.094   6.747  12.888 -0.3452  0.1894 -0.3270
 6656TIP3    H141383   0.149   6.712  12.817  0.6109 -0.8228  0.8665
 6656TIP3    H241384   0.058   6.828  12.852  1.7405  0.7682 -1.2740
 6657TIP3   OH241385   6.482   4.832  17.252 -0.3165  0.4700 -0.3938
 6657TIP3    H141386   6.535   4.865  17.180  0.6792 -1.1899 -0.4656
 6657TIP3    H241387   6.490   4.899  17.320  1.3029  0.6138 -0.6871
 6658TIP3   OH241388   4.779   1.468  12.507  0.7550  0.4062 -0.2371
 6658TIP3    H141389   4.721   1.413  12.559  1.2041  0.4900  0.3725
 6658TIP3    H241390   4.726   1.545  12.485  0.8332  0.8307  0.9423
 6659TIP3   OH241391   0.723   4.039   4.835  0.0891 -0.1836 -0.7099
 6659TIP3    H141392   0.732   4.031   4.930  1.8542 -2.2421 -0.9497
 6659TIP3    H241393   0.649   3.982   4.813 -1.3508  1.5274 -0.4787
 6660TIP3   OH241394   5.284   5.740   4.935  0.0433  0.3977 -0.7357
 6660TIP3    H141395   5.243   5.700   4.859  3.7077 -2.1946 -1.6211
 6660TIP3    H241396   5.336   5.812   4.898 -1.7328  2.1935  0.0688
 6661TIP3   OH241397   3.689   1.649   4.675  0.5450  0.5684 -0.2055
 6661TIP3    H141398   3.626   1.719   4.693 -0.6248 -0.3222 -0.7693
 6661TIP3    H241399   3.715   1.662   4.584  0.1743  0.1472 -0.3710
 6662TIP3   OH241400   1.009   5.577   5.481  0.4067 -0.3892 -0.7082
 6662TIP3    H141401   0.966   5.568   5.566  2.8557 -0.7032  0.5909
 6662TIP3    H241402   0.939   5.566   5.417 -1.4303 -0.6846  1.2497
 6663TIP3   OH241403   2.743   0.304  16.853 -0.5059  0.0546 -0.4049
 6663TIP3    H141404   2.761   0.380  16.798 -1.9352  1.2605  0.6994
 6663TIP3    H241405   2.751   0.336  16.943  1.1130 -1.6926  0.1403
 6664TIP3   OH241406   0.505   4.105   1.381 -0.1417  0.5209 -0.1851
 6664TIP3    H141407   0.455   4.158   1.444 -0.3708  0.7417 -0.5502
 6664TIP3    H241408   0.576   4.163   1.352  0.3060  0.2262  0.2922
 6665TIP3   OH241409   2.690   5.986   3.269  0.0490 -0.3379  0.3861
 6665TIP3    H141410   2.656   5.903   3.302  1.2030  0.3183  3.6571
 6665TIP3    H241411   2.779   5.966   3.240  0.1740 -0.3370  0.7636
 6666TIP3   OH241412   5.777   3.732   2.854  0.8663 -0.2959  0.1499
 6666TIP3    H141413   5.744   3.702   2.769 -0.9836 -1.3941  1.1921
 6666TIP3    H241414   5.852   3.675   2.872  0.0341 -1.4415  0.1308
 6667TIP3   OH241415   3.534   4.186   1.456 -0.0930  0.0249  0.2924
 6667TIP3    H141416   3.592   4.257   1.483  0.3463 -0.1051 -0.2849
 6667TIP3    H241417   3.447   4.227   1.452  0.0619  0.3821  0.5315
 6668TIP3   OH241418   0.295   3.887  14.620 -0.0605 -0.0199 -1.0530
 6668TIP3    H141419   0.307   3.981  14.635  1.5162  0.1993 -3.3053
 6668TIP3    H241420   0.330   3.847  14.700  0.5472  1.2664 -0.6270
 6669TIP3   OH241421   3.676   6.336  15.785  0.2632 -0.1254 -0.6526
 6669TIP3    H141422   3.754   6.376  15.824 -0.0482  0.5299 -0.6827
 6669TIP3    H241423   3.618   6.322  15.860 -0.2394  0.9110 -0.8260
 6670TIP3   OH241424   4.941   4.170   2.560 -0.1930 -0.1228  0.0232
 6670TIP3    H141425   4.886   4.102   2.522  1.2370 -0.8059 -0.9135
 6670TIP3    H241426   4.882   4.221   2.615 -1.8613 -0.5103 -1.3234
 6671TIP3   OH241427   4.036   4.467  17.154 -0.4086 -0.2729 -0.3663
 6671TIP3    H141428   4.003   4.557  17.154 -0.9281 -0.4552 -1.2045
 6671TIP3    H241429   4.050   4.446  17.246 -0.7949  0.4823 -0.1329
 6672TIP3   OH241430   2.361   6.627  11.126  0.5415  0.1429 -0.3705
 6672TIP3    H141431   2.416   6.665  11.194 -0.6027  1.0083  0.1158
 6672TIP3    H241432   2.419   6.613  11.052  1.4357  0.8911  0.1753
 6673TIP3   OH241433   2.546   3.736  10.995  0.1638  0.5550  0.1864
 6673TIP3    H141434   2.511   3.811  10.947  0.3549  2.0113  2.1827
 6673TIP3    H241435   2.640   3.751  10.997  0.3100 -0.2791 -0.2477
 6674TIP3   OH241436   5.275   3.125   0.639  0.6481  0.8607  0.1009
 6674TIP3    H141437   5.218   3.162   0.571 -0.9161 -1.9450 -0.2439
 6674TIP3    H241438   5.220   3.120   0.717  0.9984 -0.1106  0.3038
 6675TIP3   OH241439   3.923   6.247   3.498 -0.3905 -0.2235 -0.3721
 6675TIP3    H141440   3.925   6.252   3.403  0.0952 -2.2756 -0.5058
 6675TIP3    H241441   3.893   6.158   3.517  1.7886 -0.6732  1.3538
 6676TIP3   OH241442   4.707   5.881  12.943  0.0489  0.0918  0.4187
 6676TIP3    H141443   4.792   5.922  12.957  1.3174 -2.0335 -0.5466
 6676TIP3    H241444   4.710   5.802  12.997  0.0887 -1.7570 -2.1433
 6677TIP3   OH241445   2.545   5.416   3.935  0.3512  0.1045  0.2110
 6677TIP3    H141446   2.508   5.478   3.998  0.2694  2.1993 -1.7758
 6677TIP3    H241447   2.626   5.387   3.976 -0.9114 -0.6257  2.3814
 6678TIP3   OH241448   1.477   1.069  14.203 -0.1977 -0.6333 -0.1885
 6678TIP3    H141449   1.422   1.035  14.274 -0.8832 -0.7913 -0.7807
 6678TIP3    H241450   1.495   0.993  14.148  1.2976 -0.7429  0.4216
 6679TIP3   OH241451   1.715   5.013   5.021  0.8311  0.2150 -0.0040
 6679TIP3    H141452   1.716   5.100   4.981 -0.0181 -0.2900 -1.2024
 6679TIP3    H241453   1.634   4.972   4.988  2.5966 -2.0761 -1.8375
 6680TIP3   OH241454   3.607   4.638   2.721  0.4537 -0.0161 -0.1637
 6680TIP3    H141455   3.665   4.671   2.652 -1.5645 -0.6527 -2.3010
 6680TIP3    H241456   3.535   4.597   2.673 -1.0418 -0.5190  2.3711
 6681TIP3   OH241457   3.130   0.981  11.435  0.9523  0.5159 -0.6262
 6681TIP3    H141458   3.149   0.891  11.407 -0.7188  0.2612 -1.0696
 6681TIP3    H241459   3.109   1.028  11.354 -0.9955  0.5387 -0.1732
 6682TIP3   OH241460   3.495   5.595   4.347  1.1351  0.1619  1.1027
 6682TIP3    H141461   3.571   5.641   4.310 -1.1640  2.0044 -1.7835
 6682TIP3    H241462   3.499   5.507   4.309  0.2355  1.2361 -1.7463
 6683TIP3   OH241463   0.635   3.771   4.183  0.2967  0.9708  0.0909
 6683TIP3    H141464   0.701   3.800   4.247  1.4010 -0.7128 -0.2401
 6683TIP3    H241465   0.565   3.836   4.191  0.4035  0.8751  2.9800
 6684TIP3   OH241466   5.784   1.136  16.533  0.6923  0.1917  0.7309
 6684TIP3    H141467   5.834   1.215  16.554  1.8264  0.0219 -1.1475
 6684TIP3    H241468   5.839   1.089  16.470 -0.2775 -1.7636  1.2785
 6685TIP3   OH241469   1.017   6.698   2.017  0.3233  0.0210  0.2806
 6685TIP3    H141470   1.049   6.611   2.040 -1.5639 -0.5968  0.8270
 6685TIP3    H241471   1.035   6.707   1.924  0.9159 -0.7800  0.3090
 6686TIP3   OH241472   3.824   5.482  16.989 -0.5578  0.4018  0.4528
 6686TIP3    H141473   3.917   5.495  17.007  0.0138  0.8895 -2.3234
 6686TIP3    H241474   3.815   5.506  16.896 -3.5237  0.6751  0.7416
 6687TIP3   OH241475   0.495   0.126   1.909 -0.3168  0.4832 -0.5078
 6687TIP3    H141476   0.542   0.108   1.827 -0.1684 -0.2384 -0.2804
 6687TIP3    H241477   0.564   0.127   1.976 -0.6444 -1.2435 -0.0735
 6688TIP3   OH241478   1.799   4.428   1.128  0.5212  0.0015  0.7221
 6688TIP3    H141479   1.739   4.378   1.072  0.0721  2.3222 -1.0145
 6688TIP3    H241480   1.866   4.365   1.154 -1.1963 -2.0104  0.5201
 6689TIP3   OH241481   6.052   0.010  14.036 -0.2143  0.0047  0.4614
 6689TIP3    H141482   6.097   0.029  14.118  0.2094 -0.2721  0.2982
 6689TIP3    H241483   6.011  -0.075  14.051 -0.2485  0.0171  0.4355
 6690TIP3   OH241484   6.596   5.062  11.887  0.4636  0.1971 -0.2547
 6690TIP3    H141485   6.664   5.129  11.882  4.0096 -2.9881  0.8663
 6690TIP3    H241486   6.574   5.058  11.980  0.0435  0.0114 -0.3609
 6691TIP3   OH241487   1.612   5.029   3.453 -0.0211  0.1795  0.3303
 6691TIP3    H141488   1.643   5.028   3.544  2.1103 -0.0827 -0.3358
 6691TIP3    H241489   1.616   5.121   3.428  0.4874  0.1224  0.1820
 6692TIP3   OH241490   0.580   1.771   5.701  0.4549 -0.7111  0.1597
 6692TIP3    H141491   0.514   1.745   5.637 -1.0058  0.9685  0.8985
 6692TIP3    H241492   0.664   1.759   5.656 -0.5041  0.0116 -1.9184
 6693TIP3   OH241493   4.987   6.030  12.979 -0.3715  0.2276  0.1307
 6693TIP3    H141494   4.945   6.107  13.017 -1.1287  0.1108 -0.4495
 6693TIP3    H241495   4.977   5.962  13.046  1.4000  0.9325  1.1777
 6694TIP3   OH241496   0.951   0.962   3.192 -0.2605 -0.3471  0.1696
 6694TIP3    H141497   1.033   0.915   3.183  0.5823  1.1649 -0.3851
 6694TIP3    H241498   0.903   0.913   3.259  0.6813 -1.7860 -0.1603
 6695TIP3   OH241499   4.584   6.285   3.742 -0.1890 -0.0680 -0.3699
 6695TIP3    H141500   4.554   6.374   3.760  0.7098  0.2472 -0.3630
 6695TIP3    H241501   4.571   6.273   3.648 -1.1961 -0.2814 -0.2143
 6696TIP3   OH241502   3.250   4.719  10.653 -0.1712 -0.2712  0.1242
 6696TIP3    H141503   3.339   4.692  10.634 -0.6889 -0.9442 -1.5468
 6696TIP3    H241504   3.207   4.723  10.568 -1.6446  0.4232  0.8443
 6697TIP3   OH241505   5.806   3.821  14.381 -0.3936 -0.3392 -0.1797
 6697TIP3    H141506   5.839   3.882  14.315  0.2374  0.7458  1.0897
 6697TIP3    H241507   5.800   3.737  14.335 -0.1947  0.4270 -1.6626
 6698TIP3   OH241508   2.838   0.047  11.116 -0.0213 -0.2849  0.1239
 6698TIP3    H141509   2.801   0.104  11.183 -1.8207  0.0249 -1.0659
 6698TIP3    H241510   2.910   0.097  11.078 -0.9899  0.8382 -0.2741
 6699TIP3   OH241511   3.848   2.063   3.926 -0.1699 -0.3778 -1.0589
 6699TIP3    H141512   3.937   2.095   3.941  0.1624 -1.5943 -0.3597
 6699TIP3    H241513   3.809   2.057   4.013 -1.2075  0.8183 -1.3991
 6700TIP3   OH241514   3.868   1.477  11.542  0.4079 -0.0361 -0.0227
 6700TIP3    H141515   3.825   1.413  11.599 -0.1496  0.7186  0.4131
 6700TIP3    H241516   3.854   1.561  11.585  2.0997  0.2723 -0.0157
 6701TIP3   OH241517   6.475   1.411   4.264 -0.5798 -0.5924  0.3949
 6701TIP3    H141518   6.492   1.338   4.323 -2.1352 -1.4983 -0.2129
 6701TIP3    H241519   6.548   1.410   4.202 -0.5341 -1.5650  0.4553
 6702TIP3   OH241520   3.085   5.991  13.824 -0.2258 -0.1185  0.3726
 6702TIP3    H141521   3.155   5.970  13.885  0.7690  1.3841 -0.1783
 6702TIP3    H241522   3.026   6.048  13.873 -0.0645  0.1134  0.3013
 6703TIP3   OH241523   6.135   4.706   5.275 -0.4445  0.2465 -0.8287
 6703TIP3    H141524   6.138   4.618   5.236  0.2623  0.6806 -1.7955
 6703TIP3    H241525   6.187   4.697   5.355  0.8335  0.0916 -1.6329
 6704TIP3   OH241526   0.639   4.091  16.615 -0.1164  0.5910 -0.3027
 6704TIP3    H141527   0.597   4.016  16.573 -0.0510  1.8501 -2.8503
 6704TIP3    H241528   0.675   4.057  16.696 -1.9276 -1.6185 -0.3419
 6705TIP3   OH241529   3.089   4.827   3.798 -0.0177 -0.1919  0.6625
 6705TIP3    H141530   3.019   4.891   3.809 -1.1675 -0.5112 -3.2136
 6705TIP3    H241531   3.157   4.873   3.748  0.4497 -1.1697  0.3599
 6706TIP3   OH241532   0.180   6.259   1.260  0.2140 -0.1246  0.5218
 6706TIP3    H141533   0.206   6.167   1.262  1.4665  0.2075  0.5205
 6706TIP3    H241534   0.090   6.260   1.292  0.0922 -1.3770  0.2348
 6707TIP3   OH241535   0.103   2.013   5.275 -0.1814  0.3437 -0.0437
 6707TIP3    H141536   0.154   1.944   5.232  2.0003  0.6719  1.8438
 6707TIP3    H241537   0.113   1.996   5.368 -0.8250  2.3765  0.4389
 6708TIP3   OH241538   4.538   3.404   5.062  0.7201 -0.0771  0.3516
 6708TIP3    H141539   4.633   3.389   5.066  0.9975  1.5797  0.7555
 6708TIP3    H241540   4.530   3.499   5.049 -0.8454 -0.4701 -2.1283
 6709TIP3   OH241541   5.320   5.003   1.368 -0.0328  0.2235  0.1173
 6709TIP3    H141542   5.238   4.958   1.388  0.5832 -0.5538  0.9724
 6709TIP3    H241543   5.372   4.994   1.447  0.1185  2.4840  0.3356
 6710TIP3   OH241544   0.081   0.529  16.271 -0.1946 -0.0732 -0.6402
 6710TIP3    H141545   0.139   0.537  16.348  1.4597  0.6085 -1.8946
 6710TIP3    H241546   0.099   0.608  16.220 -2.0952  0.0297 -1.2301
 6711TIP3   OH241547   0.831   1.072  15.330 -0.0397 -0.2526  0.2950
 6711TIP3    H141548   0.797   1.129  15.399 -0.2121  0.2232 -0.1785
 6711TIP3    H241549   0.810   1.117  15.249  0.7334 -0.5021 -0.0514
 6712TIP3   OH241550   2.325   0.009  15.423 -0.2213  0.6365 -0.2456
 6712TIP3    H141551   2.402   0.013  15.366  0.2320  2.9043  0.4298
 6712TIP3    H241552   2.251   0.014  15.363  0.1608 -0.3626 -0.8247
 6713TIP3   OH241553   5.700   0.107   1.138  0.1150 -0.1558  0.3023
 6713TIP3    H141554   5.794   0.096   1.152  0.2122  0.0897 -0.1353
 6713TIP3    H241555   5.691   0.198   1.108 -0.1139 -0.5538 -0.8947
 6714TIP3   OH241556   4.777   4.738   1.024  0.0724 -0.0568 -0.6914
 6714TIP3    H141557   4.789   4.682   1.101  1.7894 -0.3361 -1.1383
 6714TIP3    H241558   4.683   4.730   1.004 -0.6914  0.9366  2.0307
 6715TIP3   OH241559   2.110   1.285  15.302  0.1037  0.0393  0.3630
 6715TIP3    H141560   2.123   1.364  15.249  1.3620  0.9439  1.9386
 6715TIP3    H241561   2.186   1.282  15.360 -0.5542 -1.6537  1.2098
 6716TIP3   OH241562   0.840   6.755   2.287  0.0082 -0.0393 -0.2767
 6716TIP3    H141563   0.924   6.726   2.321  0.1146  1.0102  0.3869
 6716TIP3    H241564   0.855   6.767   2.193  0.7548  0.6472 -0.0777
 6717TIP3   OH241565   5.535   0.333  13.917  0.3755 -0.2584  0.2252
 6717TIP3    H141566   5.500   0.244  13.924  1.2238 -0.7761 -1.5801
 6717TIP3    H241567   5.610   0.335  13.976 -0.1700 -0.4527  0.9334
 6718TIP3   OH241568   4.026   5.163   4.807  0.0359 -0.1584 -0.4906
 6718TIP3    H141569   4.018   5.234   4.744 -0.1006  1.1576  0.9636
 6718TIP3    H241570   3.970   5.188   4.880  0.4424 -1.4787  0.3211
 6719TIP3   OH241571   6.219   4.505  16.205 -0.1695  0.3336  0.0038
 6719TIP3    H141572   6.213   4.470  16.294  0.2513  1.6879  0.5878
 6719TIP3    H241573   6.261   4.436  16.155 -0.4725 -0.4726  0.8375
 6720TIP3   OH241574   4.847   2.197   5.847 -0.1540  0.0434  0.4618
 6720TIP3    H141575   4.803   2.123   5.806 -1.8034  1.3973 -0.3854
 6720TIP3    H241576   4.845   2.178   5.941 -1.9888 -0.2931  0.3872
 6721TIP3   OH241577   5.437   5.168  16.493 -0.0572 -0.0036 -0.2238
 6721TIP3    H141578   5.367   5.198  16.436  0.5557 -1.2732 -1.7269
 6721TIP3    H241579   5.509   5.146  16.433  1.4634  0.7804  1.2202
 6722TIP3   OH241580   4.991   2.972  14.116  0.1786  0.6893 -0.4020
 6722TIP3    H141581   4.942   2.900  14.157  0.4338  1.0701  0.5935
 6722TIP3    H241582   5.083   2.945  14.122  0.1183 -1.1583 -4.3897
 6723TIP3   OH241583   5.040   6.286   5.766 -0.0672  0.1304 -0.1870
 6723TIP3    H141584   5.045   6.381   5.756  0.0474  0.4420  2.2189
 6723TIP3    H241585   5.021   6.272   5.859  0.6679 -2.2241 -0.3130
 6724TIP3   OH241586   3.204   1.649  14.163  0.2559 -0.3890 -0.0739
 6724TIP3    H141587   3.180   1.571  14.214 -0.1170 -1.5462 -1.9505
 6724TIP3    H241588   3.185   1.722  14.222 -0.7636 -1.6349  1.2261
 6725TIP3   OH241589   3.081   6.058  15.084  0.4222  0.0242 -0.1802
 6725TIP3    H141590   3.134   6.000  15.029 -1.6474 -1.4047 -0.7952
 6725TIP3    H241591   3.143   6.093  15.148  1.9825 -2.0941 -0.4031
 6726TIP3   OH241592   0.454   2.852   0.125  0.8934  0.5204  0.3337
 6726TIP3    H141593   0.508   2.773   0.118  0.9477  0.4718  1.1886
 6726TIP3    H241594   0.390   2.831   0.193  1.1192  1.3218  0.8091
 6727TIP3   OH241595   1.226   0.686  14.412 -0.1956  0.8668  0.7087
 6727TIP3    H141596   1.260   0.775  14.423 -1.1924  1.3476 -0.0163
 6727TIP3    H241597   1.291   0.642  14.358  1.6907  0.2980  3.2386
 6728TIP3   OH241598   6.457   4.640   2.477 -0.1206 -0.5559  0.4195
 6728TIP3    H141599   6.456   4.624   2.382  0.0587 -0.5622  0.4178
 6728TIP3    H241600   6.373   4.682   2.495 -0.2107 -0.6716  0.2778
 6729TIP3   OH241601   1.063   1.960   1.868  0.0736 -0.0839 -0.1355
 6729TIP3    H141602   1.030   1.917   1.948  0.8134 -0.4689 -0.0244
 6729TIP3    H241603   1.085   2.049   1.896  0.4285 -0.2493  0.1242
 6730TIP3   OH241604   3.543   0.892  12.562  0.1489  0.1204  0.2426
 6730TIP3    H141605   3.503   0.973  12.531 -2.3099 -1.2573 -0.4453
 6730TIP3    H241606   3.519   0.888  12.655  0.2477  0.1529  0.2699
 6731TIP3   OH241607   5.117   2.363   4.824 -0.4091  0.2600 -0.0789
 6731TIP3    H141608   5.026   2.348   4.849 -0.9209 -0.4486 -2.1268
 6731TIP3    H241609   5.148   2.278   4.793  0.5840  0.7502 -0.4685
 6732TIP3   OH241610   4.844   6.591  14.399  0.3004 -0.1025  0.1993
 6732TIP3    H141611   4.766   6.643  14.380  1.0427  2.2754  2.9648
 6732TIP3    H241612   4.897   6.597  14.319 -1.0504  0.7371 -0.6656
 6733TIP3   OH241613   3.147   0.754  16.448 -0.0269  0.0017  0.2569
 6733TIP3    H141614   3.145   0.846  16.421  0.7092 -0.3110 -0.9214
 6733TIP3    H241615   3.061   0.739  16.487  0.7401  1.9324  3.0942
 6734TIP3   OH241616   2.739   1.357   1.462  0.3589  0.2109 -0.1665
 6734TIP3    H141617   2.659   1.315   1.494  0.5362  0.4658  0.6314
 6734TIP3    H241618   2.745   1.331   1.370 -0.3893 -0.1926 -0.1053
 6735TIP3   OH241619   5.748   6.113  11.618  0.0659 -0.2171  0.1565
 6735TIP3    H141620   5.762   6.133  11.711 -1.3258 -0.3617  0.4091
 6735TIP3    H241621   5.716   6.194  11.580  0.8528 -0.0937 -0.2613
 6736TIP3   OH241622   0.036   6.737  11.855 -0.1681  0.5519 -0.0740
 6736TIP3    H141623   0.109   6.749  11.915  0.5981 -1.8662 -0.3912
 6736TIP3    H241624  -0.042   6.750  11.910  0.5194 -0.6851  1.2726
 6737TIP3   OH241625   3.877   6.554  14.745  0.4586  0.5909 -0.1695
 6737TIP3    H141626   3.919   6.515  14.669  1.5204  1.2703  0.0400
 6737TIP3    H241627   3.787   6.524  14.741  0.4869  0.6382 -1.7107
 6738TIP3   OH241628   1.767   5.814  13.637  0.5387 -0.1491  0.0944
 6738TIP3    H141629   1.839   5.838  13.579 -1.9034  0.2309 -3.0572
 6738TIP3    H241630   1.738   5.896  13.675  0.1774  0.0739 -0.6526
 6739TIP3   OH241631   0.836   1.945  14.623  0.8604 -0.1965  0.2296
 6739TIP3    H141632   0.856   1.862  14.667  0.0556  0.1630  1.3091
 6739TIP3    H241633   0.877   2.012  14.677 -0.6246  0.2964  0.7902
 6740TIP3   OH241634   1.024   4.968   4.190 -0.0841 -0.6902  0.1212
 6740TIP3    H141635   0.936   4.982   4.157  0.0947 -0.3138 -0.2112
 6740TIP3    H241636   1.071   4.926   4.117 -0.3308 -2.0962  0.7468
 6741TIP3   OH241637   3.741   2.370   3.149  0.0877  0.2148  0.6554
 6741TIP3    H141638   3.803   2.423   3.099 -0.7448  1.1347  0.5768
 6741TIP3    H241639   3.783   2.358   3.234  0.4113  0.7716  0.5778
 6742TIP3   OH241640   4.431   0.630  14.971  0.2658  0.2837 -0.2438
 6742TIP3    H141641   4.524   0.610  14.971  0.7840  2.0954  2.2962
 6742TIP3    H241642   4.410   0.645  15.064 -3.2080 -2.6600 -0.3394
 6743TIP3   OH241643   2.016   2.313   5.263  0.3400 -0.6086 -0.1403
 6743TIP3    H141644   1.941   2.292   5.319  1.0483  1.6920  1.8647
 6743TIP3    H241645   2.080   2.244   5.282  1.5042  1.2904  3.9965
 6744TIP3   OH241646   4.263   1.200  15.373  0.6267  0.0243  0.5882
 6744TIP3    H141647   4.339   1.243  15.412  1.7401 -1.0150 -0.3490
 6744TIP3    H241648   4.196   1.268  15.368  2.3680  1.7313 -1.0096
 6745TIP3   OH241649   1.741   0.647   1.988 -0.3943 -0.3407  0.0046
 6745TIP3    H141650   1.836   0.648   1.985 -0.3101 -2.1340  0.8698
 6745TIP3    H241651   1.714   0.705   1.917  1.3270  0.4418 -0.0446
 6746TIP3   OH241652   3.832   3.848  16.942  0.1096  0.2952  0.0406
 6746TIP3    H141653   3.837   3.911  17.015  0.4646  0.5085 -0.1632
 6746TIP3    H241654   3.788   3.772  16.980  2.3513 -0.5346  1.1673
 6747TIP3   OH241655   3.040   0.112  14.170  0.4929  0.0418 -0.1560
 6747TIP3    H141656   3.030   0.141  14.079 -2.4715  2.2561  0.7281
 6747TIP3    H241657   2.984   0.035  14.177 -0.3645  0.6802  0.0939
 6748TIP3   OH241658   0.980   4.581  16.902 -0.0548  0.6620 -0.2715
 6748TIP3    H141659   0.949   4.492  16.886  1.0602  0.3438 -0.7315
 6748TIP3    H241660   0.901   4.635  16.896 -1.2577 -0.5707  2.7605
 6749TIP3   OH241661   1.661   0.755  10.765  0.5322  0.1283 -0.1408
 6749TIP3    H141662   1.714   0.709  10.830  1.0602  2.8686  1.5345
 6749TIP3    H241663   1.629   0.686  10.707  1.8516 -2.2062  1.7212
 6750TIP3   OH241664   2.972   1.904  13.853 -0.5267 -0.3686  0.3897
 6750TIP3    H141665   3.066   1.897  13.836 -0.0965  4.2549 -0.3736
 6750TIP3    H241666   2.966   1.944  13.940 -1.7044  0.6364 -0.1225
 6751TIP3   OH241667   1.101   5.175  14.445  0.1009 -0.0052 -0.2103
 6751TIP3    H141668   1.072   5.084  14.441  1.2767 -0.4312  0.2815
 6751TIP3    H241669   1.063   5.210  14.526  2.0765 -1.0182  1.2570
 6752TIP3   OH241670   3.586   0.704   1.280 -0.4310  0.2650 -0.2714
 6752TIP3    H141671   3.526   0.672   1.348 -0.1412  0.0554 -0.1149
 6752TIP3    H241672   3.572   0.646   1.206  0.4201 -0.5164  0.1652
 6753TIP3   OH241673   1.444   0.251   2.235 -0.1905 -0.3524 -0.6107
 6753TIP3    H141674   1.435   0.306   2.157 -0.3769 -0.0624 -0.3835
 6753TIP3    H241675   1.477   0.310   2.303 -2.6809  0.0955  0.3179
 6754TIP3   OH241676   3.623   5.218   0.964  0.4145 -0.9260 -0.0229
 6754TIP3    H141677   3.577   5.251   0.886  1.0550 -2.7917 -1.2379
 6754TIP3    H241678   3.553   5.180   1.018  0.0828 -0.4073 -0.0714
 6755TIP3   OH241679   4.214   3.993   2.759 -0.1431 -0.1221 -0.5821
 6755TIP3    H141680   4.255   3.941   2.828  0.4115  0.3849 -0.5244
 6755TIP3    H241681   4.121   3.970   2.763 -0.1872  0.2045  0.5963
 6756TIP3   OH241682   2.761   2.907  13.309  0.3660  0.6055  0.1155
 6756TIP3    H141683   2.730   2.848  13.377  0.5101  1.0509  0.5727
 6756TIP3    H241684   2.688   2.913  13.247 -0.0470  0.7800  0.6145
 6757TIP3   OH241685   1.777   6.707  15.410 -0.6722 -0.1714 -0.1929
 6757TIP3    H141686   1.752   6.617  15.429 -1.7780 -0.2032 -1.6474
 6757TIP3    H241687   1.864   6.716  15.448 -0.3055 -2.0339 -0.4954
 6758TIP3   OH241688   5.110   5.154   2.461 -0.0473  0.3615 -0.1148
 6758TIP3    H141689   5.119   5.247   2.442  0.4865 -0.2350 -3.2260
 6758TIP3    H241690   5.034   5.126   2.410  0.6290 -1.1695 -0.3264
 6759TIP3   OH241691   3.272   4.842  12.552  0.4986 -0.6789 -0.3271
 6759TIP3    H141692   3.215   4.892  12.494  1.0677 -0.1413 -0.4247
 6759TIP3    H241693   3.308   4.772  12.497 -0.0844 -1.0450 -0.2571
 6760TIP3   OH241694   3.181   4.119  13.382  0.0886  0.0779  0.1682
 6760TIP3    H141695   3.207   4.210  13.401 -0.3342  0.2614 -0.1020
 6760TIP3    H241696   3.222   4.100  13.298  0.1953  0.0120  0.2352
 6761TIP3   OH241697   3.431   0.201   2.734 -0.5438  0.0147 -0.5187
 6761TIP3    H141698   3.507   0.183   2.678  0.3373  2.0164 -0.0786
 6761TIP3    H241699   3.467   0.205   2.822 -1.4411 -0.4717 -0.1225
 6762TIP3   OH241700   1.262   0.231   3.331 -0.0030  0.0440  0.1066
 6762TIP3    H141701   1.355   0.253   3.328 -0.3326  1.5111  0.0321
 6762TIP3    H241702   1.227   0.258   3.246 -0.4337 -0.8345 -0.0078
 6763TIP3   OH241703   1.615   1.215   5.766 -0.3257  0.6716  0.5737
 6763TIP3    H141704   1.554   1.283   5.739 -0.9645 -0.5178 -1.1717
 6763TIP3    H241705   1.701   1.252   5.749 -0.6828  0.6263 -1.6339
 6764TIP3   OH241706   2.945   3.313   5.591  0.4373 -0.0196 -0.7314
 6764TIP3    H141707   3.013   3.291   5.655 -0.7954  2.3795  1.6225
 6764TIP3    H241708   2.987   3.376   5.532  0.7757  0.1240 -0.3474
 6765TIP3   OH241709   2.039   2.111   2.090  0.1284 -0.1138  0.2334
 6765TIP3    H141710   2.105   2.043   2.104 -1.5390 -1.6971  0.6813
 6765TIP3    H241711   2.021   2.146   2.177  0.9375  0.8842  0.0112
 6766TIP3   OH241712   2.136   1.005   4.815  0.2438  0.3795 -0.0480
 6766TIP3    H141713   2.183   1.031   4.894 -0.7153  0.2655  0.5763
 6766TIP3    H241714   2.200   0.954   4.765  1.4871  2.0877 -0.2947
 6767TIP3   OH241715   3.812   6.431   4.627 -0.5028  0.2651 -0.1722
 6767TIP3    H141716   3.888   6.408   4.681 -2.4072  0.6979  2.8863
 6767TIP3    H241717   3.847   6.434   4.538  2.5173 -2.0061  0.7623
 6768TIP3   OH241718   3.482   6.057   0.844 -0.3630 -0.1969 -0.2463
 6768TIP3    H141719   3.457   6.008   0.923 -1.8414 -0.7326 -1.0027
 6768TIP3    H241720   3.406   6.048   0.786  1.5152 -1.7832 -2.6641
 6769TIP3   OH241721   2.402   4.240  14.269  0.2661 -0.0952 -0.3878
 6769TIP3    H141722   2.331   4.189  14.231  0.8849 -2.0994  1.0089
 6769TIP3    H241723   2.475   4.179  14.276  1.7614  1.5829 -0.6604
 6770TIP3   OH241724   0.700   4.555  14.320  0.1387  0.3701 -0.6818
 6770TIP3    H141725   0.774   4.579  14.376  1.0454 -0.2489 -1.5955
 6770TIP3    H241726   0.661   4.479  14.364  0.2395  0.4990 -0.3672
 6771TIP3   OH241727   4.166   2.970  15.318 -0.2084  0.2161  0.6351
 6771TIP3    H141728   4.149   2.894  15.263  0.8347  1.3249 -1.3215
 6771TIP3    H241729   4.125   3.043  15.272  0.0028  1.0655  1.7421
 6772TIP3   OH241730   1.464   3.345  16.199 -0.0201 -0.2363 -0.3185
 6772TIP3    H141731   1.452   3.324  16.292 -0.0761 -2.3390 -0.7537
 6772TIP3    H241732   1.375   3.349  16.163  0.0257 -0.0067 -0.4122
 6773TIP3   OH241733   2.118   2.182   5.663 -0.3576  0.1980  0.4117
 6773TIP3    H141734   2.058   2.256   5.664 -0.0659  0.4352  1.7118
 6773TIP3    H241735   2.062   2.105   5.666 -0.6879  0.3051 -1.4923
 6774TIP3   OH241736   2.581   0.969  15.812  0.0839  0.0120 -0.3092
 6774TIP3    H141737   2.537   0.967  15.727 -0.3938  0.5559 -0.0792
 6774TIP3    H241738   2.593   1.062  15.831  0.6637 -0.1194 -0.0264
 6775TIP3   OH241739   4.063   2.259   0.503 -0.1043  0.0563  0.0673
 6775TIP3    H141740   4.006   2.332   0.528  0.2797  0.2738  0.3318
 6775TIP3    H241741   4.139   2.302   0.462 -0.1799 -0.2324 -0.3861
 6776TIP3   OH241742   4.941   1.433  14.221 -0.9244  0.0337  0.8327
 6776TIP3    H141743   5.007   1.365  14.235 -0.0837  0.7440  0.4316
 6776TIP3    H241744   4.858   1.392  14.247 -0.5555 -1.4012 -0.1521
 6777TIP3   OH241745   5.203   5.716   1.459  0.4535  0.2468  0.3464
 6777TIP3    H141746   5.207   5.677   1.372 -1.1218 -0.5721  0.6200
 6777TIP3    H241747   5.118   5.760   1.462  0.3226 -0.0649  1.6156
 6778TIP3   OH241748   6.500   4.302  12.643  0.1690 -0.0440 -0.2258
 6778TIP3    H141749   6.554   4.325  12.719  0.7586 -1.2094 -0.2696
 6778TIP3    H241750   6.410   4.310  12.674  0.3939  0.2185  0.3741
 6779TIP3   OH241751   2.652   0.562  16.043 -0.0350 -0.4036  0.4441
 6779TIP3    H141752   2.611   0.627  15.986 -0.2873 -0.7677  0.2025
 6779TIP3    H241753   2.580   0.503  16.067  0.4034 -1.2677 -0.2785
 6780TIP3   OH241754   1.793   3.300  13.137  0.6414  0.4642  0.3057
 6780TIP3    H141755   1.855   3.232  13.164 -1.4956 -1.9022 -0.3591
 6780TIP3    H241756   1.829   3.335  13.056  0.1528 -2.4382 -1.2967
 6781TIP3   OH241757   1.159   1.356   3.977 -0.3229  0.2911 -0.3710
 6781TIP3    H141758   1.188   1.445   3.997  0.6594 -0.1137  0.0370
 6781TIP3    H241759   1.150   1.355   3.882 -0.6344  0.9048 -0.3585
 6782TIP3   OH241760   1.232   3.540  16.753  0.0610 -0.1093  1.4279
 6782TIP3    H141761   1.194   3.484  16.685 -0.3001  0.2638  1.3167
 6782TIP3    H241762   1.219   3.629  16.721  2.9646  0.0197  0.3559
 6783TIP3   OH241763   1.937   6.185   0.972 -0.0604 -0.3603  0.1413
 6783TIP3    H141764   1.966   6.103   1.013  1.6357  0.1066 -0.0324
 6783TIP3    H241765   2.005   6.249   0.995 -1.5401  1.1254  0.5967
 6784TIP3   OH241766   2.919   0.774   3.435 -0.4758 -0.0961  0.7184
 6784TIP3    H141767   2.851   0.811   3.491 -1.0619 -0.5388  0.3142
 6784TIP3    H241768   2.894   0.800   3.346 -1.5630 -2.3406  0.2728
 6785TIP3   OH241769   2.864   3.712  14.210  0.0225  0.0093  0.1150
 6785TIP3    H141770   2.830   3.724  14.299  0.1901 -0.4860  0.2508
 6785TIP3    H241771   2.875   3.617  14.202  0.5747  0.1016 -0.2266
 6786TIP3   OH241772   5.883   5.775   6.536 -0.1542 -0.1677  0.0351
 6786TIP3    H141773   5.922   5.725   6.608 -0.4695 -0.9413 -0.3218
 6786TIP3    H241774   5.919   5.735   6.457 -0.4575  0.1330 -0.2576
 6787TIP3   OH241775   4.014   4.275   0.871 -0.3877  0.3552 -0.1530
 6787TIP3    H141776   4.044   4.274   0.962 -0.4252  0.9723 -0.1244
 6787TIP3    H241777   4.007   4.368   0.850 -0.3870  0.2162 -0.7863
 6788TIP3   OH241778   0.371   4.874  11.704  0.0791 -0.2535  0.6559
 6788TIP3    H141779   0.417   4.802  11.748  0.2768 -1.1152 -0.8777
 6788TIP3    H241780   0.278   4.858  11.721  0.0522 -1.4921 -0.5174
 6789TIP3   OH241781   6.405   3.123  13.635 -0.7166  0.0392 -0.3900
 6789TIP3    H141782   6.497   3.124  13.662 -0.6047  1.9578 -0.7068
 6789TIP3    H241783   6.390   3.034  13.605  0.9532 -0.3992 -0.0289
 6790TIP3   OH241784   5.612   2.599   2.153 -0.0706  0.2466  0.2483
 6790TIP3    H141785   5.651   2.566   2.234 -0.4258  1.0713  0.7738
 6790TIP3    H241786   5.639   2.691   2.149  1.3323 -0.1863 -1.4467
 6791TIP3   OH241787   6.101   0.044  15.763  0.6040  0.4961 -0.0430
 6791TIP3    H141788   6.021   0.078  15.804 -0.2366 -1.4125  0.0433
 6791TIP3    H241789   6.159   0.027  15.837 -0.8063 -2.6772  0.5063
 6792TIP3   OH241790   1.333   1.185  13.534 -0.6968  0.7705  0.1758
 6792TIP3    H141791   1.291   1.109  13.574  0.5771  0.2009  0.4798
 6792TIP3    H241792   1.289   1.195  13.450 -1.4584  0.2272  0.4979
 6793TIP3   OH241793   6.109   4.979   3.171 -0.1316  0.1371 -0.6528
 6793TIP3    H141794   6.044   5.030   3.123 -0.3762  0.5762  0.1240
 6793TIP3    H241795   6.191   4.996   3.125 -0.4245  0.2393 -1.1441
 6794TIP3   OH241796   5.539   5.959   1.514  0.0233 -0.0755  0.1215
 6794TIP3    H141797   5.499   5.874   1.535  0.1217 -0.2749 -0.4660
 6794TIP3    H241798   5.485   6.023   1.559 -0.4662 -0.4026  0.0042
 6795TIP3   OH241799   4.978   3.250  12.371  0.4831 -0.2021  0.0247
 6795TIP3    H141800   5.044   3.240  12.439  0.0692 -0.1070  0.4470
 6795TIP3    H241801   5.027   3.278  12.293  1.2608 -2.2732 -0.3138
 6796TIP3   OH241802   2.761   3.879   5.998  0.2991  0.0722 -0.5052
 6796TIP3    H141803   2.821   3.806   5.985  0.2048  0.0604 -0.8733
 6796TIP3    H241804   2.705   3.852   6.071 -0.0428 -0.4237 -0.9440
 6797TIP3   OH241805   2.649   6.520   6.546 -0.3829  0.7956  0.1646
 6797TIP3    H141806   2.587   6.586   6.516 -0.9767 -0.4219 -1.4451
 6797TIP3    H241807   2.594   6.445   6.570  0.1760  1.1868  3.1026
 6798TIP3   OH241808   2.369   4.873   2.752  0.0359 -0.3256  0.0367
 6798TIP3    H141809   2.380   4.851   2.845  1.6247  2.0961  0.5081
 6798TIP3    H241810   2.457   4.872   2.717 -0.6711 -2.7648 -1.9443
 6799TIP3   OH241811   2.386   4.893  13.199  0.0652 -0.2418 -0.1184
 6799TIP3    H141812   2.319   4.864  13.261 -1.3865  0.0448 -1.4609
 6799TIP3    H241813   2.400   4.985  13.220 -1.8195  0.3796 -1.3328
 6800TIP3   OH241814   4.250   3.844   3.750 -0.2091 -0.4231  0.2105
 6800TIP3    H141815   4.167   3.818   3.789  0.8392 -2.2758  1.3264
 6800TIP3    H241816   4.226   3.903   3.678 -2.4092 -0.2195  1.0569
 6801TIP3   OH241817   6.082   3.256  16.959 -0.1726  0.7013 -0.2593
 6801TIP3    H141818   6.140   3.276  16.886  0.4753  1.1278  0.3621
 6801TIP3    H241819   6.003   3.307  16.942 -0.6103 -0.3187 -1.4029
 6802TIP3   OH241820   5.692   6.678  14.741  0.3557  0.2223  0.2171
 6802TIP3    H141821   5.701   6.756  14.686 -0.6864 -0.6732 -1.2982
 6802TIP3    H241822   5.609   6.640  14.715  0.1266 -0.6145  2.0014
 6803TIP3   OH241823   6.651   3.374  12.549 -0.7067 -0.5775  0.2241
 6803TIP3    H141824   6.630   3.428  12.473  1.1168 -1.3342 -0.8940
 6803TIP3    H241825   6.702   3.301  12.513 -0.2846 -1.2567  2.0966
 6804TIP3   OH241826   4.979   3.779   6.453 -0.6344  0.0164 -0.0165
 6804TIP3    H141827   5.037   3.855   6.461  1.0834 -1.0858 -1.2961
 6804TIP3    H241828   4.891   3.816   6.458  0.1443  1.8940  0.8993
 6805TIP3   OH241829   2.069   0.478  16.227 -0.1532  0.2981 -0.3514
 6805TIP3    H141830   2.018   0.514  16.300  2.2269 -0.1570  1.6962
 6805TIP3    H241831   2.095   0.555  16.176  0.8180  1.0190  1.1757
 6806TIP3   OH241832   3.140   2.778   1.580 -0.3328 -0.3500  0.6601
 6806TIP3    H141833   3.166   2.789   1.488 -0.0573 -0.1952  0.7557
 6806TIP3    H241834   3.176   2.855   1.625 -0.9997 -0.1044  0.7903
 6807TIP3   OH241835   1.562   0.691   3.319 -0.2515  0.0762  0.1922
 6807TIP3    H141836   1.656   0.694   3.305 -0.2100 -0.0446  0.4403
 6807TIP3    H241837   1.524   0.693   3.231  0.0414 -2.1871 -0.0259
 6808TIP3   OH241838   2.719   4.703  17.085 -0.1157 -0.1250  0.3928
 6808TIP3    H141839   2.728   4.614  17.053 -2.3767 -0.2821  0.0507
 6808TIP3    H241840   2.788   4.712  17.151 -0.1108 -2.2672  0.7487
 6809TIP3   OH241841   1.254   5.579  12.269  0.4567  0.4972  0.1730
 6809TIP3    H141842   1.242   5.484  12.270  0.4110  0.4561 -1.2941
 6809TIP3    H241843   1.347   5.592  12.254  0.1667  0.6244 -1.7774
 6810TIP3   OH241844   2.480   4.436  14.853  0.3437 -0.0958 -0.4776
 6810TIP3    H141845   2.509   4.483  14.775  1.8081 -1.4083 -0.7709
 6810TIP3    H241846   2.560   4.420  14.903 -0.4949  0.2280  1.0413
 6811TIP3   OH241847   1.599   6.329   2.424  0.2998  0.6809 -0.4380
 6811TIP3    H141848   1.559   6.271   2.360  1.8703 -0.3142 -0.5665
 6811TIP3    H241849   1.693   6.325   2.405  0.4949  3.1074 -0.3017
 6812TIP3   OH241850   1.083   5.005  11.371 -0.4929 -1.2121  0.4063
 6812TIP3    H141851   1.053   4.924  11.412  0.8160 -1.6703  0.5309
 6812TIP3    H241852   1.066   4.992  11.278 -0.9471 -1.3311  0.5043
 6813TIP3   OH241853   5.728   2.935  16.973  0.1658 -0.7691  0.3554
 6813TIP3    H141854   5.722   3.027  16.999 -1.6434 -1.3759  2.3112
 6813TIP3    H241855   5.656   2.923  16.910  0.8212 -0.7239 -0.4233
 6814TIP3   OH241856   5.068   4.848   0.120 -0.3149 -0.1823 -0.1602
 6814TIP3    H141857   5.027   4.763   0.133 -0.2520 -0.5700 -2.2368
 6814TIP3    H241858   5.128   4.857   0.194 -0.7683 -1.6405  0.4199
 6815TIP3   OH241859   1.641   2.112   0.219  0.7486 -0.2281  0.4967
 6815TIP3    H141860   1.642   2.020   0.244 -0.2506 -1.0403 -2.1502
 6815TIP3    H241861   1.730   2.143   0.235  1.1760 -1.7224  1.1381
 6816TIP3   OH241862   6.207   4.880   1.352  0.3840  0.5330  0.5207
 6816TIP3    H141863   6.208   4.870   1.257 -0.9346  0.8815  0.4436
 6816TIP3    H241864   6.278   4.941   1.371  1.1570 -0.1378 -0.1530
 6817TIP3   OH241865   1.884   3.181   2.756 -0.0948 -0.0775  0.6224
 6817TIP3    H141866   1.827   3.119   2.802  1.0865 -0.6262  1.3816
 6817TIP3    H241867   1.956   3.128   2.723  0.5311  0.7650  0.5974
 6818TIP3   OH241868   3.343   4.632  16.694  0.3814  0.9092  0.2583
 6818TIP3    H141869   3.335   4.717  16.738 -1.6937 -0.0387  1.8719
 6818TIP3    H241870   3.255   4.615  16.660  0.9267 -0.3366 -0.5918
 6819TIP3   OH241871   4.029   6.707   1.127 -0.1327 -0.3245 -0.0971
 6819TIP3    H141872   4.072   6.727   1.043  1.6985 -0.7198  0.7002
 6819TIP3    H241873   4.091   6.650   1.172 -1.9669 -1.7617  0.7362
 6820TIP3   OH241874   6.689   1.340   5.269  0.1483 -0.1230 -0.5422
 6820TIP3    H141875   6.684   1.420   5.322 -1.2618 -1.2576  1.1499
 6820TIP3    H241876   6.641   1.362   5.189  0.7625  1.0624 -0.6127
 6821TIP3   OH241877   5.480   1.965  14.478 -0.4111 -0.3599 -0.1425
 6821TIP3    H141878   5.424   2.015  14.419  0.1902  0.5905  0.0705
 6821TIP3    H241879   5.422   1.898  14.515 -1.4795  0.7329  0.2367
 6822TIP3   OH241880   6.306   4.629   0.065  0.4224 -0.1577  0.1139
 6822TIP3    H141881   6.374   4.687   0.029  1.3102 -1.2097  0.0517
 6822TIP3    H241882   6.292   4.564  -0.003 -0.7121  0.0751  0.1073
 6823TIP3   OH241883   3.935   3.729  16.097  0.3675 -0.4183  0.1367
 6823TIP3    H141884   3.956   3.663  16.163  0.6931 -0.1186  0.3296
 6823TIP3    H241885   3.989   3.705  16.021  1.8172  0.6377  0.7936
 6824TIP3   OH241886   1.516   2.563   0.964  0.3488 -0.5432 -0.4891
 6824TIP3    H141887   1.530   2.475   0.931  0.4572 -0.6967 -0.0463
 6824TIP3    H241888   1.423   2.565   0.988 -0.1834  0.1315 -2.4239
 6825TIP3   OH241889   0.683   1.473  12.719 -0.1460  0.1181  0.1603
 6825TIP3    H141890   0.654   1.383  12.707  0.1579  0.0477 -0.0848
 6825TIP3    H241891   0.603   1.523  12.736 -0.6934  0.2522 -2.3539
 6826TIP3   OH241892   5.028   0.115   1.836  0.1582  0.1184 -0.9572
 6826TIP3    H141893   4.970   0.073   1.900  2.2941 -1.1735  0.2584
 6826TIP3    H241894   5.009   0.070   1.753  0.7512 -1.6747 -0.1661
 6827TIP3   OH241895   6.288   6.716   2.016  0.0973 -0.0944 -0.2271
 6827TIP3    H141896   6.253   6.796   1.978 -2.2848 -0.2336  1.4779
 6827TIP3    H241897   6.379   6.736   2.035 -0.2626  1.9636 -0.4657
 6828TIP3   OH241898   6.445   0.386  14.504 -0.1354 -0.1080  0.6874
 6828TIP3    H141899   6.539   0.383  14.524  0.6428  0.7360 -2.3689
 6828TIP3    H241900   6.409   0.311  14.550  1.9085 -0.1524  2.4089
 6829TIP3   OH241901   0.965   5.441  13.529  0.6265  0.1385  0.4678
 6829TIP3    H141902   1.013   5.524  13.525  0.1967  0.3773  0.2605
 6829TIP3    H241903   1.003   5.388  13.459 -1.6083  1.5074 -1.9657
 6830TIP3   OH241904   5.618   0.667   2.333 -0.1152 -0.1488  0.0292
 6830TIP3    H141905   5.698   0.691   2.379  0.1675  1.5447 -1.2370
 6830TIP3    H241906   5.636   0.687   2.241 -1.7557 -0.3519 -0.3805
 6831TIP3   OH241907   1.037   4.776   2.920  0.0858 -0.1381 -0.1060
 6831TIP3    H141908   1.036   4.872   2.928  0.3053  0.0064 -1.5040
 6831TIP3    H241909   1.004   4.760   2.831  2.8472 -1.1895 -1.0183
 6832TIP3   OH241910   6.232   5.494  11.209  0.9179 -0.2984  0.0014
 6832TIP3    H141911   6.270   5.429  11.267 -0.8693 -0.7352  0.7591
 6832TIP3    H241912   6.250   5.462  11.121  1.7410 -0.7922  0.3410
 6833TIP3   OH241913   0.012   3.478   0.941 -0.0843 -0.0059 -0.6785
 6833TIP3    H141914  -0.028   3.557   0.906 -0.6920  0.0818  0.1917
 6833TIP3    H241915   0.096   3.472   0.897 -0.9668 -0.1039 -2.4478
 6834TIP3   OH241916   1.669   4.275   5.767 -0.1721  0.3321  0.2908
 6834TIP3    H141917   1.602   4.241   5.826  0.2547 -0.3506  0.4053
 6834TIP3    H241918   1.645   4.240   5.680 -1.0523  1.7066 -0.0422
 6835TIP3   OH241919   2.886   0.056  15.680 -0.1563 -0.4196  0.2749
 6835TIP3    H141920   2.838   0.120  15.733  1.8619  1.0297  0.4524
 6835TIP3    H241921   2.975   0.057  15.716  0.6795 -1.1375 -1.6516
 6836TIP3   OH241922   6.172   4.025   2.657 -0.4691 -0.2876 -0.4673
 6836TIP3    H141923   6.168   4.106   2.707 -0.9680  0.0088 -0.9767
 6836TIP3    H241924   6.266   4.008   2.646 -0.3557  0.6665 -1.0563
 6837TIP3   OH241925   2.870   6.783  16.565 -0.2675 -1.1258 -0.4019
 6837TIP3    H141926   2.787   6.794  16.612 -1.4929 -0.3390 -2.6018
 6837TIP3    H241927   2.926   6.736  16.627 -2.0851 -1.0261  1.4475
 6838TIP3   OH241928   0.417   4.343  14.794 -0.3071  0.5341 -0.5671
 6838TIP3    H141929   0.491   4.398  14.769  0.2485 -1.3566 -3.6288
 6838TIP3    H241930   0.345   4.405  14.807  1.1512  2.2147 -0.0840
 6839TIP3   OH241931   5.695   4.690  11.327 -0.2805 -0.1377  0.0122
 6839TIP3    H141932   5.640   4.767  11.342 -1.3868 -0.5843 -1.4671
 6839TIP3    H241933   5.654   4.621  11.380  0.9798  0.3517  1.7018
 6840TIP3   OH241934   2.782   1.829   1.069 -0.5005 -0.2534 -0.7400
 6840TIP3    H141935   2.719   1.891   1.105  0.5048 -0.1558  0.9602
 6840TIP3    H241936   2.838   1.882   1.012 -0.5796  0.1235 -0.4729
 6841TIP3   OH241937   2.333   4.773   1.859 -0.4130  0.4166 -0.2624
 6841TIP3    H141938   2.396   4.725   1.806  0.6855  0.2515  1.1486
 6841TIP3    H241939   2.305   4.711   1.926 -0.2136  1.2365  0.6058
 6842TIP3   OH241940   6.739   4.885  13.594 -0.3351 -0.4221 -0.1088
 6842TIP3    H141941   6.760   4.912  13.504  0.3789 -1.1086 -0.1632
 6842TIP3    H241942   6.671   4.818  13.583  0.5720 -1.3525 -0.2353
 6843TIP3   OH241943   3.459   3.188   6.296 -0.2671 -0.5966  0.0170
 6843TIP3    H141944   3.389   3.253   6.298  0.0798 -0.1866 -0.7410
 6843TIP3    H241945   3.444   3.134   6.373 -0.9283 -0.0039  0.3116
 6844TIP3   OH241946   1.607   1.617  15.121 -0.1210 -0.1566 -0.0543
 6844TIP3    H141947   1.562   1.695  15.092  0.0341  0.3192  0.9451
 6844TIP3    H241948   1.538   1.551  15.131 -0.7189  0.6691  1.8412
 6845TIP3   OH241949   6.090   6.104   4.312  0.6070 -0.1157 -0.0044
 6845TIP3    H141950   6.146   6.036   4.349  2.4351  0.9238 -0.7409
 6845TIP3    H241951   6.146   6.149   4.248 -1.7439 -0.4523 -2.4823
 6846TIP3   OH241952   5.758   0.197   1.754  0.2294  0.5205 -0.8098
 6846TIP3    H141953   5.705   0.261   1.801  0.4533  0.5943 -0.6560
 6846TIP3    H241954   5.701   0.120   1.745  0.5364  0.1034  0.5421
 6847TIP3   OH241955   2.740   1.146  10.785  0.3884 -0.0877 -0.0396
 6847TIP3    H141956   2.819   1.102  10.753 -1.8126 -3.1491 -1.7902
 6847TIP3    H241957   2.732   1.224  10.730  2.4006  0.6556  0.6005
 6848TIP3   OH241958   0.322   1.224  12.140 -0.0039  0.0949  0.0185
 6848TIP3    H141959   0.378   1.251  12.067 -0.1067 -2.5459 -1.1473
 6848TIP3    H241960   0.252   1.173  12.099 -0.3921 -0.9856  1.9060
 6849TIP3   OH241961   6.103   6.353   3.733 -0.5540  0.1655  0.0919
 6849TIP3    H141962   6.191   6.319   3.716 -0.9469  0.3333 -2.9502
 6849TIP3    H241963   6.061   6.284   3.784 -0.3034 -2.6918 -3.1553
 6850TIP3   OH241964   2.033   5.038   0.495 -0.4458  0.5613  0.2513
 6850TIP3    H141965   1.969   4.982   0.451 -0.3459  0.8634 -0.2917
 6850TIP3    H241966   2.061   5.099   0.427 -1.4925  2.1052  1.1340
 6851TIP3   OH241967   2.072   2.511   3.583  0.6432  0.0661  0.0494
 6851TIP3    H141968   2.054   2.589   3.636  0.1105  0.7669 -1.0936
 6851TIP3    H241969   1.990   2.462   3.584  0.4602  0.3410 -0.5001
 6852TIP3   OH241970   0.120   4.339  14.068 -0.0669 -0.2223 -0.6881
 6852TIP3    H141971   0.089   4.412  14.014 -1.6640  0.2597  0.7968
 6852TIP3    H241972   0.113   4.262  14.011 -0.3338  0.4783 -1.6205
 6853TIP3   OH241973   0.663   5.176   2.105  0.0848  0.0003  0.1859
 6853TIP3    H141974   0.646   5.106   2.042  1.4948 -1.1232  0.9754
 6853TIP3    H241975   0.751   5.157   2.139  1.4474  3.3642 -1.0580
 6854TIP3   OH241976   5.975   2.303  12.193 -0.2813  0.3898 -0.0893
 6854TIP3    H141977   5.939   2.359  12.262  0.7630 -0.9361  1.6554
 6854TIP3    H241978   5.901   2.283  12.136 -1.7362 -0.2117  1.9014
 6855TIP3   OH241979   2.381   4.444   5.161  0.1651  0.0796  0.0717
 6855TIP3    H141980   2.437   4.486   5.095  1.1405  0.2675  1.0020
 6855TIP3    H241981   2.405   4.487   5.243  1.2770 -2.3277  1.0955
 6856TIP3   OH241982   6.502   5.633  15.359  0.3206  0.0131  0.4694
 6856TIP3    H141983   6.505   5.727  15.341  0.2127  0.2096  1.4504
 6856TIP3    H241984   6.555   5.594  15.289 -1.6468  0.5554 -1.4218
 6857TIP3   OH241985   5.333   5.093   1.787  0.0961 -0.1216  0.6044
 6857TIP3    H141986   5.366   5.110   1.875 -1.6747  0.2584  1.2302
 6857TIP3    H241987   5.245   5.058   1.800  1.6950 -5.6523 -0.7756
 6858TIP3   OH241988   1.652   2.996   3.696 -0.7032  0.1130 -0.0737
 6858TIP3    H141989   1.680   3.027   3.610 -0.3866 -0.5206 -0.2085
 6858TIP3    H241990   1.559   3.015   3.699 -0.9556 -0.8549 -1.0179
 6859TIP3   OH241991   6.130   1.924   1.168 -0.1038  0.2017  0.1028
 6859TIP3    H141992   6.043   1.960   1.153 -0.5613 -1.0975 -0.5333
 6859TIP3    H241993   6.114   1.837   1.205  0.7908 -1.2175 -2.5780
 6860TIP3   OH241994   1.878   4.532  13.256  0.5238 -0.3544 -0.8541
 6860TIP3    H141995   1.905   4.520  13.347 -2.3300  2.1833  0.4960
 6860TIP3    H241996   1.954   4.572  13.214  1.8640 -1.4733  0.3706
 6861TIP3   OH241997   5.985   6.764   2.635  0.5076  0.1717 -0.4333
 6861TIP3    H141998   5.899   6.746   2.672 -0.8083  1.7827 -2.4733
 6861TIP3    H241999   6.001   6.856   2.655  0.9744  0.3412 -1.5437
 6862TIP3   OH242000   4.993   3.623   0.945  0.6542 -0.2909  0.0359
 6862TIP3    H142001   5.053   3.626   1.019 -0.0811 -0.3111  0.6518
 6862TIP3    H242002   5.048   3.601   0.870  1.3416 -0.7259  0.6511
 6863TIP3   OH242003   6.750   5.212  12.915  0.1178 -0.1752  0.0474
 6863TIP3    H142004   6.836   5.194  12.877  0.3053  2.1400 -0.7712
 6863TIP3    H242005   6.726   5.298  12.882 -1.7127  0.0422  1.7277
 6864TIP3   OH242006   4.393   4.475  16.470 -0.4066 -0.4272 -0.0476
 6864TIP3    H142007   4.423   4.478  16.561  1.7685 -2.4623 -0.6200
 6864TIP3    H242008   4.377   4.567  16.448 -0.6403  0.1518  2.2402
 6865TIP3   OH242009   1.300   5.344   2.105 -0.6161  0.5813  0.1650
 6865TIP3    H142010   1.231   5.353   2.039  0.0928  0.4436 -0.6203
 6865TIP3    H242011   1.381   5.360   2.057 -0.0809  0.5098  1.0199
 6866TIP3   OH242012   4.701   2.065  10.910 -0.1221  0.0824 -0.5059
 6866TIP3    H142013   4.721   2.091  10.820 -0.3173  0.8386 -0.3315
 6866TIP3    H242014   4.628   2.004  10.901  1.0961 -1.3761 -1.0136
 6867TIP3   OH242015   0.125   4.129  10.961  0.1728  0.2389 -0.4152
 6867TIP3    H142016   0.136   4.038  10.933  2.2399  0.3725 -0.2165
 6867TIP3    H242017   0.031   4.141  10.970 -0.2764 -1.2738 -2.4322
 6868TIP3   OH242018   3.389   6.700   1.844 -0.2614  0.5216 -0.4777
 6868TIP3    H142019   3.337   6.719   1.766 -2.0140  0.8494  0.7042
 6868TIP3    H242020   3.326   6.663   1.906  1.0303  0.4738  0.8597
 6869TIP3   OH242021   6.666   4.873   5.096 -0.7795  0.5673 -0.1210
 6869TIP3    H142022   6.708   4.787   5.094  3.6201  2.4727  0.8945
 6869TIP3    H242023   6.665   4.902   5.005 -1.0241  0.0486 -0.2889
 6870TIP3   OH242024   4.755   3.597  12.505 -0.1282  0.4849 -0.3647
 6870TIP3    H142025   4.802   3.514  12.520 -1.0755  0.3525  2.4201
 6870TIP3    H242026   4.668   3.581  12.539 -0.8971  2.1293 -1.4518
 6871TIP3   OH242027   1.976   0.151   6.216 -0.0947  0.1398  0.1392
 6871TIP3    H142028   2.068   0.167   6.235 -0.0228 -0.0882 -0.0113
 6871TIP3    H242029   1.935   0.238   6.219  0.2194  0.3096 -0.3069
 6872TIP3   OH242030   0.029   1.181  10.470 -0.2293 -0.1498 -0.3510
 6872TIP3    H142031  -0.016   1.104  10.435 -0.0025 -0.6855  0.5163
 6872TIP3    H242032   0.095   1.201  10.403  0.2514 -1.2066 -0.2179
 6873TIP3   OH242033   4.292   0.580   1.590  0.4343  0.4686 -0.5658
 6873TIP3    H142034   4.312   0.621   1.674  0.3705 -1.0396  0.2122
 6873TIP3    H242035   4.197   0.566   1.592  0.5980 -0.6869 -0.3449
 6874TIP3   OH242036   5.513   5.176  11.638 -0.1277 -0.3316 -0.3323
 6874TIP3    H142037   5.528   5.120  11.715  2.2846  0.6169 -0.0178
 6874TIP3    H242038   5.457   5.246  11.671 -1.6867 -1.5463 -0.2802
 6875TIP3   OH242039   5.757   2.330  12.776 -0.1061 -0.2777 -0.4518
 6875TIP3    H142040   5.671   2.363  12.800  0.3737  1.4317 -0.9362
 6875TIP3    H242041   5.745   2.235  12.767 -1.4087 -0.3753  1.6071
 6876TIP3   OH242042   1.904   3.982   2.712  0.0322  0.4432  0.1012
 6876TIP3    H142043   1.849   3.991   2.634 -0.6052 -1.1756  0.3199
 6876TIP3    H242044   1.910   4.071   2.748 -2.0663  0.7563 -0.2095
 6877TIP3   OH242045   5.735   2.730   5.594 -0.2186 -0.3416  0.1047
 6877TIP3    H142046   5.711   2.643   5.562  1.9044 -1.3773  1.1031
 6877TIP3    H242047   5.721   2.787   5.519  0.4859 -1.9417 -1.3220
 6878TIP3   OH242048   3.555   3.112   1.227 -0.2313  0.0955 -0.0679
 6878TIP3    H142049   3.599   3.192   1.256 -0.3366 -0.3396  1.3817
 6878TIP3    H242050   3.622   3.064   1.178  0.2705  0.4071  0.3093
 6879TIP3   OH242051   2.939   5.463  16.938 -0.2023 -0.4631  0.0812
 6879TIP3    H142052   2.959   5.382  16.892  1.5996  0.1978 -0.3953
 6879TIP3    H242053   2.913   5.435  17.026  0.9183 -1.5419  0.0935
 6880TIP3   OH242054   3.917   2.725   2.102  0.0011 -0.6216 -0.1719
 6880TIP3    H142055   3.983   2.741   2.034  0.4987  0.0738  0.4613
 6880TIP3    H242056   3.967   2.725   2.184 -0.8137  0.1589  0.3363
 6881TIP3   OH242057   3.926   4.283   6.547 -0.0114 -0.0565  0.0263
 6881TIP3    H142058   3.907   4.324   6.463 -1.2787 -0.7104 -0.0320
 6881TIP3    H242059   4.012   4.317   6.571 -0.3096  1.3618 -0.7730
 6882TIP3   OH242060   1.298   0.457   5.165 -0.4100  0.2080  0.1936
 6882TIP3    H142061   1.225   0.519   5.160 -0.2112  0.3973 -0.4710
 6882TIP3    H242062   1.373   0.506   5.131  0.1634  0.2035  1.3804
 6883TIP3   OH242063   6.625   4.893   3.031 -0.2065 -0.3464 -0.6634
 6883TIP3    H142064   6.690   4.897   3.101 -0.5295  1.4933 -0.4274
 6883TIP3    H242065   6.657   4.954   2.965 -0.8128 -0.7411 -1.3399
 6884TIP3   OH242066   4.300   2.054   1.413 -0.0424  0.4039 -0.3072
 6884TIP3    H142067   4.260   1.973   1.381 -1.1515  0.7386  0.1658
 6884TIP3    H242068   4.226   2.106   1.444  0.7781  1.0780  0.5685
 6885TIP3   OH242069   3.021   0.110   0.438  0.6943  0.0172  0.2445
 6885TIP3    H142070   3.112   0.087   0.423  1.4362  1.9640  1.4245
 6885TIP3    H242071   3.019   0.144   0.528 -1.0902  0.4352  0.0819
 6886TIP3   OH242072   5.537   3.595   3.848 -0.1603 -0.0114  0.4486
 6886TIP3    H142073   5.587   3.518   3.821 -1.3222  0.2548 -2.8844
 6886TIP3    H242074   5.603   3.663   3.859  0.5837 -0.6616  0.1447
 6887TIP3   OH242075   3.211   4.504   3.689 -0.9803  0.8302  0.0587
 6887TIP3    H142076   3.142   4.555   3.647  0.3811  1.5573 -1.4233
 6887TIP3    H242077   3.280   4.498   3.623  0.7221  0.8468  1.7376
 6888TIP3   OH242078   2.100   5.786  16.972  0.2635 -0.5775 -0.3152
 6888TIP3    H142079   2.096   5.699  16.933 -0.5631 -0.8100  0.2640
 6888TIP3    H242080   2.038   5.838  16.921  1.4234 -0.0526 -1.2593
 6889TIP3   OH242081   1.475   1.550  15.600 -0.2603 -0.3630 -0.1063
 6889TIP3    H142082   1.524   1.495  15.539  2.8171  2.6279 -0.6178
 6889TIP3    H242083   1.507   1.524  15.686  1.4728  0.7581 -0.3671
 6890TIP3   OH242084   3.517   1.647   2.990  0.2668  0.0880 -0.3662
 6890TIP3    H142085   3.509   1.717   2.926 -1.9127 -1.0892 -1.5284
 6890TIP3    H242086   3.427   1.629   3.017  0.8356 -1.6301  0.5611
 6891TIP3   OH242087   0.475   6.268   4.098 -0.4199  0.4132  0.4790
 6891TIP3    H142088   0.498   6.350   4.055 -0.3565  1.6999  2.8034
 6891TIP3    H242089   0.532   6.264   4.175 -0.1670 -2.0219  0.2591
 6892TIP3   OH242090   5.895   2.679  13.533 -0.2713 -0.6211  0.4127
 6892TIP3    H142091   5.892   2.602  13.476  0.2521  0.6572 -1.4503
 6892TIP3    H242092   5.975   2.667  13.584  0.4679 -0.7824 -0.7276
 6893TIP3   OH242093   0.405   3.451   1.043 -0.1022 -0.2926  0.1441
 6893TIP3    H142094   0.498   3.465   1.060  0.3119 -0.5375 -1.7365
 6893TIP3    H242095   0.362   3.532   1.072  0.3054 -1.0949  3.3833
 6894TIP3   OH242096   4.503   5.729   1.701 -0.0969  0.1244 -0.3510
 6894TIP3    H142097   4.579   5.747   1.757 -0.4855 -0.6953  0.4772
 6894TIP3    H242098   4.466   5.815   1.682 -0.5232  0.4054  1.5017
 6895TIP3   OH242099   3.848   0.189  15.343  0.1188 -0.4883 -0.4795
 6895TIP3    H142100   3.883   0.105  15.312  1.9862 -0.0881  0.4396
 6895TIP3    H242101   3.787   0.216  15.274 -0.5567 -2.5992 -0.7803
 6896TIP3   OH242102   6.193   5.721   1.480  0.2685 -0.2898 -0.1937
 6896TIP3    H142103   6.140   5.775   1.421  0.2864 -0.0472  0.0078
 6896TIP3    H242104   6.145   5.639   1.488  0.4870 -0.4857 -0.8880
 6897TIP3   OH242105   3.803   2.636   3.548  0.0363  0.3462 -0.6492
 6897TIP3    H142106   3.867   2.706   3.550  0.4292  0.0503 -2.1498
 6897TIP3    H242107   3.718   2.680   3.551  0.2856  0.8548 -1.1274
 6898TIP3   OH242108   0.788   4.009   1.545  0.3165 -0.0000 -0.3839
 6898TIP3    H142109   0.852   3.968   1.603 -1.1314 -0.3370  1.0309
 6898TIP3    H242110   0.759   4.087   1.592 -0.8503 -0.2480 -0.6649
 6899TIP3   OH242111   5.634   3.163  10.553  0.2339  0.7694 -0.3898
 6899TIP3    H142112   5.587   3.242  10.580 -0.8858  0.2565 -0.7735
 6899TIP3    H242113   5.707   3.156  10.614 -0.3503  1.4344  0.4053
 6900TIP3   OH242114   0.762   2.698  11.383  0.5840 -0.2469  0.0806
 6900TIP3    H142115   0.834   2.741  11.430 -0.4374  0.3855  1.1272
 6900TIP3    H242116   0.702   2.769  11.362  0.5658 -0.6661 -1.4058
 6901TIP3   OH242117   3.309   4.893  11.474 -0.0528  0.0546  0.0438
 6901TIP3    H142118   3.378   4.959  11.470 -0.8488  0.8652 -1.0112
 6901TIP3    H242119   3.278   4.895  11.565  1.2285 -0.2661  0.5070
 6902TIP3   OH242120   5.587   3.821  11.246  0.2045  0.3291  0.1663
 6902TIP3    H142121   5.596   3.900  11.193 -1.5832  1.1506  1.0283
 6902TIP3    H242122   5.550   3.756  11.187 -2.1946  1.3655  0.4101
 6903TIP3   OH242123   6.674   0.431  13.967  0.6292  0.2964  0.6188
 6903TIP3    H142124   6.762   0.453  13.934  0.6069 -1.7654 -1.0392
 6903TIP3    H242125   6.614   0.476  13.907  0.6003 -1.4664 -0.7579
 6904TIP3   OH242126   4.554   5.244   3.562 -0.0169  0.3807  0.9033
 6904TIP3    H142127   4.601   5.211   3.638  0.5309 -1.4554 -0.1662
 6904TIP3    H242128   4.462   5.242   3.587  0.1787  0.1732  1.6327
 6905TIP3   OH242129   0.426   3.891  11.774 -0.4934 -0.2077 -0.7345
 6905TIP3    H142130   0.494   3.955  11.754 -1.6023  0.8322 -1.2950
 6905TIP3    H242131   0.455   3.811  11.731 -0.2140  0.5414 -1.9764
 6906TIP3   OH242132   1.240   2.034   2.725 -0.7080 -0.1040 -0.3323
 6906TIP3    H142133   1.246   1.945   2.758 -0.6280  0.3359  0.9102
 6906TIP3    H242134   1.310   2.042   2.661 -0.2245 -0.7086  0.1151
 6907TIP3   OH242135   3.571   0.087   1.220  0.1936 -0.0474  0.4759
 6907TIP3    H142136   3.533   0.171   1.197 -2.3428 -1.5412 -1.2949
 6907TIP3    H242137   3.654   0.084   1.173  0.2171  1.3505  0.3910
 6908TIP3   OH242138   1.895   3.295   1.683 -0.2988 -0.1207  0.4435
 6908TIP3    H142139   1.913   3.236   1.610 -1.0947 -0.2427  0.3296
 6908TIP3    H242140   1.886   3.382   1.642  2.6159  0.4456  0.8095
 6909TIP3   OH242141   4.480   1.844   6.321  0.4512  0.1009 -0.0365
 6909TIP3    H142142   4.456   1.811   6.234  1.8829 -1.1344 -0.0100
 6909TIP3    H242143   4.411   1.906   6.343 -0.0957  0.2391 -1.9356
 6910TIP3   OH242144   6.716   6.205  14.825  0.2856 -0.3405  0.1516
 6910TIP3    H142145   6.705   6.284  14.878 -0.8788 -0.4763  0.1493
 6910TIP3    H242146   6.777   6.230  14.755 -0.9997  0.9320 -0.5602
 6911TIP3   OH242147   5.353   5.983  12.956  0.1412  0.5445  0.4413
 6911TIP3    H142148   5.273   5.982  13.009  0.6010  0.2281  1.1467
 6911TIP3    H242149   5.415   6.033  13.008  0.6120  0.1942  0.2204
 6912TIP3   OH242150   1.157   1.615   4.470 -0.0992 -0.1147 -0.4929
 6912TIP3    H142151   1.188   1.528   4.446  1.3461 -0.1063  1.1266
 6912TIP3    H242152   1.231   1.656   4.515 -0.4690  2.2610 -1.8514
 6913TIP3   OH242153   0.226   1.908   0.648 -0.2750 -0.5976  0.3814
 6913TIP3    H142154   0.156   1.964   0.680  0.7630  0.8524  0.2526
 6913TIP3    H242155   0.267   1.873   0.727 -0.2610 -0.2925  0.5132
 6914TIP3   OH242156   3.222   6.287  13.234 -0.3638  0.1259 -0.4282
 6914TIP3    H142157   3.138   6.271  13.191 -0.9683 -0.6746  0.9842
 6914TIP3    H242158   3.200   6.328  13.317  0.4896 -1.5573  0.6892
 6915TIP3   OH242159   0.522   5.728  12.465  0.1478 -0.4357 -0.1436
 6915TIP3    H142160   0.450   5.691  12.414 -0.1095 -0.2935  0.1095
 6915TIP3    H242161   0.592   5.744  12.401  0.3140 -1.4614 -0.2386
 6916TIP3   OH242162   2.160   5.739   5.299 -0.7353  0.2665 -0.7695
 6916TIP3    H142163   2.101   5.813   5.286 -0.9818  0.2974  0.4597
 6916TIP3    H242164   2.119   5.667   5.252 -1.0153  0.6505 -1.1227
 6917TIP3   OH242165   6.376   2.194  13.592 -0.2622  0.1629  0.0077
 6917TIP3    H142166   6.462   2.203  13.550  0.5107  0.6317  1.6123
 6917TIP3    H242167   6.318   2.167  13.521  1.1228  0.2118 -1.2046
 6918TIP3   OH242168   5.680   1.225  12.799  0.4947  1.0354  1.0976
 6918TIP3    H142169   5.673   1.259  12.888  0.6409  0.3934  1.3633
 6918TIP3    H242170   5.639   1.292  12.744 -1.2342  0.6183  1.8224
 6919TIP3   OH242171   5.913   3.104   1.772  0.8482  0.1841  0.3428
 6919TIP3    H142172   5.964   3.145   1.702  1.3940 -1.2920 -0.1612
 6919TIP3    H242173   5.823   3.103   1.738  0.9157  0.4838  0.1482
 6920TIP3   OH242174   5.894   6.495   4.987 -0.0380 -0.0071  0.0892
 6920TIP3    H142175   5.856   6.550   4.919 -2.6050 -1.0236  0.5753
 6920TIP3    H242176   5.837   6.507   5.063 -0.5699 -3.0159  0.3098
 6921TIP3   OH242177   3.206   1.803   1.482 -0.4408  0.1771 -0.6095
 6921TIP3    H142178   3.189   1.856   1.404  0.9921 -0.3547 -1.3308
 6921TIP3    H242179   3.188   1.713   1.454 -0.1610  0.0049 -0.2523
 6922TIP3   OH242180   1.310   3.553   1.119  0.1167  0.1170  0.5408
 6922TIP3    H142181   1.215   3.558   1.107  0.0680 -0.7613  0.4859
 6922TIP3    H242182   1.346   3.572   1.033 -0.0546 -0.7349  0.2745
 6923TIP3   OH242183   1.501   4.907  13.827  0.1229  0.5213  0.2848
 6923TIP3    H142184   1.560   4.980  13.845  1.2786 -0.4941  0.7784
 6923TIP3    H242185   1.433   4.944  13.771 -1.0324  2.7220  2.8669
 6924TIP3   OH242186   2.061   6.492   3.870 -0.2196 -0.1767 -0.0132
 6924TIP3    H142187   2.105   6.428   3.926 -1.6904 -0.8461  0.4333
 6924TIP3    H242188   2.132   6.543   3.832  1.0385 -2.2851 -0.6742
 6925TIP3   OH242189   0.952   2.809   1.140 -0.4165  0.7372 -0.0196
 6925TIP3    H142190   1.021   2.853   1.189 -0.4283  1.8498 -0.9555
 6925TIP3    H242191   0.937   2.865   1.064 -1.2417 -0.3147 -0.6604
 6926TIP3   OH242192   2.387   3.242   4.514 -0.5170  0.3843  0.2565
 6926TIP3    H142193   2.374   3.266   4.605  1.6990 -0.2067  0.7998
 6926TIP3    H242194   2.303   3.206   4.486 -0.9346 -0.5139  2.4326
 6927TIP3   OH242195   0.172   2.162  14.939  0.4094  0.1469  0.1471
 6927TIP3    H142196   0.122   2.234  14.901  0.2932  0.7918  1.4476
 6927TIP3    H242197   0.132   2.083  14.904 -0.8333  0.6757  0.3040
 6928TIP3   OH242198   5.529   5.152  12.500  0.0410 -0.6825 -0.8054
 6928TIP3    H142199   5.445   5.144  12.544  0.0485  0.6250 -0.4997
 6928TIP3    H242200   5.586   5.089  12.544 -0.8926 -1.9666 -1.3663
 6929TIP3   OH242201   4.927   3.711  13.089  0.2393  0.5493 -0.6244
 6929TIP3    H142202   4.874   3.732  13.013  1.8470 -1.5308 -2.4809
 6929TIP3    H242203   5.009   3.758  13.075  1.8736 -2.4151 -2.1533
 6930TIP3   OH242204   3.907   6.214   0.539 -0.1435  1.0147  0.1188
 6930TIP3    H142205   3.835   6.151   0.525  1.6316 -0.6824 -2.2466
 6930TIP3    H242206   3.956   6.178   0.613 -1.2568  1.7841  1.2702
 6931TIP3   OH242207   0.287   1.383  10.730  0.4893  0.0385 -0.1987
 6931TIP3    H142208   0.378   1.393  10.757 -0.3934  0.3097  3.1279
 6931TIP3    H242209   0.258   1.473  10.710  0.6214  0.1175 -0.0348
 6932TIP3   OH242210   2.267   2.387  12.531 -0.0853 -0.0855 -0.3658
 6932TIP3    H142211   2.281   2.298  12.499  0.8959  0.0250 -0.2684
 6932TIP3    H242212   2.176   2.387  12.563  0.3442 -1.4721  0.9976
 6933TIP3   OH242213   3.234   3.265  15.904  0.0263 -0.0686 -0.5013
 6933TIP3    H142214   3.254   3.173  15.882 -0.6727 -0.4947  0.5593
 6933TIP3    H242215   3.212   3.262  15.998 -0.9899  1.0288 -0.6937
 6934TIP3   OH242216   5.484   4.898  14.371 -0.2822 -0.1211 -0.0546
 6934TIP3    H142217   5.521   4.979  14.336 -0.8930  0.1047 -0.1805
 6934TIP3    H242218   5.391   4.917  14.384  0.0504  0.1219  2.5255
 6935TIP3   OH242219   3.722   3.856  13.060 -0.0827  0.2720  0.0686
 6935TIP3    H142220   3.777   3.777  13.051  0.6086  0.7029  0.4095
 6935TIP3    H242221   3.647   3.827  13.112  0.8311  0.1437  1.3602
 6936TIP3   OH242222   4.081   6.125   5.578 -0.1567  0.3395 -0.5412
 6936TIP3    H142223   4.041   6.064   5.517 -1.0823  0.2639  0.1177
 6936TIP3    H242224   4.014   6.140   5.645 -0.2238  2.5621 -1.0066
 6937TIP3   OH242225   3.727   0.742  11.292 -0.0219  0.3193 -0.0586
 6937TIP3    H142226   3.777   0.824  11.288 -1.0339  0.9549  0.0325
 6937TIP3    H242227   3.639   0.769  11.318 -0.3708 -0.8053 -0.0383
 6938TIP3   OH242228   5.822   0.913   4.257  0.0974 -0.3562 -0.0674
 6938TIP3    H142229   5.799   0.861   4.180 -2.0299  0.2951  0.0776
 6938TIP3    H242230   5.768   0.878   4.327 -0.7170  1.4108  0.2349
 6939TIP3   OH242231   4.058   4.203  14.693 -0.2851 -0.7513 -0.3250
 6939TIP3    H142232   4.139   4.204  14.745 -0.2194 -0.4270 -0.4327
 6939TIP3    H242233   3.994   4.160  14.749 -1.0004  2.0935  1.1984
 6940TIP3   OH242234   1.261   0.440  15.524  0.1068 -0.5262  0.6026
 6940TIP3    H142235   1.187   0.437  15.584 -0.3022  0.4299  0.1616
 6940TIP3    H242236   1.228   0.399  15.444  0.6061 -1.6706  0.9739
 6941TIP3   OH242237   5.622   2.319  12.511  0.3696  0.3368 -0.2737
 6941TIP3    H142238   5.609   2.372  12.431 -2.0002 -0.6072 -0.5826
 6941TIP3    H242239   5.707   2.278  12.498  0.5890  1.1617 -1.7507
 6942TIP3   OH242240   3.822   0.976   4.138  0.3991 -0.0729  0.4996
 6942TIP3    H142241   3.778   0.959   4.221  0.5425  2.0003  1.0456
 6942TIP3    H242242   3.772   0.925   4.074  0.6604 -2.2089  1.8914
 6943TIP3   OH242243   0.550   2.035   0.533  0.6686  0.3642 -0.1763
 6943TIP3    H142244   0.625   1.986   0.566  1.5331  0.5599 -1.7555
 6943TIP3    H242245   0.538   2.004   0.443 -0.9149  0.6151 -0.0831
 6944TIP3   OH242246   1.780   5.261   4.902  0.0000  0.1782 -0.3405
 6944TIP3    H142247   1.801   5.267   4.809  0.6498 -0.1688 -0.2280
 6944TIP3    H242248   1.775   5.352   4.931  3.8308  0.4151  0.1069
 6945TIP3   OH242249   6.472   2.849   3.159 -0.5214 -0.1811 -0.1453
 6945TIP3    H142250   6.376   2.843   3.163 -0.5572  0.6591  0.6374
 6945TIP3    H242251   6.491   2.940   3.181  0.4871 -0.4676  0.2276
 6946TIP3   OH242252   3.334   1.796   6.050 -0.5492  0.4098 -0.1196
 6946TIP3    H142253   3.387   1.829   6.123  1.5799  0.2913 -1.5466
 6946TIP3    H242254   3.313   1.706   6.074  0.6755  0.1654  0.0815
 6947TIP3   OH242255   2.016   5.519  12.345  0.0626  0.3644  0.5647
 6947TIP3    H142256   2.013   5.599  12.292 -0.4476  0.1424  0.2566
 6947TIP3    H242257   1.943   5.466  12.314 -0.7650  0.5780  2.0494
 6948TIP3   OH242258   2.464   5.111   0.122 -0.7894  0.1698 -0.3223
 6948TIP3    H142259   2.545   5.156   0.148  0.0889 -1.3583 -0.2853
 6948TIP3    H242260   2.433   5.069   0.202 -0.3894 -1.0475 -0.7674
 6949TIP3   OH242261   0.374   1.115   4.880 -0.5123  0.0405  0.2645
 6949TIP3    H142262   0.377   1.019   4.874 -0.2303 -0.0869  2.0398
 6949TIP3    H242263   0.280   1.135   4.883 -0.5680 -0.1813  0.0689
 6950TIP3   OH242264   5.751   2.473  10.537  0.2472  0.3797  0.9443
 6950TIP3    H142265   5.810   2.546  10.518 -1.0718  1.2636  0.0473
 6950TIP3    H242266   5.663   2.510  10.527 -0.5142 -1.8253 -1.7635
 6951TIP3   OH242267   6.123   5.915  17.173 -1.0976  0.2243 -0.4780
 6951TIP3    H142268   6.032   5.894  17.150 -1.7108  1.9024  0.3053
 6951TIP3    H242269   6.170   5.833  17.156 -3.1675 -1.5755  1.6246
 6952TIP3   OH242270   4.372   2.517   1.317 -0.3972  0.4958  0.2379
 6952TIP3    H142271   4.414   2.503   1.402 -3.2294 -3.8637  1.2715
 6952TIP3    H242272   4.428   2.471   1.255 -0.2054  0.5023  0.4039
 6953TIP3   OH242273   2.756   6.281  12.142 -0.0451  1.0422  0.3755
 6953TIP3    H142274   2.727   6.285  12.233 -1.0432 -0.9094  0.2050
 6953TIP3    H242275   2.680   6.306  12.090  0.3196  1.4924  0.0453
 6954TIP3   OH242276   4.190   4.648   1.007  0.0141  0.3502  0.4052
 6954TIP3    H142277   4.239   4.624   0.928  0.5346  0.7625  0.5926
 6954TIP3    H242278   4.237   4.724   1.042  0.7914 -0.8192  2.0320
 6955TIP3   OH242279   0.925   2.884  12.615  0.2868 -0.2168 -0.2981
 6955TIP3    H142280   0.982   2.959  12.601  1.8650 -1.1274  0.8565
 6955TIP3    H242281   0.862   2.913  12.680  0.1101  0.4733 -0.7729
 6956TIP3   OH242282   4.076   6.784   3.978  0.1487  0.1096 -0.4855
 6956TIP3    H142283   4.003   6.817   4.031  1.0342 -1.5464  1.9328
 6956TIP3    H242284   4.148   6.773   4.040  1.4357 -1.4245 -2.1422
 6957TIP3   OH242285   4.510   1.553   3.448  0.0061  0.3047 -0.0097
 6957TIP3    H142286   4.590   1.534   3.496 -0.6136  1.3443  1.5321
 6957TIP3    H242287   4.468   1.468   3.435 -0.1523  0.0367  1.9957
 6958TIP3   OH242288   6.670   1.109   2.702 -0.3544 -0.3484  0.4005
 6958TIP3    H142289   6.596   1.130   2.645  0.6494 -0.0592 -0.8516
 6958TIP3    H242290   6.662   1.171   2.775 -2.0731 -1.2124  0.9859
 6959TIP3   OH242291   4.243   1.100  16.901 -0.1515 -0.2382  0.2806
 6959TIP3    H142292   4.265   1.078  16.811  0.2873 -1.2735  0.6266
 6959TIP3    H242293   4.308   1.054  16.954 -0.1096  0.7385  1.1139
 6960TIP3   OH242294   2.851   0.343  17.110 -0.1841 -0.0379 -0.5284
 6960TIP3    H142295   2.817   0.281  17.175  0.4947 -1.5937 -1.5703
 6960TIP3    H242296   2.908   0.401  17.159 -0.7221 -0.3335  0.4750
 6961TIP3   OH242297   0.508   4.079   5.591  0.4249  0.4277  0.2636
 6961TIP3    H142298   0.548   4.143   5.650  0.5128  0.2997  0.3418
 6961TIP3    H242299   0.415   4.102   5.591  0.6786  1.6259 -1.0150
 6962TIP3   OH242300   5.383   5.624   6.067 -0.5947 -0.4672 -0.0830
 6962TIP3    H142301   5.381   5.536   6.105  0.6311 -1.0855 -1.3593
 6962TIP3    H242302   5.471   5.657   6.087 -1.0850  0.5289  0.4821
 6963TIP3   OH242303   3.443   4.796  10.861 -0.2439  0.0205 -0.1258
 6963TIP3    H142304   3.415   4.881  10.828  0.4665  0.5044  0.4992
 6963TIP3    H242305   3.448   4.741  10.782 -2.4848  0.0058 -0.3228
 6964TIP3   OH242306   4.275   2.672   4.838 -0.1362  0.0320  0.4518
 6964TIP3    H142307   4.253   2.581   4.861 -3.1330  0.5415  0.0949
 6964TIP3    H242308   4.199   2.701   4.786  1.6415  2.1486 -1.1130
 6965TIP3   OH242309   1.536   5.376  13.851 -0.3080 -0.0115 -0.3192
 6965TIP3    H142310   1.444   5.359  13.870 -0.8188  1.6118 -1.1708
 6965TIP3    H242311   1.537   5.413  13.763  1.2597 -0.7197 -0.6500
 6966TIP3   OH242312   0.281   5.330   5.959 -0.1834 -0.1223  0.1359
 6966TIP3    H142313   0.283   5.242   5.921 -0.3514  0.7019 -1.9300
 6966TIP3    H242314   0.328   5.384   5.896 -0.0257  1.2752  1.4044
 6967TIP3   OH242315   1.439   4.387  15.695 -0.3144 -0.4664 -0.5998
 6967TIP3    H142316   1.442   4.369  15.789  1.4394 -1.1667 -0.7489
 6967TIP3    H242317   1.411   4.478  15.689 -1.4791 -0.7262  0.5466
 6968TIP3   OH242318   6.722   6.343  11.744 -0.3848  0.6081  0.0817
 6968TIP3    H142319   6.685   6.268  11.698  0.1077  0.7850 -0.6363
 6968TIP3    H242320   6.725   6.412  11.677  2.8004  0.1139 -0.4673
 6969TIP3   OH242321   6.554   5.108  13.607 -0.2346 -0.6550  0.5670
 6969TIP3    H142322   6.591   5.040  13.664  2.0010 -0.6995 -0.7828
 6969TIP3    H242323   6.628   5.134  13.551 -2.3589 -1.0487 -2.7083
 6970TIP3   OH242324   4.663   2.624   5.031  0.9669 -0.7286 -0.1230
 6970TIP3    H142325   4.757   2.619   5.013  1.3968  0.5731  1.4886
 6970TIP3    H242326   4.644   2.546   5.083  0.9160 -1.5123 -1.2828
 6971TIP3   OH242327   0.772   0.210   3.670 -0.2698 -1.0433  0.1356
 6971TIP3    H142328   0.846   0.230   3.613  0.3348 -0.4837  1.0890
 6971TIP3    H242329   0.733   0.132   3.631  0.3160 -0.8648 -0.8561
 6972TIP3   OH242330   3.441   0.596   4.444  0.1359 -0.0077  0.3250
 6972TIP3    H142331   3.403   0.681   4.463 -1.9174 -0.7135 -0.3530
 6972TIP3    H242332   3.422   0.582   4.351  1.9529 -0.4861 -0.0051
 6973TIP3   OH242333   0.182   4.045  13.176 -0.2699  0.2386 -0.1434
 6973TIP3    H142334   0.213   3.960  13.207  1.7291  0.7355 -0.6318
 6973TIP3    H242335   0.203   4.046  13.083  0.2092  1.4274 -0.0511
 6974TIP3   OH242336   1.883   4.528   4.189  0.3544  0.4024 -0.1575
 6974TIP3    H142337   1.957   4.575   4.150 -1.2227  5.4505  2.0698
 6974TIP3    H242338   1.917   4.496   4.272  1.0788 -1.3054 -1.0702
 6975TIP3   OH242339   1.446   5.484   2.906  0.3233  0.0823 -0.2567
 6975TIP3    H142340   1.376   5.419   2.911 -1.9467  1.9860 -3.3689
 6975TIP3    H242341   1.511   5.446   2.846 -0.6491  0.2935 -1.4948
 6976TIP3   OH242342   3.903   2.537  15.787  0.6161  0.1201 -0.2070
 6976TIP3    H142343   3.886   2.629  15.768 -3.0160  0.0493  1.8090
 6976TIP3    H242344   3.914   2.497  15.700  0.9431  2.2011 -1.1934
 6977TIP3   OH242345   3.371   4.358  15.410 -0.1784  0.1685  0.1802
 6977TIP3    H142346   3.444   4.416  15.389 -0.2669 -0.1574 -1.1207
 6977TIP3    H242347   3.391   4.277  15.363  0.4295 -1.2508  2.7105
 6978TIP3   OH242348   1.509   4.838  14.976 -0.8812 -0.0715  0.1102
 6978TIP3    H142349   1.597   4.834  14.938 -0.2371  2.2670  1.1896
 6978TIP3    H242350   1.467   4.911  14.933 -1.3794  0.4169  1.3665
 6979TIP3   OH242351   3.730   1.543  17.251 -0.0658  0.2812 -0.1273
 6979TIP3    H142352   3.784   1.557  17.329  0.3110  0.6667 -0.4585
 6979TIP3    H242353   3.645   1.516  17.286  0.0354  0.6600  0.4238
 6980TIP3   OH242354   3.665   5.676   3.664  0.5754 -0.6572 -0.2033
 6980TIP3    H142355   3.660   5.666   3.759 -0.3765 -0.5352 -0.2371
 6980TIP3    H242356   3.579   5.651   3.631  0.3282  0.8999 -0.8775
 6981TIP3   OH242357   0.527   2.294   5.784 -0.3698 -0.9029  0.1227
 6981TIP3    H142358   0.439   2.331   5.779 -0.6687 -1.4671  1.0185
 6981TIP3    H242359   0.515   2.209   5.828  0.6216 -0.9630  0.2926
 6982TIP3   OH242360   6.217   1.072   5.548  0.4661 -0.2915  0.0940
 6982TIP3    H142361   6.153   1.073   5.618 -0.2431 -0.0524 -0.5462
 6982TIP3    H242362   6.171   1.107   5.472  1.0354 -1.1150 -0.6504
 6983TIP3   OH242363   3.651   1.769  14.322 -0.0291  0.1628  0.0403
 6983TIP3    H142364   3.722   1.804  14.268  1.1400 -0.2087  1.3144
 6983TIP3    H242365   3.613   1.700  14.268 -0.7094  1.6149 -1.4484
 6984TIP3   OH242366   2.243   2.532   6.423 -0.1668 -0.0486  0.2839
 6984TIP3    H142367   2.238   2.543   6.518 -0.7356  0.1833  0.2298
 6984TIP3    H242368   2.200   2.610   6.388 -0.1803 -0.2562 -0.1628
 6985TIP3   OH242369   6.082   5.182   3.510  0.2910 -0.2582  0.0813
 6985TIP3    H142370   6.141   5.112   3.482  0.8902  0.1419  0.3374
 6985TIP3    H242371   6.094   5.251   3.445 -1.3462 -0.9045 -1.0068
 6986TIP3   OH242372   5.310   1.078   5.058  0.0521 -0.2998  0.3830
 6986TIP3    H142373   5.263   1.144   5.008 -1.9237 -1.2847  0.8426
 6986TIP3    H242374   5.387   1.058   5.004  0.5474  2.0789  0.0873
 6987TIP3   OH242375   1.914   1.981   5.054 -1.2724  0.2695  0.1257
 6987TIP3    H142376   1.905   1.893   5.017 -1.3919  0.3722 -0.0933
 6987TIP3    H242377   1.957   1.968   5.138  0.1509  0.1505 -0.6041
 6988TIP3   OH242378   4.994   6.625  13.252 -0.8595 -0.1051  0.5815
 6988TIP3    H142379   4.922   6.610  13.192 -0.1654  1.5564 -0.7517
 6988TIP3    H242380   5.050   6.547  13.243 -0.8482  0.0435 -0.8336
 6989TIP3   OH242381   0.473   6.138   5.434 -0.3705 -0.3059  0.7954
 6989TIP3    H142382   0.461   6.124   5.340 -2.3836  2.0787  0.6011
 6989TIP3    H242383   0.497   6.230   5.442  3.8056 -1.3204  2.4592
 6990TIP3   OH242384   0.356   4.458   6.094  0.0938 -0.1108  0.5235
 6990TIP3    H142385   0.275   4.499   6.123 -0.6048 -0.6360 -0.5877
 6990TIP3    H242386   0.425   4.512   6.131 -0.7676  0.4529  1.3484
 6991TIP3   OH242387   4.788   4.617   3.456 -0.3630  0.0143 -1.2832
 6991TIP3    H142388   4.764   4.569   3.376 -0.6821  1.2606 -1.9520
 6991TIP3    H242389   4.794   4.708   3.428 -0.9833  0.5406  0.2396
 6992TIP3   OH242390   0.739   1.431   3.395  0.3296  0.0258 -0.3940
 6992TIP3    H142391   0.800   1.436   3.469  0.6865  0.1472 -0.6926
 6992TIP3    H242392   0.736   1.520   3.360 -1.1218  0.3445  0.4794
 6993TIP3   OH242393   2.230   0.408   2.272  0.0435 -0.0792 -0.3417
 6993TIP3    H142394   2.282   0.458   2.209 -0.0872  0.1747 -0.2493
 6993TIP3    H242395   2.275   0.323   2.278  0.7881  0.3355  0.1669
 6994TIP3   OH242396   2.758   4.567  15.307 -0.6933  0.2954  0.7372
 6994TIP3    H142397   2.816   4.633  15.270 -0.8354 -0.2211 -0.4680
 6994TIP3    H242398   2.758   4.585  15.401  1.3554  0.3656  0.7788
 6995TIP3   OH242399   2.096   5.331  12.056 -0.3196  0.3456  0.1431
 6995TIP3    H142400   2.037   5.302  12.125 -0.2923  0.0250  0.0360
 6995TIP3    H242401   2.129   5.249  12.017  0.2245  0.5233  0.2290
 6996TIP3   OH242402   0.017   4.990   4.838 -0.2690  0.0652  0.3536
 6996TIP3    H142403   0.018   4.927   4.765  0.3229  0.0501  0.3682
 6996TIP3    H242404   0.089   5.049   4.819 -0.1760  0.1236  0.8768
 6997TIP3   OH242405   4.963   0.246  11.816 -0.0808 -0.2955 -0.2563
 6997TIP3    H142406   4.968   0.288  11.903  0.7826 -0.5931 -0.1526
 6997TIP3    H242407   4.922   0.312  11.760  0.0753  0.2036  0.2051
 6998TIP3   OH242408   1.482   4.420  12.128 -0.0262 -0.1408  0.1009
 6998TIP3    H142409   1.496   4.514  12.133 -0.6620  0.1127 -1.9196
 6998TIP3    H242410   1.563   4.381  12.161  0.8534  1.1314 -0.4824
 6999TIP3   OH242411   4.779   3.078  12.367 -0.3586  0.3602 -0.2618
 6999TIP3    H142412   4.823   2.997  12.342 -2.5736 -0.8636 -0.4448
 6999TIP3    H242413   4.850   3.140  12.383  1.4926 -1.9130  1.0449
 7000TIP3   OH242414   0.468   3.112  11.805  0.3379  0.7566 -0.2834
 7000TIP3    H142415   0.444   3.199  11.774  0.7499  1.0307  0.1523
 7000TIP3    H242416   0.464   3.057  11.727  0.1841  1.1851 -0.5843
 7001TIP3   OH242417   4.031   1.252  12.342 -0.3773 -0.0268  0.0984
 7001TIP3    H142418   4.091   1.187  12.306 -0.7568 -0.4370  0.1962
 7001TIP3    H242419   4.087   1.324  12.369  0.1641 -0.7417  0.9465
 7002TIP3   OH242420   1.374   3.649  15.255  0.0763  0.4168 -0.3301
 7002TIP3    H142421   1.400   3.560  15.234  0.6372  0.8959 -1.8202
 7002TIP3    H242422   1.404   3.663  15.345 -1.1746 -1.2951  0.3977
 7003TIP3   OH242423   1.362   1.060   5.541  0.2058 -0.3871  0.6225
 7003TIP3    H142424   1.340   0.971   5.512  1.4618 -0.5595  0.1377
 7003TIP3    H242425   1.422   1.093   5.474 -0.2795  0.8534  0.7783
 7004TIP3   OH242426   0.658   3.304  11.872 -0.0858 -0.0211 -0.3455
 7004TIP3    H142427   0.668   3.324  11.779  1.2598  1.2592  0.0402
 7004TIP3    H242428   0.603   3.226  11.874 -0.5961  0.2461 -2.1865
 7005TIP3   OH242429   1.073   4.522  10.738  0.3089  0.3551 -0.3449
 7005TIP3    H142430   1.121   4.577  10.676  1.8655 -1.3657 -0.7574
 7005TIP3    H242431   1.000   4.487  10.688  0.2557  0.7509 -0.5473
 7006TIP3   OH242432   5.070   3.136   1.220 -0.1285 -0.6860  0.1618
 7006TIP3    H142433   5.086   3.076   1.293  1.5270  0.4070  0.7828
 7006TIP3    H242434   5.071   3.223   1.261 -0.6031 -0.1285 -0.9671
 7007TIP3   OH242435   2.653   0.582  17.190 -0.0657 -0.4641 -0.1479
 7007TIP3    H142436   2.740   0.575  17.229 -0.2738 -1.1362  0.1936
 7007TIP3    H242437   2.600   0.624  17.258 -0.1783 -0.6856 -0.1015
 7008TIP3   OH242438   2.000   2.976   5.831  0.4588 -0.0453 -0.0951
 7008TIP3    H142439   2.053   2.937   5.761  0.1472 -0.1792 -0.2593
 7008TIP3    H242440   1.998   3.069   5.810 -0.2785 -0.1903 -0.7035
 7009TIP3   OH242441   0.767   1.935   0.944  0.4176  0.3588 -0.9303
 7009TIP3    H142442   0.815   1.930   1.027 -1.4299  0.2768  0.1940
 7009TIP3    H242443   0.793   2.018   0.906 -0.1794  1.3563  0.7380
 7010TIP3   OH242444   6.771   0.945  15.449 -0.0645  0.1533  0.1611
 7010TIP3    H142445   6.747   1.009  15.516 -0.9479  0.6152 -0.5741
 7010TIP3    H242446   6.781   0.863  15.497 -0.5537  0.5094  0.8811
 7011TIP3   OH242447   2.747   5.133  14.218  0.1063  0.0402  0.1584
 7011TIP3    H142448   2.800   5.120  14.139 -0.2099 -0.9039  0.0933
 7011TIP3    H242449   2.659   5.152  14.185 -0.2903 -1.4668  0.2553
 7012TIP3   OH242450   3.588   5.690   2.056 -0.5323 -0.7077  0.3318
 7012TIP3    H142451   3.599   5.785   2.045  2.4516 -0.8147  1.3336
 7012TIP3    H242452   3.498   5.673   2.030 -1.2783  2.4424  0.4347
 7013TIP3   OH242453   1.565   1.826   5.258 -0.6657 -0.9169 -0.2080
 7013TIP3    H142454   1.492   1.766   5.245  0.6473 -2.3022 -1.6938
 7013TIP3    H242455   1.581   1.863   5.171  1.7823 -2.3811 -0.4668
 7014TIP3   OH242456   5.048   1.834   0.556  0.3269 -0.0010  0.4707
 7014TIP3    H142457   5.029   1.811   0.465  1.8622  1.0900 -0.1818
 7014TIP3    H242458   4.972   1.885   0.584  0.8157  1.6655 -1.0215
 7015TIP3   OH242459   3.983   4.516   4.848 -0.2059  0.2132 -0.5931
 7015TIP3    H142460   3.905   4.563   4.878 -0.2091 -0.6537  0.8131
 7015TIP3    H242461   4.028   4.489   4.928  1.2936  0.2678 -1.3791
 7016TIP3   OH242462   3.747   3.482   4.893  0.3324 -0.3870 -0.3572
 7016TIP3    H142463   3.826   3.489   4.946 -0.2225  0.3477  0.3998
 7016TIP3    H242464   3.744   3.391   4.865  1.5252 -0.3848 -0.5346
 7017TIP3   OH242465   4.510   0.078   1.467  0.1153 -0.3250 -0.0661
 7017TIP3    H142466   4.486   0.141   1.399 -1.3975  1.1854  1.7283
 7017TIP3    H242467   4.602   0.098   1.487 -0.4283  1.6887  0.7284
 7018TIP3   OH242468   2.311   3.452   4.120 -0.0559  0.1644  0.3034
 7018TIP3    H142469   2.277   3.471   4.032 -2.3200  0.1879  1.1021
 7018TIP3    H242470   2.269   3.370   4.144 -0.3748  0.7336  1.7739
 7019TIP3   OH242471   3.955   5.267  15.925 -0.2432 -0.1742  0.1301
 7019TIP3    H142472   4.033   5.323  15.919 -0.3911  0.2535  1.8183
 7019TIP3    H242473   3.987   5.180  15.898  0.3177  0.3997 -1.1504
 7020TIP3   OH242474   4.212   3.820   0.567  0.3506 -0.7939  0.6256
 7020TIP3    H142475   4.296   3.822   0.613  1.6726  1.7630 -1.5879
 7020TIP3    H242476   4.204   3.908   0.529 -1.1654 -2.3035 -2.9189
 7021TIP3   OH242477   2.499   3.995  15.845 -0.0976 -0.2454 -0.4965
 7021TIP3    H142478   2.577   3.941  15.834 -2.0180 -3.3134 -0.1986
 7021TIP3    H242479   2.471   3.980  15.936 -1.6120 -0.0778 -0.9021
 7022TIP3   OH242480   4.929   2.787   4.488  0.9882 -0.3970  0.4659
 7022TIP3    H142481   4.948   2.878   4.466 -3.0578  0.1460 -1.5954
 7022TIP3    H242482   4.878   2.792   4.568  1.3442 -0.9599  0.7358
 7023TIP3   OH242483   3.881   3.261  12.302 -0.6428  0.0228 -0.3539
 7023TIP3    H142484   3.935   3.256  12.223  1.0513 -1.2532  0.8094
 7023TIP3    H242485   3.829   3.181  12.301  1.7568 -1.6903  1.3560
 7024TIP3   OH242486   5.888   3.988   1.331 -0.1499 -0.5067 -0.1652
 7024TIP3    H142487   5.842   3.926   1.275  1.1251 -1.7474  0.0934
 7024TIP3    H242488   5.922   3.935   1.403 -0.2821  0.7609  0.8677
 7025TIP3   OH242489   4.629   5.110  15.354 -0.2015 -0.3200  0.3197
 7025TIP3    H142490   4.654   5.017  15.356  1.6377 -0.0302 -2.7825
 7025TIP3    H242491   4.711   5.156  15.339 -1.2396  1.7506  0.7297
 7026TIP3   OH242492   5.140   2.753  14.486  0.0780  0.2449  0.5426
 7026TIP3    H142493   5.108   2.800  14.409 -0.2845  0.1048  0.6068
 7026TIP3    H242494   5.116   2.662  14.470 -1.8840  0.4884  1.7530
 7027TIP3   OH242495   5.174   2.534  13.449 -0.0659  0.0276 -0.0836
 7027TIP3    H142496   5.262   2.496  13.456  0.3974  1.0564 -0.0245
 7027TIP3    H242497   5.190   2.628  13.437 -1.1785  0.3850  0.9880
 7028TIP3   OH242498   4.534   5.787  11.352 -0.0295  0.3592  0.3966
 7028TIP3    H142499   4.512   5.778  11.260  0.0968  0.5854  0.3447
 7028TIP3    H242500   4.459   5.832  11.390 -0.3642 -0.3027  0.5277
 7029TIP3   OH242501   6.537   5.896  13.646 -0.3738 -0.1092 -0.1794
 7029TIP3    H142502   6.589   5.816  13.651  1.5170  0.9584 -1.4909
 7029TIP3    H242503   6.468   5.884  13.711  1.5708 -1.5500  1.7747
 7030TIP3   OH242504   2.107   3.316  11.035  0.5208  0.0030  0.3870
 7030TIP3    H142505   2.101   3.406  11.066  0.2451  0.3965 -0.7618
 7030TIP3    H242506   2.168   3.320  10.962  1.4599 -0.9689  1.0821
 7031TIP3   OH242507   5.144   1.272  16.759 -0.2142 -0.2152 -1.1455
 7031TIP3    H142508   5.204   1.308  16.824  0.0822  0.0639 -1.5716
 7031TIP3    H242509   5.122   1.346  16.703 -1.3051 -0.2080 -0.7424
 7032TIP3   OH242510   5.315   1.031  11.655  0.7071  0.1894 -0.4448
 7032TIP3    H142511   5.301   0.966  11.586 -0.8888 -0.0806  0.1020
 7032TIP3    H242512   5.410   1.031  11.668  0.7928 -1.7170 -0.7431
 7033TIP3   OH242513   3.547   1.997   0.978 -0.1504 -0.3801 -0.1071
 7033TIP3    H142514   3.467   1.973   0.931  1.9506 -1.7210 -3.3067
 7033TIP3    H242515   3.593   1.915   0.992 -0.3195  0.0123  4.0666
 7034TIP3   OH242516   2.828   0.646   3.828 -0.3312  0.0317  0.4164
 7034TIP3    H142517   2.787   0.606   3.905  0.3367  1.8621  1.8242
 7034TIP3    H242518   2.764   0.711   3.799  0.1435  0.5814  0.5657
 7035TIP3   OH242519   1.392   1.620  13.127  0.6313 -0.4692  0.5964
 7035TIP3    H142520   1.325   1.631  13.059  1.1069 -1.4380 -0.0553
 7035TIP3    H242521   1.440   1.542  13.100  2.8286  0.8999  0.3948
 7036TIP3   OH242522   6.519   3.673   3.391 -0.4202  0.2769 -0.0695
 7036TIP3    H142523   6.551   3.588   3.361 -0.1596 -0.7583  2.8434
 7036TIP3    H242524   6.429   3.678   3.359  0.6228  0.5735 -3.2796
 7037TIP3   OH242525   1.594   6.217  10.563  0.1461  0.1930 -0.7594
 7037TIP3    H142526   1.536   6.284  10.527 -0.6711  0.2490  0.6160
 7037TIP3    H242527   1.679   6.260  10.571 -0.1075  0.7242 -0.9007
 7038TIP3   OH242528   1.849   0.040   1.237  0.1170  0.0109 -0.5094
 7038TIP3    H142529   1.873   0.104   1.305 -2.6314 -1.6836  2.3081
 7038TIP3    H242530   1.904  -0.036   1.255  0.4787  0.1047 -1.2041
 7039TIP3   OH242531   2.453   5.779  13.616 -0.2543  0.4228  0.0272
 7039TIP3    H142532   2.452   5.742  13.528  0.0443 -0.1868  0.2778
 7039TIP3    H242533   2.432   5.706  13.674 -0.6345  0.8621  0.4518
 7040TIP3   OH242534   0.801   3.287   2.765 -0.3672 -0.1058  0.5411
 7040TIP3    H142535   0.728   3.348   2.770 -0.4855 -0.3485  2.2499
 7040TIP3    H242536   0.873   3.332   2.811  0.0559 -0.5607  0.3368
 7041TIP3   OH242537   1.218   2.380  15.414 -0.0057  0.2167  0.2487
 7041TIP3    H142538   1.144   2.321  15.423 -1.7823  1.5956 -3.3024
 7041TIP3    H242539   1.279   2.334  15.356  0.2210  0.5034  0.2559
 7042TIP3   OH242540   5.466   1.199   5.334  0.4250  0.1421 -0.4030
 7042TIP3    H142541   5.379   1.236   5.349  0.6267  0.6224 -0.4010
 7042TIP3    H242542   5.509   1.201   5.420  0.1853 -0.7706 -0.2536
 7043TIP3   OH242543   1.834   4.028  13.151  0.1994 -0.1607  0.0679
 7043TIP3    H142544   1.882   3.966  13.206  0.6221 -0.9347 -1.1202
 7043TIP3    H242545   1.741   4.011  13.171  0.3268 -0.8699  0.0962
 7044TIP3   OH242546   3.914   1.921  11.342  0.4951 -0.0521  0.4468
 7044TIP3    H142547   3.850   1.861  11.303  1.2981 -0.3529 -0.4325
 7044TIP3    H242548   3.861   1.979  11.397 -0.7266  0.5631 -1.2822
 7045TIP3   OH242549   2.593   1.991   3.260  0.3240 -0.0004  0.4250
 7045TIP3    H142550   2.550   1.966   3.178  0.9978  0.5223 -0.0976
 7045TIP3    H242551   2.598   1.909   3.310 -0.7875 -0.1731  0.2814
 7046TIP3   OH242552   4.997   1.919  17.196 -0.0624  0.2371 -0.2130
 7046TIP3    H142553   4.982   1.846  17.135 -1.0357  0.0126  0.2644
 7046TIP3    H242554   5.052   1.980  17.148  1.5053 -1.1984 -0.3241
 7047TIP3   OH242555   1.568   1.991  16.438  0.2113  0.1579  0.4929
 7047TIP3    H142556   1.643   2.016  16.492  0.8226 -0.6208  0.0202
 7047TIP3    H242557   1.606   1.968  16.353 -0.6889  0.8644 -0.1161
 7048TIP3   OH242558   1.559   0.466  11.358 -0.1571  0.3409  0.7785
 7048TIP3    H142559   1.548   0.539  11.297  4.5283  0.2996 -0.5074
 7048TIP3    H242560   1.510   0.394  11.318  2.6055  0.3468 -3.1205
 7049TIP3   OH242561   5.579   5.506   0.636 -0.4286  0.1992 -0.1990
 7049TIP3    H142562   5.532   5.589   0.631 -0.1461  0.5325  1.7663
 7049TIP3    H242563   5.525   5.451   0.693  0.7728  0.0795  0.8885
 7050TIP3   OH242564   2.090   5.184   3.721 -0.3287  0.6495 -0.2500
 7050TIP3    H142565   2.124   5.124   3.654 -2.2985  0.2024 -0.9362
 7050TIP3    H242566   2.048   5.254   3.670  1.3222  2.2933  0.5431
 7051TIP3   OH242567   4.913   5.792   1.506 -0.2537  0.0001  0.0148
 7051TIP3    H142568   4.825   5.802   1.543 -0.4003  1.0596 -0.5761
 7051TIP3    H242569   4.902   5.728   1.436 -0.7177  0.6826 -0.5457
 7052TIP3   OH242570   1.515   5.596   3.804 -0.3428 -0.0541  0.1155
 7052TIP3    H142571   1.428   5.635   3.798  0.2960  1.3119 -0.7563
 7052TIP3    H242572   1.567   5.660   3.853  0.5938 -0.0266 -0.8611
 7053TIP3   OH242573   3.519   2.119   1.341 -0.0065 -0.7414 -0.2899
 7053TIP3    H142574   3.450   2.134   1.406  0.0220  0.4638 -0.5176
 7053TIP3    H242575   3.475   2.132   1.256  0.2336 -1.1124 -0.4725
 7054TIP3   OH242576   2.137   3.305  12.984  0.6469 -0.3463 -0.0757
 7054TIP3    H142577   2.086   3.255  12.921  1.7399  0.2882 -1.5433
 7054TIP3    H242578   2.081   3.379  13.008 -0.3100 -1.3219  0.7991
 7055TIP3   OH242579   3.249   1.901   1.237  0.1482 -0.1908 -0.2740
 7055TIP3    H142580   3.257   1.872   1.147 -0.2598 -0.7947 -0.1168
 7055TIP3    H242581   3.191   1.977   1.233  2.0481  1.3179 -0.8200
 7056TIP3   OH242582   6.099   5.265  14.443 -0.5844 -0.4934  0.6604
 7056TIP3    H142583   6.016   5.284  14.399 -0.6268  1.4195  1.4340
 7056TIP3    H242584   6.075   5.261  14.536  0.0906 -0.5792  0.8305
 7057TIP3   OH242585   1.453   5.674  16.125  0.2169  0.0508 -0.5206
 7057TIP3    H142586   1.513   5.608  16.160  1.9273  1.5698 -0.4320
 7057TIP3    H242587   1.469   5.751  16.179 -2.0817  0.4414 -0.3123
 7058TIP3   OH242588   3.039   2.169  15.807 -0.1203  0.3821 -0.6262
 7058TIP3    H142589   3.127   2.181  15.841 -0.0041  0.6739 -1.0217
 7058TIP3    H242590   2.990   2.131  15.880  0.2174  0.6437 -0.2591
 7059TIP3   OH242591   3.928   0.932   5.186 -0.1867 -0.4421 -0.3921
 7059TIP3    H142592   3.960   0.893   5.267 -0.6318 -1.1254 -0.5398
 7059TIP3    H242593   3.847   0.977   5.212 -0.3779 -0.7369 -0.4650
 7060TIP3   OH242594   6.523   2.006  16.903 -0.3824  0.0311  0.6769
 7060TIP3    H142595   6.558   2.028  16.816 -0.5952 -2.2130 -0.0492
 7060TIP3    H242596   6.601   1.991  16.957 -0.2409  0.0345  0.4780
 7061TIP3   OH242597   3.058   4.934  14.761  0.5781 -0.2317 -0.0030
 7061TIP3    H142598   3.030   5.016  14.802  0.3016 -0.0145 -0.6120
 7061TIP3    H242599   3.144   4.917  14.798  0.8749  0.6227 -0.2685
 7062TIP3   OH242600   6.323   5.147   2.156  0.2252  0.1135 -0.2359
 7062TIP3    H142601   6.310   5.190   2.241  2.2901 -0.0360  0.2300
 7062TIP3    H242602   6.273   5.066   2.162 -1.8207  1.3254 -0.2157
 7063TIP3   OH242603   1.546   1.483   5.281 -0.3072 -0.6222 -0.3209
 7063TIP3    H142604   1.504   1.489   5.196  0.3167 -1.4051 -0.6935
 7063TIP3    H242605   1.476   1.499   5.344 -0.5857  0.9547 -0.9873
 7064TIP3   OH242606   0.823   5.711   0.782  0.0052  0.7203  0.1092
 7064TIP3    H142607   0.750   5.656   0.811  1.4483 -1.5575 -0.3578
 7064TIP3    H242608   0.834   5.689   0.689 -0.4663  3.1602 -0.5906
 7065TIP3   OH242609   2.647   5.428  11.199  0.2416 -0.3151 -0.6852
 7065TIP3    H142610   2.698   5.428  11.118  0.6437  1.6645 -0.4881
 7065TIP3    H242611   2.593   5.506  11.193 -1.7942 -1.6177 -0.2451
 7066TIP3   OH242612   5.962   0.019   4.368  0.1368 -0.5879  0.3640
 7066TIP3    H142613   6.053   0.038   4.347 -0.5198  0.5248 -1.7713
 7066TIP3    H242614   5.943  -0.064   4.324 -0.3123  0.0469 -0.6880
 7067TIP3   OH242615   2.788   4.123   0.128  0.1053 -0.2255 -0.5185
 7067TIP3    H142616   2.755   4.167   0.207  2.5393 -0.0255  0.4551
 7067TIP3    H242617   2.753   4.034   0.134 -1.3424  0.3315 -0.2660
 7068TIP3   OH242618   1.437   0.851   3.631 -0.0570 -0.1280  0.6402
 7068TIP3    H142619   1.346   0.879   3.642 -0.1676 -1.2770  3.5672
 7068TIP3    H242620   1.436   0.794   3.555 -1.5480  0.6998  0.0049
 7069TIP3   OH242621   2.096   5.433   0.857  0.4158 -0.0428  0.1278
 7069TIP3    H142622   2.084   5.372   0.784  0.5989 -0.0342  0.0888
 7069TIP3    H242623   2.062   5.386   0.933 -0.7294  0.3443 -0.1278
 7070TIP3   OH242624   2.810   2.989   0.729  1.0423  0.0230 -0.0061
 7070TIP3    H142625   2.807   3.078   0.763 -1.8753 -0.6829  2.0068
 7070TIP3    H242626   2.739   2.944   0.774  1.4804 -2.9780 -2.0080
 7071TIP3   OH242627   0.662   2.986  17.106 -0.1670  0.2841 -0.0877
 7071TIP3    H142628   0.743   3.008  17.151  0.0992  0.4557 -0.6388
 7071TIP3    H242629   0.593   3.009  17.167  0.1822  0.7236  0.1413
 7072TIP3   OH242630   6.441   0.799  11.147  0.0360 -0.1044 -0.2262
 7072TIP3    H142631   6.491   0.793  11.066  0.4419 -0.0833  0.0185
 7072TIP3    H242632   6.385   0.875  11.136  1.7231  1.3115  0.3950
 7073TIP3   OH242633   2.712   2.017  13.843  0.3050  0.6801 -0.4474
 7073TIP3    H142634   2.682   1.982  13.759  0.1478 -1.5326  0.4867
 7073TIP3    H242635   2.805   1.993  13.848 -0.0030 -0.3696  0.5636
 7074TIP3   OH242636   6.510   2.343   2.015 -0.1497 -0.1997 -0.4375
 7074TIP3    H142637   6.502   2.347   1.919 -0.2177  0.6616 -0.4003
 7074TIP3    H242638   6.420   2.348   2.047 -0.1107 -0.2664 -0.3155
 7075TIP3   OH242639   2.720   5.834  16.090  0.2263 -0.1623  0.0020
 7075TIP3    H142640   2.680   5.806  16.172  1.2824  2.4941  1.5516
 7075TIP3    H242641   2.673   5.914  16.067  1.8114  0.6853 -0.4299
 7076TIP3   OH242642   6.629   0.042  16.857 -0.2219 -0.1120 -0.1609
 7076TIP3    H142643   6.626  -0.002  16.942 -0.7718 -1.6609 -0.9557
 7076TIP3    H242644   6.551   0.098  16.856  1.0509  1.8250  1.2970
 7077TIP3   OH242645   2.888   5.435  10.991  0.1739 -0.3291  0.4304
 7077TIP3    H142646   2.898   5.340  10.989  3.0018 -0.1140  0.3835
 7077TIP3    H242647   2.940   5.463  11.066 -1.8914  1.1195  1.4264
 7078TIP3   OH242648   5.555   6.722   6.113  0.0983 -0.1969 -0.2469
 7078TIP3    H142649   5.485   6.757   6.057 -0.0156  0.0182  0.0264
 7078TIP3    H242650   5.517   6.644   6.153  0.1342 -0.2763 -0.3675
 7079TIP3   OH242651   1.955   6.757   4.098 -1.0629  0.1114 -0.5172
 7079TIP3    H142652   1.888   6.693   4.075 -0.4598 -0.2161 -1.4409
 7079TIP3    H242653   2.013   6.759   4.022  1.4338 -1.5271  1.1418
 7080TIP3   OH242654   6.767   5.053   4.350 -0.1217  0.3137 -0.3161
 7080TIP3    H142655   6.687   5.105   4.343 -0.3106 -0.0063 -0.5980
 7080TIP3    H242656   6.811   5.064   4.265  0.5260  1.1082  0.1113
 7081TIP3   OH242657   1.273   2.814  14.154 -0.0333  0.0036 -0.2842
 7081TIP3    H142658   1.181   2.813  14.181 -0.2578 -2.1044 -0.9646
 7081TIP3    H242659   1.314   2.744  14.206  1.5867  1.8644  1.1250
 7082TIP3   OH242660   6.778   1.316   2.310  0.2193  0.5610  0.4137
 7082TIP3    H142661   6.809   1.234   2.273 -1.0203 -0.5066  1.6280
 7082TIP3    H242662   6.770   1.375   2.235 -2.4203 -1.5509 -1.1561
 7083TIP3   OH242663   4.002   0.759  17.221  0.1005 -0.4552 -0.0753
 7083TIP3    H142664   4.030   0.820  17.289 -0.6927 -1.1933  0.9391
 7083TIP3    H242665   4.068   0.689  17.223 -1.3449 -1.8444  1.8385
 7084TIP3   OH242666   2.106   1.000   3.096 -0.2039  0.1965 -0.1512
 7084TIP3    H142667   2.074   0.933   3.036 -0.0489  2.4664 -2.9732
 7084TIP3    H242668   2.196   0.974   3.116 -0.2188 -0.5656 -0.9914
 7085TIP3   OH242669   0.831   2.425  11.377  0.0663 -0.1378 -0.3358
 7085TIP3    H142670   0.818   2.386  11.291 -1.1174 -0.2418 -0.1290
 7085TIP3    H242671   0.808   2.517  11.366  1.5005  0.2355 -0.4911
 7086TIP3   OH242672   2.762   4.587  11.323 -0.5685 -0.0329 -0.0055
 7086TIP3    H142673   2.691   4.651  11.327 -0.8794 -0.4245  0.8814
 7086TIP3    H242674   2.842   4.639  11.333 -0.7014  0.4258 -1.1435
 7087TIP3   OH242675   6.231   1.063  13.373  0.3609  0.0831  0.7675
 7087TIP3    H142676   6.203   1.149  13.406  1.6187  0.5966  0.5530
 7087TIP3    H242677   6.311   1.044  13.421  2.1438  0.7577 -1.7098
 7088TIP3   OH242678   1.850   2.223   2.281  0.2372 -0.7042 -0.0100
 7088TIP3    H142679   1.914   2.258   2.344 -0.9501 -0.2502  0.9733
 7088TIP3    H242680   1.789   2.294   2.266 -0.7022 -1.5007 -0.0421
 7089TIP3   OH242681   3.932   6.742   2.116 -0.6289 -0.1571  0.6429
 7089TIP3    H142682   3.910   6.725   2.024  0.3552 -0.9638  0.5375
 7089TIP3    H242683   3.858   6.794   2.149 -1.6872 -1.0371 -0.2230
 7090TIP3   OH242684   4.174   0.006   0.878 -0.1971  0.0451  0.1422
 7090TIP3    H142685   4.249  -0.017   0.824  0.5949  1.6037  0.5320
 7090TIP3    H242686   4.189   0.096   0.904 -1.8405  0.1537  0.8639
 7091TIP3   OH242687   6.777   2.147   5.774  0.5591 -0.2532  0.2686
 7091TIP3    H142688   6.713   2.165   5.706  1.3956 -0.5985 -0.6413
 7091TIP3    H242689   6.725   2.122   5.851 -0.3782 -0.7472 -0.5106
 7092TIP3   OH242690   1.044   1.003   5.513 -0.6722  0.0473 -0.0583
 7092TIP3    H142691   1.084   0.917   5.518 -1.7909 -0.5210 -0.5821
 7092TIP3    H242692   1.109   1.058   5.469  0.2451 -0.3891  0.7270
 7093TIP3   OH242693   4.550   3.551   0.137  0.1534  0.0264 -0.0437
 7093TIP3    H142694   4.538   3.643   0.114  1.0317  0.4369  1.0329
 7093TIP3    H242695   4.523   3.546   0.229  0.1004 -0.8060 -0.0921
 7094TIP3   OH242696   1.002   6.041   0.496  0.1437 -0.4878  0.2158
 7094TIP3    H142697   0.914   6.072   0.476  0.5078  0.5766  0.2154
 7094TIP3    H242698   1.000   5.947   0.476 -0.5533 -0.1754 -1.2895
 7095TIP3   OH242699   5.712   2.559  15.517  0.1528  0.3907  0.3027
 7095TIP3    H142700   5.667   2.534  15.436  2.1468 -0.6640 -0.5555
 7095TIP3    H242701   5.804   2.560  15.493  0.6748  1.7758  2.1628
 7096TIP3   OH242702   0.399   5.381   4.335 -0.0275 -1.0501 -0.7902
 7096TIP3    H142703   0.359   5.413   4.254 -1.8697 -1.2760 -0.0323
 7096TIP3    H242704   0.324   5.362   4.392  1.2126 -0.7316  1.0260
 7097TIP3   OH242705   4.968   4.535   0.583  0.7339 -0.3026  0.0245
 7097TIP3    H142706   5.018   4.498   0.656  1.7893 -2.1429 -1.5770
 7097TIP3    H242707   4.895   4.580   0.626  3.1051  1.6529  2.4149
 7098TIP3   OH242708   4.686   6.601  12.381  0.0916  0.2248 -0.0476
 7098TIP3    H142709   4.720   6.516  12.408 -0.2318  0.2887  0.5940
 7098TIP3    H242710   4.702   6.658  12.456 -1.1807  0.3190  0.1794
 7099TIP3   OH242711   4.872   5.599  16.622 -0.4260  0.4265  0.1261
 7099TIP3    H142712   4.834   5.685  16.605 -1.9591 -0.3660 -0.6745
 7099TIP3    H242713   4.855   5.549  16.542 -0.8480 -1.0498  1.0926
 7100TIP3   OH242714   3.869   5.554   5.877  0.6432  0.3802  0.2524
 7100TIP3    H142715   3.876   5.573   5.971 -1.0805  2.7660 -0.0081
 7100TIP3    H242716   3.933   5.612   5.836 -0.5986  1.4912 -0.1878
 7101TIP3   OH242717   0.639   2.632   2.156  0.5569  0.1378 -0.2232
 7101TIP3    H142718   0.613   2.629   2.064 -0.1193 -1.8938 -0.0153
 7101TIP3    H242719   0.557   2.623   2.204  1.0247 -0.0766  0.5526
 7102TIP3   OH242720   0.103   1.910   2.790  0.9237  0.1866  0.0833
 7102TIP3    H142721   0.063   1.854   2.857  0.3405  0.1071 -0.3136
 7102TIP3    H242722   0.172   1.957   2.835  0.7671 -0.1225  0.6574
 7103TIP3   OH242723   0.415   4.848   1.369  0.3751  0.2901  0.4805
 7103TIP3    H142724   0.340   4.908   1.367 -0.0818 -0.2209 -2.2160
 7103TIP3    H242725   0.377   4.764   1.393  0.4593  0.4078  1.0520
 7104TIP3   OH242726   6.436   4.504  16.522 -0.0431  0.2766 -0.4830
 7104TIP3    H142727   6.359   4.539  16.567 -0.0742  2.2376 -1.9192
 7104TIP3    H242728   6.427   4.409  16.530 -3.0448  0.3967 -1.2396
 7105TIP3   OH242729   6.075   2.492  14.677  0.2017 -0.2303 -0.1178
 7105TIP3    H142730   6.118   2.543  14.609 -1.3440  0.7226 -0.4346
 7105TIP3    H242731   6.067   2.404  14.640  3.0703 -0.8478  0.5177
 7106TIP3   OH242732   4.300   5.974  17.200 -0.0667  0.2861  0.3905
 7106TIP3    H142733   4.268   6.044  17.143  2.0139  1.2863  0.3622
 7106TIP3    H242734   4.238   5.902  17.187 -0.1621  0.7655 -2.5472
 7107TIP3   OH242735   5.037   1.121  11.317  0.0490 -0.1337  0.2149
 7107TIP3    H142736   4.985   1.164  11.385 -0.9276  0.9684 -1.1716
 7107TIP3    H242737   5.123   1.162  11.323  0.3331 -0.8648  1.5086
 7108TIP3   OH242738   1.827   3.542   4.464  0.2811  0.2993  0.7254
 7108TIP3    H142739   1.885   3.557   4.390 -1.1129 -0.5860 -0.6058
 7108TIP3    H242740   1.745   3.585   4.440 -1.2968 -2.7597  0.1794
 7109TIP3   OH242741   4.930   2.792  12.346 -0.2935 -0.0876 -0.2958
 7109TIP3    H142742   4.891   2.707  12.369 -1.1069 -0.0150 -1.3448
 7109TIP3    H242743   4.987   2.812  12.420 -1.2012 -0.8596  0.6533
 7110TIP3   OH242744   0.468   0.093  14.082 -0.1926  0.0294  0.1402
 7110TIP3    H142745   0.555   0.058  14.102  0.1604  1.5292  1.4611
 7110TIP3    H242746   0.474   0.121  13.990  0.4060 -0.7565 -0.0700
 7111TIP3   OH242747   1.536   3.631  11.728 -0.4784  0.2741  0.1388
 7111TIP3    H142748   1.502   3.605  11.814 -0.6248  0.8788  0.2673
 7111TIP3    H242749   1.563   3.722  11.739  0.4372  0.0499 -0.1915
 7112TIP3   OH242750   3.939   1.849  16.811  0.0564 -0.0360 -0.1196
 7112TIP3    H142751   3.933   1.771  16.755 -0.9491  1.0446 -1.5776
 7112TIP3    H242752   4.032   1.871  16.810  0.9077 -2.7335  2.5918
 7113TIP3   OH242753   1.678   2.433   2.260  0.2317  0.1445  0.4528
 7113TIP3    H142754   1.584   2.450   2.256  0.1901 -0.1279  0.2030
 7113TIP3    H242755   1.712   2.499   2.319 -0.3019 -0.5425  1.5566
 7114TIP3   OH242756   4.067   3.259   4.270  0.7739 -0.6980  0.4666
 7114TIP3    H142757   4.074   3.306   4.187  0.2060  0.0021  0.7955
 7114TIP3    H242758   3.977   3.226   4.271  0.7731 -0.6936  0.7983
 7115TIP3   OH242759   5.986   6.404  15.508 -0.5975  1.0909  0.0431
 7115TIP3    H142760   5.996   6.366  15.421 -0.4493  2.6088 -0.6339
 7115TIP3    H242761   5.897   6.440  15.509 -1.0329  0.0617  0.9649
 7116TIP3   OH242762   3.381   1.890  16.514  0.4348 -0.1441  0.4651
 7116TIP3    H142763   3.311   1.938  16.470 -0.3943  0.1677  2.0523
 7116TIP3    H242764   3.389   1.932  16.600 -0.2575 -2.7522  1.9097
 7117TIP3   OH242765   4.197   6.166   1.696 -0.0612  0.6376 -0.0180
 7117TIP3    H142766   4.124   6.122   1.652  0.9408  0.2763 -1.3840
 7117TIP3    H242767   4.182   6.260   1.680 -0.0846  0.5488 -0.5150
 7118TIP3   OH242768   1.642   2.866   5.059 -0.0872  0.1025 -0.3809
 7118TIP3    H142769   1.556   2.889   5.094  1.3379  2.5199  1.8581
 7118TIP3    H242770   1.650   2.918   4.980 -0.4611  0.2819 -0.3067
 7119TIP3   OH242771   4.323   1.094  14.637  0.1052  0.2227  0.3564
 7119TIP3    H142772   4.262   1.066  14.705  0.4472  0.4344  0.7614
 7119TIP3    H242773   4.372   1.015  14.615  0.6879  0.3649  1.0955
 7120TIP3   OH242774   5.658   1.029   1.470 -0.2208  0.1708  0.4043
 7120TIP3    H142775   5.578   0.984   1.497 -0.8450  1.6531  1.1756
 7120TIP3    H242776   5.633   1.074   1.389 -0.0220  0.2327  0.3790
 7121TIP3   OH242777   3.473   5.375   2.065 -0.4772 -0.0166  0.8690
 7121TIP3    H142778   3.458   5.461   2.105 -0.5981  0.1842  0.3922
 7121TIP3    H242779   3.404   5.367   1.999 -0.5299 -0.5239  0.9819
 7122TIP3   OH242780   2.651   3.903   0.227  0.6567  0.0211  0.3558
 7122TIP3    H142781   2.646   3.823   0.175  0.7659  1.0183 -1.2473
 7122TIP3    H242782   2.561   3.934   0.231  0.6433 -0.0674  0.8094
 7123TIP3   OH242783   4.083   6.075  16.815  0.0957 -0.2776  0.1040
 7123TIP3    H142784   3.994   6.051  16.841  0.8883 -3.1491  0.5438
 7123TIP3    H242785   4.092   6.039  16.727  0.8673 -0.1564  0.1273
 7124TIP3   OH242786   0.808   0.487  14.872  0.3985 -0.6764 -0.3894
 7124TIP3    H142787   0.870   0.528  14.812  1.6778 -0.3631  1.0791
 7124TIP3    H242788   0.833   0.394  14.872  2.2508 -0.2699  1.6539
 7125TIP3   OH242789   4.401   0.324  16.659 -0.7478 -0.0711  0.3697
 7125TIP3    H142790   4.408   0.228  16.654  2.1432 -0.0011  1.4823
 7125TIP3    H242791   4.366   0.341  16.746 -0.0427 -0.1191  0.6712
 7126TIP3   OH242792   3.898   0.139  13.683  0.4423 -0.5855  0.3190
 7126TIP3    H142793   3.835   0.067  13.677 -0.1987 -0.2310  2.0997
 7126TIP3    H242794   3.968   0.105  13.738  1.6633 -0.8313 -1.3144
 7127TIP3   OH242795   4.246   6.112  13.898  0.1621 -0.1650  0.1986
 7127TIP3    H142796   4.169   6.089  13.950  0.2073 -2.1213 -0.5270
 7127TIP3    H242797   4.305   6.038  13.908  0.9702  0.2559 -1.1297
 7128TIP3   OH242798   0.743   2.869   1.882  0.3020 -0.0905  0.2304
 7128TIP3    H142799   0.723   2.799   1.944  2.8580 -0.3028  0.9261
 7128TIP3    H242800   0.835   2.855   1.859  0.1461  1.5436 -1.5978
 7129TIP3   OH242801   0.931   2.220  16.052  0.4623 -0.4505  0.1481
 7129TIP3    H142802   0.973   2.301  16.080  0.5866  0.1145 -1.5388
 7129TIP3    H242803   0.838   2.242  16.045  0.6523 -0.0025 -1.5949
 7130TIP3   OH242804   5.969   4.175   5.780 -0.2698  0.5672  0.2322
 7130TIP3    H142805   5.957   4.094   5.731 -2.5586  0.9114  0.1160
 7130TIP3    H242806   6.000   4.147   5.866 -1.3356 -0.4835  0.3065
 7131TIP3   OH242807   6.044   5.494  11.565  0.4778  0.4118 -0.6596
 7131TIP3    H142808   5.977   5.446  11.516 -0.4691  0.5525  0.4592
 7131TIP3    H242809   6.101   5.426  11.601 -1.7106 -0.1240  2.1813
 7132TIP3   OH242810   1.002   4.758  12.564  0.0763 -0.1840  0.0223
 7132TIP3    H142811   0.984   4.754  12.658 -1.4812  0.6210 -0.2109
 7132TIP3    H242812   0.915   4.754  12.523  0.2454  3.9659 -1.2139
 7133TIP3   OH242813   4.894   2.274  15.648 -0.2386  0.7155  0.0189
 7133TIP3    H142814   4.941   2.196  15.677 -2.6326 -0.7128  0.3869
 7133TIP3    H242815   4.916   2.283  15.556 -0.0362 -0.5155 -0.0690
 7134TIP3   OH242816   4.196   0.871  16.365 -0.7941  0.0441  0.2548
 7134TIP3    H142817   4.103   0.851  16.361 -0.7519 -0.1370  0.1864
 7134TIP3    H242818   4.237   0.788  16.388 -0.7088  0.2635  0.9086
 7135TIP3   OH242819   0.415   5.426  14.753 -0.0180  0.1934  0.3612
 7135TIP3    H142820   0.420   5.331  14.754  1.2744  0.2323  0.0753
 7135TIP3    H242821   0.456   5.452  14.836 -0.8983  0.4928  0.7123
 7136TIP3   OH242822   2.308   0.275   5.281 -0.6052 -0.1711  0.6456
 7136TIP3    H142823   2.305   0.207   5.348  0.2279 -0.7463  0.1149
 7136TIP3    H242824   2.382   0.331   5.306 -1.5147  0.7792  1.2875
 7137TIP3   OH242825   3.305   6.542  14.130  0.3960  0.0124 -0.4768
 7137TIP3    H142826   3.302   6.614  14.067  0.7110 -1.2044 -1.9679
 7137TIP3    H242827   3.263   6.576  14.209  0.5526  1.8053 -1.1341
 7138TIP3   OH242828   5.851   3.873   2.631 -0.5428 -0.3010 -0.0679
 7138TIP3    H142829   5.755   3.870   2.622 -0.6757  1.1251  0.6262
 7138TIP3    H242830   5.866   3.869   2.726 -0.0157  1.2840 -0.0629
 7139TIP3   OH242831   0.226   0.221  11.639  0.3562  0.0672  0.4640
 7139TIP3    H142832   0.185   0.214  11.553  0.4730 -0.1180  0.4225
 7139TIP3    H242833   0.317   0.198  11.624  1.0745  2.8150  0.0974
 7140TIP3   OH242834   0.010   1.662  14.833 -0.2981 -0.3999 -0.3297
 7140TIP3    H142835   0.060   1.736  14.867  0.8533 -1.7879  1.1478
 7140TIP3    H242836  -0.076   1.670  14.875 -0.7739  0.9735 -1.4712
 7141TIP3   OH242837   1.911   3.482  11.796 -0.4099 -0.3001  0.2329
 7141TIP3    H142838   1.846   3.449  11.734  0.2838  1.0274 -1.3027
 7141TIP3    H242839   1.986   3.423  11.787  0.4905  1.0107 -1.8512
 7142TIP3   OH242840   3.235   5.762  16.113 -0.0993 -0.1253 -0.2162
 7142TIP3    H142841   3.249   5.667  16.109  2.0797  0.1354 -0.0880
 7142TIP3    H242842   3.149   5.772  16.154 -0.2626 -2.0362  0.0110
 7143TIP3   OH242843   1.455   3.277  13.800  0.1557  1.0189  0.8478
 7143TIP3    H142844   1.426   3.265  13.891 -1.0945 -0.3028  0.3190
 7143TIP3    H242845   1.379   3.317  13.756 -1.0193 -2.3228 -0.5235
 7144TIP3   OH242846   2.759   0.905   4.568  0.4257 -0.5150  0.5013
 7144TIP3    H142847   2.826   0.880   4.504 -2.5793 -3.7373 -1.7615
 7144TIP3    H242848   2.782   0.856   4.647  1.4247 -0.5001  0.2428
 7145TIP3   OH242849   4.118   5.516  11.105 -0.0868 -0.4437  0.2284
 7145TIP3    H142850   4.153   5.428  11.092 -0.9212 -0.8447  0.5935
 7145TIP3    H242851   4.190   5.575  11.084 -0.1245 -1.1487 -2.1186
 7146TIP3   OH242852   0.250   4.689  17.107  0.5919 -0.1969  0.0184
 7146TIP3    H142853   0.291   4.688  17.193  1.0677  0.7415 -0.1797
 7146TIP3    H242854   0.170   4.637  17.117  1.2518 -1.1213  0.6985
 7147TIP3   OH242855   5.579   1.278   2.109  0.1580  0.5602 -0.0356
 7147TIP3    H142856   5.533   1.348   2.156  0.9125  1.4788 -0.6448
 7147TIP3    H242857   5.581   1.205   2.171 -1.9095  0.5462  0.1137
 7148TIP3   OH242858   1.770   4.181  16.707  0.1515 -0.5696 -0.4078
 7148TIP3    H142859   1.739   4.121  16.640  0.1748  0.3488 -1.2668
 7148TIP3    H242860   1.847   4.223  16.668  0.6610 -0.6035  0.5140
 7149TIP3   OH242861   4.027   3.291  14.796 -0.0932  0.3123  0.1279
 7149TIP3    H142862   4.047   3.375  14.755  0.2315  0.7543  1.1576
 7149TIP3    H242863   4.027   3.229  14.723  0.2624  1.1004 -0.5684
 7150TIP3   OH242864   2.624   3.107   1.129 -0.1897 -0.2532  0.6242
 7150TIP3    H142865   2.539   3.106   1.085  0.2284 -1.4618 -0.1869
 7150TIP3    H242866   2.612   3.169   1.202 -2.0440 -1.0549  1.0683
 7151TIP3   OH242867   5.084   2.017  12.930 -0.1577 -0.1440 -0.1031
 7151TIP3    H142868   5.097   2.112  12.932 -1.6821  0.0890  1.6314
 7151TIP3    H242869   5.085   1.990  13.021  0.0191 -1.7729 -0.5543
 7152TIP3   OH242870   2.333   4.036   1.350 -0.4975 -0.2230  0.3724
 7152TIP3    H142871   2.308   3.957   1.397  2.0300 -1.8284 -0.7547
 7152TIP3    H242872   2.396   4.079   1.408  0.3241 -0.6034 -0.2225
 7153TIP3   OH242873   4.903   4.344   2.343  0.4077 -0.1772  0.9189
 7153TIP3    H142874   4.922   4.305   2.429  1.0037 -0.6690  0.5721
 7153TIP3    H242875   4.896   4.269   2.284  2.4171  0.2492  0.0718
 7154TIP3   OH242876   1.033   5.156  15.911  0.5762 -0.0192  0.3832
 7154TIP3    H142877   0.958   5.201  15.873 -0.0593  0.4283  2.0632
 7154TIP3    H242878   1.109   5.191  15.865 -0.2616 -1.1243 -1.9717
 7155TIP3   OH242879   1.464   1.817   3.998 -0.0647  0.1545 -0.2049
 7155TIP3    H142880   1.460   1.863   3.914  0.0892 -0.4094 -0.5229
 7155TIP3    H242881   1.552   1.835   4.031  0.2596 -0.5333 -0.6861
 7156TIP3   OH242882   2.005   2.564   1.011 -0.5421 -0.0221  0.3306
 7156TIP3    H142883   1.930   2.590   1.065  0.0415  1.6652  0.3799
 7156TIP3    H242884   1.995   2.613   0.930  0.0244 -0.4972 -0.0364
 7157TIP3   OH242885   5.702   1.126   3.857 -0.6020 -0.5138 -0.2648
 7157TIP3    H142886   5.678   1.060   3.791  1.6142 -1.4602 -0.2261
 7157TIP3    H242887   5.657   1.098   3.936 -1.0541 -0.9836 -0.6756
 7158TIP3   OH242888   2.178   5.462  16.953 -0.4605  0.4327  0.3141
 7158TIP3    H142889   2.124   5.392  16.990  0.2493 -0.5837 -0.5161
 7158TIP3    H242890   2.266   5.425  16.951 -0.5227  0.2296 -2.7674
 7159TIP3   OH242891   2.512   5.700  11.557 -0.0025 -0.0355  0.1070
 7159TIP3    H142892   2.540   5.684  11.467 -2.7574  0.4152 -0.9217
 7159TIP3    H242893   2.537   5.620  11.604  0.8121 -0.6026 -1.2206
 7160TIP3   OH242894   3.805   2.684  16.447 -0.0755  0.4106  0.1135
 7160TIP3    H142895   3.895   2.662  16.422  0.3100  2.5922 -0.6350
 7160TIP3    H242896   3.750   2.636  16.386  0.6633  0.5426 -0.6790
 7161TIP3   OH242897   1.196   6.696   5.098 -0.2560 -0.2315 -0.3311
 7161TIP3    H142898   1.126   6.745   5.141 -0.5909 -0.3036 -0.7775
 7161TIP3    H242899   1.159   6.609   5.084  0.9065 -1.1724  1.9544
 7162TIP3   OH242900   3.369   3.710   0.136  0.4670 -0.0440 -0.3071
 7162TIP3    H142901   3.348   3.624   0.172  4.3398 -1.2959 -0.5822
 7162TIP3    H242902   3.372   3.768   0.212 -0.2159 -0.5939  0.1504
 7163TIP3   OH242903   3.779   1.295  12.747  0.4170 -0.3777 -0.1812
 7163TIP3    H142904   3.727   1.217  12.765  0.4725 -1.1648 -3.0499
 7163TIP3    H242905   3.802   1.328  12.834  0.0117 -3.2610  1.1400
 7164TIP3   OH242906   6.559   0.195  11.624 -0.1862  0.0782  0.0208
 7164TIP3    H142907   6.617   0.218  11.696 -1.4071  2.1649  0.4194
 7164TIP3    H242908   6.606   0.222  11.545  0.2308 -0.1302  0.1994
 7165TIP3   OH242909   4.784   5.706   4.878  0.3014 -0.4254  0.4765
 7165TIP3    H142910   4.861   5.750   4.916 -0.4604 -0.4896  2.1782
 7165TIP3    H242911   4.713   5.724   4.939 -0.6197 -1.9404 -0.0903
 7166TIP3   OH242912   0.051   2.698  11.236  0.5884  0.0277  0.6249
 7166TIP3    H142913   0.001   2.617  11.235 -0.1113  0.4508  0.5819
 7166TIP3    H242914  -0.011   2.764  11.269  0.9778  0.6506  0.1295
 7167TIP3   OH242915   2.711   1.706  15.285 -0.0633 -0.4525 -0.2230
 7167TIP3    H142916   2.724   1.711  15.190 -1.6329 -0.5842 -0.4756
 7167TIP3    H242917   2.779   1.646  15.315 -0.6764 -1.8800 -1.5424
 7168TIP3   OH242918   5.152   0.903  13.263 -0.0195 -0.0870  0.4819
 7168TIP3    H142919   5.151   0.997  13.245 -0.1565 -0.2758 -0.5576
 7168TIP3    H242920   5.076   0.889  13.320 -0.8873  0.2159 -0.5724
 7169TIP3   OH242921   0.915   5.371  10.650 -0.5419  0.5535  0.2363
 7169TIP3    H142922   0.917   5.276  10.666 -0.6036  0.2196 -1.5205
 7169TIP3    H242923   0.823   5.395  10.658 -1.2239 -0.3626 -3.2787
 7170TIP3   OH242924   3.223   4.983  13.575 -0.6949  0.2385  0.7770
 7170TIP3    H142925   3.145   5.024  13.539 -0.0960 -0.3148 -1.2863
 7170TIP3    H242926   3.217   4.891  13.548  0.8944  0.2944  0.1117
 7171TIP3   OH242927   2.296   1.074  12.417  0.7407 -0.1785 -0.4123
 7171TIP3    H142928   2.330   1.097  12.331  1.4690  0.7247  0.0907
 7171TIP3    H242929   2.263   0.985  12.408  0.4361  0.0536 -1.7199
 7172TIP3   OH242930   5.889   4.998   4.158 -0.0003 -0.3754 -0.7661
 7172TIP3    H142931   5.901   5.043   4.074  3.4626  0.7279  0.1816
 7172TIP3    H242932   5.877   5.068   4.222 -0.5571 -1.1206 -0.0189
 7173TIP3   OH242933   4.773   2.714  11.471 -0.0537  0.0978 -0.2485
 7173TIP3    H142934   4.849   2.768  11.495 -1.8358  1.8480  1.9180
 7173TIP3    H242935   4.725   2.767  11.407  0.2496 -0.7817 -1.2337
 7174TIP3   OH242936   2.607   4.389  13.647  0.5206 -0.4395 -0.0332
 7174TIP3    H142937   2.565   4.456  13.594  0.6094  0.2654  0.7629
 7174TIP3    H242938   2.618   4.314  13.588  0.3069  0.1995 -0.8926
 7175TIP3   OH242939   2.292   0.264   4.324 -0.3226 -0.3575 -0.3422
 7175TIP3    H142940   2.243   0.212   4.387 -0.2907 -1.0316 -0.8666
 7175TIP3    H242941   2.226   0.321   4.284 -0.2510  0.4887  0.6800
 7176TIP3   OH242942   6.060   6.316  15.253 -0.3902  0.2033  0.0776
 7176TIP3    H142943   6.143   6.364  15.246  0.5921 -1.4459 -0.1626
 7176TIP3    H242944   6.032   6.303  15.163 -0.3452 -0.1557  0.1123
 7177TIP3   OH242945   1.869   6.043   0.122 -0.3505 -0.2680  0.0352
 7177TIP3    H142946   1.893   6.044   0.029 -0.9634 -0.0029 -0.1253
 7177TIP3    H242947   1.952   6.032   0.168  0.5055  3.2130 -0.3649
 7178TIP3   OH242948   4.797   0.442  17.103  0.1285  0.0302  0.4900
 7178TIP3    H142949   4.811   0.407  17.191 -0.2561 -1.6524 -0.0752
 7178TIP3    H242950   4.790   0.537  17.115  0.8669 -0.0987  2.1574
 7179TIP3   OH242951   5.329   5.342  14.338 -0.5868  0.2907  0.5301
 7179TIP3    H142952   5.287   5.289  14.270 -1.0416  0.4669  0.6727
 7179TIP3    H242953   5.263   5.405  14.364 -0.6375 -0.1839  1.5966
 7180TIP3   OH242954   5.952   0.192   4.877 -0.6353  0.4896  0.7203
 7180TIP3    H142955   6.013   0.143   4.822 -3.1246 -1.5240 -0.4525
 7180TIP3    H242956   5.936   0.134   4.952 -0.1860  1.5647  1.6780
 7181TIP3   OH242957   0.113   2.668  17.134 -0.2171  0.0369 -0.4307
 7181TIP3    H142958   0.192   2.632  17.095 -1.1924 -3.1235  0.1889
 7181TIP3    H242959   0.067   2.711  17.062  0.9185 -0.2140 -1.3237
 7182TIP3   OH242960   4.012   3.776  13.288  1.1622 -0.5464  0.0241
 7182TIP3    H142961   4.100   3.739  13.283  2.9680  3.3399 -1.5527
 7182TIP3    H242962   3.964   3.735  13.217  1.4805 -3.0473  1.1668
 7183TIP3   OH242963   3.357   3.489  15.236  0.5488  0.2852 -0.5930
 7183TIP3    H142964   3.407   3.423  15.187  1.1635  0.3236 -0.0276
 7183TIP3    H242965   3.269   3.453  15.242  1.0669 -0.8730  0.4168
 7184TIP3   OH242966   0.746   5.963  12.725 -0.1548 -0.8139 -0.7293
 7184TIP3    H142967   0.731   5.912  12.804 -2.7881 -1.5108 -1.5491
 7184TIP3    H242968   0.658   5.977  12.689  0.8520  0.4909 -2.9010
 7185TIP3   OH242969   0.818   2.273   5.015 -0.2206 -0.2755  0.4088
 7185TIP3    H142970   0.913   2.268   5.001 -0.4837 -0.1780 -1.6984
 7185TIP3    H242971   0.795   2.187   5.051  0.5094 -0.7554 -0.2298
 7186TIP3   OH242972   3.452   1.331   1.946  0.0807  0.1683 -0.0942
 7186TIP3    H142973   3.466   1.271   1.872  1.3436  1.8143 -1.2615
 7186TIP3    H242974   3.535   1.378   1.955 -0.4915  0.9402  1.5491
 7187TIP3   OH242975   2.572   1.458  11.760  0.4093 -0.0775  0.1940
 7187TIP3    H142976   2.644   1.462  11.822  0.3011  1.1953  0.2709
 7187TIP3    H242977   2.594   1.386  11.702  2.3155  0.9481 -0.4537
 7188TIP3   OH242978   3.080   6.162   4.639  0.1445 -0.0528 -0.2310
 7188TIP3    H142979   3.067   6.092   4.575 -0.3560 -0.1082 -0.0787
 7188TIP3    H242980   3.145   6.220   4.599 -2.0984  1.3738 -2.0608
 7189TIP3   OH242981   1.163   2.207   5.495 -0.0079 -0.4534  0.0751
 7189TIP3    H142982   1.148   2.204   5.590 -0.0284 -0.4579  0.0720
 7189TIP3    H242983   1.224   2.136   5.478 -0.6109 -0.9505 -0.0272
 7190TIP3   OH242984   1.020   1.833  13.982 -0.0519 -0.1107  0.5658
 7190TIP3    H142985   1.066   1.888  14.046  0.3555 -0.3285  0.4648
 7190TIP3    H242986   1.059   1.856  13.898  0.3263 -0.7537  0.5546
 7191TIP3   OH242987   3.070   3.541   0.844 -0.8173  0.5076 -0.2155
 7191TIP3    H142988   3.096   3.619   0.796 -1.3514  0.6854 -0.2232
 7191TIP3    H242989   3.151   3.508   0.882 -0.5953  1.0884 -0.1777
 7192TIP3   OH242990   2.575   6.520   4.646 -0.0720 -0.1363 -0.0182
 7192TIP3    H142991   2.572   6.437   4.693  0.6193  0.3961  0.9972
 7192TIP3    H242992   2.566   6.496   4.554 -0.8690 -1.2475  0.3321
 7193TIP3   OH242993   1.516   1.115  13.746  0.4108 -0.2656  0.6337
 7193TIP3    H142994   1.530   1.196  13.794 -2.1788  1.5834 -1.4008
 7193TIP3    H242995   1.420   1.107  13.739  0.5613 -0.7510 -3.3462
 7194TIP3   OH242996   2.153   1.655  15.818  0.0543 -0.1095 -0.2126
 7194TIP3    H142997   2.096   1.698  15.881  1.6704  1.8652 -0.0162
 7194TIP3    H242998   2.157   1.715  15.744  0.9278 -0.7873 -0.7307
 7195TIP3   OH242999   4.714   2.763  11.199  0.0501 -0.1891  0.6003
 7195TIP3    H143000   4.690   2.845  11.241  0.5257 -0.7566  2.0474
 7195TIP3    H243001   4.707   2.781  11.105 -0.3974  1.3215  0.8967
 7196TIP3   OH243002   4.601   5.805   6.429  0.7292 -0.4308 -0.5426
 7196TIP3    H143003   4.602   5.813   6.524  1.6597  2.3511 -0.6856
 7196TIP3    H243004   4.688   5.834   6.401  0.4241 -1.0162 -2.2692
 7197TIP3   OH243005   1.909   6.268   6.115 -0.5576  0.4847  0.3767
 7197TIP3    H143006   1.974   6.327   6.077 -2.2619  1.2905 -1.4432
 7197TIP3    H243007   1.845   6.325   6.157 -0.7723 -0.2318  1.0643
 7198TIP3   OH243008   0.075   1.335   3.895 -0.2078  0.0249 -0.4551
 7198TIP3    H143009   0.022   1.411   3.874 -0.5314  0.2016  0.8968
 7198TIP3    H243010   0.077   1.333   3.991  0.2098 -1.3805 -0.4744
 7199TIP3   OH243011   2.264   2.679  15.968  0.0855  0.9398 -0.1932
 7199TIP3    H143012   2.353   2.674  15.935 -0.0176 -0.6540 -0.3173
 7199TIP3    H243013   2.224   2.752  15.921  0.4941 -0.0805 -2.2080
 7200TIP3   OH243014   2.483   0.049  14.883 -0.1247 -0.0585 -0.1941
 7200TIP3    H143015   2.531  -0.005  14.820 -0.9964  0.5067 -1.3882
 7200TIP3    H243016   2.424   0.102  14.829 -1.5843 -0.2167  1.1556
 7201TIP3   OH243017   0.133   0.372  14.310 -0.2413  0.0534  0.1927
 7201TIP3    H143018   0.184   0.346  14.387 -1.9910 -1.8962  0.8013
 7201TIP3    H243019   0.133   0.294  14.255  2.4705  1.9131 -2.8014
 7202TIP3   OH243020   4.923   2.924   3.388 -0.4488  0.2227  0.2989
 7202TIP3    H143021   4.864   2.863   3.345  2.5005 -2.8570  0.1566
 7202TIP3    H243022   4.953   2.983   3.318 -0.1277 -0.9585 -0.5792
 7203TIP3   OH243023   2.404   1.847  12.178 -0.0503  0.0622 -0.2382
 7203TIP3    H143024   2.403   1.914  12.110  1.3788  0.2794 -0.0773
 7203TIP3    H243025   2.431   1.767  12.132  0.3007  0.0662 -0.0364
 7204TIP3   OH243026   1.717   4.025  17.204  0.1690  0.2049  0.6232
 7204TIP3    H143027   1.764   4.109  17.206  1.5055 -0.4886 -0.2445
 7204TIP3    H243028   1.636   4.044  17.157  0.7562  0.8859 -0.1422
 7205TIP3   OH243029   0.465   1.217  14.706 -0.5708 -0.3369 -0.2935
 7205TIP3    H143030   0.382   1.171  14.690 -0.5323 -0.5175  0.0216
 7205TIP3    H243031   0.532   1.149  14.696 -0.5370 -0.4413  0.5222
 7206TIP3   OH243032   2.993   4.739   0.436 -0.4392  0.6007  0.0437
 7206TIP3    H143033   3.009   4.824   0.394  0.6537 -0.1321 -1.0789
 7206TIP3    H243034   3.073   4.690   0.423 -0.9342 -0.5075  0.9795
 7207TIP3   OH243035   6.534   1.568   3.620  0.8868 -0.3065  0.8228
 7207TIP3    H143036   6.605   1.570   3.556  0.2826 -0.0113  0.1506
 7207TIP3    H243037   6.476   1.639   3.593  2.3964  2.3070  3.7923
 7208TIP3   OH243038   0.980   2.267   5.287 -0.5496  0.0522  0.1418
 7208TIP3    H143039   1.033   2.271   5.207 -0.0918 -2.1394  0.2499
 7208TIP3    H243040   1.044   2.273   5.358 -0.5818 -1.0205  0.2843
 7209TIP3   OH243041   1.936   0.908   0.189 -0.1182  0.1666  0.2062
 7209TIP3    H143042   1.854   0.947   0.221  0.2288  0.7505  0.3886
 7209TIP3    H243043   1.907   0.840   0.128 -0.7371  0.6887 -0.0946
 7210TIP3   OH243044   3.479   5.190  13.552 -0.3594 -0.1064 -0.5536
 7210TIP3    H143045   3.397   5.144  13.568  0.3226 -1.3085 -0.4006
 7210TIP3    H243046   3.513   5.151  13.471  1.1576 -1.2703  0.5824
 7211TIP3   OH243047   3.481   1.959   3.467  0.3730 -0.0679  0.1470
 7211TIP3    H143048   3.400   1.912   3.484  1.9400 -2.5021  1.5561
 7211TIP3    H243049   3.466   2.046   3.503 -1.6122 -0.4273  0.3030
 7212TIP3   OH243050   3.772   3.173  13.587  0.3666 -0.2802 -0.0319
 7212TIP3    H143051   3.801   3.096  13.539 -0.8147 -2.3104  2.3313
 7212TIP3    H243052   3.853   3.213  13.619  0.9338 -1.2818 -0.1712
 7213TIP3   OH243053   4.025   5.534  15.578  0.5567 -0.0993  0.6829
 7213TIP3    H143054   3.958   5.595  15.607 -0.5349 -1.9383  2.2757
 7213TIP3    H243055   4.009   5.523  15.484 -0.9972 -0.0189  0.9169
 7214TIP3   OH243056   4.458   6.244  11.095  0.6110 -0.7677 -0.0903
 7214TIP3    H143057   4.427   6.280  11.012 -0.2936  1.6804  1.2071
 7214TIP3    H243058   4.389   6.265  11.157  1.4177 -2.2532  1.3819
 7215TIP3   OH243059   3.683   1.061   5.265  0.1774 -0.2757  0.0793
 7215TIP3    H143060   3.662   1.123   5.334 -1.2178 -1.5958  0.8908
 7215TIP3    H243061   3.655   1.104   5.184 -2.3305 -0.4746  0.7839
 7216TIP3   OH243062   1.591   5.159  14.888  0.0506 -0.5639 -0.4923
 7216TIP3    H143063   1.651   5.137  14.817 -0.2513 -0.6881 -0.7148
 7216TIP3    H243064   1.642   5.213  14.947 -0.1732  1.0436 -1.6887
 7217TIP3   OH243065   0.235   2.623  15.760 -0.5632 -0.4330  0.3963
 7217TIP3    H143066   0.259   2.530  15.754 -0.5460 -0.3944 -0.1886
 7217TIP3    H243067   0.295   2.658  15.827 -1.2661 -1.0532  1.3729
 7218TIP3   OH243068   6.167   5.075  12.754  0.8402 -0.7215  0.1869
 7218TIP3    H143069   6.159   5.159  12.710 -1.2220 -0.9771 -0.0128
 7218TIP3    H243070   6.253   5.078  12.796  0.7350  1.5497  0.3592
 7219TIP3   OH243071   0.182   6.202  12.339 -0.1165 -0.6235  0.0012
 7219TIP3    H143072   0.276   6.184  12.332  0.2308  0.2034  2.0379
 7219TIP3    H243073   0.153   6.152  12.415 -0.9853  0.4008  0.3590
 7220TIP3   OH243074   5.723   4.734   3.198  0.9975 -0.0926 -0.8870
 7220TIP3    H143075   5.657   4.745   3.130  1.1484  0.2666 -0.9843
 7220TIP3    H243076   5.719   4.816   3.248 -1.8967 -1.8156  2.0978
 7221TIP3   OH243077   5.685   2.736  12.612 -0.1485  0.0318  0.3503
 7221TIP3    H143078   5.683   2.786  12.694 -0.1640  0.4784  0.0806
 7221TIP3    H243079   5.765   2.684  12.618  0.0958  0.4163  0.4422
 7222TIP3   OH243080   6.104   1.224  11.155  0.3362 -0.1863 -0.4937
 7222TIP3    H143081   6.027   1.195  11.106 -0.3893  0.1409  0.4194
 7222TIP3    H243082   6.083   1.314  11.182  0.5450 -0.4793  0.7321
 7223TIP3   OH243083   0.864   6.409   0.663 -0.0318  0.0022  0.3272
 7223TIP3    H143084   0.911   6.339   0.708  0.7114  0.1107 -0.2517
 7223TIP3    H243085   0.872   6.386   0.570 -0.6700  0.3096  0.1976
 7224TIP3   OH243086   2.273   1.677  13.399 -0.0552  0.3008 -0.6398
 7224TIP3    H143087   2.333   1.658  13.470 -0.5105 -0.0918 -0.3542
 7224TIP3    H243088   2.213   1.743  13.435 -0.7737 -0.4701 -0.3791
 7225TIP3   OH243089   2.644   4.743  14.998  0.5526  0.1683 -0.4486
 7225TIP3    H143090   2.673   4.654  15.018  1.4459  0.5399 -0.0411
 7225TIP3    H243091   2.715   4.799  15.029 -0.1590  1.0502 -0.3719
 7226TIP3   OH243092   0.245   1.615  12.929 -0.0771  0.1049 -0.0704
 7226TIP3    H143093   0.266   1.565  13.008  0.0335 -2.9060 -1.8341
 7226TIP3    H243094   0.159   1.583  12.902 -0.1853  1.1723 -1.1018
 7227TIP3   OH243095   5.684   3.286  15.036 -0.1521 -0.3182 -0.3970
 7227TIP3    H143096   5.594   3.264  15.058 -0.0703  0.0018  0.2887
 7227TIP3    H243097   5.678   3.370  14.991 -0.1298  0.1168  0.3965
 7228TIP3   OH243098   4.486   6.576  16.376  0.3712  0.1725 -0.6004
 7228TIP3    H143099   4.404   6.603  16.419  0.0753  1.0726 -1.6962
 7228TIP3    H243100   4.553   6.633  16.415  0.5152 -0.6073  0.3424
 7229TIP3   OH243101   0.304   2.186  13.971 -0.2010 -0.3811 -0.4406
 7229TIP3    H143102   0.209   2.172  13.979 -0.0675 -0.7522  0.7287
 7229TIP3    H243103   0.313   2.244  13.896 -1.2345 -1.7027 -1.6650
 7230TIP3   OH243104   3.371   4.924  13.058  0.4159 -0.1868 -0.2433
 7230TIP3    H143105   3.287   4.878  13.051  0.3237 -0.1844  0.7345
 7230TIP3    H243106   3.353   5.012  13.026 -0.1252  0.0113  0.5873
 7231TIP3   OH243107   6.350   2.782  11.190 -0.1507 -0.5021  0.6079
 7231TIP3    H143108   6.444   2.779  11.173  0.1875  1.6516  1.7416
 7231TIP3    H243109   6.318   2.852  11.134 -0.6600  0.2896  1.8497
 7232TIP3   OH243110   4.492   3.565  12.581 -0.1073  0.1623  0.1919
 7232TIP3    H143111   4.487   3.635  12.517 -0.9779  0.7432  0.8723
 7232TIP3    H243112   4.445   3.492  12.540  0.0004  0.2787 -0.1401
 7233TIP3   OH243113   6.654   2.632   4.521  0.4311 -0.5817  0.0877
 7233TIP3    H143114   6.640   2.553   4.468  1.3074  0.2959 -1.5225
 7233TIP3    H243115   6.749   2.646   4.519  0.4729 -0.3702  1.7282
 7234TIP3   OH243116   2.257   3.748  17.057  0.1204  0.3064 -0.1476
 7234TIP3    H143117   2.224   3.739  16.967 -1.3252  1.3504  0.2434
 7234TIP3    H243118   2.269   3.842  17.068 -1.6176  0.3961  1.3791
 7235TIP3   OH243119   5.096   1.393   1.781 -0.2591  0.0228 -0.3410
 7235TIP3    H143120   5.081   1.453   1.708  0.6896 -1.8015 -2.1301
 7235TIP3    H243121   5.044   1.316   1.759 -1.2650  0.0154  1.7845
 7236TIP3   OH243122   1.876   4.888   5.715  0.1398 -0.6908 -0.3170
 7236TIP3    H143123   1.918   4.969   5.685 -0.0962 -0.8373 -1.0770
 7236TIP3    H243124   1.788   4.892   5.678 -0.4769 -0.4700  1.1176
 7237TIP3   OH243125   6.337   6.006   4.081 -0.3017 -0.1013  0.5400
 7237TIP3    H143126   6.299   6.091   4.105 -0.2102  0.1879 -0.3031
 7237TIP3    H243127   6.398   5.986   4.152  0.4110  1.0255  0.2696
 7238TIP3   OH243128   2.326   3.905   1.071  0.0897 -1.0001 -0.2074
 7238TIP3    H143129   2.407   3.853   1.076  0.7520 -0.0976 -1.0253
 7238TIP3    H243130   2.315   3.940   1.160  3.6855  3.2440 -1.0804
 7239TIP3   OH243131   4.514   0.812   0.431 -0.2515  0.0021 -0.9973
 7239TIP3    H143132   4.456   0.804   0.355 -0.3700  3.1172 -1.3712
 7239TIP3    H243133   4.537   0.905   0.433  0.8969 -0.2614  1.9848
 7240TIP3   OH243134   5.931   3.152  12.840  0.0529 -0.2654  0.1851
 7240TIP3    H143135   5.865   3.196  12.787  1.1919  0.3062 -0.8024
 7240TIP3    H243136   6.012   3.201  12.824  1.0856 -1.9507  0.0392
 7241TIP3   OH243137   0.233   2.623   4.174  0.3388  0.3012 -0.5249
 7241TIP3    H143138   0.174   2.596   4.103  0.4501  0.0685 -0.5315
 7241TIP3    H243139   0.295   2.683   4.132  0.7218 -0.2390 -0.7439
 7242TIP3   OH243140   0.422   4.115  11.037  0.3767 -0.1071 -0.0890
 7242TIP3    H143141   0.328   4.107  11.052  0.1707  0.3809 -1.0467
 7242TIP3    H243142   0.450   4.026  11.015  0.4386 -0.5611  1.6771
 7243TIP3   OH243143   1.208   3.052   2.946  0.2956  0.1949  0.9191
 7243TIP3    H143144   1.220   3.146   2.963  3.2838 -0.0653  0.7505
 7243TIP3    H243145   1.119   3.033   2.976 -0.8954  3.3092 -0.2263
 7244TIP3   OH243146   1.723   0.477  16.807 -0.2134  0.3378  0.0339
 7244TIP3    H143147   1.754   0.451  16.894 -0.2079 -0.3983 -0.1789
 7244TIP3    H243148   1.772   0.556  16.787  0.2725  0.1450  0.4281
 7245TIP3   OH243149   4.130   2.732  16.009 -0.6474 -0.4404  0.6021
 7245TIP3    H143150   4.119   2.754  15.917  1.3424 -0.9087  0.2096
 7245TIP3    H243151   4.046   2.753  16.049 -1.2788  0.5536 -1.1569
 7246TIP3   OH243152   0.386   5.747   1.646  0.5465 -0.3251 -0.4272
 7246TIP3    H143153   0.342   5.730   1.729 -1.6849  0.4373 -1.3918
 7246TIP3    H243154   0.390   5.662   1.603  0.4474 -0.4791 -0.1344
 7247TIP3   OH243155   2.506   3.279   4.069 -0.2185 -0.1044 -0.4046
 7247TIP3    H143156   2.508   3.221   4.145 -2.5090 -1.7994 -1.5053
 7247TIP3    H243157   2.454   3.355   4.097 -1.0200 -0.7035 -0.2376
 7248TIP3   OH243158   0.062   0.963   1.005  0.2188 -0.9409  0.8882
 7248TIP3    H143159   0.143   1.000   1.038 -0.1381  0.4505  0.2707
 7248TIP3    H243160   0.086   0.876   0.973  1.4907 -0.4774  0.5603
 7249TIP3   OH243161   2.804   1.263  14.343  0.0152 -0.8192  0.4436
 7249TIP3    H143162   2.723   1.296  14.382 -0.9152 -1.9352 -0.4837
 7249TIP3    H243163   2.831   1.330  14.281  0.3037 -0.0520  1.3601
 7250TIP3   OH243164   2.897   2.535   0.507 -0.2250 -0.0836 -0.2540
 7250TIP3    H143165   2.974   2.552   0.452  0.6292  1.6122  1.3285
 7250TIP3    H243166   2.910   2.593   0.583 -2.6301 -0.4365  0.4830
 7251TIP3   OH243167   0.959   4.651   0.437 -0.0376 -0.4305 -0.6211
 7251TIP3    H143168   0.936   4.666   0.529 -0.0777 -0.2142 -0.6656
 7251TIP3    H243169   1.009   4.728   0.412  0.0259 -0.5179 -0.7639
 7252TIP3   OH243170   3.001   4.587  11.919  0.4940 -0.0064 -0.1419
 7252TIP3    H143171   3.051   4.540  11.986  0.9128  0.2460 -0.2724
 7252TIP3    H243172   3.059   4.658  11.892  0.9169 -0.9148 -1.7858
 7253TIP3   OH243173   5.768   3.325   3.300  0.0428 -0.1155 -0.1720
 7253TIP3    H143174   5.704   3.322   3.228 -0.0230  1.0725 -0.1839
 7253TIP3    H243175   5.720   3.292   3.376 -0.3807  0.1091 -0.3333
 7254TIP3   OH243176   2.453   1.575   3.161  0.2930  0.3009 -0.4679
 7254TIP3    H143177   2.451   1.482   3.140  1.1839  0.0975  0.3080
 7254TIP3    H243178   2.482   1.617   3.080  0.5484 -0.1621 -0.6193
 7255TIP3   OH243179   0.956   4.102   0.274 -0.3924  0.4404  0.3966
 7255TIP3    H143180   0.993   4.190   0.274 -0.3003  0.4079 -0.5581
 7255TIP3    H243181   0.903   4.098   0.195 -0.3153 -0.3966  0.3784
 7256TIP3   OH243182   1.269   5.814  11.499  0.3528  0.1550  0.5623
 7256TIP3    H143183   1.232   5.884  11.446 -1.5227 -0.1587  1.3792
 7256TIP3    H243184   1.262   5.845  11.589 -0.5891 -1.0979  0.9439
 7257TIP3   OH243185   2.331   2.755  15.556  0.3041 -0.1348  0.1621
 7257TIP3    H143186   2.264   2.813  15.592  0.0220 -0.7092  0.5745
 7257TIP3    H243187   2.308   2.747  15.463 -0.3775 -0.5580  0.3616
 7258TIP3   OH243188   1.392   6.525  12.105  0.1695  0.2902 -0.0343
 7258TIP3    H143189   1.377   6.444  12.056 -1.8497  1.2050 -1.0298
 7258TIP3    H243190   1.330   6.520  12.178  0.8573  0.4431  0.5752
 7259TIP3   OH243191   1.210   0.257  14.832 -0.4152 -0.1410 -0.9504
 7259TIP3    H143192   1.213   0.178  14.778  0.2794 -1.3915  0.7770
 7259TIP3    H243193   1.266   0.320  14.787 -0.1414 -1.0052 -1.8519
 7260TIP3   OH243194   2.931   3.019  15.599 -0.7445 -0.2028 -0.0692
 7260TIP3    H143195   2.889   2.968  15.530 -0.4803 -0.4192 -0.0721
 7260TIP3    H243196   3.020   3.032  15.568 -0.3736 -1.0282  0.6026
 7261TIP3   OH243197   1.975   3.564   2.706  1.1660  0.7098  0.1331
 7261TIP3    H143198   2.066   3.550   2.732  0.9644 -2.5357 -0.4214
 7261TIP3    H243199   1.967   3.520   2.621 -0.9110  0.9249  0.1562
 7262TIP3   OH243200   1.352   3.577  16.358  1.3236  0.1227 -0.4187
 7262TIP3    H143201   1.424   3.568  16.295  0.9388  2.7923 -1.3190
 7262TIP3    H243202   1.306   3.656  16.332  1.0058  1.2632  3.0777
 7263TIP3   OH243203   2.239   0.255  12.822 -0.5887 -0.3749 -0.3262
 7263TIP3    H143204   2.313   0.242  12.762 -1.4243  1.5520 -1.8820
 7263TIP3    H243205   2.280   0.288  12.902  0.2963  1.0446 -1.2885
 7264TIP3   OH243206   4.305   1.423   4.239  1.0298 -0.4199  0.3729
 7264TIP3    H143207   4.304   1.332   4.210 -1.6458 -0.1198 -0.7252
 7264TIP3    H243208   4.392   1.455   4.215  1.0451 -1.9130 -1.8229
 7265TIP3   OH243209   0.767   1.404   4.471 -0.0085  0.2990  0.3299
 7265TIP3    H143210   0.767   1.492   4.509  1.9708 -0.5050  2.4463
 7265TIP3    H243211   0.725   1.349   4.537  1.2446 -0.7577  0.2913
 7266TIP3   OH243212   4.769   0.376   4.135 -0.0726  0.8094 -0.0237
 7266TIP3    H143213   4.810   0.299   4.095 -1.4220  0.8253 -1.5451
 7266TIP3    H243214   4.799   0.450   4.083  0.4862  1.2234  0.8592
 7267TIP3   OH243215   2.754   2.780  11.680 -0.3813  0.2542  0.3274
 7267TIP3    H143216   2.718   2.728  11.608  0.3882  0.0366  0.0875
 7267TIP3    H243217   2.704   2.861  11.680 -1.0097 -0.1294  0.1438
 7268TIP3   OH243218   2.417   5.596  15.492  0.1631 -0.4484 -0.3476
 7268TIP3    H143219   2.411   5.632  15.403  1.3722 -0.4865 -0.4546
 7268TIP3    H243220   2.327   5.599  15.524 -0.1458  0.4777 -1.2182
 7269TIP3   OH243221   1.836   0.196   3.882  0.2454  0.1220  0.1541
 7269TIP3    H143222   1.847   0.103   3.865 -0.2859  0.1972 -0.6572
 7269TIP3    H243223   1.771   0.225   3.818 -0.5952  0.7740  1.2629
 7270TIP3   OH243224   0.181   1.993  13.206 -0.1888 -0.5998  0.0154
 7270TIP3    H143225   0.124   1.933  13.157 -0.1299 -1.1825  0.6443
 7270TIP3    H243226   0.256   2.007  13.148 -0.4507 -0.7154 -0.3577
 7271TIP3   OH243227   0.112   2.881  15.364  0.2320 -0.5291 -0.2285
 7271TIP3    H143228   0.030   2.878  15.414 -0.4856 -0.4679 -1.3528
 7271TIP3    H243229   0.177   2.839  15.421  0.0243  1.5744  1.7370
 7272TIP3   OH243230   2.811   3.968   5.377 -0.1688 -0.6542 -0.0603
 7272TIP3    H143231   2.778   4.015   5.300  0.9244 -1.9850 -1.4024
 7272TIP3    H243232   2.847   4.036   5.433  0.1922  0.2617 -1.3444
 7273TIP3   OH243233   1.937   0.955  13.635  0.5155 -0.0261 -0.2502
 7273TIP3    H143234   2.025   0.988  13.654  0.4928  0.4349 -0.9015
 7273TIP3    H243235   1.882   1.034  13.635  0.2504 -0.2064 -0.6679
 7274TIP3   OH243236   3.936   2.914  14.879 -0.2120  0.4893  0.7499
 7274TIP3    H143237   3.889   2.844  14.924 -0.7021  0.9695  1.0004
 7274TIP3    H243238   3.970   2.873  14.799 -0.8709  0.0769  0.6750
 7275TIP3   OH243239   6.053   2.298   3.105  0.0826  0.4323  0.0241
 7275TIP3    H143240   6.098   2.287   3.189 -0.5915  0.5867  0.4102
 7275TIP3    H243241   6.109   2.359   3.056 -0.5625  1.9801  1.1512
 7276TIP3   OH243242   3.122   2.425  13.759 -0.4588 -0.2128  0.0430
 7276TIP3    H143243   3.189   2.413  13.827  0.1416  0.6716 -0.3750
 7276TIP3    H243244   3.139   2.512  13.724 -2.2405  0.3011  0.3649
 7277TIP3   OH243245   0.871   0.251   0.993  0.3529 -0.6290 -0.3097
 7277TIP3    H143246   0.938   0.307   1.032 -0.6868 -0.0561  0.7448
 7277TIP3    H243247   0.894   0.163   1.023  1.1644 -0.5793 -0.7577
 7278TIP3   OH243248   5.479   2.719  12.844  0.1718  0.4351  0.4245
 7278TIP3    H143249   5.544   2.671  12.792 -0.0760  1.5020 -0.9135
 7278TIP3    H243250   5.442   2.784  12.784 -1.2712  0.6695  1.5015
 7279TIP3   OH243251   6.106   4.411   2.446 -0.3991  0.1236 -0.0968
 7279TIP3    H143252   6.180   4.365   2.485  0.1113  0.6479 -0.4325
 7279TIP3    H243253   6.107   4.385   2.354 -1.4127 -0.8660  0.1418
 7280TIP3   OH243254   1.392   0.154   5.088 -0.2724  0.6852  0.2908
 7280TIP3    H143255   1.443   0.233   5.070  1.2841 -0.4778 -0.7013
 7280TIP3    H243256   1.386   0.151   5.183  1.4496  0.9578  0.4480
 7281TIP3   OH243257   3.530   0.559  15.335  0.0850  0.3543  0.2331
 7281TIP3    H143258   3.559   0.636  15.285  1.7782  0.2373  0.9673
 7281TIP3    H243259   3.610   0.526  15.376 -0.9274 -0.7128  1.4233
 7282TIP3   OH243260   6.664   1.032   4.916 -0.6907  0.0155 -0.1108
 7282TIP3    H143261   6.668   0.977   4.994 -1.4767 -0.3277 -0.3017
 7282TIP3    H243262   6.695   0.976   4.845  0.4782  0.4731  0.0132
 7283TIP3   OH243263   4.580   1.044   0.026 -0.0540  0.0840 -0.0244
 7283TIP3    H143264   4.584   1.010  -0.063 -1.1625 -0.1689  0.0046
 7283TIP3    H243265   4.522   0.984   0.072 -0.1170  0.6571  0.6621
 7284TIP3   OH243266   4.102   5.168  15.220  0.4261  0.2317  0.8307
 7284TIP3    H143267   4.085   5.203  15.132  1.5817 -1.7881 -0.2656
 7284TIP3    H243268   4.015   5.147  15.254  0.0316 -0.6508 -0.6096
 7285TIP3   OH243269   3.726   5.068  11.317  0.2479 -0.2412 -0.8120
 7285TIP3    H143270   3.805   5.021  11.342  1.3002  2.8629  2.4879
 7285TIP3    H243271   3.753   5.123  11.244  0.8812  0.1016 -0.3254
 7286TIP3   OH243272   2.293   6.447  12.106 -0.2816  0.3353 -0.2749
 7286TIP3    H143273   2.226   6.500  12.064  0.5948 -0.2730 -2.5629
 7286TIP3    H243274   2.248   6.405  12.180 -1.6381  2.1465 -0.0142
 7287TIP3   OH243275   6.076   5.846   2.570  0.2470 -0.8499 -0.0108
 7287TIP3    H143276   6.028   5.816   2.647  1.3523 -2.7947 -0.0147
 7287TIP3    H243277   6.066   5.775   2.506  1.3963 -0.3667 -0.7574
 7288TIP3   OH243278   1.424   1.128  16.137 -0.4493 -0.6757  0.3154
 7288TIP3    H143279   1.375   1.196  16.183 -0.5648 -0.9164  0.5514
 7288TIP3    H243280   1.361   1.056  16.128  0.0099 -1.1790  1.0643
 7289TIP3   OH243281   0.852   3.760   3.011  0.2556  0.6587 -0.6235
 7289TIP3    H143282   0.767   3.781   2.971 -0.5292 -0.2645  0.4986
 7289TIP3    H243283   0.836   3.678   3.058  1.4928  1.0514  0.5054
 7290TIP3   OH243284   0.370   6.374  12.665  0.3326 -0.3649  0.1644
 7290TIP3    H143285   0.280   6.350  12.642 -0.1835 -0.7006  2.3345
 7290TIP3    H243286   0.371   6.470  12.659  0.1462 -0.4147 -0.8674
 7291TIP3   OH243287   2.372   6.717  11.730 -0.4788 -0.2117  0.3938
 7291TIP3    H143288   2.462   6.716  11.761 -0.6836  1.9705  1.2435
 7291TIP3    H243289   2.320   6.694  11.807 -0.7660  1.3282  0.6989
 7292TIP3   OH243290   1.764   2.831  15.922 -0.0679 -0.2139 -0.4439
 7292TIP3    H143291   1.770   2.923  15.945 -0.7838 -0.6593  1.7724
 7292TIP3    H243292   1.847   2.793  15.953 -0.8895 -0.7555  1.2394
 7293TIP3   OH243293   3.311   1.077  12.005  0.1811  0.4914  0.3584
 7293TIP3    H143294   3.285   0.991  12.037  0.9826  0.0341 -0.1807
 7293TIP3    H243295   3.262   1.088  11.923  1.8370 -0.5357 -0.8617
 7294TIP3   OH243296   1.456   1.217  16.480  0.6621  0.3714 -0.1667
 7294TIP3    H143297   1.426   1.270  16.554 -1.4117 -0.3749 -0.4101
 7294TIP3    H243298   1.469   1.280  16.410  3.4128  1.1970  0.9651
 7295TIP3   OH243299   4.565   2.207  15.226 -0.3733 -0.1742  0.2053
 7295TIP3    H143300   4.579   2.301  15.238  0.0623 -0.3030  0.7338
 7295TIP3    H243301   4.492   2.201  15.164  0.3535  0.5132 -0.7282
 7296TIP3   OH243302   3.633   4.544  16.578  0.0507  0.1255  0.4622
 7296TIP3    H143303   3.646   4.482  16.649 -0.6986 -0.3541  0.1932
 7296TIP3    H243304   3.675   4.503  16.502 -0.6120 -0.1574  0.2386
 7297TIP3   OH243305   2.156   4.255   4.476 -0.5543 -0.0590  0.4389
 7297TIP3    H143306   2.195   4.200   4.408  1.7296 -0.7276  2.1433
 7297TIP3    H243307   2.157   4.199   4.554 -1.3666  1.2746  1.4359
 7298TIP3   OH243308   2.077   2.877  11.838 -0.2489 -0.5810 -0.9209
 7298TIP3    H143309   1.984   2.893  11.821 -0.0690  1.3364 -0.4176
 7298TIP3    H243310   2.078   2.802  11.897 -1.6996  0.9076  1.1691
 7299TIP3   OH243311   4.070   3.270  12.533  0.2193  0.1869  0.3290
 7299TIP3    H143312   4.003   3.236  12.474  0.8603  1.2027 -1.0491
 7299TIP3    H243313   4.066   3.213  12.610 -0.9068 -0.9532 -0.5326
 7300TIP3   OH243314   4.271   3.474   2.103  0.0874  0.3638 -0.1751
 7300TIP3    H143315   4.192   3.445   2.150  0.5550  1.9616  1.7755
 7300TIP3    H243316   4.242   3.547   2.049 -0.0152  0.0355 -0.5694
 7301TIP3   OH243317   3.401   5.066   1.092 -0.2994 -0.7002  0.1479
 7301TIP3    H143318   3.363   5.037   1.009 -1.5764 -1.2768  0.8882
 7301TIP3    H243319   3.370   5.156   1.102 -1.3778 -1.1040  0.6547
 7302TIP3   OH243320   5.847   4.858  13.284  0.0394 -0.0564  0.6164
 7302TIP3    H143321   5.890   4.774  13.272 -0.8944 -0.3298 -1.1633
 7302TIP3    H243322   5.789   4.846  13.359 -0.2975 -1.0885  0.1946
 7303TIP3   OH243323   4.577   0.701  12.349  0.0549 -0.0887 -0.3363
 7303TIP3    H143324   4.656   0.725  12.399 -0.1443  0.2374 -0.1754
 7303TIP3    H243325   4.605   0.629  12.293  0.5031  0.1086 -0.3692
 7304TIP3   OH243326   3.523   5.394  14.213 -0.0630 -0.0869  0.0900
 7304TIP3    H143327   3.440   5.440  14.199  1.1667  1.6761 -2.2097
 7304TIP3    H243328   3.521   5.322  14.151 -0.2522 -0.6303  0.7209
 7305TIP3   OH243329   5.203   2.518   1.750  0.0729 -0.1110  0.1609
 7305TIP3    H143330   5.275   2.500   1.810  0.4684 -1.7210 -0.7257
 7305TIP3    H243331   5.218   2.458   1.676 -1.1524  0.8242 -0.8980
 7306TIP3   OH243332   5.972   0.281   4.056  0.2879  0.1437 -0.8124
 7306TIP3    H143333   5.920   0.296   4.135 -0.0676  1.4737 -1.2801
 7306TIP3    H243334   5.964   0.362   4.006  0.5912 -0.6335 -2.1746
 7307TIP3   OH243335   2.018   0.139   4.803  0.3341 -0.0075  0.3776
 7307TIP3    H143336   2.105   0.098   4.807  0.1095 -0.5075  0.2932
 7307TIP3    H243337   1.984   0.115   4.717  0.1558  0.2735  0.3707
 7308TIP3   OH243338   3.591   3.682  13.243  0.1963  0.1140  0.5030
 7308TIP3    H143339   3.646   3.649  13.314  0.8421  2.4376  1.1768
 7308TIP3    H243340   3.513   3.717  13.287 -0.1741  0.0701 -0.1033
 7309TIP3   OH243341   4.741   3.900   1.813  0.7767  0.0662 -0.7389
 7309TIP3    H143342   4.735   3.954   1.891  1.3389  0.9865 -1.3210
 7309TIP3    H243343   4.783   3.819   1.842 -1.4327 -0.7411  0.4637
 7310TIP3   OH243344   3.890   6.446  15.131 -0.1719  0.5862  0.1232
 7310TIP3    H143345   3.832   6.395  15.187 -1.8229  1.7647 -0.4433
 7310TIP3    H243346   3.899   6.394  15.052 -2.3679  1.3735 -0.7153
 7311TIP3   OH243347   5.142   5.621   5.948  0.2156  0.1412  0.0061
 7311TIP3    H143348   5.125   5.529   5.931 -0.9432  0.4595 -0.7041
 7311TIP3    H243349   5.230   5.623   5.986 -0.2985 -1.3791  1.3674
 7312TIP3   OH243350   0.358   0.300  10.948  0.6225  0.3795  0.5317
 7312TIP3    H143351   0.296   0.372  10.938  1.2484  1.0968  1.5813
 7312TIP3    H243352   0.393   0.286  10.861 -2.6472 -1.6387 -0.6554
 7313TIP3   OH243353   6.750   2.765  13.226  0.2187 -0.1269 -0.1808
 7313TIP3    H143354   6.721   2.807  13.145  2.2428  1.1159 -0.3244
 7313TIP3    H243355   6.841   2.792  13.236 -0.1676  0.4414  2.9297
 7314TIP3   OH243356   5.987   0.512  16.679  0.1261  0.1204  0.4542
 7314TIP3    H143357   5.950   0.587  16.633 -0.9461 -1.7926 -2.0340
 7314TIP3    H243358   6.081   0.520  16.666 -0.0122  0.8289 -0.1613
 7315TIP3   OH243359   2.887   1.317  12.622  0.0387 -0.0182 -0.0529
 7315TIP3    H143360   2.923   1.394  12.579  0.7239 -0.3731 -0.1360
 7315TIP3    H243361   2.864   1.347  12.710 -1.8378  0.8295 -0.8065
 7316TIP3   OH243362   1.117   0.861  16.687  0.3092  0.0721  0.2092
 7316TIP3    H143363   1.159   0.857  16.601  2.7543 -2.1131  1.3881
 7316TIP3    H243364   1.068   0.779  16.694  1.9950 -0.8902  1.6836
 7317TIP3   OH243365   2.750   4.039  15.481  0.2568 -0.2199  0.1075
 7317TIP3    H143366   2.832   4.045  15.433  1.1499 -0.5957  1.5300
 7317TIP3    H243367   2.739   4.126  15.519  1.5086 -0.9111  2.2240
 7318TIP3   OH243368   2.408   3.638   0.313  0.5647 -0.0975  0.6182
 7318TIP3    H143369   2.323   3.594   0.307  0.0955  0.8201  0.4709
 7318TIP3    H243370   2.397   3.703   0.383  0.3146  1.8153 -1.1128
 7319TIP3   OH243371   1.417   1.691  15.353 -0.1177  0.2960  1.1570
 7319TIP3    H143372   1.364   1.617  15.325 -1.9391  1.6313  0.8969
 7319TIP3    H243373   1.419   1.684  15.448  1.4691 -1.1955  1.0518
 7320TIP3   OH243374   5.017   2.761   4.792 -0.0251 -0.8608 -0.4428
 7320TIP3    H143375   5.090   2.807   4.834 -1.4453  1.2304 -0.1221
 7320TIP3    H243376   5.057   2.682   4.755  2.2368 -0.1853  0.3792
 7321TIP3   OH243377   0.657   4.428  16.608  0.6304  0.1176 -0.5257
 7321TIP3    H143378   0.641   4.513  16.568  0.9314 -0.1113 -1.1422
 7321TIP3    H243379   0.573   4.383  16.602 -0.1231  1.0717  1.6084
 7322TIP3   OH243380   0.699   6.737   5.134  0.4219  0.6032 -0.3240
 7322TIP3    H143381   0.707   6.703   5.223 -1.3715  1.6351  0.2952
 7322TIP3    H243382   0.764   6.807   5.130  1.5527 -0.4180 -0.3617
 7323TIP3   OH243383   2.194   3.130  14.007 -0.0306  1.0152 -0.1593
 7323TIP3    H143384   2.281   3.170  14.008 -0.5037  2.1111  2.1187
 7323TIP3    H243385   2.141   3.185  14.064 -0.8636 -2.5503  2.8790
 7324TIP3   OH243386   3.866   6.630   5.351  0.0769  0.3805  0.1337
 7324TIP3    H143387   3.928   6.563   5.320  0.1952  0.5502 -0.0051
 7324TIP3    H243388   3.914   6.677   5.419  0.2635  0.7900 -0.2709
 7325TIP3   OH243389   3.386   4.588  14.851  0.5913 -0.1186  0.2885
 7325TIP3    H143390   3.357   4.504  14.888  1.3539  0.3421  2.0232
 7325TIP3    H243391   3.317   4.650  14.873 -0.1563 -0.3257 -1.3289
 7326TIP3   OH243392   4.465   6.469  15.858 -0.1468 -0.2395  0.1569
 7326TIP3    H143393   4.495   6.510  15.939 -1.0688 -0.0053  0.4004
 7326TIP3    H243394   4.404   6.401  15.887 -2.4361  1.4535 -0.3363
 7327TIP3   OH243395   4.171   4.877  11.849 -0.2237 -0.1248 -0.2456
 7327TIP3    H143396   4.199   4.801  11.799  0.6336 -0.2735  0.4297
 7327TIP3    H243397   4.188   4.854  11.940 -1.4325  0.2713  0.1038
 7328TIP3   OH243398   5.907   5.898  14.699 -0.2801 -0.1540  0.4463
 7328TIP3    H143399   5.984   5.897  14.757 -0.1458  0.2965  0.2846
 7328TIP3    H243400   5.894   5.991  14.679 -0.4839 -0.2861 -0.0390
 7329TIP3   OH243401   3.815   5.468  16.501 -0.0468  0.1335 -0.2375
 7329TIP3    H143402   3.854   5.469  16.414 -0.7244 -0.5771 -0.5581
 7329TIP3    H243403   3.762   5.547  16.505 -0.1020  0.1092 -0.5082
 7330TIP3   OH243404   6.075   4.052   5.991  0.3072 -0.8254 -0.3034
 7330TIP3    H143405   6.105   3.976   5.941 -0.6794 -1.5748  0.2194
 7330TIP3    H243406   6.014   4.016   6.056 -0.7159  0.4979 -0.4952
 7331TIP3   OH243407   0.459   5.800   4.564 -0.1560 -0.1338  0.6169
 7331TIP3    H143408   0.433   5.785   4.473  0.9874 -0.4185  0.3263
 7331TIP3    H243409   0.390   5.857   4.599  0.0563  1.0927 -0.8216
 7332TIP3   OH243410   0.873   5.909  12.325 -0.3558  0.3936 -0.3740
 7332TIP3    H143411   0.882   5.859  12.407  1.0956  2.7558  1.0106
 7332TIP3    H243412   0.814   5.981  12.347  1.5724  2.1989 -0.7438
 7333TIP3   OH243413   6.198   1.762  16.927 -0.2810 -0.2935  0.2372
 7333TIP3    H143414   6.278   1.727  16.888 -0.6101  0.9631 -1.6559
 7333TIP3    H243415   6.129   1.702  16.899 -0.2187 -0.6538  0.8178
 7334TIP3   OH243416   3.441   1.907   2.428  0.3018  0.1304  0.0094
 7334TIP3    H143417   3.364   1.963   2.417  0.2446  0.0193 -0.1643
 7334TIP3    H243418   3.410   1.820   2.404  0.3179 -0.0257  0.5601
 7335TIP3   OH243419   0.348   3.403   2.843  0.2519  0.3687 -0.0784
 7335TIP3    H143420   0.321   3.312   2.857 -1.2736  0.9337  0.9419
 7335TIP3    H243421   0.266   3.452   2.836  1.0363  1.7651  0.0400
 7336TIP3   OH243422   0.754   3.844   2.351  0.5057 -0.6677  0.3197
 7336TIP3    H143423   0.823   3.778   2.362 -1.1870 -2.8128 -1.2956
 7336TIP3    H243424   0.694   3.829   2.424  0.1148 -0.9108 -0.0505
 7337TIP3   OH243425   2.785   0.289  12.265 -0.6634 -0.4392 -0.4447
 7337TIP3    H143426   2.859   0.296  12.325 -0.4900  2.9408 -0.8761
 7337TIP3    H243427   2.723   0.231  12.310 -0.2258  1.2951  2.6777
 7338TIP3   OH243428   1.380   3.926   4.380 -0.4309  0.2864  0.1067
 7338TIP3    H143429   1.307   3.864   4.386  0.5922 -1.2451 -1.7591
 7338TIP3    H243430   1.352   3.990   4.315 -0.9003  0.9340  0.9311
 7339TIP3   OH243431   3.161   6.637  13.861 -0.5225  0.3453  0.3690
 7339TIP3    H143432   3.220   6.607  13.791 -0.6998  0.4069  0.1903
 7339TIP3    H243433   3.142   6.559  13.912 -0.5629  0.2578  0.2199
 7340TIP3   OH243434   2.388   5.989   3.331 -0.3010 -0.2161  0.3208
 7340TIP3    H143435   2.300   6.024   3.314  0.7059  1.7482 -1.1533
 7340TIP3    H243436   2.448   6.059   3.306  1.7703 -2.0584 -0.1987
 7341TIP3   OH243437   0.781   0.379  16.672  0.5852  0.2834  0.3812
 7341TIP3    H143438   0.866   0.415  16.696  0.1717  0.1371  2.2383
 7341TIP3    H243439   0.792   0.351  16.581  2.8859 -0.7802  0.8999
 7342TIP3   OH243440   3.300   3.463   2.251  0.1440  0.4925 -0.3034
 7342TIP3    H143441   3.376   3.428   2.298  1.0890  0.0294 -2.0469
 7342TIP3    H243442   3.246   3.504   2.318  0.7356 -1.2734  1.3620
 7343TIP3   OH243443   5.835   0.208   5.483 -0.1307 -0.5301  0.1695
 7343TIP3    H143444   5.868   0.165   5.403  2.8871 -0.9670  1.5349
 7343TIP3    H243445   5.847   0.301   5.467 -1.4689 -0.4766 -0.6429
 7344TIP3   OH243446   6.541   2.897  10.465 -0.2898  0.1452  0.2808
 7344TIP3    H143447   6.482   2.832  10.427 -1.5641  1.8767 -0.8871
 7344TIP3    H243448   6.538   2.970  10.403  3.1688  0.3269  0.1338
 7345TIP3   OH243449   4.322   0.821   3.788 -0.2393  0.7380  0.1137
 7345TIP3    H143450   4.414   0.838   3.772 -0.1497 -1.0924 -1.6784
 7345TIP3    H243451   4.277   0.899   3.757  0.5909  0.7642 -1.0948
 7346TIP3   OH243452   6.435   0.384   1.475 -0.2026  0.0124  0.2230
 7346TIP3    H143453   6.416   0.333   1.553  0.3823  0.0847  0.4162
 7346TIP3    H243454   6.352   0.426   1.453 -0.8981 -1.5623 -0.3495
 7347TIP3   OH243455   0.381   1.226  14.227 -0.5327 -0.3661 -0.4146
 7347TIP3    H143456   0.305   1.173  14.250  0.1770 -1.6338 -0.8640
 7347TIP3    H243457   0.453   1.187  14.276 -0.2745  1.2659  0.5766
 7348TIP3   OH243458   4.303   6.367  14.683  0.2572  0.2118  0.2508
 7348TIP3    H143459   4.340   6.282  14.663 -0.5745  0.0560 -0.7006
 7348TIP3    H243460   4.354   6.399  14.758  0.5329 -1.1321  0.6534
 7349TIP3   OH243461   0.087   1.601   1.361 -0.2968 -0.3528  0.7383
 7349TIP3    H143462   0.007   1.584   1.311 -0.4611  1.1385  0.4550
 7349TIP3    H243463   0.073   1.686   1.401  0.7154 -0.5669  1.6010
 7350TIP3   OH243464   1.067   4.841   5.282 -0.1389  0.0424  0.1979
 7350TIP3    H143465   1.032   4.872   5.198 -0.3669 -0.5558  0.0665
 7350TIP3    H243466   1.160   4.828   5.266 -0.0834  0.4257  0.1892
 7351TIP3   OH243467   3.927   5.768  15.988  0.1615  0.0167 -0.1461
 7351TIP3    H143468   3.889   5.784  15.901 -0.7314 -1.2393 -0.0249
 7351TIP3    H243469   3.901   5.843  16.041 -0.8692 -0.0924 -0.4854
 7352TIP3   OH243470   6.582   3.918   0.801  0.0978  0.7896 -0.2163
 7352TIP3    H143471   6.521   3.882   0.737  1.0244  0.0801 -0.7447
 7352TIP3    H243472   6.527   3.954   0.870 -0.9505 -1.9074  0.4925
 7353TIP3   OH243473   5.892   6.079   4.505 -0.1627  0.1216  0.1343
 7353TIP3    H143474   5.817   6.079   4.445 -0.1386  0.2668  0.1037
 7353TIP3    H243475   5.967   6.061   4.449 -0.0482  0.9628 -0.0007
 7354TIP3   OH243476   3.725   0.939   3.755  0.5024  0.2675  0.1650
 7354TIP3    H143477   3.812   0.933   3.715  0.2940 -0.7997 -0.1535
 7354TIP3    H243478   3.679   1.003   3.701 -0.6481 -2.9410 -3.0869
 7355TIP3   OH243479   2.946   1.416   3.124 -0.5892 -0.0681 -0.0096
 7355TIP3    H143480   2.867   1.418   3.069  0.0199  1.1917 -0.8901
 7355TIP3    H243481   3.009   1.365   3.074 -0.1564  0.7581 -0.3298
 7356TIP3   OH243482   6.280   1.621  15.646  0.0545  0.0636 -0.2293
 7356TIP3    H143483   6.361   1.570  15.651 -0.7716 -1.1283  2.6858
 7356TIP3    H243484   6.289   1.672  15.565  3.6255 -0.1336 -0.1167
 7357TIP3   OH243485   2.292   4.062  15.405 -0.5187 -0.5431  0.0128
 7357TIP3    H143486   2.301   3.999  15.333  0.1950 -0.2630 -0.1469
 7357TIP3    H243487   2.358   4.129  15.387 -1.4512  0.4063  0.0358
 7358TIP3   OH243488   1.738   4.815  14.358 -0.3342  0.2793 -0.0625
 7358TIP3    H143489   1.708   4.725  14.371  1.1174 -0.4479 -1.2552
 7358TIP3    H243490   1.764   4.818  14.266  2.1830  1.0773  0.5861
 7359TIP3   OH243491   2.131   0.413  15.529  0.4129 -0.3845  0.0912
 7359TIP3    H143492   2.106   0.389  15.618 -2.5941  0.0607 -0.5088
 7359TIP3    H243493   2.054   0.391  15.476  0.9169  2.1840 -1.8943
 7360TIP3   OH243494   5.040   2.614   3.419  0.5258  0.7151 -0.1815
 7360TIP3    H143495   4.951   2.579   3.419  0.7381  0.1086  1.0206
 7360TIP3    H243496   5.082   2.572   3.495  2.0590  0.4051 -1.1599
 7361TIP3   OH243497   6.744   0.106  17.226 -0.2586 -0.7305  0.1165
 7361TIP3    H143498   6.714   0.169  17.161 -0.0576 -0.6603  0.0912
 7361TIP3    H243499   6.718   0.144  17.310  1.3940  0.2615  0.2367
 7362TIP3   OH243500   1.277   0.677  15.913  0.1818  0.5315 -0.0214
 7362TIP3    H143501   1.185   0.686  15.889  0.0959  1.5474  0.6178
 7362TIP3    H243502   1.324   0.719  15.840  0.2430 -1.2399 -1.0468
 7363TIP3   OH243503   3.109   6.445  12.956  0.0097  0.0183 -0.4180
 7363TIP3    H143504   3.036   6.413  13.008 -0.7534  2.2443 -0.0055
 7363TIP3    H243505   3.127   6.532  12.991  1.8065  0.1676 -1.5816
 7364TIP3   OH243506   5.629   3.865  11.879 -0.1107 -0.2433 -0.3853
 7364TIP3    H143507   5.631   3.958  11.903  0.7841 -0.3645  0.0461
 7364TIP3    H243508   5.669   3.863  11.792 -0.6451 -0.1602 -0.6352
 7365TIP3   OH243509   4.534   3.606  11.925  0.5309  0.0019 -0.2235
 7365TIP3    H143510   4.517   3.687  11.973  2.1356  0.1649  0.1169
 7365TIP3    H243511   4.620   3.618  11.886  0.8589 -1.5941 -0.0705
 7366TIP3   OH243512   5.415   3.047  13.197  0.4419 -0.1113 -0.1765
 7366TIP3    H143513   5.336   3.078  13.152  0.7266  1.4894  0.3654
 7366TIP3    H243514   5.467   3.006  13.128 -0.6003 -0.7004 -0.6405
 7367TIP3   OH243515   2.339   4.078   2.469  0.3215 -0.0471 -0.0769
 7367TIP3    H143516   2.318   3.985   2.461 -0.8248 -0.0024  1.8325
 7367TIP3    H243517   2.425   4.086   2.428 -0.6632 -1.4250 -2.6500
 7368TIP3   OH243518   1.785   4.043  12.123 -0.0660  0.8578  0.3854
 7368TIP3    H143519   1.712   4.054  12.185  0.5081 -0.7594  1.4082
 7368TIP3    H243520   1.761   3.966  12.072  1.4437 -0.4543  1.5653
 7369TIP3   OH243521   0.550   0.635  14.021  0.0758 -0.1895  0.2280
 7369TIP3    H143522   0.604   0.620  13.943  1.0877 -2.8571  1.3202
 7369TIP3    H243523   0.604   0.605  14.094 -0.4295  3.1410  2.1995
 7370TIP3   OH243524   5.383   1.424   4.803 -0.4662 -0.3351  0.3629
 7370TIP3    H143525   5.407   1.487   4.735 -0.3663  0.8916  1.4943
 7370TIP3    H243526   5.434   1.452   4.880 -0.9440 -1.3935  1.0839
 7371TIP3   OH243527   3.502   4.640   4.397 -0.3832  0.2572 -0.0399
 7371TIP3    H143528   3.445   4.665   4.325 -1.8841  2.0270  1.6374
 7371TIP3    H243529   3.569   4.708   4.400 -0.8767  0.7226  0.7727
 7372TIP3   OH243530   5.003   4.680   3.187 -0.5059  0.4842 -0.2794
 7372TIP3    H143531   5.045   4.597   3.162  0.3082  0.2475  1.6727
 7372TIP3    H243532   5.052   4.708   3.265 -3.1684  0.8520  1.3629
 7373TIP3   OH243533   4.773   0.094  11.341 -0.8853 -0.5223  0.3602
 7373TIP3    H143534   4.768   0.189  11.354 -4.6854 -0.7772  2.1121
 7373TIP3    H243535   4.735   0.079  11.254  0.9511 -0.4372 -0.5007
 7374TIP3   OH243536   3.280   5.944   0.120 -0.0874 -0.3143 -0.6433
 7374TIP3    H143537   3.248   5.979   0.203 -2.3704 -2.5572 -0.4595
 7374TIP3    H243538   3.352   5.886   0.144  0.2508  0.1912 -0.4143
 7375TIP3   OH243539   0.537   3.193  14.510  0.8231  0.1418 -0.6837
 7375TIP3    H143540   0.548   3.273  14.458  1.3125 -1.6189 -3.5430
 7375TIP3    H243541   0.542   3.122  14.445 -0.3861 -2.1874  1.5959
 7376TIP3   OH243542   5.992   2.060   3.965 -0.5711 -0.3201 -0.2378
 7376TIP3    H143543   6.079   2.053   4.005 -1.3356  0.4605  1.6724
 7376TIP3    H243544   5.935   2.011   4.024 -1.8915  1.5645  0.1271
 7377TIP3   OH243545   0.818   4.522   4.260  0.6889  0.6847 -0.4848
 7377TIP3    H143546   0.903   4.498   4.222  0.3306 -0.1188 -0.8061
 7377TIP3    H243547   0.788   4.442   4.303 -1.6592 -0.3230 -3.6358
 7378TIP3   OH243548   3.766   0.810   2.634  0.2346 -0.1197 -0.6735
 7378TIP3    H143549   3.854   0.848   2.640  0.0189  0.4889 -1.2671
 7378TIP3    H243550   3.776   0.737   2.572 -0.0275  1.0417 -2.1308
 7379TIP3   OH243551   6.398   3.073  10.320  0.3427  0.4730 -0.8642
 7379TIP3    H143552   6.370   2.986  10.290  0.2981  0.2755 -0.2598
 7379TIP3    H243553   6.338   3.134  10.276  0.8044  0.2581 -1.8215
 7380TIP3   OH243554   1.295   5.788   0.544 -0.3699  0.1072  0.1818
 7380TIP3    H143555   1.272   5.837   0.465  0.2558  1.1369  0.6275
 7380TIP3    H243556   1.383   5.817   0.566  0.2349 -1.5996  0.1826
 7381TIP3   OH243557   3.227   2.788   4.444 -0.2235 -0.1436 -1.2092
 7381TIP3    H143558   3.304   2.813   4.394 -1.2487  0.3490 -2.6004
 7381TIP3    H243559   3.161   2.854   4.421 -0.8992 -0.1993  0.4059
 7382TIP3   OH243560   6.581   1.784  12.576 -0.6261  0.0517 -0.8680
 7382TIP3    H143561   6.512   1.731  12.537 -0.1237 -1.0697 -0.2810
 7382TIP3    H243562   6.651   1.722  12.594  0.4585  1.1338 -1.2599
 7383TIP3   OH243563   0.980   4.639  15.089 -0.3410 -0.1874 -0.1843
 7383TIP3    H143564   0.975   4.621  15.183 -0.3491 -1.9714 -0.4876
 7383TIP3    H243565   1.073   4.655  15.073 -0.2015 -0.7730  0.0021
 7384TIP3   OH243566   6.470   0.123  12.000 -0.0677 -0.4163  0.1266
 7384TIP3    H143567   6.515   0.067  11.937  0.2641 -2.3716  1.9971
 7384TIP3    H243568   6.538   0.149  12.062 -0.3427  1.6302 -0.3588
 7385TIP3   OH243569   4.350   5.677  11.113 -0.2301 -0.6397  0.2161
 7385TIP3    H143570   4.401   5.753  11.085 -1.1891  0.6226  1.7217
 7385TIP3    H243571   4.415   5.609  11.128  0.5950 -0.3412 -1.7441
 7386TIP3   OH243572   0.867   3.105  13.153 -0.0777  0.0273 -0.6967
 7386TIP3    H143573   0.851   3.165  13.081 -1.8843  2.1402  1.3258
 7386TIP3    H243574   0.798   3.038  13.145  0.2296 -0.2124 -1.3664
 7387TIP3   OH243575   0.769   3.563  15.478  0.1156  0.4941 -0.3629
 7387TIP3    H143576   0.760   3.617  15.557  2.2140  0.7208 -0.2077
 7387TIP3    H243577   0.737   3.477  15.504 -0.4568  0.9025  0.3211
 7388TIP3   OH243578   4.401   4.627  15.740  0.5743 -0.7681  0.3726
 7388TIP3    H143579   4.325   4.659  15.690 -1.9007  0.5243  4.4778
 7388TIP3    H243580   4.463   4.700  15.737  0.9107 -1.0583 -1.3503
 7389TIP3   OH243581   3.716   1.419  11.976 -0.1116 -0.1522  0.0181
 7389TIP3    H143582   3.630   1.400  12.013 -0.3404 -0.5842 -0.7310
 7389TIP3    H243583   3.778   1.388  12.043 -0.5255 -0.3605  0.3079
 7390TIP3   OH243584   2.013   6.286   0.472  0.3617  0.4464 -0.2568
 7390TIP3    H143585   2.056   6.316   0.552 -0.8924  0.5738  0.3984
 7390TIP3    H243586   2.079   6.232   0.428  1.6496  1.7283  0.0151
 7391TIP3   OH243587   5.046   1.391  12.503  0.3486 -0.5241 -0.0253
 7391TIP3    H143588   4.951   1.400  12.511  0.2417 -1.0705 -0.6351
 7391TIP3    H243589   5.070   1.450  12.431  0.5556  0.0430  0.4957
 7392TIP3   OH243590   4.282   4.042  14.040 -0.7285  0.0142  0.0195
 7392TIP3    H143591   4.318   3.994  14.114 -0.3787  1.1412  0.6031
 7392TIP3    H243592   4.228   3.978  13.994  1.7049 -1.6742 -0.6954
 7393TIP3   OH243593   1.377   3.038   2.276 -0.2479 -0.1874 -0.1501
 7393TIP3    H143594   1.448   2.986   2.313  0.7393 -0.5468 -2.3886
 7393TIP3    H243595   1.301   2.980   2.278 -0.0846 -0.3857  0.7453
 7394TIP3   OH243596   0.996   3.345   1.652  0.6782  0.1976  0.0863
 7394TIP3    H143597   1.083   3.377   1.673  1.6355 -1.2680 -1.4399
 7394TIP3    H243598   0.937   3.416   1.679  2.5231  2.4889 -1.5337
 7395TIP3   OH243599   3.608   3.478   5.967  0.3033  0.7660  0.2045
 7395TIP3    H143600   3.634   3.431   6.046 -3.5788  0.3680  1.4342
 7395TIP3    H243601   3.618   3.414   5.897  3.4906  1.0254  0.2871
 7396TIP3   OH243602   1.568   3.581  16.101 -0.1614  0.4409  0.4980
 7396TIP3    H143603   1.509   3.509  16.123 -1.3055  1.1123 -0.2532
 7396TIP3    H243604   1.654   3.553  16.132 -0.7533 -0.8536  1.0143
 7397TIP3   OH243605   5.679   4.201  10.469  0.3818  0.2705  0.2490
 7397TIP3    H143606   5.644   4.280  10.512 -0.7035  0.1569 -0.3826
 7397TIP3    H243607   5.642   4.129  10.519 -1.1783  0.1273 -1.0121
 7398TIP3   OH243608   5.731   5.926  13.573  0.6935 -0.3136  0.3119
 7398TIP3    H143609   5.683   5.867  13.515 -0.2507  1.5114 -0.8912
 7398TIP3    H243610   5.787   5.977  13.514  2.8304 -1.1828  1.5092
 7399TIP3   OH243611   6.340   4.108  14.967 -0.9482 -0.0893  0.5460
 7399TIP3    H143612   6.402   4.168  15.008 -1.0844 -0.1026  0.7695
 7399TIP3    H243613   6.388   4.074  14.891 -0.1261 -1.2246  1.5305
 7400TIP3   OH243614   6.606   1.132   1.971  0.0869 -0.3106  0.7708
 7400TIP3    H143615   6.665   1.058   1.959  0.2789 -0.0667  0.1658
 7400TIP3    H243616   6.600   1.171   1.884 -2.3353 -1.3430  0.4083
 7401TIP3   OH243617   2.070   2.665  10.950  0.0950 -0.3726  0.3085
 7401TIP3    H143618   2.149   2.719  10.952 -0.6134  0.6903  0.3477
 7401TIP3    H243619   2.003   2.720  10.991 -1.2397 -0.2800 -1.8506
 7402TIP3   OH243620   3.569   2.309  13.518 -0.6762  0.2746  0.5405
 7402TIP3    H143621   3.640   2.372  13.526 -0.4537  0.4331 -1.9295
 7402TIP3    H243622   3.603   2.242  13.458 -1.6474 -1.1058  1.4776
 7403TIP3   OH243623   5.740   4.962   1.429 -0.2225 -0.1846  0.1131
 7403TIP3    H143624   5.684   4.916   1.367  2.8989 -1.0537 -2.3442
 7403TIP3    H243625   5.779   4.894   1.483  0.5119  0.0867 -0.0579
 7404TIP3   OH243626   4.788   2.999  14.522 -0.0803 -0.1527  0.3626
 7404TIP3    H143627   4.742   3.083  14.524 -1.7527 -0.9776 -0.9103
 7404TIP3    H243628   4.764   2.958  14.605 -0.0179  0.2312  0.5765
 7405TIP3   OH243629   1.634   5.004   4.637  0.2086 -0.1124 -0.0782
 7405TIP3    H143630   1.729   5.017   4.633  0.2018 -0.0469 -0.0170
 7405TIP3    H243631   1.615   4.992   4.730  0.1656 -0.1868 -0.0964
 7406TIP3   OH243632   5.166   1.937  16.724  0.3753 -0.3151  0.0921
 7406TIP3    H143633   5.226   1.873  16.762  2.4442  0.5800 -1.4452
 7406TIP3    H243634   5.106   1.960  16.795  1.4592 -1.7189  1.5279
 7407TIP3   OH243635   2.899   6.382   1.920  0.1420  0.0230 -0.1305
 7407TIP3    H143636   2.809   6.350   1.927 -0.5061  1.8247  0.3308
 7407TIP3    H243637   2.910   6.404   1.827  0.7269 -1.7963 -0.5317
 7408TIP3   OH243638   0.286   4.715   0.090  0.3774 -0.2097 -0.0944
 7408TIP3    H143639   0.336   4.768   0.152  1.0222 -1.2691  0.3384
 7408TIP3    H243640   0.218   4.673   0.143  1.4633 -1.7993  0.1240
 7409TIP3   OH243641   2.758   2.943   5.517  0.0494 -0.3226 -0.1475
 7409TIP3    H143642   2.729   2.852   5.521 -0.8643 -0.0785 -0.9767
 7409TIP3    H243643   2.801   2.950   5.432  1.1585 -0.2605  0.3966
 7410TIP3   OH243644   4.459   5.377   4.801  0.0053 -0.0735  0.2042
 7410TIP3    H143645   4.490   5.345   4.886  0.8656 -1.9055 -0.7460
 7410TIP3    H243646   4.450   5.472   4.813  2.3445  0.0404  1.6911
 7411TIP3   OH243647   2.775   1.112   5.257 -0.0252 -0.1624 -0.0555
 7411TIP3    H143648   2.695   1.095   5.206  0.1441 -1.2279  0.0041
 7411TIP3    H243649   2.834   1.156   5.195 -0.2126 -0.4820 -0.4671
 7412TIP3   OH243650   4.963   6.776   2.897  0.4506  0.1873  0.4003
 7412TIP3    H143651   4.939   6.812   2.811  0.7706 -0.1077  0.1825
 7412TIP3    H243652   4.888   6.723   2.923  1.3773 -1.9483 -0.9563
 7413TIP3   OH243653   6.338   1.435   3.360  0.2830  0.2526 -0.1949
 7413TIP3    H143654   6.276   1.434   3.433  0.2000  0.1345 -0.2670
 7413TIP3    H243655   6.418   1.399   3.397 -0.4287 -2.0559 -0.7500
 7414TIP3   OH243656   3.048   3.450  12.357 -0.4225  0.5267 -0.0304
 7414TIP3    H143657   3.094   3.473  12.277  1.4444  0.8373  1.0693
 7414TIP3    H243658   2.998   3.528  12.379 -0.3630  0.7011 -0.5114
 7415TIP3   OH243659   5.241   1.221  17.226 -0.0226 -0.3576  0.0505
 7415TIP3    H143660   5.278   1.301  17.262  1.4358 -1.2649  0.6738
 7415TIP3    H243661   5.146   1.235  17.228  0.1819  1.1303  0.6108
 7416TIP3   OH243662   4.654   5.436   2.544  0.7231  0.3107  0.0048
 7416TIP3    H143663   4.694   5.365   2.493 -1.0728 -0.5511 -0.2835
 7416TIP3    H243664   4.650   5.402   2.633  0.3463  0.2447 -0.0335
 7417TIP3   OH243665   1.471   6.072  11.448  0.1398 -0.3003 -0.6037
 7417TIP3    H143666   1.507   5.986  11.426 -0.4443 -0.3118 -1.5474
 7417TIP3    H243667   1.410   6.092  11.377  0.1486  0.8288 -0.3130
 7418TIP3   OH243668   5.020   3.884   3.565  0.2038 -0.1327  0.6676
 7418TIP3    H143669   5.090   3.922   3.511 -0.6003  1.0846  0.4357
 7418TIP3    H243670   4.941   3.896   3.512 -0.4303  0.0573  1.6450
 7419TIP3   OH243671   5.991   3.643   5.837 -0.2699  0.6523 -0.2748
 7419TIP3    H143672   5.983   3.552   5.812  1.2945 -0.1579  1.8556
 7419TIP3    H243673   5.967   3.644   5.930  0.3172  2.2872 -0.1059
 7420TIP3   OH243674   1.746   2.262   0.659  0.2945 -0.1548  0.6430
 7420TIP3    H143675   1.802   2.339   0.671  1.9174 -1.5185  2.2452
 7420TIP3    H243676   1.676   2.273   0.723 -2.3108  2.2837 -2.3251
 7421TIP3   OH243677   5.838   5.115   2.701  0.5889 -0.2978  0.1490
 7421TIP3    H143678   5.842   5.019   2.708  1.3204 -0.5799 -2.8118
 7421TIP3    H243679   5.745   5.136   2.709  0.2784 -1.3988 -0.3200
 7422TIP3   OH243680   2.811   6.614  15.322  0.3898  0.4293 -0.3286
 7422TIP3    H143681   2.731   6.578  15.282  0.0375  1.5392 -0.6495
 7422TIP3    H243682   2.860   6.536  15.350 -0.7431 -0.2824 -0.2241
 7423TIP3   OH243683   3.865   5.429   0.521 -0.4845  0.0889  0.2117
 7423TIP3    H143684   3.781   5.383   0.519  0.1188 -1.0799  0.7200
 7423TIP3    H243685   3.907   5.405   0.439  0.3764 -1.3800  1.0411
 7424TIP3   OH243686   4.660   3.225   4.417 -0.0974  0.2603  0.3428
 7424TIP3    H143687   4.678   3.228   4.511  0.1754 -1.4450  0.3659
 7424TIP3    H243688   4.746   3.227   4.376 -0.2305  1.7754  0.0586
 7425TIP3   OH243689   0.075   2.252  14.546 -0.1382 -0.0916 -0.5018
 7425TIP3    H143690   0.138   2.181  14.551 -1.8421 -1.6000  1.0083
 7425TIP3    H243691   0.128   2.332  14.549  1.7432 -1.2653 -0.8709
 7426TIP3   OH243692   1.447   6.725  11.109 -0.6117 -0.4960 -0.5364
 7426TIP3    H143693   1.393   6.785  11.059 -1.2111 -1.3503 -0.9259
 7426TIP3    H243694   1.416   6.638  11.085  0.5171 -0.9843 -0.2939
 7427TIP3   OH243695   3.929   6.714  12.020 -0.5971 -0.0750  0.1800
 7427TIP3    H143696   3.930   6.736  11.927 -1.9550 -0.3138  0.0932
 7427TIP3    H243697   3.839   6.730  12.048 -0.3369 -0.5082  1.3288
 7428TIP3   OH243698   1.693   5.429  14.666 -0.5097  0.8011 -0.3180
 7428TIP3    H143699   1.728   5.341  14.650  4.1159  2.4953 -1.0460
 7428TIP3    H243700   1.654   5.424  14.753  0.4380 -1.7297  0.0543
 7429TIP3   OH243701   4.440   2.851  16.436  0.0841 -0.6067 -0.2986
 7429TIP3    H143702   4.490   2.882  16.512  0.4125 -0.0575 -0.7320
 7429TIP3    H243703   4.354   2.828  16.472  0.3289 -0.6127  0.2877
 7430TIP3   OH243704   4.558   5.230   3.271  0.2535  0.3510 -0.2413
 7430TIP3    H143705   4.560   5.206   3.364  1.9170  0.4800 -0.2100
 7430TIP3    H243706   4.488   5.178   3.234  0.5374 -0.8195  0.8089
 7431TIP3   OH243707   2.126   1.852  14.580  0.4966  0.1911 -0.5830
 7431TIP3    H143708   2.082   1.778  14.623 -1.2034  0.8961 -1.0262
 7431TIP3    H243709   2.152   1.909  14.652  1.7314 -0.7491 -0.2434
 7432TIP3   OH243710   6.066   0.310  13.329 -0.3096 -0.2121 -0.0602
 7432TIP3    H143711   6.105   0.364  13.261 -0.0402 -0.8973 -0.4561
 7432TIP3    H243712   6.139   0.260  13.366 -0.3215  0.6792  1.2477
 7433TIP3   OH243713   1.435   2.438   1.734 -0.8310  0.4523  0.0247
 7433TIP3    H143714   1.504   2.472   1.678 -1.4314  0.3673 -0.7796
 7433TIP3    H243715   1.467   2.352   1.762 -1.1857 -0.1867 -1.4535
 7434TIP3   OH243716   0.511   0.346  16.891  0.2614  0.0386 -0.1361
 7434TIP3    H143717   0.486   0.332  16.799 -2.0784  1.3732  0.2409
 7434TIP3    H243718   0.577   0.415  16.887  0.7005 -0.4075 -0.8515
 7435TIP3   OH243719   4.649   3.968  16.619  0.2583  0.5860 -0.1870
 7435TIP3    H143720   4.574   4.012  16.659  1.1379  3.3209 -1.3603
 7435TIP3    H243721   4.717   3.968  16.686 -0.4384 -1.1818  0.5983
 7436TIP3   OH243722   0.636   6.349   2.000 -0.6410  0.1944 -0.3889
 7436TIP3    H143723   0.682   6.274   2.038  4.1577  2.0134 -1.8319
 7436TIP3    H243724   0.637   6.332   1.906 -1.4498  1.0850 -0.5713
 7437TIP3   OH243725   1.071   4.325  17.096  0.0899  0.4194 -0.2495
 7437TIP3    H143726   1.074   4.420  17.113 -1.1526  0.7864 -1.8278
 7437TIP3    H243727   1.129   4.312  17.021  2.2686 -0.5287  1.4770
 7438TIP3   OH243728   1.525   4.228  16.837  0.2811 -0.7635  0.4418
 7438TIP3    H143729   1.615   4.230  16.806 -0.0882 -0.5552 -0.6646
 7438TIP3    H243730   1.479   4.171  16.775 -0.1190 -1.8684  1.6908
 7439TIP3   OH243731   4.429   4.087  16.768  0.4732 -1.1716  0.2580
 7439TIP3    H143732   4.427   4.081  16.863 -1.9382  0.8786  0.4330
 7439TIP3    H243733   4.342   4.059  16.740  0.1089  1.0094 -1.0518
 7440TIP3   OH243734   5.307   5.037   2.307 -0.1347 -0.2443  0.0907
 7440TIP3    H143735   5.243   5.071   2.369 -0.9258 -2.3437  0.4846
 7440TIP3    H243736   5.389   5.037   2.355 -0.0566  1.2022  0.0176
 7441TIP3   OH243737   6.437   3.280  13.915 -0.6894 -0.0252 -0.1288
 7441TIP3    H143738   6.356   3.277  13.865 -0.9408  0.3304  0.2455
 7441TIP3    H243739   6.456   3.374  13.925  0.2897 -0.1023 -1.0307
 7442TIP3   OH243740   0.100   5.334   0.268  0.0520 -0.2669  0.3058
 7442TIP3    H143741   0.071   5.420   0.238 -4.5752 -1.2717  1.2271
 7442TIP3    H243742   0.178   5.315   0.215 -0.4176  3.2283 -1.9143
 7443TIP3   OH243743   6.201   3.065  15.470 -0.0445  0.2726  0.3347
 7443TIP3    H143744   6.234   3.109  15.549 -1.1540  1.3313  0.2465
 7443TIP3    H243745   6.155   2.988  15.503 -0.9371  0.9805  0.7886
 7444TIP3   OH243746   3.818   5.396  11.343  0.0484 -0.2934 -0.1851
 7444TIP3    H143747   3.892   5.338  11.328  1.1523  0.9151  0.4323
 7444TIP3    H243748   3.849   5.460  11.407 -1.2582  0.7181 -0.5035
 7445TIP3   OH243749   6.688   0.843   3.935  0.4262 -0.6290  0.2115
 7445TIP3    H143750   6.738   0.907   3.986 -0.6972  0.3895  0.0865
 7445TIP3    H243751   6.698   0.762   3.984 -0.7664  0.3461  2.2446
 7446TIP3   OH243752   2.932   5.040   3.903  0.2928 -0.9900  0.2188
 7446TIP3    H143753   2.861   5.082   3.952  0.5193 -1.3334  0.8571
 7446TIP3    H243754   2.892   5.016   3.820  0.3203  1.0255 -0.4172
 7447TIP3   OH243755   2.251   5.923  12.968 -0.5363 -0.4578 -0.7463
 7447TIP3    H143756   2.214   5.966  12.891 -0.7599  0.7398  0.0085
 7447TIP3    H243757   2.256   5.831  12.944 -3.7332 -0.6654 -1.0302
 7448TIP3   OH243758   1.537   1.903   4.990  0.0800 -0.2174  0.4450
 7448TIP3    H143759   1.514   1.991   4.963  1.6562 -0.0814 -0.5534
 7448TIP3    H243760   1.613   1.880   4.937  0.4539 -1.7130  1.5516
 7449TIP3   OH243761   4.334   5.630  12.270 -0.0069 -0.1880 -0.1729
 7449TIP3    H143762   4.334   5.628  12.175  0.8701  0.9291 -0.2100
 7449TIP3    H243763   4.394   5.560  12.296  0.6423  0.2508 -0.4736
 7450TIP3   OH243764   0.888   1.921  11.920 -0.5252 -0.1916 -0.1004
 7450TIP3    H143765   0.954   1.939  11.853 -0.7265  0.9881 -0.0066
 7450TIP3    H243766   0.917   1.972  11.996 -0.4423 -1.2975  0.6435
 7451TIP3   OH243767   4.516   6.163   2.073 -0.1630  0.8123  0.1157
 7451TIP3    H143768   4.495   6.156   2.166  0.3125 -0.0703  0.1670
 7451TIP3    H243769   4.433   6.145   2.028 -0.4918  1.6645  0.3677
 7452TIP3   OH243770   5.370   4.939  14.853  0.3529 -0.1186  0.2196
 7452TIP3    H143771   5.303   4.875  14.832 -1.4830  1.8099 -0.0854
 7452TIP3    H243772   5.419   4.899  14.925  0.4339 -2.5641 -1.0966
 7453TIP3   OH243773   1.110   0.880   6.588 -0.3564  0.5662 -0.0080
 7453TIP3    H143774   1.199   0.845   6.599 -0.7985 -0.5202  0.2946
 7453TIP3    H243775   1.122   0.961   6.539  0.7055 -0.1504 -1.0022
 7454TIP3   OH243776   5.636   6.620  11.243  0.1712 -0.3659  0.2049
 7454TIP3    H143777   5.573   6.634  11.173 -0.4381 -0.3929  0.7369
 7454TIP3    H243778   5.619   6.690  11.305  2.6565  1.4606 -1.0012
 7455TIP3   OH243779   2.513   2.636  16.118 -0.1357  0.1469 -0.8113
 7455TIP3    H143780   2.517   2.633  16.214 -2.7214  1.6924 -0.5702
 7455TIP3    H243781   2.429   2.596  16.096 -0.5640  1.7254 -2.2580
 7456TIP3   OH243782   3.869   2.802  14.356 -0.2006 -0.5819 -0.1889
 7456TIP3    H143783   3.800   2.829  14.295  0.2578  0.1537 -0.4092
 7456TIP3    H243784   3.885   2.880  14.409 -1.2985 -1.5018  1.6015
 7457TIP3   OH243785   4.339   6.650  14.347  0.3318 -0.6196  0.2409
 7457TIP3    H143786   4.367   6.646  14.255 -0.3794  1.0814 -0.0850
 7457TIP3    H243787   4.367   6.737  14.376  1.6367 -1.5784  2.0272
 7458TIP3   OH243788   5.846   3.313  11.641 -0.3383 -0.4016 -0.0346
 7458TIP3    H143789   5.898   3.381  11.683 -0.9753  0.8228 -1.1826
 7458TIP3    H243790   5.827   3.347  11.554 -2.9749 -0.8521  0.2865
 7459TIP3   OH243791   0.612   0.655  11.687 -0.7622 -0.3448  0.0314
 7459TIP3    H143792   0.525   0.692  11.677 -1.0589 -0.9574  0.2976
 7459TIP3    H243793   0.671   0.726  11.662 -1.3158  0.2578  0.4096
 7460TIP3   OH243794   4.844   2.565   2.270 -0.5925  0.2114 -0.1667
 7460TIP3    H143795   4.785   2.531   2.202 -1.7869  0.8128  0.5377
 7460TIP3    H243796   4.788   2.619   2.325  0.4663  0.1423  1.0160
 7461TIP3   OH243797   4.271   0.561  15.697  0.8442  0.5960  0.5527
 7461TIP3    H143798   4.290   0.537  15.606 -2.3428  0.6735 -0.2266
 7461TIP3    H243799   4.335   0.629  15.717  3.0199 -0.8877 -0.8469
 7462TIP3   OH243800   2.292   5.923  16.748  0.4347 -0.0495 -0.2820
 7462TIP3    H143801   2.287   5.917  16.844 -0.9539 -2.5748 -0.4298
 7462TIP3    H243802   2.240   5.999  16.725 -0.4099 -0.2409  0.9186
 7463TIP3   OH243803   2.358   0.318   5.701  0.4520 -0.2132  0.7553
 7463TIP3    H143804   2.336   0.393   5.645  2.0980  1.9943  2.8908
 7463TIP3    H243805   2.299   0.326   5.776  0.3967 -1.2889  0.8387
 7464TIP3   OH243806   5.224   2.133   4.624  0.1831  0.0478 -0.4985
 7464TIP3    H143807   5.264   2.051   4.595  1.1815  1.0743 -2.2382
 7464TIP3    H243808   5.186   2.170   4.545  0.0448  1.4280  0.1840
 7465TIP3   OH243809   2.326   0.367  13.487 -0.2670 -0.1736 -0.2857
 7465TIP3    H143810   2.332   0.281  13.529  0.1553 -0.7039 -1.3837
 7465TIP3    H243811   2.286   0.349  13.402 -3.4345  1.2140  0.7824
 7466TIP3   OH243812   0.180   1.306   5.171 -0.0256  0.5903  0.4496
 7466TIP3    H143813   0.209   1.379   5.226  1.0065 -0.0942  0.8346
 7466TIP3    H243814   0.086   1.301   5.187 -0.2396  2.2023 -0.0388
 7467TIP3   OH243815   2.115   6.659  16.441 -0.6687 -0.7412 -0.4753
 7467TIP3    H143816   2.036   6.640  16.492  0.0235 -0.5985  0.6784
 7467TIP3    H243817   2.184   6.672  16.506 -0.1598  1.4086 -1.3466
 7468TIP3   OH243818   3.911   4.405  13.215  0.0515 -0.1284 -0.0195
 7468TIP3    H143819   3.863   4.459  13.153  0.6686  1.1740  0.5944
 7468TIP3    H243820   3.999   4.444  13.219  0.5952 -1.3295  0.2591
 7469TIP3   OH243821   2.381   4.469   1.895 -0.3876  0.1912 -0.2430
 7469TIP3    H143822   2.442   4.516   1.838  0.4421 -0.6995 -0.1110
 7469TIP3    H243823   2.380   4.520   1.976  1.6258 -0.7492  0.4320
 7470TIP3   OH243824   3.195   0.499   0.342 -0.4206  0.5389  0.3988
 7470TIP3    H143825   3.105   0.466   0.346 -0.6051  1.0846  0.8370
 7470TIP3    H243826   3.218   0.495   0.249 -0.8272  0.2149  0.3091
 7471TIP3   OH243827   4.216   5.153  12.748 -0.3498 -0.2885 -0.3400
 7471TIP3    H143828   4.162   5.131  12.824  2.1947  0.9312  1.9677
 7471TIP3    H243829   4.205   5.248  12.737  0.6702 -0.1631 -0.3548
 7472TIP3   OH243830   6.621   6.086   3.409  0.0191  0.2450 -0.4426
 7472TIP3    H143831   6.561   6.014   3.392  0.1617  0.0987 -0.3238
 7472TIP3    H243832   6.566   6.153   3.450  0.4430 -0.9440  2.2883
 7473TIP3   OH243833   6.748   6.557  14.374  0.9764  0.2423 -0.2381
 7473TIP3    H143834   6.700   6.512  14.304 -0.5479 -2.3239  2.2433
 7473TIP3    H243835   6.839   6.528  14.364  0.7596 -0.1761 -1.0978
 7474TIP3   OH243836   3.409   3.903   0.302 -0.0204  0.2983  0.0766
 7474TIP3    H143837   3.331   3.878   0.352 -0.1692 -0.2913 -0.4446
 7474TIP3    H243838   3.475   3.923   0.368  0.4987 -2.6321  0.5517
 7475TIP3   OH243839   5.157   4.740  16.094 -0.4203  0.3572  0.0531
 7475TIP3    H143840   5.182   4.672  16.032  2.7407  2.5359 -1.3302
 7475TIP3    H243841   5.203   4.717  16.175  1.4066  1.1950 -0.6866
 7476TIP3   OH243842   6.715   1.561   0.868 -0.2000 -0.1292  0.2786
 7476TIP3    H143843   6.761   1.496   0.921  1.1934  0.5175 -0.0973
 7476TIP3    H243844   6.642   1.513   0.829 -0.4946 -0.9178  1.7555
 7477TIP3   OH243845   1.458   3.790  12.263 -0.2741  0.5153  0.1343
 7477TIP3    H143846   1.443   3.881  12.289  0.1810  0.5800  0.1780
 7477TIP3    H243847   1.388   3.741  12.306 -0.1370  0.7602  0.6548
 7478TIP3   OH243848   0.263   3.132  12.004 -0.2330 -0.0688  0.7321
 7478TIP3    H143849   0.280   3.160  11.914  2.6899 -1.1278  0.8602
 7478TIP3    H243850   0.225   3.045  11.996  0.2111 -0.2433  0.5265
 7479TIP3   OH243851   5.758   3.433   2.856  0.0294 -0.0629  0.4726
 7479TIP3    H143852   5.764   3.463   2.765  0.7502  0.0629  0.5606
 7479TIP3    H243853   5.753   3.338   2.848  1.9607 -0.1987  0.3527
 7480TIP3   OH243854   3.674   1.872   0.374 -0.1978 -0.3178  0.4475
 7480TIP3    H143855   3.703   1.959   0.404 -0.2113 -0.1268 -0.0857
 7480TIP3    H243856   3.579   1.872   0.391 -0.6411  0.6778 -1.6631
 7481TIP3   OH243857   0.197   2.736   5.526 -0.5489 -0.2730  0.2041
 7481TIP3    H143858   0.241   2.807   5.572 -0.3888 -0.0373 -0.3186
 7481TIP3    H243859   0.165   2.679   5.597  0.8264 -0.6007  0.5824
 7482TIP3   OH243860   6.196   3.604  15.940  0.2566 -0.1723 -0.4774
 7482TIP3    H143861   6.149   3.649  15.870  2.0520 -0.1892 -1.7773
 7482TIP3    H243862   6.281   3.648  15.944  0.5565 -0.8133  1.0442
 7483TIP3   OH243863   0.044   3.161  12.444  0.2760 -0.3010 -0.0010
 7483TIP3    H143864   0.083   3.190  12.361  0.3623 -1.0054 -0.2102
 7483TIP3    H243865   0.117   3.131  12.497  0.0638 -1.3793 -0.2947
 7484TIP3   OH243866   4.689   2.687  16.195  0.0642  0.0882  0.1045
 7484TIP3    H143867   4.658   2.767  16.152 -0.1263  1.0166  1.8512
 7484TIP3    H243868   4.623   2.621  16.176 -1.0128  0.9985  0.5616
 7485TIP3   OH243869   6.672   0.864   5.837  0.3102 -0.4536  0.3259
 7485TIP3    H143870   6.647   0.883   5.747  1.0835  4.1778  0.8600
 7485TIP3    H243871   6.753   0.814   5.830 -0.3094 -1.2767 -1.4895
 7486TIP3   OH243872   2.829   0.061  10.755 -0.2961 -0.5528  0.5682
 7486TIP3    H143873   2.770   0.052  10.680  0.3856 -0.7486  0.0371
 7486TIP3    H243874   2.816   0.150  10.786 -0.9944 -0.6543  0.5682
 7487TIP3   OH243875   2.234   1.229   4.304 -0.4854 -0.2306  0.4544
 7487TIP3    H143876   2.197   1.150   4.265 -0.7313  0.4617 -0.7716
 7487TIP3    H243877   2.238   1.210   4.398 -0.5991 -1.6587  0.1906
 7488TIP3   OH243878   4.082   3.241  16.839  0.3335  0.5259  0.1393
 7488TIP3    H143879   4.127   3.170  16.885 -0.5900 -1.0853 -1.3285
 7488TIP3    H243880   3.992   3.237  16.871  0.4679  1.6760  0.7233
 7489TIP3   OH243881   4.171   0.068   5.294  0.2163  0.0646  0.3124
 7489TIP3    H143882   4.112   0.135   5.329 -0.0309 -0.4580  0.9207
 7489TIP3    H243883   4.189   0.011   5.369 -0.7501 -1.4062 -0.5198
 7490TIP3   OH243884   4.343   4.243  15.092 -0.1320 -0.0828 -0.2029
 7490TIP3    H143885   4.274   4.286  15.143  0.1100  0.1241 -0.0462
 7490TIP3    H243886   4.401   4.204  15.158  1.4234  2.0679 -0.1812
 7491TIP3   OH243887   5.260   1.923   4.453  0.6598  0.5006 -0.1693
 7491TIP3    H143888   5.351   1.893   4.456  0.3252 -0.5262  0.3423
 7491TIP3    H243889   5.246   1.950   4.363  0.6072 -2.2837 -1.1172
 7492TIP3   OH243890   6.463   1.147   0.214 -0.0583 -0.3924 -0.1254
 7492TIP3    H143891   6.378   1.160   0.171  0.0701 -1.7393 -0.8451
 7492TIP3    H243892   6.517   1.104   0.147  1.8508  2.1449 -0.3413
 7493TIP3   OH243893   6.241   0.727   4.087  0.3666 -0.1454  0.0547
 7493TIP3    H143894   6.306   0.796   4.076  0.6825 -0.1432  1.6780
 7493TIP3    H243895   6.210   0.708   3.998  1.3297  1.0516 -0.5602
 7494TIP3   OH243896   1.812   1.375   0.570 -0.4285 -0.1221 -0.1212
 7494TIP3    H143897   1.847   1.330   0.493 -1.4039  0.4199 -0.8990
 7494TIP3    H243898   1.740   1.319   0.600 -1.3739  0.6730 -0.8435
 7495TIP3   OH243899   1.403   0.503  16.064 -0.3830  0.2626 -0.2651
 7495TIP3    H143900   1.354   0.425  16.037  0.4900 -0.0715 -0.9074
 7495TIP3    H243901   1.397   0.562  15.989  3.5305 -1.3493 -2.1154
 7496TIP3   OH243902   6.340   2.930  14.381  0.0265 -0.2713 -0.3056
 7496TIP3    H143903   6.401   2.988  14.335  0.7416  1.3180  2.4201
 7496TIP3    H243904   6.379   2.843  14.374  3.2813  0.8061  2.1512
 7497TIP3   OH243905   3.201   0.185   4.175  0.0283  0.1631  0.3001
 7497TIP3    H143906   3.121   0.139   4.199  0.0244 -0.7099 -1.2920
 7497TIP3    H243907   3.172   0.264   4.131  0.0610  0.8596  1.4636
 7498TIP3   OH243908   1.928   5.448   2.534  0.3601  0.5383 -0.2187
 7498TIP3    H143909   1.892   5.361   2.551 -0.7256  0.6240 -1.8899
 7498TIP3    H243910   1.983   5.466   2.610  0.5660 -1.5765  0.1964
 7499TIP3   OH243911   5.644   4.005  16.165 -0.2442  0.6206  0.4095
 7499TIP3    H143912   5.706   4.075  16.150  0.0768  0.5253  1.2252
 7499TIP3    H243913   5.633   3.963  16.079  1.9681 -0.3073  0.5235
 7500TIP3   OH243914   1.006   3.716  13.506 -0.1007 -0.7358  0.0105
 7500TIP3    H143915   1.100   3.700  13.512  0.2806  0.9455 -0.8640
 7500TIP3    H243916   0.986   3.770  13.583 -0.2987 -0.8760  0.0565
 7501TIP3   OH243917   3.388   0.660  13.010 -0.4683 -0.8579 -0.3038
 7501TIP3    H143918   3.314   0.672  13.069  1.2562 -1.0403  2.0923
 7501TIP3    H243919   3.367   0.582  12.959 -1.5660 -1.3905  0.9178
 7502TIP3   OH243920   5.962   3.964  13.457 -0.1411  0.6627  0.2474
 7502TIP3    H143921   6.037   4.014  13.489  1.3292 -1.0973 -0.2196
 7502TIP3    H243922   5.949   3.897  13.524  0.9385 -1.1086 -1.2018
 7503TIP3   OH243923   3.292   0.193  12.619 -0.4349 -0.3109  0.1393
 7503TIP3    H143924   3.308   0.231  12.533  1.4896 -0.1145  0.5474
 7503TIP3    H243925   3.343   0.112  12.620  0.0945  0.0179  1.3114
 7504TIP3   OH243926   2.198   4.580   1.245  0.2682 -0.6520 -0.2260
 7504TIP3    H143927   2.195   4.500   1.193 -1.4697 -1.6378  1.2405
 7504TIP3    H243928   2.190   4.651   1.182 -0.7420 -1.7548 -1.3920
 7505TIP3   OH243929   5.500   4.544  16.243 -0.4282 -0.2743 -0.6127
 7505TIP3    H143930   5.585   4.589  16.243 -0.3081 -0.4682  0.7994
 7505TIP3    H243931   5.492   4.509  16.154  0.5181  0.5733 -1.0561
 7506TIP3   OH243932   3.120   4.947  12.357  0.0640  0.0715 -0.4091
 7506TIP3    H143933   3.078   4.868  12.325  0.3644  0.6957 -2.4501
 7506TIP3    H243934   3.094   5.016  12.295  0.4185  1.4235  0.8764
 7507TIP3   OH243935   1.319   2.638  12.555 -0.6667 -0.0256 -0.2488
 7507TIP3    H143936   1.404   2.636  12.599 -0.1222  2.7035 -0.9725
 7507TIP3    H243937   1.329   2.580  12.480 -0.0858 -1.1395  0.6506
 7508TIP3   OH243938   5.053   1.195   1.570  0.3241 -0.3555 -0.0033
 7508TIP3    H143939   5.143   1.167   1.586  1.0132  0.9635 -1.2509
 7508TIP3    H243940   5.062   1.284   1.534 -1.6015  0.6704  1.8515
 7509TIP3   OH243941   0.319   2.011   3.890  0.2053 -0.7768 -0.0417
 7509TIP3    H143942   0.339   1.942   3.827 -1.0927 -0.7631 -0.5051
 7509TIP3    H243943   0.342   1.973   3.975  1.6930 -0.8980 -0.4639
 7510TIP3   OH243944   0.539   1.716   4.293  0.0457  0.0015 -0.3003
 7510TIP3    H143945   0.615   1.755   4.337 -0.6969 -0.3187  1.3511
 7510TIP3    H243946   0.499   1.788   4.245  0.1481  0.6990  0.6347
 7511TIP3   OH243947   2.008   4.678   3.744 -0.0751  0.2213  0.1460
 7511TIP3    H143948   1.948   4.604   3.756  0.5113 -0.1278  1.0099
 7511TIP3    H243949   1.975   4.746   3.802  0.1323  0.1706  0.3250
 7512TIP3   OH243950   5.465   6.250   3.818 -0.3867  0.7207  0.0748
 7512TIP3    H143951   5.494   6.189   3.886  1.0070  0.3381 -0.8160
 7512TIP3    H243952   5.545   6.295   3.790 -1.2343  2.2967  0.0453
 7513TIP3   OH243953   1.074   4.296   1.522 -0.4206 -0.3643  0.2818
 7513TIP3    H143954   0.999   4.312   1.580 -0.0209  0.1102  0.6853
 7513TIP3    H243955   1.036   4.258   1.443 -0.8015 -2.8668  1.5714
 7514TIP3   OH243956   5.077   2.895   1.392  0.0322 -0.5750  0.1453
 7514TIP3    H143957   5.062   2.861   1.480  1.7969 -2.8296 -0.3170
 7514TIP3    H243958   5.030   2.833   1.335 -1.1668  0.9046 -0.5474
 7515TIP3   OH243959   0.121   0.365   2.933  0.3394 -0.3519  0.0643
 7515TIP3    H143960   0.163   0.282   2.956  0.9326  0.0786  0.5657
 7515TIP3    H243961   0.057   0.379   3.002  0.5515 -0.1712  0.2241
 7516TIP3   OH243962   4.086   0.297  13.472 -0.2710 -0.2979  0.1605
 7516TIP3    H143963   4.043   0.212  13.464 -2.5949  0.8367 -0.4296
 7516TIP3    H243964   4.014   0.361  13.467  1.5613  1.8073 -1.6474
 7517TIP3   OH243965   4.713   5.515   5.459  0.6176  0.0651  0.4090
 7517TIP3    H143966   4.651   5.582   5.428  0.1451  0.3938  1.9529
 7517TIP3    H243967   4.760   5.488   5.381 -0.4144  0.9335 -0.5532
 7518TIP3   OH243968   4.672   0.938   4.681  0.4989  0.6404  0.2221
 7518TIP3    H143969   4.599   0.989   4.648  0.0688  0.0527  0.2426
 7518TIP3    H243970   4.748   0.997   4.676 -0.5383  2.4679  3.3032
 7519TIP3   OH243971   4.901   0.810   2.028  0.1693  0.1343  0.1127
 7519TIP3    H143972   4.811   0.778   2.041  0.3017 -0.6255 -0.7182
 7519TIP3    H243973   4.892   0.905   2.029 -1.0820  0.1346 -2.3290
 7520TIP3   OH243974   4.347   5.649   4.502 -0.1645  0.0656  0.1704
 7520TIP3    H143975   4.308   5.692   4.426  2.4574  0.1288 -1.2733
 7520TIP3    H243976   4.338   5.714   4.572  0.7023  1.6407 -1.0968
 7521TIP3   OH243977   4.992   4.823   3.598 -0.3439  0.0006 -0.0149
 7521TIP3    H143978   5.080   4.793   3.619 -0.9752 -1.2302  1.0793
 7521TIP3    H243979   4.959   4.859   3.681 -0.7988  0.6609 -0.4726
 7522TIP3   OH243980   6.291   0.384  12.593 -0.3119  0.0293 -0.0109
 7522TIP3    H143981   6.283   0.404  12.500  0.2084 -0.4230 -0.1626
 7522TIP3    H243982   6.384   0.400  12.613 -0.3085 -0.3709  0.3082
 7523TIP3   OH243983   4.336   3.432  11.881  0.3488 -0.0410 -0.3980
 7523TIP3    H143984   4.424   3.455  11.909  0.1956 -1.3332  1.3053
 7523TIP3    H243985   4.303   3.373  11.950 -1.0534 -1.2878 -2.0363
 7524TIP3   OH243986   6.084   5.470  12.938 -0.0618  0.1004 -0.1782
 7524TIP3    H143987   6.129   5.473  13.023  1.4468 -0.4348 -0.9173
 7524TIP3    H243988   6.034   5.389  12.940  0.6163 -0.3171 -0.1117
 7525TIP3   OH243989   1.492   0.775  13.067 -0.2019 -0.0322  0.0415
 7525TIP3    H143990   1.526   0.714  13.133  0.3340  1.7219  1.4651
 7525TIP3    H243991   1.563   0.839  13.055 -1.0100  0.7173 -0.8888
 7526TIP3   OH243992   1.360   3.927  15.526  0.8528 -0.3024  0.1350
 7526TIP3    H143993   1.410   4.000  15.490  0.3849  0.6334  1.3209
 7526TIP3    H243994   1.274   3.935  15.484  0.8009 -0.1569  0.2659
 7527TIP3   OH243995   5.001   2.499  15.791 -0.7280  0.0590 -0.0046
 7527TIP3    H143996   4.946   2.537  15.859 -0.6112 -1.0405  0.7454
 7527TIP3    H243997   4.961   2.414  15.772  0.4776 -0.6186  0.3162
 7528TIP3   OH243998   0.087   5.567  15.604 -0.9400 -0.3835  0.2733
 7528TIP3    H143999  -0.008   5.567  15.620 -1.0372  0.2169 -0.2199
 7528TIP3    H244000   0.116   5.653  15.635 -1.0978  0.7321 -2.3833
 7529TIP3   OH244001   4.850   4.907   4.072 -0.2180 -0.1665  0.1212
 7529TIP3    H144002   4.883   4.872   4.156 -1.1694 -2.1768 -0.2789
 7529TIP3    H244003   4.796   4.981   4.097 -1.3067 -1.3437  1.4311
 7530TIP3   OH244004   5.410   6.487  14.172 -0.0032  0.4722 -0.2698
 7530TIP3    H144005   5.387   6.528  14.089  0.8117 -0.4543 -0.9679
 7530TIP3    H244006   5.335   6.430  14.192 -0.3959  1.0253 -0.1285
 7531TIP3   OH244007   6.007   2.501  15.474 -0.1990  0.4860 -0.2868
 7531TIP3    H144008   6.050   2.584  15.453  0.4909  0.3567  0.5473
 7531TIP3    H244009   6.053   2.436  15.421  2.6727 -0.1018  2.6149
 7532TIP3   OH244010   0.476   4.759  16.925  0.6092 -0.5730  0.6428
 7532TIP3    H144011   0.525   4.677  16.924  0.2595 -0.8358  2.2963
 7532TIP3    H244012   0.403   4.743  16.986 -0.5643  0.3521 -0.4635
 7533TIP3   OH244013   0.576   5.224   0.192  0.3388 -0.3257 -0.2368
 7533TIP3    H144014   0.497   5.210   0.140 -0.3643  0.0908  0.6859
 7533TIP3    H244015   0.587   5.319   0.195 -1.2706 -0.1033  2.6418
 7534TIP3   OH244016   1.757   3.586   2.359  0.0737  0.5264 -0.4940
 7534TIP3    H144017   1.728   3.667   2.402 -2.7789  1.3485 -3.5020
 7534TIP3    H244018   1.705   3.517   2.401 -0.4099  0.8562 -0.5406
 7535TIP3   OH244019   5.936   0.286  15.846  0.0829  0.4203 -0.4058
 7535TIP3    H144020   5.879   0.213  15.822 -1.4501  1.1162  0.8854
 7535TIP3    H244021   5.910   0.308  15.936  2.7337  0.4899  0.4524
 7536TIP3   OH244022   6.343   5.395   5.687 -0.3153  0.3642  0.1040
 7536TIP3    H144023   6.438   5.390   5.685 -0.3656 -1.1181 -0.6909
 7536TIP3    H244024   6.319   5.369   5.776 -0.0051 -1.1677 -0.2272
 7537TIP3   OH244025   5.967   4.854   3.679 -0.4872  0.3614  0.2328
 7537TIP3    H144026   5.967   4.843   3.584 -1.2584 -0.3539  0.3061
 7537TIP3    H244027   5.906   4.787   3.711 -0.8348  1.1112  1.1715
 7538TIP3   OH244028   4.432   1.740  15.110 -0.2163 -0.7222  0.3128
 7538TIP3    H144029   4.371   1.814  15.117  1.7251  0.8319  3.1694
 7538TIP3    H244030   4.399   1.677  15.174 -0.3156 -1.1150 -0.1204
 7539TIP3   OH244031   4.051   2.002   5.213 -0.0625  0.3777  0.3387
 7539TIP3    H144032   4.110   1.934   5.180  0.8422  0.9380  0.7666
 7539TIP3    H244033   3.971   1.955   5.236  0.2695 -0.4233 -0.0866
 7540TIP3   OH244034   3.427   5.969   4.315 -0.0767  0.7476  0.0921
 7540TIP3    H144035   3.502   6.009   4.360  0.0569  1.3553 -0.6387
 7540TIP3    H244036   3.401   5.896   4.371  0.5029  1.0762  0.8045
 7541TIP3   OH244037   5.449   4.241   5.364 -0.0533  0.2885 -0.0235
 7541TIP3    H144038   5.382   4.277   5.305 -1.8939 -1.5963  0.7621
 7541TIP3    H244039   5.505   4.188   5.307  1.5978  2.8349 -0.8892
 7542TIP3   OH244040   0.077   6.620   0.458  0.7510 -0.5134  0.0602
 7542TIP3    H144041   0.039   6.600   0.544  0.7569 -1.9023 -0.2410
 7542TIP3    H244042   0.001   6.638   0.402  0.7997  3.7505  1.0471
 7543TIP3   OH244043   1.541   0.273  13.169  0.1929 -0.2019 -0.6383
 7543TIP3    H144044   1.608   0.233  13.225 -0.1936 -0.1676 -0.1434
 7543TIP3    H244045   1.527   0.208  13.100  0.7826 -0.1800 -0.7881
 7544TIP3   OH244046   2.734   1.215  12.418  0.0193 -0.3707  0.3548
 7544TIP3    H144047   2.682   1.287  12.454  0.3927 -0.0901  0.3335
 7544TIP3    H244048   2.824   1.235  12.443  0.4595  0.4267 -1.6439
 7545TIP3   OH244049   4.123   5.421   1.899  0.1376 -0.0306  0.1569
 7545TIP3    H144050   4.081   5.361   1.961 -0.6652  0.8200  0.4506
 7545TIP3    H244051   4.192   5.463   1.950  1.8499 -1.8791 -0.4853
 7546TIP3   OH244052   1.512   3.126  13.570  0.1890  0.2338  0.7080
 7546TIP3    H144053   1.433   3.100  13.522  0.2358  1.5082 -0.0885
 7546TIP3    H244054   1.479   3.154  13.656 -0.2170  0.6419  0.4239
 7547TIP3   OH244055   1.650   6.058  11.130  0.2546 -0.5622  0.3896
 7547TIP3    H144056   1.623   6.067  11.038 -3.7549 -1.6294  1.2659
 7547TIP3    H244057   1.651   6.148  11.163  0.1803 -0.2914 -0.3101
 7548TIP3   OH244058   1.973   5.350  13.726  0.8191  0.0192 -0.1495
 7548TIP3    H144059   1.949   5.435  13.689 -0.3949 -0.9178 -1.6496
 7548TIP3    H244060   1.967   5.289  13.652  1.0436 -1.4824  1.0165
 7549TIP3   OH244061   6.364   5.022   1.763  0.2940 -0.0342 -0.1603
 7549TIP3    H144062   6.311   4.993   1.688  1.1128 -1.2744 -0.2952
 7549TIP3    H244063   6.455   5.004   1.736  0.7345  1.3201  0.3729
 7550TIP3   OH244064   2.410   1.980   5.874 -0.8359 -0.1132  0.3863
 7550TIP3    H144065   2.462   1.919   5.822 -1.9843 -1.9910  1.3324
 7550TIP3    H244066   2.473   2.024   5.931  0.0259 -0.3540 -0.3654
 7551TIP3   OH244067   6.170   4.127  14.078 -0.5130 -0.3319 -0.3324
 7551TIP3    H144068   6.119   4.077  14.014  1.3772 -0.2805 -2.0003
 7551TIP3    H244069   6.205   4.061  14.138 -0.1603 -0.7247 -0.9547
 7552TIP3   OH244070   3.865   1.480   6.133  0.5898 -0.2398 -0.2417
 7552TIP3    H144071   3.864   1.573   6.109 -0.5244 -0.5360 -1.4573
 7552TIP3    H244072   3.778   1.448   6.109  1.0719 -1.6753 -0.1593
 7553TIP3   OH244073   0.847   3.457   4.180  0.0104 -0.3659 -0.1944
 7553TIP3    H144074   0.836   3.511   4.102  1.9636  0.1405 -0.1718
 7553TIP3    H244075   0.907   3.388   4.152  0.6111 -0.2615  0.8159
 7554TIP3   OH244076   1.213   5.766   5.403 -0.5964  0.3192  1.1088
 7554TIP3    H144077   1.241   5.727   5.320  1.1085  0.3050  1.6567
 7554TIP3    H244078   1.160   5.699   5.445 -1.5668  0.3655 -0.0068
 7555TIP3   OH244079   2.080   2.282  10.588  0.2146  0.2767  0.3186
 7555TIP3    H144080   2.084   2.351  10.655  0.1128  0.9243 -0.3356
 7555TIP3    H244081   2.058   2.203  10.638  0.2650  0.7200  1.0721
 7556TIP3   OH244082   5.895   0.165  12.433 -0.2183 -0.4349 -0.1657
 7556TIP3    H144083   5.819   0.201  12.478 -0.4388  0.6258 -1.3297
 7556TIP3    H244084   5.863   0.083  12.395  0.2639 -1.9234  2.4330
 7557TIP3   OH244085   1.103   1.933  11.198  0.1069 -0.4715  0.5484
 7557TIP3    H144086   1.015   1.939  11.161 -0.5178 -1.6682  1.7726
 7557TIP3    H244087   1.160   1.920  11.122 -0.7957 -0.0695 -0.2222
 7558TIP3   OH244088   3.966   4.695  15.415  0.0401  0.1164 -0.2985
 7558TIP3    H144089   3.925   4.609  15.424 -1.0932  0.8422  2.3528
 7558TIP3    H244090   3.940   4.725  15.328 -1.8018 -1.1069 -0.2160
 7559TIP3   OH244091   6.380   4.233  11.092 -0.7786 -0.1110 -0.0984
 7559TIP3    H144092   6.386   4.232  10.997 -1.8950  0.2714 -0.1795
 7559TIP3    H244093   6.324   4.158  11.114 -1.1039  0.2170  0.2078
 7560TIP3   OH244094   3.949   5.751   3.910  0.1679  0.4914 -0.1413
 7560TIP3    H144095   3.998   5.773   3.831  0.3711 -0.4086 -0.2752
 7560TIP3    H244096   3.949   5.656   3.912 -1.4356  0.4682 -0.0543
 7561TIP3   OH244097   5.380   2.841  14.807  0.2395 -0.1622 -0.0290
 7561TIP3    H144098   5.387   2.785  14.730 -1.9917 -0.6071  0.0416
 7561TIP3    H244099   5.462   2.826  14.855  0.7516 -1.4685 -1.2379
 7562TIP3   OH244100   2.705   2.300  11.285  0.2585 -1.0024 -0.3430
 7562TIP3    H144101   2.723   2.253  11.204  1.6446 -0.2514 -0.5041
 7562TIP3    H244102   2.788   2.344  11.306 -0.1955 -0.8549  1.2601
 7563TIP3   OH244103   4.953   5.119   0.391  0.1021  0.5061  0.3703
 7563TIP3    H144104   4.972   5.187   0.326  0.1219  0.7958  0.6794
 7563TIP3    H244105   4.874   5.149   0.434 -2.2762 -1.5846 -2.1676
 7564TIP3   OH244106   6.767   6.221   3.764 -0.2538 -0.2319 -0.6249
 7564TIP3    H144107   6.835   6.159   3.791 -0.8339 -0.5071  0.2308
 7564TIP3    H244108   6.767   6.215   3.668  1.1067 -0.0201 -0.6646
 7565TIP3   OH244109   3.971   4.740  17.098  0.2468  0.2538  0.3969
 7565TIP3    H144110   4.006   4.827  17.116  0.2527  0.2179  0.5527
 7565TIP3    H244111   4.001   4.721  17.009 -1.4821  1.2953 -0.4846
 7566TIP3   OH244112   2.984   1.914   5.082  0.1268  0.5456 -0.5226
 7566TIP3    H144113   3.072   1.942   5.105  0.1440  0.8341 -0.9280
 7566TIP3    H244114   2.987   1.818   5.085  0.2956  0.5666  0.0322
 7567TIP3   OH244115   6.623   6.698  17.094 -0.3399 -0.4155  0.5231
 7567TIP3    H144116   6.624   6.613  17.138 -0.3422 -0.8540 -0.3017
 7567TIP3    H244117   6.650   6.760  17.161  4.3311 -1.5783  0.0484
 7568TIP3   OH244118   6.111   2.039  11.581 -0.3383 -0.7258  0.4196
 7568TIP3    H144119   6.175   2.102  11.615  0.7579 -0.3701 -2.0885
 7568TIP3    H244120   6.135   1.956  11.621  1.0199 -0.3744  0.3863
 7569TIP3   OH244121   6.155   4.649   1.669  0.0863  0.3495  0.6654
 7569TIP3    H144122   6.072   4.603   1.655 -0.2743  0.4065  2.4201
 7569TIP3    H244123   6.212   4.617   1.598 -0.5874 -1.7550  0.9917
 7570TIP3   OH244124   0.455   3.861   3.709  0.3047 -0.6501 -0.0222
 7570TIP3    H144125   0.490   3.922   3.644  0.2096 -1.4521 -0.8459
 7570TIP3    H244126   0.364   3.889   3.721  0.6677  0.2736  0.7198
 7571TIP3   OH244127   1.059   0.141   2.944 -0.1922  0.4637 -0.2200
 7571TIP3    H144128   0.992   0.194   2.900  0.9626  2.6130  0.4702
 7571TIP3    H244129   1.078   0.070   2.883 -1.6865  0.9084 -1.2651
 7572TIP3   OH244130   3.070   5.740  15.737 -0.3589  0.7336 -0.5294
 7572TIP3    H144131   3.158   5.734  15.700 -0.4091 -2.6959 -0.4507
 7572TIP3    H244132   3.011   5.730  15.662 -0.5297 -1.2194 -0.2000
 7573TIP3   OH244133   3.373   2.768  12.756  0.1168 -0.0112  0.0501
 7573TIP3    H144134   3.446   2.811  12.713  0.9865  0.4633  1.9142
 7573TIP3    H244135   3.296   2.816  12.726  0.8134  1.1398  0.0564
 7574TIP3   OH244136   2.658   1.833   4.411 -0.5838 -0.0419  0.1052
 7574TIP3    H144137   2.569   1.811   4.385 -0.5982  0.5385 -0.3439
 7574TIP3    H244138   2.696   1.749   4.439 -0.9506 -0.4683 -0.6507
 7575TIP3   OH244139   1.978   2.595  11.668 -0.3904  0.3847  0.1203
 7575TIP3    H144140   1.955   2.564  11.580  0.0564  1.0288 -0.2366
 7575TIP3    H244141   1.897   2.636  11.700 -1.0017 -1.1499  0.6228
 7576TIP3   OH244142   6.542   6.781  11.151 -0.0270  0.3301  0.6844
 7576TIP3    H144143   6.571   6.813  11.065  1.1339 -1.3119  0.4170
 7576TIP3    H244144   6.537   6.686  11.141  0.5211  0.0625  2.5571
 7577TIP3   OH244145   5.438   5.108  12.239 -0.4049  0.5366  0.2403
 7577TIP3    H144146   5.507   5.127  12.175 -1.0875 -1.4692 -1.1938
 7577TIP3    H244147   5.483   5.110  12.323  0.5842  2.9434 -0.2677
 7578TIP3   OH244148   5.692   1.354  14.039 -0.3543 -0.5508 -0.0589
 7578TIP3    H144149   5.615   1.410  14.030 -1.4312 -2.0969 -1.1910
 7578TIP3    H244150   5.707   1.347  14.133  0.2851  2.1654  0.1032
 7579TIP3   OH244151   5.131   6.294  10.691 -0.1117  0.0390 -0.0207
 7579TIP3    H144152   5.069   6.246  10.637  0.0181 -0.7093  0.4814
 7579TIP3    H244153   5.117   6.261  10.780 -1.5345  2.4541  0.7665
 7580TIP3   OH244154   4.337   5.857   2.125  0.5062 -0.0259 -0.3207
 7580TIP3    H144155   4.320   5.927   2.063  1.0560  1.7183  1.3846
 7580TIP3    H244156   4.252   5.815   2.139  0.2064  0.1616 -1.5058
 7581TIP3   OH244157   6.233   2.367  14.277  0.2648 -0.1685 -0.0338
 7581TIP3    H144158   6.196   2.289  14.318 -1.3173 -0.5116 -1.9776
 7581TIP3    H244159   6.307   2.390  14.333 -0.6558 -1.6537  1.9256
 7582TIP3   OH244160   0.240   5.649   3.219 -0.5783 -0.3559  0.0516
 7582TIP3    H144161   0.213   5.560   3.199 -0.9235 -0.1865 -0.2416
 7582TIP3    H244162   0.190   5.704   3.159  0.1054 -0.0071 -0.2068
 7583TIP3   OH244163   1.749   2.171  15.133  0.2158  0.0092  0.6254
 7583TIP3    H144164   1.737   2.113  15.208 -2.4779  0.1992  0.4295
 7583TIP3    H244165   1.684   2.142  15.069 -0.2090  2.2700 -0.0687
 7584TIP3   OH244166   3.146   5.417  14.442 -0.2851 -0.2207  0.2531
 7584TIP3    H144167   3.186   5.484  14.498  1.1395 -1.7608  1.1798
 7584TIP3    H244168   3.100   5.466  14.375 -0.4465  1.7014  1.6721
 7585TIP3   OH244169   0.354   3.815   5.022 -0.5995 -0.0876 -0.3275
 7585TIP3    H144170   0.385   3.725   5.037 -0.7711 -0.3083 -1.2571
 7585TIP3    H244171   0.293   3.831   5.093 -0.6558 -0.7500 -0.2170
 7586TIP3   OH244172   2.123   5.154  13.011  0.1590  0.0011 -0.1665
 7586TIP3    H144173   2.060   5.122  12.948 -0.5797  0.2952  0.4031
 7586TIP3    H244174   2.103   5.106  13.092  1.2899 -0.6024 -0.2199
 7587TIP3   OH244175   1.458   2.199  15.681  0.1235 -0.0633  0.4095
 7587TIP3    H144176   1.383   2.231  15.731  0.3324  2.0088 -0.4854
 7587TIP3    H244177   1.508   2.145  15.742 -1.2996 -0.2306  1.4533
 7588TIP3   OH244178   5.300   4.982  11.901  0.2237 -0.0979 -0.1703
 7588TIP3    H144179   5.224   5.039  11.905  0.7540  0.5749  0.8499
 7588TIP3    H244180   5.272   4.902  11.946  0.0060 -0.0001 -0.1308
 7589TIP3   OH244181   3.537   6.190  17.200 -0.4122  0.4124 -0.2328
 7589TIP3    H144182   3.444   6.211  17.192 -0.2025  2.1801  1.2107
 7589TIP3    H244183   3.582   6.271  17.174  0.6179  0.4022  1.3423
 7590TIP3   OH244184   6.554   3.697   5.129 -0.0900  0.3166 -0.4080
 7590TIP3    H144185   6.563   3.670   5.220  1.2939  1.2413 -0.2265
 7590TIP3    H244186   6.583   3.622   5.078  1.7169  0.6620  0.0256
 7591TIP3   OH244187   0.816   3.375   5.892 -0.1019 -0.2214 -0.0645
 7591TIP3    H144188   0.821   3.318   5.969 -2.1227  0.5099  0.6572
 7591TIP3    H244189   0.794   3.315   5.820 -0.9701 -0.5589  0.4599
 7592TIP3   OH244190   4.450   6.374  12.331  0.0144  0.6043  0.1022
 7592TIP3    H144191   4.469   6.282  12.311 -0.3483  0.6713 -0.5830
 7592TIP3    H244192   4.504   6.423  12.269  1.5427  0.9157  1.6003
 7593TIP3   OH244193   1.969   5.912   5.621 -0.4639  0.3051  0.2248
 7593TIP3    H144194   2.043   5.968   5.600  0.1243 -1.2111 -2.1718
 7593TIP3    H244195   1.905   5.930   5.552 -0.9871 -0.6711  0.4336
 7594TIP3   OH244196   3.650   2.604  12.050 -0.3137  0.1483  0.4564
 7594TIP3    H144197   3.599   2.654  11.985  1.7299 -1.8857 -3.0053
 7594TIP3    H244198   3.622   2.513  12.037  1.0928 -0.4673  1.5460
 7595TIP3   OH244199   0.033   3.837  14.327  0.5084 -0.7601 -0.1829
 7595TIP3    H144200   0.121   3.849  14.362 -0.3661 -0.5279  2.1734
 7595TIP3    H244201   0.023   3.742  14.318  1.0059 -0.7828 -0.4715
 7596TIP3   OH244202   1.950   0.217  13.475  0.3138 -0.2214 -0.0103
 7596TIP3    H144203   1.994   0.302  13.464  1.7378 -0.7884  1.0091
 7596TIP3    H244204   1.913   0.221  13.563 -0.3028 -0.3848 -0.2531
 7597TIP3   OH244205   6.352   3.655  14.016  0.3006  0.0318  0.9115
 7597TIP3    H144206   6.328   3.683  13.928 -0.1134  2.4191  1.6966
 7597TIP3    H244207   6.365   3.737  14.064 -2.2031 -1.0669  3.7750
 7598TIP3   OH244208   2.729   0.349   4.648 -0.2835 -0.2729 -0.1941
 7598TIP3    H144209   2.773   0.420   4.696 -0.4097  0.3987 -1.0514
 7598TIP3    H244210   2.637   0.374   4.648 -0.1797  0.1946 -1.5119
 7599TIP3   OH244211   5.022   2.371  11.796  0.5492 -0.3709 -0.0256
 7599TIP3    H144212   4.988   2.411  11.876  0.7950 -0.3866  0.0891
 7599TIP3    H244213   4.977   2.287  11.791  0.8140 -0.5339  0.3023
 7600TIP3   OH244214   3.706   2.559  15.266  0.2447 -0.5118  0.1036
 7600TIP3    H144215   3.728   2.472  15.233  1.2550 -0.6501  1.1002
 7600TIP3    H244216   3.789   2.605  15.271 -0.0040 -0.1654  1.4673
 7601TIP3   OH244217   3.253   3.976   4.881 -0.1901  0.5684  0.0735
 7601TIP3    H144218   3.313   4.043   4.849 -0.9854  1.8359  1.1527
 7601TIP3    H244219   3.263   3.904   4.819  1.2999  1.3436 -0.6425
 7602TIP3   OH244220   1.925   3.261  10.606  0.4904 -0.0228  0.6640
 7602TIP3    H144221   2.003   3.314  10.625  0.1546  0.1186  1.7133
 7602TIP3    H244222   1.945   3.176  10.646  0.8308 -0.5606 -0.6016
 7603TIP3   OH244223   0.518   4.450  12.331 -0.5066  0.3603  0.6577
 7603TIP3    H144224   0.458   4.486  12.265 -1.1775 -1.7954  0.0215
 7603TIP3    H244225   0.594   4.508  12.327 -1.0807  1.0758 -1.0646
 7604TIP3   OH244226   3.177   5.309   4.045  0.4443  0.1644  0.2479
 7604TIP3    H144227   3.237   5.248   4.001  1.4461  1.0284  0.3613
 7604TIP3    H244228   3.136   5.358   3.974 -0.1370 -0.4220  0.1701
 7605TIP3   OH244229   4.407   3.573   2.762  0.4061 -0.0773 -0.0961
 7605TIP3    H144230   4.432   3.657   2.724 -0.0551 -0.2914 -0.9056
 7605TIP3    H244231   4.398   3.515   2.686 -0.8125 -0.4489  0.3181
 7606TIP3   OH244232   1.388   3.402  14.884  0.2203 -0.1180 -0.2270
 7606TIP3    H144233   1.465   3.408  14.941  0.0990 -0.5242 -0.0156
 7606TIP3    H244234   1.399   3.473  14.821  0.5647  0.0776  0.0519
 7607TIP3   OH244235   6.611   0.900  13.515  0.1115  0.1728 -0.1984
 7607TIP3    H144236   6.615   0.962  13.587  0.9748 -0.3500  0.2150
 7607TIP3    H244237   6.524   0.861  13.521  1.1256 -2.0514  2.4619
 7608TIP3   OH244238   3.714   4.782  16.965 -0.0196 -0.2813  0.1038
 7608TIP3    H144239   3.804   4.768  16.994  0.5278 -0.4832 -1.5443
 7608TIP3    H244240   3.660   4.757  17.040  1.2701 -0.8954  0.8624
 7609TIP3   OH244241   4.402   6.572  13.193 -0.4888 -0.0459  0.1383
 7609TIP3    H144242   4.433   6.518  13.120 -0.3915 -1.0584  0.9018
 7609TIP3    H244243   4.416   6.662  13.164 -0.2088 -0.4349 -0.9845
 7610TIP3   OH244244   2.492   2.364  11.003 -0.4947  0.3477 -0.5885
 7610TIP3    H144245   2.501   2.454  10.970  0.6073  0.4787  0.0345
 7610TIP3    H244246   2.577   2.323  10.985 -0.9591 -0.5436 -0.7846
 7611TIP3   OH244247   1.589   0.986   3.124 -0.0672 -0.3701  0.4572
 7611TIP3    H144248   1.583   1.065   3.071 -0.8623 -1.9829 -2.0242
 7611TIP3    H244249   1.680   0.984   3.154 -0.4066  2.2361  1.9429
 7612TIP3   OH244250   4.522   3.558  10.936 -0.0827  0.3387  0.0602
 7612TIP3    H144251   4.467   3.526  11.007 -0.3228  0.5214 -0.0452
 7612TIP3    H244252   4.608   3.571  10.977 -0.6060  1.9593  0.7016
 7613TIP3   OH244253   2.980   3.212  12.220 -0.4484 -0.3383 -0.4995
 7613TIP3    H144254   2.894   3.178  12.196 -0.6253  0.0682 -0.4548
 7613TIP3    H244255   2.961   3.282  12.283 -0.1459  0.4322 -1.2472
 7614TIP3   OH244256   3.858   4.085  17.102 -0.4475  0.3313 -0.8912
 7614TIP3    H144257   3.885   4.111  17.190  0.8167  0.0768 -1.1863
 7614TIP3    H244258   3.863   4.166  17.051  1.8294 -0.0691 -1.4131
 7615TIP3   OH244259   6.206   2.530  16.245  0.1696  0.0437  0.6217
 7615TIP3    H144260   6.240   2.595  16.306 -1.6991  0.4809  1.2742
 7615TIP3    H244261   6.157   2.469  16.300 -0.4046 -0.3298 -0.2861
 7616TIP3   OH244262   4.654   3.209  14.643  0.0522 -0.3846 -0.4552
 7616TIP3    H144263   4.728   3.258  14.680 -1.2928  2.8107 -1.5568
 7616TIP3    H244264   4.603   3.181  14.719 -0.5497  2.4941  0.3380
 7617TIP3   OH244265   5.872   4.910  10.937 -0.2046  0.3771 -0.2097
 7617TIP3    H144266   5.884   4.910  10.842  0.6793  2.7509 -0.1562
 7617TIP3    H244267   5.955   4.942  10.971 -0.7279  0.1443  1.3462
 7618TIP3   OH244268   5.291   4.524  11.211 -0.0117  0.2913 -0.2298
 7618TIP3    H144269   5.304   4.619  11.203  0.2541  0.4859  1.9242
 7618TIP3    H244270   5.197   4.514  11.226  0.1262  0.3374  0.7198
 7619TIP3   OH244271   5.466   4.889  11.392 -0.0046  0.1177  0.2699
 7619TIP3    H144272   5.403   4.904  11.463 -0.9892  1.6972 -0.8785
 7619TIP3    H244273   5.415   4.850  11.322  1.4493 -3.9177  1.1696
 7620TIP3   OH244274   6.466   3.695  16.957 -0.2038 -0.3130 -0.0682
 7620TIP3    H144275   6.540   3.707  16.897  0.8478  0.2845  1.2849
 7620TIP3    H244276   6.456   3.600  16.964  2.1233 -0.5086  1.6368
 7621TIP3   OH244277   0.502   4.295  12.898 -0.0055 -0.6211  0.7263
 7621TIP3    H144278   0.570   4.260  12.956  0.6591  0.5338  0.6661
 7621TIP3    H244279   0.547   4.315  12.816 -0.7327 -1.2549  0.1441
 7622TIP3   OH244280   0.344   2.612   6.308 -0.3789  0.3572  0.1298
 7622TIP3    H144281   0.305   2.528   6.282 -1.7231  0.2798  2.1043
 7622TIP3    H244282   0.437   2.602   6.289 -0.6424 -1.2494 -0.5057
 7623TIP3   OH244283   3.406   3.920  11.973  0.0775 -0.1345 -1.2021
 7623TIP3    H144284   3.404   4.015  11.985  2.4901 -0.1866  0.2456
 7623TIP3    H244285   3.314   3.894  11.974 -0.6113  2.0932 -0.7892
 7624TIP3   OH244286   4.970   2.755  15.558  0.4105  0.1072 -0.2168
 7624TIP3    H144287   4.915   2.771  15.635  0.8833 -0.3724  0.2252
 7624TIP3    H244288   4.944   2.668  15.527  2.1755 -0.9329  1.0910
 7625TIP3   OH244289   2.968   3.895  13.565 -0.4040 -0.1236  0.0733
 7625TIP3    H144290   3.062   3.905  13.549 -0.2584 -1.1069  0.2452
 7625TIP3    H244291   2.942   3.821  13.510 -1.2551  0.6367 -0.5842
 7626TIP3   OH244292   2.585   5.552   1.672 -0.1634  0.5673  0.8758
 7626TIP3    H144293   2.625   5.504   1.745 -2.0532 -1.6557  0.5805
 7626TIP3    H244294   2.659   5.584   1.621  1.1963 -0.0623  2.3568
 7627TIP3   OH244295   0.505   4.208   2.185  0.5723  0.3201 -0.2993
 7627TIP3    H144296   0.477   4.281   2.241  2.1824 -0.9861  2.3841
 7627TIP3    H244297   0.423   4.169   2.155 -0.3361  2.9436 -1.5620
 7628TIP3   OH244298   2.821   6.232  15.524 -0.7600  0.2604  0.1068
 7628TIP3    H144299   2.881   6.166  15.488 -0.3768 -0.0160  1.2072
 7628TIP3    H244300   2.859   6.316  15.497  0.0499  0.0867  0.6657
 7629TIP3   OH244301   6.420   5.094  16.173 -0.5967 -0.0198 -0.1631
 7629TIP3    H144302   6.404   5.166  16.233  0.2443 -0.4108  0.5403
 7629TIP3    H244303   6.404   5.015  16.224  1.0960 -0.3814 -0.1242
 7630TIP3   OH244304   6.652   1.756   4.018 -0.7873 -0.1578  0.8194
 7630TIP3    H144305   6.664   1.694   3.947  0.8589 -1.2670  1.9756
 7630TIP3    H244306   6.614   1.834   3.977  1.2662 -0.2622 -1.5172
 7631TIP3   OH244307   5.168   1.884  15.515 -0.0136 -0.2026  0.1344
 7631TIP3    H144308   5.243   1.833  15.546  0.9060  0.2788 -1.2230
 7631TIP3    H244309   5.116   1.822  15.465 -0.7494 -0.6289  1.3831
 7632TIP3   OH244310   2.080   2.204  13.379 -0.3671  0.4448  0.0367
 7632TIP3    H144311   2.018   2.171  13.444 -1.8057  0.8263 -1.0842
 7632TIP3    H244312   2.147   2.247  13.431 -1.1937  0.2736  1.3041
 7633TIP3   OH244313   1.193   3.105  15.774 -0.0068  0.3552  0.1304
 7633TIP3    H144314   1.211   3.041  15.705  0.4241 -0.5330  1.0404
 7633TIP3    H244315   1.279   3.143  15.794 -0.0685  0.3335  0.4374
 7634TIP3   OH244316   3.199   2.405   3.422  0.0555 -0.2695 -0.1321
 7634TIP3    H144317   3.204   2.376   3.513 -0.0031  1.2882  0.3936
 7634TIP3    H244318   3.230   2.330   3.371 -1.6819 -1.8449  1.0229
 7635TIP3   OH244319   5.500   5.904  16.478  0.2328  0.4362 -0.4069
 7635TIP3    H144320   5.482   5.884  16.570 -1.7541  0.8757 -0.6538
 7635TIP3    H244321   5.595   5.907  16.472  0.3977  0.5051  1.6493
 7636TIP3   OH244322   6.785   3.375  14.724 -0.5443  0.2126 -1.4393
 7636TIP3    H144323   6.701   3.421  14.722  0.0865  1.5330  0.1820
 7636TIP3    H244324   6.765   3.288  14.689 -3.1657 -0.3779  1.1029
 7637TIP3   OH244325   2.091   0.983  14.098  0.5160 -0.2764  0.5895
 7637TIP3    H144326   2.074   0.981  14.192 -1.8050  0.4795  0.2524
 7637TIP3    H244327   2.073   1.073  14.072 -2.0791 -1.1420 -1.0213
 7638TIP3   OH244328   5.721   6.342   3.761 -0.6434  0.3049  0.2986
 7638TIP3    H144329   5.759   6.287   3.693 -0.5896  0.2966  0.3350
 7638TIP3    H244330   5.732   6.432   3.728 -1.9033  0.2442 -0.3648
 7639TIP3   OH244331   2.669   3.432   5.696 -0.5815  0.0183  0.5057
 7639TIP3    H144332   2.625   3.373   5.758  0.7391 -1.9535 -0.3617
 7639TIP3    H244333   2.754   3.392   5.681  0.8440  2.7811  0.7226
 7640TIP3   OH244334   3.139   3.374   2.566  0.4162  0.1992 -0.5550
 7640TIP3    H144335   3.129   3.469   2.571 -0.9774  0.0489 -0.0961
 7640TIP3    H244336   3.121   3.344   2.655  1.3221 -0.4644 -0.5889
 7641TIP3   OH244337   1.286   4.024  10.756  0.7396  0.3637  0.1392
 7641TIP3    H144338   1.239   3.974  10.690  2.3623  1.2826 -1.7924
 7641TIP3    H244339   1.231   4.101  10.771 -0.1495 -0.3587  0.6908
 7642TIP3   OH244340   1.276   0.883  16.129 -0.3540  0.7018  0.0383
 7642TIP3    H144341   1.248   0.869  16.220  1.8676 -0.2134  0.6279
 7642TIP3    H244342   1.210   0.837  16.077  0.6097 -2.6028  1.4346
 7643TIP3   OH244343   0.223   1.827  16.571  0.6110  0.2692  0.3296
 7643TIP3    H144344   0.270   1.822  16.488 -1.3418  0.1659 -0.8228
 7643TIP3    H244345   0.236   1.741  16.611 -0.2847 -0.5066 -0.9607
 7644TIP3   OH244346   2.089   6.763   0.250 -0.0835  0.1645 -0.1372
 7644TIP3    H144347   2.026   6.787   0.317 -0.6928 -0.3699 -0.5071
 7644TIP3    H244348   2.168   6.814   0.271 -0.5795  0.7106  0.4177
 7645TIP3   OH244349   0.678   1.476   6.774  0.4717 -0.0192 -0.7665
 7645TIP3    H144350   0.753   1.462   6.831 -0.5727  1.8359  1.2211
 7645TIP3    H244351   0.625   1.397   6.784  1.7352 -1.0066 -1.5845
 7646TIP3   OH244352   1.169   2.530   3.809  0.2281  0.2223  0.1892
 7646TIP3    H144353   1.204   2.444   3.784  1.1745  1.2534 -2.2314
 7646TIP3    H244354   1.074   2.518   3.805  0.3393 -0.2465 -1.9903
 7647TIP3   OH244355   1.586   3.763  16.674 -0.4896  0.2291 -0.1386
 7647TIP3    H144356   1.546   3.680  16.700 -0.0425  0.2825  0.7438
 7647TIP3    H244357   1.643   3.786  16.747  0.7293  0.4370 -1.1227
 7648TIP3   OH244358   1.401   3.654   4.114  0.3760  0.4546 -0.3680
 7648TIP3    H144359   1.334   3.710   4.073 -0.8928 -0.2155  0.7029
 7648TIP3    H244360   1.403   3.576   4.059 -0.5722 -0.0013  0.2101
 7649TIP3   OH244361   0.200   2.234  13.684 -0.2277 -0.2021 -0.5154
 7649TIP3    H144362   0.165   2.146  13.675  0.2109 -0.4438  0.0510
 7649TIP3    H244363   0.248   2.249  13.602  1.4774 -1.3256  0.2171
 7650TIP3   OH244364   4.882   1.640   2.420 -0.5059  0.5146  0.3814
 7650TIP3    H144365   4.891   1.579   2.346  0.7256  0.0346  0.9045
 7650TIP3    H244366   4.852   1.721   2.379  0.3254  0.3135 -0.6820
 7651TIP3   OH244367   2.998   2.207   5.047  0.1168 -0.6347 -0.2730
 7651TIP3    H144368   2.984   2.112   5.041  0.6795 -0.6786 -0.9554
 7651TIP3    H244369   2.997   2.225   5.141  0.4467 -1.3878 -0.1149
 7652TIP3   OH244370   2.183   4.823   0.250  0.0628  0.7195  0.7580
 7652TIP3    H144371   2.109   4.763   0.244 -1.0445  2.0637  0.3672
 7652TIP3    H244372   2.163   4.892   0.187  0.6958  2.1049  2.0029
 7653TIP3   OH244373   6.331   1.933   3.992  1.2131  0.0846 -0.0600
 7653TIP3    H144374   6.334   1.914   4.085  2.7164  0.9122  0.1012
 7653TIP3    H244375   6.398   2.001   3.979 -0.9357  2.1616 -1.2467
 7654TIP3   OH244376   0.881   5.965  13.937  0.9431 -0.1320  0.1654
 7654TIP3    H144377   0.796   5.939  13.902  0.7245 -1.6298  1.6358
 7654TIP3    H244378   0.945   5.926  13.878  0.6061 -0.0465 -0.2564
 7655TIP3   OH244379   5.532   3.980   0.273  0.0360 -0.0358  0.4467
 7655TIP3    H144380   5.584   3.911   0.233 -1.5555 -1.8745  1.4073
 7655TIP3    H244381   5.587   4.058   0.267  1.5423 -1.1695 -1.4400
 7656TIP3   OH244382   5.960   6.626  15.107  0.5873 -0.2302  0.0042
 7656TIP3    H144383   6.001   6.712  15.112  1.3442 -0.6349  1.3141
 7656TIP3    H244384   5.878   6.641  15.061  0.3515  1.3358  0.8736
 7657TIP3   OH244385   0.197   3.217   3.706  0.0479 -0.7924  0.0203
 7657TIP3    H144386   0.287   3.226   3.674  0.1692 -0.4148  0.4588
 7657TIP3    H244387   0.142   3.243   3.631  0.3471  1.3215  0.4889
 7658TIP3   OH244388   1.327   3.381  13.395 -0.6445 -0.1165  0.2226
 7658TIP3    H144389   1.333   3.444  13.323 -0.8637 -1.2337 -0.7988
 7658TIP3    H244390   1.412   3.337  13.395 -1.2540 -1.3363 -0.5204
 7659TIP3   OH244391   0.311   1.543  16.557  0.1380 -0.1847  0.2283
 7659TIP3    H144392   0.406   1.555  16.552  0.1733 -0.7354 -0.6790
 7659TIP3    H244393   0.300   1.453  16.584 -0.1209 -0.2706 -0.1550
 7660TIP3   OH244394   3.641   3.214   2.015 -0.2643  0.0334  0.0588
 7660TIP3    H144395   3.685   3.175   2.090 -1.1752 -1.8578 -0.3362
 7660TIP3    H244396   3.560   3.165   2.006 -0.8680  1.1896 -1.2927
 7661TIP3   OH244397   1.271   6.365   1.032 -0.1517 -0.2792  0.6754
 7661TIP3    H144398   1.320   6.447   1.027 -3.4494  1.8910 -0.1989
 7661TIP3    H244399   1.290   6.321   0.949 -0.8267  1.3491 -0.4223
 7662TIP3   OH244400   3.901   0.619  11.708 -0.0152 -0.1391  0.2568
 7662TIP3    H144401   3.936   0.551  11.765  1.4959 -0.8123 -1.3759
 7662TIP3    H244402   3.977   0.673  11.684 -0.9942  1.5049  0.6441
 7663TIP3   OH244403   0.382   2.025  15.032  0.1048  0.1042 -0.1965
 7663TIP3    H144404   0.323   1.968  15.081  0.6724 -0.7962 -0.5369
 7663TIP3    H244405   0.325   2.093  14.995 -0.1868  1.6847  2.8475
 7664TIP3   OH244406   3.431   1.821   5.788 -0.3203 -0.3474 -0.1344
 7664TIP3    H144407   3.394   1.903   5.755 -0.4451 -1.2691 -2.4422
 7664TIP3    H244408   3.371   1.794   5.857 -0.7003  1.1053  0.1447
 7665TIP3   OH244409   0.963   5.298   2.505 -0.1397 -0.1217 -0.1606
 7665TIP3    H144410   0.872   5.313   2.481  0.5814  1.5206 -2.1830
 7665TIP3    H244411   1.006   5.272   2.424  1.1392 -1.4299  0.8583
 7666TIP3   OH244412   6.082   2.801   1.318 -0.6764 -0.9093 -0.0170
 7666TIP3    H144413   6.082   2.896   1.306 -0.3465 -0.7130  1.3451
 7666TIP3    H244414   5.992   2.774   1.296 -0.9015 -0.2173  0.0227
 7667TIP3   OH244415   5.300   2.740   2.702 -0.0520  0.6228 -0.2119
 7667TIP3    H144416   5.301   2.797   2.779 -0.4977 -0.5085  0.6434
 7667TIP3    H244417   5.296   2.651   2.737 -1.1406  0.1165 -1.5433
 7668TIP3   OH244418   6.399   4.360  15.998 -0.2361 -0.1323  0.0196
 7668TIP3    H144419   6.429   4.297  15.932  1.0002  0.0564  0.3705
 7668TIP3    H244420   6.473   4.369  16.058  0.0568  2.4504 -0.6181
 7669TIP3   OH244421   6.052   3.218  16.122  0.3173 -0.2906  0.5649
 7669TIP3    H144422   6.080   3.278  16.053 -0.1298 -1.7001 -0.9107
 7669TIP3    H244423   6.121   3.224  16.189 -0.2131  2.5605  0.9791
 7670TIP3   OH244424   6.652   2.445  13.744  0.3076  0.2227  0.2633
 7670TIP3    H144425   6.565   2.407  13.739  0.7602 -0.7584 -0.3652
 7670TIP3    H244426   6.669   2.453  13.838  0.8686 -2.7877  0.5084
 7671TIP3   OH244427   4.209   4.233  17.165  0.4322  0.6198 -0.1284
 7671TIP3    H144428   4.179   4.324  17.159  0.4007  0.5944 -0.3766
 7671TIP3    H244429   4.303   4.237  17.148  0.4443  0.6141 -0.0632
 7672TIP3   OH244430   6.686   6.685   1.734  0.4440  0.3951 -0.0906
 7672TIP3    H144431   6.596   6.684   1.767  1.5183 -1.2394  3.3089
 7672TIP3    H244432   6.695   6.601   1.687  0.2592  0.4556 -0.2339
 7673TIP3   OH244433   5.453   6.484   5.350 -0.6445 -0.0682  0.3616
 7673TIP3    H144434   5.460   6.408   5.407  0.2137  0.1908  0.6075
 7673TIP3    H244435   5.413   6.552   5.405 -1.3054 -0.2917  0.1740
 7674TIP3   OH244436   0.370   2.585  12.863  0.0704 -0.2227 -0.0992
 7674TIP3    H144437   0.410   2.521  12.803 -0.9308  0.7782 -1.9193
 7674TIP3    H244438   0.415   2.667  12.843  0.4043 -0.0512  1.2574
 7675TIP3   OH244439   1.551   4.331   0.387 -0.0753  0.0575 -0.4802
 7675TIP3    H144440   1.596   4.274   0.325  1.4378  0.4220  0.2350
 7675TIP3    H244441   1.465   4.292   0.397 -0.1045 -0.4204 -2.2340
 7676TIP3   OH244442   2.300   1.657  11.247  0.4578 -0.2833 -0.6821
 7676TIP3    H144443   2.286   1.711  11.170 -0.5381 -0.6222 -0.7534
 7676TIP3    H244444   2.388   1.620  11.235  0.2356 -0.5053 -1.7658
 7677TIP3   OH244445   5.622   0.712   5.548 -0.6280  0.1641 -0.2488
 7677TIP3    H144446   5.703   0.736   5.594 -0.6879 -1.6801  0.9173
 7677TIP3    H244447   5.649   0.704   5.456  1.0711 -2.3112  0.3491
 7678TIP3   OH244448   2.083   2.134  16.123  0.0645 -0.5693  0.5535
 7678TIP3    H144449   2.040   2.206  16.077  1.0266  1.0729  2.0849
 7678TIP3    H244450   2.020   2.106  16.190 -0.1904 -0.9641  0.1544
 7679TIP3   OH244451   2.324   5.603   1.364  1.0464 -0.5090  0.4178
 7679TIP3    H144452   2.296   5.582   1.453 -0.3453 -3.6402 -0.6083
 7679TIP3    H244453   2.400   5.548   1.349  2.5255  1.4861  0.2465
 7680TIP3   OH244454   3.497   1.716   5.536  0.7191 -0.0444  0.0229
 7680TIP3    H144455   3.537   1.632   5.557  0.2233 -0.0181  1.1375
 7680TIP3    H244456   3.481   1.757   5.621 -0.6739  0.4044 -0.4297
 7681TIP3   OH244457   3.643   4.206   5.856 -0.6993  0.4102  0.9275
 7681TIP3    H144458   3.563   4.258   5.860 -0.6533  0.7301 -1.0226
 7681TIP3    H244459   3.621   4.135   5.795 -0.1429 -0.7332  2.0307
 7682TIP3   OH244460   1.399   6.582   0.964  0.1525  0.1526 -0.3716
 7682TIP3    H144461   1.454   6.619   1.033 -0.1336 -0.0662 -0.0221
 7682TIP3    H244462   1.451   6.591   0.885 -0.0809  1.7472 -0.3930
 7683TIP3   OH244463   2.220   5.426  13.057  0.2427 -0.4634  0.0921
 7683TIP3    H144464   2.131   5.442  13.090 -0.1370 -1.5535 -0.3578
 7683TIP3    H244465   2.216   5.339  13.018  1.2333 -0.0916 -0.9053
 7684TIP3   OH244466   5.310   4.879   6.187 -0.1502  0.0476 -0.2123
 7684TIP3    H144467   5.353   4.956   6.149  0.0145  0.1807  0.2342
 7684TIP3    H244468   5.225   4.912   6.218 -0.1916 -0.0096 -0.2655
 7685TIP3   OH244469   3.855   1.974  15.049  0.4353 -0.1661 -0.2284
 7685TIP3    H144470   3.781   1.913  15.054  0.4406 -0.2216 -0.7329
 7685TIP3    H244471   3.903   1.960  15.130 -0.1757 -0.0463  0.1630
 7686TIP3   OH244472   5.049   0.228   2.382  0.0943 -0.6590  0.1480
 7686TIP3    H144473   5.015   0.182   2.305 -0.2555  1.4907 -1.0883
 7686TIP3    H244474   5.101   0.300   2.345 -0.5318  0.7751  1.8947
 7687TIP3   OH244475   5.475   1.042   4.666 -0.3221  0.0463 -0.3133
 7687TIP3    H144476   5.464   1.087   4.750 -0.8069 -0.7202  0.0495
 7687TIP3    H244477   5.397   0.988   4.658 -0.1022 -0.1638 -1.0911
 7688TIP3   OH244478   3.954   3.957   5.917 -0.3405 -0.1749  0.3107
 7688TIP3    H144479   4.028   4.017   5.904 -0.3513 -0.4091 -0.9043
 7688TIP3    H244480   3.877   4.012   5.905 -0.3524 -0.5238 -1.3944
 7689TIP3   OH244481   2.327   3.517  14.498 -0.5767  0.0608  0.1061
 7689TIP3    H144482   2.257   3.555  14.444  0.2692  0.1944 -0.9246
 7689TIP3    H244483   2.376   3.592  14.530  1.8172 -0.0308 -2.8926
 7690TIP3   OH244484   1.802   4.756   5.284  0.2646  0.2099  0.3288
 7690TIP3    H144485   1.836   4.671   5.257 -0.4440 -0.7174  2.1832
 7690TIP3    H244486   1.846   4.819   5.227  1.1412 -1.3525 -0.7854
 7691TIP3   OH244487   5.887   3.892  16.689 -0.4061  0.4472 -0.4628
 7691TIP3    H144488   5.832   3.813  16.693  0.0288  0.1459 -0.2229
 7691TIP3    H244489   5.945   3.883  16.765 -0.4633  1.0845 -0.3409
 7692TIP3   OH244490   1.616   5.445   4.526 -0.7591 -0.2621 -0.9353
 7692TIP3    H144491   1.539   5.496   4.548  0.2832  0.4460  1.3601
 7692TIP3    H244492   1.584   5.355   4.515 -1.7703 -0.1695  0.9801
 7693TIP3   OH244493   0.301   2.573  13.465  0.0427 -0.2277 -0.0385
 7693TIP3    H144494   0.371   2.587  13.528 -0.2710  2.0164 -0.1122
 7693TIP3    H244495   0.220   2.573  13.517 -0.2903  2.4085 -0.3900
 7694TIP3   OH244496   0.600   6.014  15.129  0.6210 -0.1288 -0.2515
 7694TIP3    H144497   0.612   5.929  15.087  2.7900 -0.0176 -0.0123
 7694TIP3    H244498   0.517   6.007  15.177  0.4823 -1.8943 -0.7095
 7695TIP3   OH244499   4.560   3.022  11.785  0.2688 -0.1789 -0.2101
 7695TIP3    H144500   4.582   2.971  11.707  2.9216  2.0480 -1.0652
 7695TIP3    H244501   4.611   2.981  11.856  2.3449  1.1348 -0.8802
 7696TIP3   OH244502   4.281   3.232  12.985  0.6574  0.0937 -0.3858
 7696TIP3    H144503   4.253   3.173  13.055  0.3049 -0.5720 -1.0702
 7696TIP3    H244504   4.312   3.310  13.031  0.7231 -0.4453  0.5222
 7697TIP3   OH244505   2.589   1.494  16.073  0.1766 -0.3059  0.6867
 7697TIP3    H144506   2.570   1.587  16.085 -0.9216 -0.5208  0.7047
 7697TIP3    H244507   2.668   1.479  16.124  2.2580  1.3007 -1.8040
 7698TIP3   OH244508   5.423   2.594  10.722 -0.2732 -0.2653  0.3999
 7698TIP3    H144509   5.345   2.650  10.719  0.3189  0.6867  1.6027
 7698TIP3    H244510   5.477   2.623  10.649  0.5954  1.6834  1.7263
 7699TIP3   OH244511   5.887   4.997  12.812  0.0032 -0.3739  0.6360
 7699TIP3    H144512   5.867   4.998  12.906 -1.4853  2.9868  0.4300
 7699TIP3    H244513   5.977   5.027  12.807 -0.2599  0.5418  1.0151
 7700TIP3   OH244514   6.761   2.254  11.578  0.1825 -0.0033 -0.0895
 7700TIP3    H144515   6.836   2.233  11.522  0.2717 -1.1648  0.4439
 7700TIP3    H244516   6.767   2.348  11.591  1.3965 -0.0397 -0.2809
 7701TIP3   OH244517   4.066   3.548  12.460  0.0702 -0.0385 -0.3787
 7701TIP3    H144518   3.977   3.551  12.426  0.2184  0.5473 -0.7311
 7701TIP3    H244519   4.074   3.461  12.498  0.2042 -1.0841 -2.6721
 7702TIP3   OH244520   3.679   1.258   4.420 -0.1410 -0.1732 -0.6844
 7702TIP3    H144521   3.629   1.183   4.388 -2.1954 -0.0920  1.9666
 7702TIP3    H244522   3.758   1.220   4.460 -0.2147 -0.7333 -1.0719
 7703TIP3   OH244523   4.730   1.567  10.411 -0.1973  0.4702 -0.3543
 7703TIP3    H144524   4.770   1.642  10.369  0.1460 -0.3525 -1.5192
 7703TIP3    H244525   4.795   1.498  10.406  0.5765  0.7353  3.0373
 7704TIP3   OH244526   1.189   0.374  16.421  0.5854 -0.6306  0.3409
 7704TIP3    H144527   1.149   0.373  16.508 -0.0326  1.5865  0.1434
 7704TIP3    H244528   1.134   0.314  16.369 -0.9018  0.3133  0.7577
 7705TIP3   OH244529   1.172   6.033  14.097  0.0515  0.0120 -0.1295
 7705TIP3    H144530   1.197   6.087  14.021  3.1751 -0.7328  0.2154
 7705TIP3    H244531   1.114   6.089  14.148  0.1679  1.6171 -1.6496
 7706TIP3   OH244532   0.457   0.193   5.682  0.2665  0.0819 -0.3043
 7706TIP3    H144533   0.552   0.195   5.691  0.3268 -1.6139 -0.2619
 7706TIP3    H244534   0.442   0.207   5.588  0.4631  1.6092 -0.1358
 7707TIP3   OH244535   3.559   5.582  13.362 -0.2841  0.4288 -0.0132
 7707TIP3    H144536   3.550   5.663  13.311 -1.3455  0.3603  0.0409
 7707TIP3    H244537   3.481   5.532  13.341 -0.3861  0.0831  1.1264
 7708TIP3   OH244538   2.282   1.231  16.251  0.0547 -0.1346 -0.2660
 7708TIP3    H144539   2.311   1.321  16.237 -0.6736  0.1513  0.0176
 7708TIP3    H244540   2.351   1.192  16.305 -0.1276  0.5763  0.5080
 7709TIP3   OH244541   3.811   0.227  12.624  0.4604  0.1734 -0.7234
 7709TIP3    H144542   3.785   0.294  12.561  0.3481  0.2923 -0.5505
 7709TIP3    H244543   3.794   0.266  12.710  2.2864  0.7024 -0.5691
 7710TIP3   OH244544   5.018   6.559   5.825 -0.0328 -0.4208  0.0568
 7710TIP3    H144545   4.974   6.547   5.910 -2.0271 -0.5498 -0.9186
 7710TIP3    H244546   5.005   6.651   5.804 -0.8020 -0.6847 -0.7088
 7711TIP3   OH244547   0.508   0.865   2.157  0.5150  0.1485  0.4462
 7711TIP3    H144548   0.578   0.804   2.137  1.7965  1.5370  0.5204
 7711TIP3    H244549   0.518   0.935   2.093  0.4894  1.3722  1.7296
 7712TIP3   OH244550   0.267   0.260   4.847 -0.0532 -0.0611  0.1967
 7712TIP3    H144551   0.213   0.218   4.780 -0.2960  1.4331 -0.5784
 7712TIP3    H244552   0.351   0.215   4.842 -0.2747 -0.3999 -0.6756
 7713TIP3   OH244553   2.024   5.939   0.593 -0.5542 -0.1461  0.5063
 7713TIP3    H144554   1.967   5.872   0.630 -1.8031 -0.3862 -1.6594
 7713TIP3    H244555   1.990   6.021   0.629 -1.5393 -0.3846  0.1580
 7714TIP3   OH244556   0.472   2.387   3.579 -0.2671  0.5099 -0.0585
 7714TIP3    H144557   0.415   2.354   3.649 -1.0513  0.5845 -0.6457
 7714TIP3    H244558   0.473   2.482   3.592 -0.5992  0.5458 -0.2783
 7715TIP3   OH244559   1.517   1.748  12.813  0.5818 -0.0045 -0.1580
 7715TIP3    H144560   1.484   1.659  12.797 -0.2686  0.5986 -2.1102
 7715TIP3    H244561   1.612   1.737  12.818  0.4284 -1.1566  0.7912
 7716TIP3   OH244562   6.053   1.168  16.813 -0.1314 -0.1163  0.2089
 7716TIP3    H144563   6.018   1.228  16.747  2.4908  2.2555  0.7685
 7716TIP3    H244564   6.122   1.120  16.767  1.9251  1.7703  1.1604
 7717TIP3   OH244565   1.315   4.725   6.111  0.2739 -0.6254 -0.1708
 7717TIP3    H144566   1.336   4.803   6.163 -0.8218  1.2448 -2.3458
 7717TIP3    H244567   1.378   4.728   6.038  0.3192 -1.9044 -0.2061
 7718TIP3   OH244568   2.180   5.541   1.134 -0.2725 -0.9391 -0.5209
 7718TIP3    H144569   2.160   5.613   1.074 -1.0242 -0.5419  0.1889
 7718TIP3    H244570   2.174   5.580   1.221 -1.3793 -2.0080 -0.0908
 7719TIP3   OH244571   2.534   2.071  12.660  0.2275  0.1685  0.8440
 7719TIP3    H144572   2.470   2.122  12.610  0.6905  1.1437  1.2094
 7719TIP3    H244573   2.609   2.130  12.669  0.5482 -0.3619  1.7997
 7720TIP3   OH244574   4.261   6.659  13.806  0.5544  0.4333  0.0490
 7720TIP3    H144575   4.234   6.567  13.811 -0.6780  0.8179  1.0749
 7720TIP3    H244576   4.354   6.657  13.828  0.8060 -0.6643 -1.0004
 7721TIP3   OH244577   1.029   0.743   0.937  0.5897 -0.2293  0.2232
 7721TIP3    H144578   0.992   0.738   0.849 -0.0309  1.1728  0.3780
 7721TIP3    H244579   0.954   0.731   0.996  0.4534  1.8066  0.5368
 7722TIP3   OH244580   6.694   6.205   3.156  1.0952  0.5445 -0.4329
 7722TIP3    H144581   6.680   6.189   3.249  1.4272  0.6626 -0.3619
 7722TIP3    H244582   6.697   6.300   3.148  0.3484  0.5546 -0.6740
 7723TIP3   OH244583   1.916   2.800  13.690 -0.1005 -0.0541 -0.2128
 7723TIP3    H144584   1.844   2.863  13.683  0.0522  0.2888  1.0769
 7723TIP3    H244585   1.979   2.842  13.748  1.4556 -0.0912 -1.7983
 7724TIP3   OH244586   4.660   0.763  16.809  0.1832  0.0849  0.3549
 7724TIP3    H144587   4.692   0.768  16.719 -1.5112  0.4902 -0.2509
 7724TIP3    H244588   4.632   0.672  16.819  0.6285 -0.0315  0.5789
 7725TIP3   OH244589   3.558   3.578   5.365  0.7221  0.0283 -0.2301
 7725TIP3    H144590   3.482   3.636   5.374  0.9200  0.3444 -0.5438
 7725TIP3    H244591   3.632   3.632   5.393  1.0308  0.2405 -1.4226
 7726TIP3   OH244592   5.741   2.452   1.243  0.0554 -0.0579 -0.0192
 7726TIP3    H144593   5.783   2.457   1.329 -1.6840 -0.0485  0.8651
 7726TIP3    H244594   5.683   2.529   1.240 -0.1619 -0.2445 -1.0614
 7727TIP3   OH244595   5.573   4.280  16.751  0.5582 -0.0346 -0.2774
 7727TIP3    H144596   5.513   4.309  16.820 -1.6651 -1.0727 -1.6584
 7727TIP3    H244597   5.659   4.280  16.793 -0.6985 -0.7724  2.5641
 7728TIP3   OH244598   0.573   1.125  14.391  0.0472 -1.1030  0.1640
 7728TIP3    H144599   0.561   1.063  14.463 -0.5910  0.2454  1.2619
 7728TIP3    H244600   0.634   1.191  14.426 -1.4099  0.3792  0.0386
 7729TIP3   OH244601   1.504   3.417  13.034 -0.0154  0.2246 -0.1729
 7729TIP3    H144602   1.483   3.492  13.090  1.0120  1.9346 -1.9586
 7729TIP3    H244603   1.588   3.385  13.067  1.1606  1.9393 -1.3169
 7730TIP3   OH244604   0.268   2.082  11.854  0.1840 -0.3466 -0.1324
 7730TIP3    H144605   0.335   2.041  11.798 -0.3733 -2.0060  0.3666
 7730TIP3    H244606   0.185   2.062  11.811 -0.1089  0.4538  0.0326
 7731TIP3   OH244607   6.660   0.055   4.955 -0.5782 -0.2853 -0.1811
 7731TIP3    H144608   6.656   0.027   5.046  1.0488  0.0288  0.0223
 7731TIP3    H244609   6.706  -0.016   4.910 -2.8787 -1.2517 -1.1514
 7732TIP3   OH244610   5.373   4.332  14.837  0.3247  0.1233  0.0147
 7732TIP3    H144611   5.436   4.295  14.775 -0.8720 -0.4959 -0.8857
 7732TIP3    H244612   5.303   4.368  14.781 -0.6317 -0.1682  0.9937
 7733TIP3   OH244613   1.787   2.258  17.117  0.1104  0.2673  0.2599
 7733TIP3    H144614   1.728   2.333  17.110 -0.0284  0.2442  1.0380
 7733TIP3    H244615   1.874   2.297  17.126  0.2741  0.2978 -1.1927
 7734TIP3   OH244616   3.227   0.291  13.847  0.4138  0.2247  0.6533
 7734TIP3    H144617   3.212   0.331  13.933 -1.1792 -1.4718  1.2348
 7734TIP3    H244618   3.316   0.257  13.852 -0.0806 -0.9443  2.1338
 7735TIP3   OH244619   5.923   4.300   6.083 -0.5918 -0.0551 -0.6011
 7735TIP3    H144620   5.899   4.208   6.090  0.1358 -0.1408  1.9575
 7735TIP3    H244621   5.840   4.348   6.090 -0.7084 -0.4873  1.9405
 7736TIP3   OH244622   2.232   3.801   3.661  0.3346  0.0999  0.1248
 7736TIP3    H144623   2.230   3.855   3.583  1.5007  1.0797  0.7497
 7736TIP3    H244624   2.201   3.715   3.631  0.3987  0.5524 -1.3156
 7737TIP3   OH244625   5.711   0.428   3.129  0.1793  0.6015  0.1179
 7737TIP3    H144626   5.624   0.467   3.118 -0.5375 -1.1679 -0.8821
 7737TIP3    H244627   5.772   0.499   3.110 -1.0607  1.4293 -0.9511
 7738TIP3   OH244628   2.208   3.082   2.041  0.8168  0.5414 -0.2234
 7738TIP3    H144629   2.159   3.057   1.962 -1.7463  4.3019 -0.0777
 7738TIP3    H244630   2.268   3.149   2.011  0.0424  1.7785  0.9003
 7739TIP3   OH244631   0.102   1.158   4.890 -0.0119  0.0726 -0.5341
 7739TIP3    H144632   0.113   1.237   4.944  1.5009 -0.6685  0.2950
 7739TIP3    H244633   0.012   1.130   4.909  0.1791  0.3426  0.9404
 7740TIP3   OH244634   6.062   0.970   0.168  0.1090  0.6607 -1.1734
 7740TIP3    H144635   6.040   0.978   0.260  1.3062 -0.2499 -0.7704
 7740TIP3    H244636   6.115   0.890   0.163 -1.3564 -0.2726 -2.9300
 7741TIP3   OH244637   6.622   2.126  15.113 -0.1645  0.0005 -0.4273
 7741TIP3    H144638   6.702   2.137  15.163  0.7684 -1.9975 -1.3534
 7741TIP3    H244639   6.598   2.214  15.084  1.5702  0.6512  0.0339
 7742TIP3   OH244640   2.591   0.667   1.896  0.0396 -0.1906  0.0253
 7742TIP3    H144641   2.642   0.597   1.854 -0.3849  0.1683 -1.1419
 7742TIP3    H244642   2.654   0.710   1.954  0.6014 -0.8471 -0.0748
 7743TIP3   OH244643   2.748   2.503   5.803 -0.2504  0.2575 -0.5741
 7743TIP3    H144644   2.763   2.515   5.897  0.1569 -0.1797 -0.5840
 7743TIP3    H244645   2.694   2.424   5.797  0.2458 -0.0726 -0.7448
 7744TIP3   OH244646   6.221   4.133  14.677 -0.6774 -0.0251  0.0244
 7744TIP3    H144647   6.249   4.202  14.736 -1.9136  0.3394  0.2141
 7744TIP3    H244648   6.227   4.172  14.590 -1.6991  0.4677  0.1552
 7745TIP3   OH244649   5.451   0.677   1.318 -0.2087  0.0349 -0.0709
 7745TIP3    H144650   5.420   0.587   1.304 -1.5629  0.5445 -0.6363
 7745TIP3    H244651   5.542   0.676   1.290  0.0190 -1.3315  0.6572
 7746TIP3   OH244652   4.152   3.334  13.895 -0.0886  0.1555  0.2406
 7746TIP3    H144653   4.119   3.308  13.981 -0.4300  1.2169  0.4418
 7746TIP3    H244654   4.244   3.308  13.896 -0.5548 -1.6551  0.1591
 7747TIP3   OH244655   0.697   3.373   6.343  0.2717  0.0510 -0.1423
 7747TIP3    H144656   0.745   3.331   6.271  1.0182  1.0921 -0.2728
 7747TIP3    H244657   0.721   3.465   6.337 -2.3949  0.7843 -0.7172
 7748TIP3   OH244658   6.165   3.461  13.644  0.1435  0.1612 -0.5040
 7748TIP3    H144659   6.168   3.488  13.735  1.3749  2.2278 -1.0800
 7748TIP3    H244660   6.081   3.416  13.634  1.0915 -2.5595  2.2055
 7749TIP3   OH244661   2.313   5.194  16.431 -0.4603 -0.5005 -0.2037
 7749TIP3    H144662   2.240   5.200  16.368 -0.0707 -0.8014 -0.6900
 7749TIP3    H244663   2.286   5.251  16.503 -0.1864  1.2082 -1.3672
 7750TIP3   OH244664   5.722   6.271  13.086 -0.3914  0.7468 -0.3721
 7750TIP3    H144665   5.776   6.288  13.009  1.1363  0.6235  0.6261
 7750TIP3    H244666   5.735   6.347  13.142 -0.3542  0.2055  0.3730
 7751TIP3   OH244667   2.706   5.964   4.998 -0.0494  0.1526  0.0625
 7751TIP3    H144668   2.627   5.941   5.047  0.5483  1.2105  1.5749
 7751TIP3    H244669   2.679   6.039   4.944  0.0710  0.9384  1.0709
 7752TIP3   OH244670   5.393   6.590  13.933 -0.0967 -0.1160  0.2599
 7752TIP3    H144671   5.352   6.602  13.848 -1.4250  1.6814  1.0828
 7752TIP3    H244672   5.482   6.561  13.914 -0.4721 -0.0792 -1.7074
 7753TIP3   OH244673   3.516   1.411  15.308  0.3069 -0.3791  0.0586
 7753TIP3    H144674   3.448   1.410  15.240 -0.1247 -2.2783  0.4732
 7753TIP3    H244675   3.543   1.320  15.317  0.0827 -0.2634  2.6916
 7754TIP3   OH244676   2.786   3.593  15.259  0.2895 -0.0476 -0.1433
 7754TIP3    H144677   2.752   3.651  15.191  0.7079  0.9661  0.4953
 7754TIP3    H244678   2.707   3.560  15.303  0.0656  0.7423  0.0601
 7755TIP3   OH244679   1.127   2.220   1.937  0.1835 -0.1005  0.1640
 7755TIP3    H144680   1.132   2.215   2.032  3.1140  2.1375  0.2571
 7755TIP3    H244681   1.111   2.313   1.918 -2.1504 -0.7521 -1.5791
 7756TIP3   OH244682   5.275   4.139   4.937 -0.2269  0.1912  0.0876
 7756TIP3    H144683   5.312   4.227   4.936  1.5530 -0.4860  1.1954
 7756TIP3    H244684   5.180   4.153   4.940 -0.0920  2.0092 -1.8230
 7757TIP3   OH244685   4.555   0.283   2.422  0.1243  0.1340 -0.6732
 7757TIP3    H144686   4.595   0.200   2.446 -0.0917  0.6903  1.8479
 7757TIP3    H244687   4.469   0.260   2.388 -0.3898 -0.6697  1.0609
 7758TIP3   OH244688   3.411   4.407   0.655 -0.1877 -0.0173 -0.6417
 7758TIP3    H144689   3.428   4.426   0.563  0.3217 -0.7672 -0.7100
 7758TIP3    H244690   3.388   4.492   0.693  0.6908  0.4998 -1.2237
 7759TIP3   OH244691   6.716   5.665  13.577  0.1947 -0.4676 -0.1735
 7759TIP3    H144692   6.788   5.619  13.621  0.2954 -0.9256 -0.8094
 7759TIP3    H244693   6.647   5.599  13.567 -0.5307  0.0968  0.8880
 7760TIP3   OH244694   5.226   2.132  14.943  0.3911  0.6199 -0.1707
 7760TIP3    H144695   5.225   2.094  14.856  2.9310 -0.0990  0.0363
 7760TIP3    H244696   5.306   2.098  14.984 -1.8110 -0.9656  3.3048
 7761TIP3   OH244697   2.556   4.075   1.514  0.2408  0.2731 -0.9794
 7761TIP3    H144698   2.532   4.154   1.562  1.0616  0.5359 -0.9877
 7761TIP3    H244699   2.647   4.090   1.487  0.5543 -0.8568 -0.5974
 7762TIP3   OH244700   2.286   2.849  11.183 -0.3376  0.0170  0.5346
 7762TIP3    H144701   2.315   2.837  11.093 -1.8688  0.4698 -0.0551
 7762TIP3    H244702   2.220   2.781  11.196  0.3098 -0.4386  1.5291
 7763TIP3   OH244703   0.851   5.167  12.605  0.5499  0.0598 -0.0927
 7763TIP3    H144704   0.841   5.237  12.670  0.7536 -0.3694  0.4010
 7763TIP3    H244705   0.881   5.092  12.655 -1.1122 -0.8425 -0.3618
 7764TIP3   OH244706   2.187   1.126   0.722 -0.1862 -0.4030  0.2382
 7764TIP3    H144707   2.174   1.217   0.695 -0.5718 -0.2758  0.8287
 7764TIP3    H244708   2.214   1.132   0.814 -0.9030 -0.9061  0.4951
 7765TIP3   OH244709   0.477   1.100  11.666  0.4543 -0.2250 -0.0610
 7765TIP3    H144710   0.464   1.195  11.660  1.5003  0.0163  1.1620
 7765TIP3    H244711   0.392   1.065  11.691  0.2038  0.4625  0.0617
 7766TIP3   OH244712   6.790   5.044   0.391  0.2591  0.0966  0.6071
 7766TIP3    H144713   6.803   5.077   0.480  1.4520  0.8120  0.2025
 7766TIP3    H244714   6.787   5.123   0.337  1.2579 -0.3793 -0.1710
 7767TIP3   OH244715   4.693   2.317  10.643 -0.5746 -0.0155  0.1016
 7767TIP3    H144716   4.750   2.375  10.592 -0.8619 -0.0699 -0.2882
 7767TIP3    H244717   4.742   2.235  10.648 -0.9935 -0.3452 -0.9936
 7768TIP3   OH244718   4.926   4.413   1.544  0.1937  0.0935 -0.4197
 7768TIP3    H144719   4.975   4.494   1.536 -2.8711  2.0603 -0.8192
 7768TIP3    H244720   4.928   4.374   1.456 -0.5282  1.1811 -0.9426
 7769TIP3   OH244721   3.764   3.101   3.355 -0.2757  0.2588 -0.2894
 7769TIP3    H144722   3.688   3.075   3.407 -0.7327 -1.4952 -1.7453
 7769TIP3    H244723   3.761   3.046   3.277  3.7701 -1.6569  0.5987
 7770TIP3   OH244724   3.111   4.537   2.871 -0.0962 -0.9496 -0.5705
 7770TIP3    H144725   3.169   4.484   2.926  1.7243 -0.4713 -1.9340
 7770TIP3    H244726   3.169   4.578   2.808 -1.6259  1.5358 -0.4848
 7771TIP3   OH244727   0.107   4.855  10.818 -0.6982 -0.1982  0.0298
 7771TIP3    H144728   0.116   4.787  10.885 -1.0068  1.1520  1.5021
 7771TIP3    H244729   0.193   4.897  10.816 -0.7805 -0.0417 -0.2008
 7772TIP3   OH244730   5.748   3.709   2.354 -0.5409 -0.2229 -0.4503
 7772TIP3    H144731   5.707   3.667   2.279  0.6272 -0.9085 -0.7230
 7772TIP3    H244732   5.839   3.722   2.328 -0.6687  1.8489 -0.1058
 7773TIP3   OH244733   3.416   4.641   5.855  0.0717  0.2495  0.2226
 7773TIP3    H144734   3.363   4.713   5.890  1.0047 -0.2969  3.0107
 7773TIP3    H244735   3.392   4.565   5.908  0.5034 -1.0487 -1.3753
 7774TIP3   OH244736   6.506   5.598   1.222 -0.1535  0.1946 -0.7805
 7774TIP3    H144737   6.419   5.625   1.192 -0.0807 -0.3754 -1.5049
 7774TIP3    H244738   6.514   5.638   1.309 -0.6778  1.2079 -1.1767
 7775TIP3   OH244739   6.271   5.143   5.456 -0.0225 -0.3572 -0.4278
 7775TIP3    H144740   6.220   5.214   5.495  0.6742 -1.3707  2.6037
 7775TIP3    H244741   6.209   5.071   5.447  0.0685 -0.4635 -0.1924
 7776TIP3   OH244742   6.050   6.138  12.739 -0.1838 -0.6838  0.0457
 7776TIP3    H144743   6.136   6.098  12.722  0.8871  0.3296  2.5227
 7776TIP3    H244744   5.998   6.066  12.775 -0.0400 -1.0725 -0.5073
 7777TIP3   OH244745   5.248   1.709  13.095  0.1497 -0.0996 -0.8916
 7777TIP3    H144746   5.175   1.665  13.050 -0.9919 -0.3207  1.0746
 7777TIP3    H244747   5.207   1.759  13.165  1.6801  2.0344 -1.4021
 7778TIP3   OH244748   5.704   4.701  16.331  0.4675 -0.1613 -0.3315
 7778TIP3    H144749   5.653   4.682  16.409  0.1490  0.7004 -0.3196
 7778TIP3    H244750   5.792   4.720  16.363  1.1219 -2.6507 -0.4272
 7779TIP3   OH244751   4.497   2.539  15.274  0.0535  1.0472  0.1543
 7779TIP3    H144752   4.496   2.475  15.345 -1.0311 -0.1296 -0.8746
 7779TIP3    H244753   4.466   2.620  15.315 -1.1678  0.2300  0.9114
 7780TIP3   OH244754   5.294   2.733  11.672  0.2189  0.1061  0.3625
 7780TIP3    H144755   5.384   2.701  11.681  0.4069  0.5914  0.2744
 7780TIP3    H244756   5.304   2.828  11.664 -0.3768  0.2938  1.5744
 7781TIP3   OH244757   6.657   5.109  12.623  0.7548 -0.2473 -0.3899
 7781TIP3    H144758   6.647   5.124  12.717  1.1715 -0.5842 -0.2904
 7781TIP3    H244759   6.714   5.032  12.617 -0.2800 -1.0036 -0.8980
 7782TIP3   OH244760   6.523   6.246   4.818 -0.2151 -0.7403  0.0545
 7782TIP3    H144761   6.487   6.229   4.731  2.3304 -2.2806 -0.7917
 7782TIP3    H244762   6.569   6.330   4.810 -0.4906 -0.5811  0.1127
 7783TIP3   OH244763   5.832   4.631   3.762 -0.1684  0.3187  0.7862
 7783TIP3    H144764   5.807   4.578   3.838  0.5364 -0.5423  0.4395
 7783TIP3    H244765   5.751   4.641   3.712 -0.3748 -0.2003  1.0106
 7784TIP3   OH244766   0.620   4.878   0.063 -0.2516 -0.4701 -0.3542
 7784TIP3    H144767   0.638   4.784   0.067  1.4397 -0.2994 -2.4908
 7784TIP3    H244768   0.702   4.920   0.087 -1.2468  0.5351  1.5035
 7785TIP3   OH244769   5.079   2.514   2.429 -0.2681 -0.0066  0.6041
 7785TIP3    H144770   5.009   2.547   2.374 -0.2359 -0.0105  0.5606
 7785TIP3    H244771   5.072   2.564   2.511 -1.2332 -1.0080  1.1625
 7786TIP3   OH244772   1.879   1.780   1.852 -0.5591 -0.0459 -0.0870
 7786TIP3    H144773   1.824   1.849   1.889  2.4229  1.5818  1.6759
 7786TIP3    H244774   1.916   1.736   1.928  1.0738 -0.6413 -1.1772
 7787TIP3   OH244775   5.435   4.725  11.764 -0.1416 -0.3345 -0.6670
 7787TIP3    H144776   5.524   4.694  11.781 -0.6869 -1.9811 -0.5666
 7787TIP3    H244777   5.417   4.788  11.833 -0.4036 -2.8994  1.8097
 7788TIP3   OH244778   1.341   0.693   6.591 -0.1948  0.2698  0.3813
 7788TIP3    H144779   1.411   0.757   6.577 -1.4096  1.9360  1.5879
 7788TIP3    H244780   1.385   0.619   6.634  1.0963  0.5688 -0.3703
 7789TIP3   OH244781   1.359   4.380   2.604  0.3210 -0.5359  0.2304
 7789TIP3    H144782   1.450   4.352   2.597  0.2398 -0.4811 -1.7489
 7789TIP3    H244783   1.310   4.313   2.556 -0.5342  0.0205  0.3000
 7790TIP3   OH244784   2.411   0.246  15.174 -0.2133 -0.5195  0.1215
 7790TIP3    H144785   2.437   0.169  15.124 -0.9879 -0.0611 -1.0395
 7790TIP3    H244786   2.315   0.241  15.177 -0.7648  2.5937 -3.8461
 7791TIP3   OH244787   0.884   5.789   2.415 -0.1863  0.4638  0.0129
 7791TIP3    H144788   0.839   5.795   2.331 -1.8919 -0.9723  0.7677
 7791TIP3    H244789   0.816   5.763   2.477  1.2409  0.4711  1.6598
 7792TIP3   OH244790   6.544   5.402  14.537  0.0136 -0.4895 -0.4647
 7792TIP3    H144791   6.535   5.306  14.544  0.4095 -0.8141 -3.3605
 7792TIP3    H244792   6.458   5.432  14.506  0.3932 -0.1285 -1.1823
 7793TIP3   OH244793   4.148   5.086   6.028 -0.2283 -0.7489  0.4410
 7793TIP3    H144794   4.078   5.114   5.969  0.5019 -3.0209 -1.6848
 7793TIP3    H244795   4.124   4.996   6.052  1.3692 -1.1682  0.5575
 7794TIP3   OH244796   2.964   1.403   4.523  0.0676  0.5771  0.0373
 7794TIP3    H144797   2.912   1.326   4.498 -1.3504  1.3851  0.3802
 7794TIP3    H244798   2.966   1.457   4.444  1.4481  0.0156 -0.3426
 7795TIP3   OH244799   0.694   4.566  13.970 -0.0651  0.1506  0.0985
 7795TIP3    H144800   0.744   4.596  13.895  2.3625 -4.2125 -0.3788
 7795TIP3    H244801   0.722   4.622  14.042  1.1681  1.4451 -1.3263
 7796TIP3   OH244802   3.581   6.138  15.624 -0.0626  0.3174  0.2520
 7796TIP3    H144803   3.616   6.211  15.676  0.5145 -1.4425  2.4435
 7796TIP3    H244804   3.497   6.118  15.665 -1.2547  1.0568 -1.6873
 7797TIP3   OH244805   2.371   4.528   1.499 -0.2669  0.1178  0.0517
 7797TIP3    H144806   2.291   4.495   1.539 -0.3350 -2.4534 -1.9845
 7797TIP3    H244807   2.343   4.566   1.416  0.5054 -0.0125 -0.2788
 7798TIP3   OH244808   2.918   6.302  11.676  0.0242  0.0292  0.5642
 7798TIP3    H144809   2.869   6.265  11.603  2.2813 -0.5281 -0.7770
 7798TIP3    H244810   2.858   6.365  11.716 -1.8123 -0.7577 -0.8081
 7799TIP3   OH244811   3.396   1.304   2.848 -0.0624 -0.2831 -0.2956
 7799TIP3    H144812   3.433   1.295   2.760 -0.8422  1.5661 -0.8512
 7799TIP3    H244813   3.432   1.385   2.882 -1.2042 -0.0100  0.3467
 7800TIP3   OH244814   6.193   4.675   3.153 -0.4232  0.1285 -0.1122
 7800TIP3    H144815   6.172   4.739   3.221 -2.6284 -0.8782  0.2425
 7800TIP3    H244816   6.147   4.706   3.075  0.1150 -0.0172 -0.5010
 7801TIP3   OH244817   2.923   4.029   2.376  0.3128  0.2731 -0.5688
 7801TIP3    H144818   2.850   4.008   2.318  1.6194 -2.8061 -1.3374
 7801TIP3    H244819   2.881   4.046   2.461 -1.4136  1.0810 -1.5267
 7802TIP3   OH244820   0.774   1.829   4.396  0.4183 -0.2084 -0.3539
 7802TIP3    H144821   0.858   1.830   4.351  0.6629 -1.4454  0.0350
 7802TIP3    H244822   0.779   1.754   4.454 -0.9170 -0.2367 -0.2462
 7803TIP3   OH244823   2.872   0.099   3.933 -0.2110 -0.0495  0.8628
 7803TIP3    H144824   2.958   0.058   3.924  0.5672  1.0525  2.7287
 7803TIP3    H244825   2.889   0.183   3.974 -2.1145  0.6080  0.4232
 7804TIP3   OH244826   3.332   0.146   3.796  0.5613 -0.5877 -0.7323
 7804TIP3    H144827   3.397   0.214   3.814  0.7274 -0.6284 -1.1684
 7804TIP3    H244828   3.282   0.180   3.722  1.0359 -1.1948 -1.3509
 7805TIP3   OH244829   1.287   0.497  13.517  0.5413 -0.8727  0.2370
 7805TIP3    H144830   1.301   0.586  13.548 -1.0130 -0.1601 -0.9541
 7805TIP3    H244831   1.222   0.461  13.578 -1.0918 -0.1165 -0.9805
 7806TIP3   OH244832   4.190   2.276   6.622  0.3531 -0.3083 -0.2310
 7806TIP3    H144833   4.112   2.329   6.606 -0.2643 -1.0489  0.2945
 7806TIP3    H244834   4.212   2.239   6.537  0.5934  0.5178 -0.5349
 7807TIP3   OH244835   2.574   5.984   2.812  1.0396  0.2433  0.2392
 7807TIP3    H144836   2.593   6.059   2.868  1.7059  0.4600 -0.2648
 7807TIP3    H244837   2.653   5.930   2.815  0.3481 -0.7499  1.0686
 7808TIP3   OH244838   5.837   4.743   6.755 -0.1091 -0.4099  0.2775
 7808TIP3    H144839   5.757   4.759   6.706 -0.6676  0.2152  1.3655
 7808TIP3    H244840   5.820   4.662   6.803 -0.0067 -0.3859  0.3540
 7809TIP3   OH244841   0.050   3.916  16.770  0.5693 -0.1593 -0.3934
 7809TIP3    H144842   0.129   3.902  16.718  0.6992 -0.3204 -0.1524
 7809TIP3    H244843   0.062   4.003  16.810  1.3874 -0.8835  0.9834
 7810TIP3   OH244844   4.188   6.124  13.623  0.7485  0.3058 -0.1932
 7810TIP3    H144845   4.212   6.118  13.716 -0.9314 -0.3678  0.2497
 7810TIP3    H244846   4.137   6.044  13.607  3.1716 -0.9410 -2.4272
 7811TIP3   OH244847   4.956   2.362   5.633  0.0447 -0.5966  0.1878
 7811TIP3    H144848   4.923   2.301   5.699 -1.2696 -1.0750 -0.8683
 7811TIP3    H244849   5.042   2.327   5.609  0.6638 -0.2513  1.8246
 7812TIP3   OH244850   4.377   2.752  11.649 -0.2367  0.1742  0.2527
 7812TIP3    H144851   4.415   2.688  11.708 -1.4395 -1.1262 -0.3403
 7812TIP3    H244852   4.372   2.832  11.701 -0.7162 -0.7770  1.7270
 7813TIP3   OH244853   4.107   1.927  15.955  0.2686 -0.4848 -0.4796
 7813TIP3    H144854   4.129   1.835  15.963 -0.0111 -0.5834 -0.7921
 7813TIP3    H244855   4.187   1.974  15.979 -0.0886 -0.7590  1.4446
 7814TIP3   OH244856   3.590   1.302  16.049  0.0417  0.3827 -0.2051
 7814TIP3    H144857   3.552   1.267  15.968 -1.2009 -0.0746  0.5525
 7814TIP3    H244858   3.615   1.224  16.100 -0.8504  0.6227  0.6159
 7815TIP3   OH244859   4.705   1.984  15.179 -0.7669 -0.0135  0.0691
 7815TIP3    H144860   4.629   2.040  15.192  0.1184  0.8464  1.7250
 7815TIP3    H244861   4.780   2.041  15.192  0.1653 -1.5414  1.8415
 7816TIP3   OH244862   1.825   6.316  16.522  0.2165  0.5848 -0.2355
 7816TIP3    H144863   1.838   6.337  16.615 -0.6127 -0.8060  0.2292
 7816TIP3    H244864   1.744   6.360  16.499  0.4206  0.9276 -0.3023
 7817TIP3   OH244865   1.880   4.429   3.782 -0.1015  0.2958 -0.0238
 7817TIP3    H144866   1.801   4.450   3.832  0.5056 -0.2841  1.2166
 7817TIP3    H244867   1.875   4.335   3.768  1.5789 -0.2211  2.3004
 7818TIP3   OH244868   1.896   1.498  15.653 -0.4295 -0.1543 -0.2378
 7818TIP3    H144869   1.947   1.422  15.624 -1.2774 -1.0540  0.5680
 7818TIP3    H244870   1.908   1.563  15.583 -0.7315 -1.4885 -1.5843
 7819TIP3   OH244871   2.705   4.129  13.052  0.1874 -0.5298  0.0071
 7819TIP3    H144872   2.618   4.094  13.032 -0.3572 -2.3296  4.4702
 7819TIP3    H244873   2.766   4.071  13.006 -0.9004 -3.6518  2.2095
 7820TIP3   OH244874   4.716   5.434  11.604  0.3170 -0.4432 -0.0596
 7820TIP3    H144875   4.743   5.342  11.601 -1.9473 -1.1662 -0.5002
 7820TIP3    H244876   4.636   5.437  11.552 -0.2224  1.5874  0.7798
 7821TIP3   OH244877   3.957   5.359   3.031  0.2305  0.2872  0.2535
 7821TIP3    H144878   3.906   5.374   2.952  0.4106  1.1932  0.2986
 7821TIP3    H244879   3.892   5.350   3.101  0.1049  2.0785  0.4223
 7822TIP3   OH244880   6.022   3.649  11.487  0.8196 -0.1713 -0.3896
 7822TIP3    H144881   6.023   3.596  11.567  0.7194  0.4023 -0.0009
 7822TIP3    H244882   5.931   3.651  11.460  0.2775  2.2117  1.2578
 7823TIP3   OH244883   1.605   2.878  12.219 -0.5557 -0.3096  0.0007
 7823TIP3    H144884   1.588   2.972  12.222 -0.2583 -0.1177 -2.2155
 7823TIP3    H244885   1.697   2.869  12.243 -0.1323  0.1913 -1.3152
 7824TIP3   OH244886   2.362   4.998   3.870  0.0067 -0.6220 -0.6055
 7824TIP3    H144887   2.348   5.052   3.947  0.0973 -0.9582 -0.3505
 7824TIP3    H244888   2.348   4.908   3.901 -2.4664 -0.6325 -1.5376
 7825TIP3   OH244889   4.442   6.072  15.166  0.0310 -0.0352  0.1779
 7825TIP3    H144890   4.481   6.124  15.096  1.2824  0.8878  1.5011
 7825TIP3    H244891   4.383   6.011  15.121  0.2995  0.9571 -1.6016
 7826TIP3   OH244892   6.455   6.080   0.895 -0.6816 -0.2064  0.1183
 7826TIP3    H144893   6.485   6.016   0.830  0.1309  0.1389  0.1381
 7826TIP3    H244894   6.508   6.158   0.878 -0.4949 -0.0864  1.1485
 7827TIP3   OH244895   3.626   3.020  16.187  0.1617 -0.2539  0.4793
 7827TIP3    H144896   3.573   2.941  16.178  0.2415 -0.2546 -0.0290
 7827TIP3    H244897   3.674   3.026  16.104  0.5751  0.0207  0.7378
 7828TIP3   OH244898   3.183   3.681   3.756  0.0561 -0.0927  0.4401
 7828TIP3    H144899   3.198   3.605   3.700 -3.1540 -0.4035 -0.2007
 7828TIP3    H244900   3.202   3.649   3.845  1.9290 -0.5908 -0.0861
 7829TIP3   OH244901   0.899   6.584  14.391 -0.3418 -0.0674  0.1586
 7829TIP3    H144902   0.954   6.633  14.330  0.4099  0.7721  1.4536
 7829TIP3    H244903   0.911   6.492  14.367 -0.4733  0.2578 -1.2514
 7830TIP3   OH244904   2.183   2.288  12.934  0.6654 -0.6709 -0.1673
 7830TIP3    H144905   2.265   2.258  12.972  2.3085  1.1230 -2.1095
 7830TIP3    H244906   2.193   2.382  12.922 -2.0680 -0.2085  0.3887
 7831TIP3   OH244907   4.546   6.650   1.988  0.4919 -0.5102  0.0346
 7831TIP3    H144908   4.617   6.708   1.962  0.8684 -1.4044 -0.9920
 7831TIP3    H244909   4.468   6.705   1.988  1.0441  0.2872  0.3748
 7832TIP3   OH244910   4.017   5.257  13.408 -0.2301  0.0960  0.4346
 7832TIP3    H144911   3.936   5.299  13.380 -0.6762  1.4424  3.4013
 7832TIP3    H244912   4.003   5.164  13.389 -0.4867  0.7431 -3.3638
 7833TIP3   OH244913   1.379   1.870   0.400 -0.4317  0.2050 -0.8497
 7833TIP3    H144914   1.427   1.806   0.348 -1.1597  0.6057 -2.0613
 7833TIP3    H244915   1.399   1.847   0.491 -0.1576 -1.3224 -1.2668
 7834TIP3   OH244916   0.597   2.399   2.626 -0.7983 -0.3276 -0.9490
 7834TIP3    H144917   0.607   2.442   2.540 -2.0210  1.3134 -0.3363
 7834TIP3    H244918   0.557   2.467   2.681  1.4839 -0.7780  1.4080
 7835TIP3   OH244919   0.644   6.488  17.190 -0.2879  0.1151  0.1218
 7835TIP3    H144920   0.606   6.554  17.248  0.2628 -0.1036  0.7421
 7835TIP3    H244921   0.708   6.441  17.244 -2.0759 -2.2836  0.3018
 7836TIP3   OH244922   2.153   0.248   4.004  0.5917  0.0681 -0.1212
 7836TIP3    H144923   2.116   0.206   3.926  0.4230  0.9149 -0.5072
 7836TIP3    H244924   2.126   0.192   4.077  0.8274 -0.7863 -0.6710
 7837TIP3   OH244925   6.334   5.830  13.828 -0.0398  0.6008 -0.3647
 7837TIP3    H144926   6.334   5.851  13.921 -0.1796  0.2139 -0.2743
 7837TIP3    H244927   6.242   5.816  13.807  0.0160  0.4483 -0.5047
 7838TIP3   OH244928   1.505   5.607  14.172 -0.0551  0.0349  0.5416
 7838TIP3    H144929   1.481   5.596  14.264 -1.2305 -1.1351  0.1453
 7838TIP3    H244930   1.438   5.666  14.136 -0.2991 -0.4429  0.1933
 7839TIP3   OH244931   0.175   5.919  13.927  0.2438 -0.0063 -0.3918
 7839TIP3    H144932   0.201   5.845  13.871 -0.4671 -0.5777  0.0114
 7839TIP3    H244933   0.084   5.900  13.951  0.0276  1.0413 -0.3289
 7840TIP3   OH244934   1.558   5.810   4.964  0.5610 -0.8408  0.0881
 7840TIP3    H144935   1.493   5.874   4.936  1.6286  0.3081  0.1526
 7840TIP3    H244936   1.593   5.774   4.882  2.0599  0.8578 -0.0759
 7841TIP3   OH244937   6.039   1.626  13.616 -0.2956 -0.1160  0.3466
 7841TIP3    H144938   6.132   1.625  13.594 -0.7343  0.2544 -1.6876
 7841TIP3    H244939   6.027   1.707  13.666  0.1372  0.9500 -1.1980
 7842TIP3   OH244940   6.081   3.203  10.984 -0.6961 -0.1468 -0.4729
 7842TIP3    H144941   6.069   3.138  10.915 -0.2186  0.8098 -1.4933
 7842TIP3    H244942   6.122   3.277  10.939 -1.1182  0.8045  0.6830
 7843TIP3   OH244943   6.124   4.785  16.435  0.2100  0.2036 -0.6176
 7843TIP3    H144944   6.065   4.712  16.449  0.2447  0.2090 -0.4432
 7843TIP3    H244945   6.179   4.787  16.514 -0.0133  0.6231 -0.4705
 7844TIP3   OH244946   6.110   2.220   1.570 -0.3341  0.0728 -0.4155
 7844TIP3    H144947   6.142   2.198   1.482 -0.9212  0.1389 -0.6472
 7844TIP3    H244948   6.080   2.310   1.562 -0.3253  0.1015 -0.1256
 7845TIP3   OH244949   5.715   2.787   5.193  0.2030  0.2367 -0.3324
 7845TIP3    H144950   5.628   2.788   5.232 -0.7729  3.3522 -2.2506
 7845TIP3    H244951   5.715   2.710   5.136 -1.0291 -0.1322  0.1239
 7846TIP3   OH244952   5.109   4.040  15.093  0.3154  1.0113  0.5953
 7846TIP3    H144953   5.035   4.080  15.047  0.2946 -0.2939 -0.5676
 7846TIP3    H244954   5.180   4.039  15.028  0.1914 -1.1657  0.4045
 7847TIP3   OH244955   3.601   6.667  15.075  0.2970 -0.4499  0.7942
 7847TIP3    H144956   3.562   6.736  15.021 -0.1797 -0.1068  1.5570
 7847TIP3    H244957   3.691   6.660  15.043  0.2884  0.3735  0.5535
 7848TIP3   OH244958   6.459   2.707   1.054  0.1411 -0.0159 -0.2004
 7848TIP3    H144959   6.547   2.699   1.089  0.3065  0.8376 -0.3830
 7848TIP3    H244960   6.472   2.742   0.965 -0.4136  1.2847  0.2003
 7849TIP3   OH244961   2.367   4.557  15.508  0.1902 -0.2609  0.1359
 7849TIP3    H144962   2.309   4.624  15.545  0.1713 -0.3872  0.3362
 7849TIP3    H244963   2.425   4.605  15.449  0.5840  0.0306  0.7462
 7850TIP3   OH244964   2.998   4.538   1.220  0.1173 -0.9118  0.4164
 7850TIP3    H144965   2.988   4.461   1.164 -1.8774  0.3625 -1.1222
 7850TIP3    H244966   2.924   4.535   1.279 -2.1163  1.4838 -1.9485
 7851TIP3   OH244967   3.056   1.103  15.091 -0.3583 -0.3203  0.2240
 7851TIP3    H144968   3.093   1.093  15.179 -0.8245 -0.1969  0.4387
 7851TIP3    H244969   3.033   1.195  15.085 -1.6866 -0.6154  0.5310
 7852TIP3   OH244970   3.363   6.361   5.342 -0.8020 -0.4533 -0.5157
 7852TIP3    H144971   3.415   6.413   5.280 -0.3184 -1.0295 -0.6085
 7852TIP3    H244972   3.273   6.367   5.310 -0.8298  0.7533 -0.2218
 7853TIP3   OH244973   2.712   3.189  15.657 -0.5304 -0.7795  0.1494
 7853TIP3    H144974   2.782   3.255  15.654  0.0606 -1.4165 -0.6750
 7853TIP3    H244975   2.753   3.112  15.694 -1.3449 -0.5663  1.5388
 7854TIP3   OH244976   2.533   6.103  12.468 -0.3747  0.1284 -0.7431
 7854TIP3    H144977   2.532   6.100  12.563 -1.4609  0.7133 -0.7183
 7854TIP3    H244978   2.625   6.091  12.444 -0.1097 -0.1128  0.3703
 7855TIP3   OH244979   2.872   5.554   3.992  0.4882  0.6510 -0.2371
 7855TIP3    H144980   2.847   5.646   3.986 -1.5250  0.2853  1.3151
 7855TIP3    H244981   2.898   5.542   4.084  0.1770 -0.4317 -0.2719
 7856TIP3   OH244982   3.602   5.563   6.110 -0.7962  0.0453 -1.0723
 7856TIP3    H144983   3.630   5.655   6.112  0.9786 -0.4641 -0.1160
 7856TIP3    H244984   3.682   5.513   6.129 -2.1505 -1.5961  0.8199
 7857TIP3   OH244985   3.911   5.717  14.467  0.2210  0.5153  0.1101
 7857TIP3    H144986   3.847   5.774  14.509  0.0001 -0.9184  1.8099
 7857TIP3    H244987   3.922   5.644  14.527  1.5624 -0.5479 -1.3396
 7858TIP3   OH244988   5.243   6.437  15.188  0.0670  0.5965  0.1283
 7858TIP3    H144989   5.154   6.404  15.176 -0.6039  2.3224  0.0493
 7858TIP3    H244990   5.232   6.522  15.230  1.7412  0.4538  0.9436
 7859TIP3   OH244991   1.958   2.404   2.026  0.7074  0.2941 -0.1831
 7859TIP3    H144992   1.989   2.423   2.114  0.6203 -0.4532  0.0130
 7859TIP3    H244993   1.957   2.309   2.021 -1.1990  0.2911 -0.3179
 7860TIP3   OH244994   1.238   5.895   4.273 -0.0178  0.2572 -0.0715
 7860TIP3    H144995   1.152   5.937   4.270  0.4133  1.1435 -0.4318
 7860TIP3    H244996   1.220   5.802   4.259 -1.2145 -0.0495  2.8116
 7861TIP3   OH244997   6.069   3.840  16.878 -0.2301 -0.2262  0.1285
 7861TIP3    H144998   6.018   3.830  16.959 -1.2088 -0.5544 -0.5193
 7861TIP3    H244999   6.137   3.903  16.901 -0.1727 -0.7057  1.3587
 7862TIP3   OH245000   0.610   4.335   5.715  0.5362  0.1563 -0.1061
 7862TIP3    H145001   0.597   4.394   5.640 -0.6215 -0.4194 -0.3959
 7862TIP3    H245002   0.523   4.327   5.754  1.0951  0.3218  1.2337
 7863TIP3   OH245003   4.833   3.580   2.825 -0.5399 -0.1189 -0.0306
 7863TIP3    H145004   4.875   3.664   2.843 -0.8177 -0.3910  2.2514
 7863TIP3    H245005   4.816   3.581   2.731  0.7882  1.7393 -0.3151
 7864TIP3   OH245006   4.444   4.212  15.681 -0.7710  0.2352  0.7435
 7864TIP3    H145007   4.467   4.298  15.644 -0.8251  0.0389  0.2362
 7864TIP3    H245008   4.348   4.211  15.680 -0.7800  0.4014  1.3051
 7865TIP3   OH245009   2.815   1.539   5.237 -0.5129 -0.0911  0.1980
 7865TIP3    H145010   2.846   1.569   5.152 -0.1361  1.7382  0.9431
 7865TIP3    H245011   2.887   1.558   5.297 -0.5561 -1.8617  0.8664
 7866TIP3   OH245012   1.343   0.758  13.593  0.1642 -0.2287  0.6767
 7866TIP3    H145013   1.281   0.820  13.630 -1.3551 -0.8592 -0.7190
 7866TIP3    H245014   1.343   0.776  13.499  0.4587 -1.6450  0.3731
 7867TIP3   OH245015   0.989   4.519  11.601 -0.2810 -0.0013 -0.4195
 7867TIP3    H145016   1.061   4.480  11.651 -0.0268 -0.9956 -1.5337
 7867TIP3    H245017   0.911   4.473  11.632 -0.6724  1.8831  1.6486
 7868TIP3   OH245018   2.941   5.224  11.351  0.5041 -0.7942  0.4418
 7868TIP3    H145019   2.868   5.168  11.325  0.6541 -0.2353 -1.3256
 7868TIP3    H245020   3.015   5.164  11.360  0.3658 -1.0590 -0.1418
 7869TIP3   OH245021   0.650   1.177   4.218 -0.2191  0.1165 -0.3885
 7869TIP3    H145022   0.723   1.171   4.157  0.0374 -1.1351  0.0205
 7869TIP3    H245023   0.618   1.266   4.207  1.8499  0.9675 -0.0145
 7870TIP3   OH245024   6.116   4.941  14.408 -0.3186 -0.2339 -0.0237
 7870TIP3    H145025   6.088   4.988  14.487  2.4592  0.9787  0.3468
 7870TIP3    H245026   6.055   4.971  14.340  0.9149  3.5995  0.3288
 7871TIP3   OH245027   1.007   3.563  12.199 -0.3843  0.0569  0.3527
 7871TIP3    H145028   0.920   3.541  12.167 -0.2159 -0.5300  0.2891
 7871TIP3    H245029   1.055   3.480  12.199  1.0768  0.7664 -2.3519
 7872TIP3   OH245030   0.642   5.440  11.817  0.0890 -0.5759 -0.2273
 7872TIP3    H145031   0.680   5.441  11.905  0.5464  1.8674 -0.3981
 7872TIP3    H245032   0.555   5.478  11.828 -0.7733 -2.3464 -0.5194
 7873TIP3   OH245033   2.052   6.686   2.718  0.1392 -0.3537  0.0882
 7873TIP3    H145034   2.079   6.759   2.773  0.0537 -0.3260  0.0925
 7873TIP3    H245035   2.032   6.725   2.634 -1.1215 -0.2007  0.4505
 7874TIP3   OH245036   0.598   0.203  15.329  0.7873  0.1280 -0.2644
 7874TIP3    H145037   0.682   0.206  15.375  1.7617 -3.2218 -1.5441
 7874TIP3    H245038   0.617   0.155  15.248 -2.2405 -0.1884 -0.8939
 7875TIP3   OH245039   1.618   2.108  14.906 -0.5130  0.3284  0.4641
 7875TIP3    H145040   1.546   2.045  14.911  2.2525 -3.1610  0.3365
 7875TIP3    H245041   1.627   2.128  14.813 -0.2195 -0.6147  0.2893
 7876TIP3   OH245042   0.234   5.644  13.213 -0.5188 -0.5321 -0.5226
 7876TIP3    H145043   0.177   5.687  13.277 -0.3019 -0.3867 -0.4228
 7876TIP3    H245044   0.303   5.603  13.266  0.8570  1.3574 -0.7392
 7877TIP3   OH245045   4.002   2.485   4.463  1.0030  0.5355  0.6431
 7877TIP3    H145046   4.039   2.400   4.440 -0.2201  0.1869 -0.1808
 7877TIP3    H245047   4.072   2.548   4.448  1.1642 -0.0351 -1.2952
 7878TIP3   OH245048   1.394   6.609   5.254 -0.6334 -0.1989 -0.2355
 7878TIP3    H145049   1.477   6.655   5.259 -0.4077 -0.6956  0.9329
 7878TIP3    H245050   1.357   6.635   5.170 -0.1931  1.5510  0.0815
 7879TIP3   OH245051   3.944   4.888   5.194 -0.2721 -0.3565  0.1380
 7879TIP3    H145052   3.986   4.923   5.272 -0.2030  0.9914 -0.4561
 7879TIP3    H245053   3.871   4.836   5.226 -1.3146  1.5781  1.1109
 7880TIP3   OH245054   3.193   0.516   2.122  0.0561 -0.1375  0.3218
 7880TIP3    H145055   3.177   0.422   2.116 -0.1878 -0.1680  1.2845
 7880TIP3    H245056   3.109   0.553   2.151  0.3673  0.2776  0.7146
 7881TIP3   OH245057   1.819   0.547  15.160  1.1138  0.0868 -0.2814
 7881TIP3    H145058   1.733   0.588  15.150  0.8121 -0.1502  1.2120
 7881TIP3    H245059   1.879   0.620  15.171  0.7617  0.1896  1.0468
 7882TIP3   OH245060   3.634   2.338  11.977 -0.4148 -0.9838  0.0158
 7882TIP3    H145061   3.588   2.279  12.036  2.7574 -2.4171  1.3380
 7882TIP3    H245062   3.687   2.280  11.922  0.0831  0.5195 -1.1676
 7883TIP3   OH245063   3.284   3.499   3.940 -0.1195  0.2365  0.1191
 7883TIP3    H145064   3.340   3.557   3.992 -0.1020  0.0288  0.3347
 7883TIP3    H245065   3.334   3.482   3.860  0.7350 -1.0375  0.8841
 7884TIP3   OH245066   5.108   0.944  11.123  0.2994  0.1984  0.0424
 7884TIP3    H145067   5.106   0.990  11.207  1.5120 -0.1257  0.2766
 7884TIP3    H245068   5.125   1.012  11.058 -0.6853  0.4564  0.0402
 7885TIP3   OH245069   0.602   6.414   0.611  0.0504  0.2691 -0.2965
 7885TIP3    H145070   0.572   6.352   0.678  1.4381  0.8107  0.8712
 7885TIP3    H245071   0.692   6.434   0.635  0.1290  1.5676 -1.5374
 7886TIP3   OH245072   5.833   4.791   2.504 -0.2999  0.5084 -0.5675
 7886TIP3    H145073   5.783   4.816   2.426 -0.2697 -1.5660 -1.3229
 7886TIP3    H245074   5.823   4.696   2.509  1.5824  0.3245  0.6710
 7887TIP3   OH245075   5.659   5.176   4.795  0.2109  0.0750  0.4288
 7887TIP3    H145076   5.608   5.138   4.723 -2.1689  3.6063 -0.0233
 7887TIP3    H245077   5.628   5.130   4.873 -0.1075 -1.1322 -0.3857
 7888TIP3   OH245078   5.520   3.819  15.281 -0.1487 -0.6683 -0.4552
 7888TIP3    H145079   5.430   3.794  15.301 -0.1741  0.2947  0.7653
 7888TIP3    H245080   5.517   3.914  15.275  1.0775 -0.4700  1.3336
 7889TIP3   OH245081   5.654   1.993  11.132 -0.0560  0.3577  0.1930
 7889TIP3    H145082   5.686   1.945  11.055 -0.3335  2.4491 -1.3031
 7889TIP3    H245083   5.560   1.976  11.133 -0.2263  1.1404 -0.5949
 7890TIP3   OH245084   0.084   5.510  12.530 -0.1318 -0.6482  0.2809
 7890TIP3    H145085   0.123   5.596  12.542 -0.7539  0.2573 -3.1969
 7890TIP3    H245086  -0.011   5.526  12.530 -0.2492 -1.2611 -0.5186
 7891TIP3   OH245087   3.076   4.926  13.862 -0.3636 -0.1148 -0.3059
 7891TIP3    H145088   3.110   4.996  13.807 -1.1118  1.2611  0.9089
 7891TIP3    H245089   2.984   4.919  13.838 -0.6207  0.2857  0.5252
 7892TIP3   OH245090   0.155   0.039   2.107  0.0953 -0.2909 -0.5518
 7892TIP3    H145091   0.097  -0.028   2.070  0.3173 -1.5410  1.2113
 7892TIP3    H245092   0.144   0.030   2.202  2.0247  0.4771 -0.2069
 7893TIP3   OH245093   2.895   4.282  14.134  0.0385 -0.2400  0.1207
 7893TIP3    H145094   2.839   4.344  14.086 -0.4908  0.1762  1.2512
 7893TIP3    H245095   2.858   4.279  14.222  1.5169 -0.3162  0.7707
 7894TIP3   OH245096   2.990   1.609  13.447  0.1366 -0.4501 -0.5911
 7894TIP3    H145097   3.083   1.632  13.454 -0.0550 -0.0330  1.4048
 7894TIP3    H245098   2.954   1.672  13.386  0.7648  0.8110  0.2950
 7895TIP3   OH245099   6.677   4.782  12.201  0.0588 -0.0827  0.4630
 7895TIP3    H145100   6.695   4.698  12.158  1.2485 -0.2589  1.2616
 7895TIP3    H245101   6.618   4.759  12.274 -0.7893  0.0096 -0.1719
 7896TIP3   OH245102   2.772   1.274  11.688 -0.0068 -0.4030 -0.5128
 7896TIP3    H145103   2.849   1.266  11.631 -0.2967 -0.5771 -0.8900
 7896TIP3    H245104   2.762   1.187  11.727  1.5322  0.2781  1.6079
 7897TIP3   OH245105   6.281   6.449   1.937  0.3505  0.1422 -0.1590
 7897TIP3    H145106   6.274   6.452   1.841 -0.6011  1.6539 -0.0769
 7897TIP3    H245107   6.277   6.540   1.964 -1.4464 -0.3494  1.4425
 7898TIP3   OH245108   1.176   2.254   4.251 -0.5952 -0.3748 -0.4706
 7898TIP3    H145109   1.099   2.235   4.304  0.0384 -0.4795  0.4280
 7898TIP3    H245110   1.188   2.176   4.198  0.0837 -1.2131  0.8707
 7899TIP3   OH245111   1.550   4.679   4.226 -0.3547  0.0405 -0.2734
 7899TIP3    H145112   1.561   4.733   4.305  0.3148  0.2892 -0.5261
 7899TIP3    H245113   1.536   4.591   4.260  0.9943 -0.0452  0.1311
 7900TIP3   OH245114   5.048   5.633  14.166 -0.6016 -0.2744  0.0896
 7900TIP3    H145115   4.977   5.697  14.172 -1.3648 -1.0118 -0.9572
 7900TIP3    H245116   5.124   5.685  14.140 -0.9239  0.3920  0.4420
 7901TIP3   OH245117   6.756   5.344  17.138  0.0085 -0.1298 -0.1588
 7901TIP3    H145118   6.826   5.382  17.192  0.7390 -1.6695  0.0187
 7901TIP3    H245119   6.787   5.356  17.048 -0.4566  0.9711 -0.1971
 7902TIP3   OH245120   3.928   6.360  15.917 -0.5687  1.0998  0.0294
 7902TIP3    H145121   3.904   6.336  16.006 -1.9776 -0.1429 -0.6350
 7902TIP3    H245122   3.998   6.299  15.893 -1.8715 -0.2721 -0.5051
 7903TIP3   OH245123   5.666   3.892  17.073  0.3089  0.0207  0.1212
 7903TIP3    H145124   5.632   3.922  16.988 -1.3740  1.5881  1.2801
 7903TIP3    H245125   5.598   3.833  17.107  1.6152 -1.7569 -0.1735
 7904TIP3   OH245126   0.332   2.086   0.014  0.6740 -0.0888  0.9412
 7904TIP3    H145127   0.341   2.113   0.106  0.0567  0.7004  0.7841
 7904TIP3    H245128   0.288   2.002   0.018  0.1988  0.1715  1.3645
 7905TIP3   OH245129   2.322   2.710  11.571  0.4459 -0.1405  0.0304
 7905TIP3    H145130   2.234   2.722  11.537  0.6646  0.3303 -0.3761
 7905TIP3    H245131   2.313   2.640  11.636 -0.0100 -0.9115 -0.8383
 7906TIP3   OH245132   0.654   0.140   1.359  0.5010 -0.1784 -0.1185
 7906TIP3    H145133   0.668   0.047   1.377  2.5092  0.4542  2.1450
 7906TIP3    H245134   0.660   0.183   1.445 -0.8091  2.0154 -1.0285
 7907TIP3   OH245135   4.745   4.430  13.003  0.1703 -0.2504  0.4849
 7907TIP3    H145136   4.799   4.353  12.987  0.8525 -0.1428  2.0710
 7907TIP3    H245137   4.726   4.427  13.097 -2.1721 -0.0068  0.0798
 7908TIP3   OH245138   5.981   1.995  11.221  0.4367 -0.0302  0.1782
 7908TIP3    H145139   6.050   1.956  11.274  2.2224  0.4912 -1.6432
 7908TIP3    H245140   6.010   1.983  11.130 -1.4363  0.9977 -0.6185
 7909TIP3   OH245141   5.673   5.785  14.897  0.2541  0.1289  0.2870
 7909TIP3    H145142   5.632   5.870  14.913  0.4440  0.0968  0.9725
 7909TIP3    H245143   5.726   5.798  14.818  1.1365  0.9536  0.9968
 7910TIP3   OH245144   1.419   1.921  12.039  0.0285 -0.5770 -0.2654
 7910TIP3    H145145   1.448   1.846  11.988  0.6694 -0.5889  0.1019
 7910TIP3    H245146   1.364   1.971  11.979  0.6005 -0.6929 -0.9035
 7911TIP3   OH245147   1.292   5.848   3.754 -0.1423 -0.6017 -0.8564
 7911TIP3    H145148   1.275   5.902   3.831 -0.2047  1.3497 -2.1649
 7911TIP3    H245149   1.384   5.865   3.733 -0.6583  0.6195 -2.3969
 7912TIP3   OH245150   2.929   3.491   6.828  0.3975 -0.6710  0.3471
 7912TIP3    H145151   2.968   3.419   6.777  1.2294 -0.8166  1.1530
 7912TIP3    H245152   2.889   3.447   6.903  1.4207 -0.2650  1.1536
 7913TIP3   OH245153   2.347   0.538   2.069  0.0895  0.1341 -0.3292
 7913TIP3    H145154   2.406   0.608   2.041  1.5520 -0.3263  1.4656
 7913TIP3    H245155   2.343   0.479   1.994  1.0273  0.7314 -0.8631
 7914TIP3   OH245156   2.822   5.471   1.235  0.1445 -0.0256  0.1032
 7914TIP3    H145157   2.802   5.555   1.194 -1.7620 -1.2965 -1.7516
 7914TIP3    H245158   2.902   5.442   1.191 -0.2842 -0.0418 -0.6961
 7915TIP3   OH245159   1.991   0.896  10.875  0.3761 -0.0362 -0.2013
 7915TIP3    H145160   2.050   0.971  10.865 -0.5797  1.1889  2.3887
 7915TIP3    H245161   1.915   0.932  10.921 -0.9400 -2.2496 -0.5226
 7916TIP3   OH245162   2.292   6.369  14.286  0.4406  0.5241  0.5026
 7916TIP3    H145163   2.206   6.337  14.258 -0.1998  0.6698  2.1820
 7916TIP3    H245164   2.288   6.366  14.382  1.9771  1.4134  0.6199
 7917TIP3   OH245165   5.274   5.120   3.747  0.0845 -0.0010 -0.5067
 7917TIP3    H145166   5.184   5.148   3.762  0.2750  0.0383  0.6948
 7917TIP3    H245167   5.300   5.164   3.666 -0.2192  1.8872  0.3677
 7918TIP3   OH245168   3.289   6.701   2.562 -0.2926  0.1179 -0.5537
 7918TIP3    H145169   3.302   6.607   2.573  1.0176  0.2218 -0.9872
 7918TIP3    H245170   3.282   6.736   2.651 -1.9888 -0.5218 -0.4120
 7919TIP3   OH245171   6.070   0.310   6.933 -0.9794  0.0339  0.1164
 7919TIP3    H145172   6.089   0.245   7.001  1.2552  0.3549 -0.1187
 7919TIP3    H245173   6.156   0.339   6.903 -1.9186  1.4842 -1.3545
 7920TIP3   OH245174   0.960   0.701  13.307 -0.0918 -0.4171 -0.2214
 7920TIP3    H145175   0.989   0.784  13.269 -0.3647  0.1148  0.7061
 7920TIP3    H245176   1.023   0.636  13.274 -1.0029 -0.2109 -2.5238
 7921TIP3   OH245177   2.625   5.397   3.473 -0.3516 -0.2907  0.0631
 7921TIP3    H145178   2.578   5.472   3.509 -1.8436 -1.0438 -0.2723
 7921TIP3    H245179   2.666   5.430   3.393 -2.0596 -0.1237 -0.7746
 7922TIP3   OH245180   1.395   0.827   0.194 -0.4634  0.3963  0.0022
 7922TIP3    H145181   1.387   0.901   0.254  0.3860  1.0510 -0.6601
 7922TIP3    H245182   1.411   0.867   0.109  2.1185 -0.5519 -0.0442
 7923TIP3   OH245183   0.287   4.310   1.174  0.3836  0.2748  0.3315
 7923TIP3    H145184   0.234   4.385   1.149  0.1372 -0.0314 -0.0791
 7923TIP3    H245185   0.224   4.247   1.208  0.5970  0.2807  0.7401
 7924TIP3   OH245186   4.206   2.481  14.745  0.0191  0.6821  0.4412
 7924TIP3    H145187   4.137   2.492  14.679  0.5439  1.1501 -0.0312
 7924TIP3    H245188   4.284   2.519  14.705  1.2006 -2.0636 -0.0580
 7925TIP3   OH245189   2.254   3.532  11.890  0.0128 -0.0885  0.2599
 7925TIP3    H145190   2.229   3.444  11.863 -1.7581  0.3651  0.3041
 7925TIP3    H245191   2.282   3.522  11.981 -1.3270 -0.4614  0.6585
 7926TIP3   OH245192   0.350   0.803  13.716 -0.2559 -0.6817 -0.0552
 7926TIP3    H145193   0.406   0.852  13.656 -1.1541 -0.2340 -0.5563
 7926TIP3    H245194   0.384   0.823  13.803 -0.7316  1.0474 -0.2282
 7927TIP3   OH245195   4.380   3.460   2.513 -0.3511  0.2953 -0.7481
 7927TIP3    H145196   4.309   3.399   2.531 -0.5371  0.6012 -0.4434
 7927TIP3    H245197   4.348   3.514   2.441 -0.5971  0.7114 -0.3289
 7928TIP3   OH245198   6.121   5.635   2.962 -0.1647  0.3913  0.3010
 7928TIP3    H145199   6.135   5.723   2.927  3.1073 -0.7937 -1.8030
 7928TIP3    H245200   6.171   5.634   3.043 -1.4217  0.8430  1.1110
 7929TIP3   OH245201   4.622   1.878   4.771 -0.5532 -0.6096  0.0847
 7929TIP3    H145202   4.553   1.941   4.791 -0.1904 -0.4584  0.8834
 7929TIP3    H245203   4.686   1.890   4.841 -0.7317 -2.2374  0.5624
 7930TIP3   OH245204   4.837   3.588  17.192 -0.2899  0.3272  0.0490
 7930TIP3    H145205   4.835   3.628  17.279 -0.4363 -0.8701  0.6138
 7930TIP3    H245206   4.854   3.496  17.208  1.5509  0.3693 -1.2996
 7931TIP3   OH245207   5.975   4.412  14.445  0.0107  0.1910  0.2184
 7931TIP3    H145208   6.068   4.395  14.430  0.3071 -0.4900  2.4160
 7931TIP3    H245209   5.951   4.350  14.514 -2.4509 -0.5953 -1.2259
 7932TIP3   OH245210   3.088   4.438  14.384 -0.2286  0.2389 -0.5418
 7932TIP3    H145211   3.001   4.415  14.416  0.3534 -2.5312 -0.6397
 7932TIP3    H245212   3.072   4.484  14.302 -1.6303  4.3558  1.7713
 7933TIP3   OH245213   2.417   3.194   3.222 -0.0881 -0.5334  0.3418
 7933TIP3    H145214   2.436   3.286   3.241 -1.2033 -0.1273 -0.3433
 7933TIP3    H245215   2.473   3.144   3.281  0.0763  0.5981  1.1742
 7934TIP3   OH245216   0.913   1.161  16.509 -0.2441  0.4045  0.1017
 7934TIP3    H145217   0.947   1.231  16.564 -1.2259  2.3280 -1.5971
 7934TIP3    H245218   0.820   1.181  16.499 -0.3842 -0.6868 -1.0635
 7935TIP3   OH245219   2.738   1.079  12.866 -0.1566  0.0124  0.2683
 7935TIP3    H145220   2.747   1.173  12.880 -0.9623 -0.0507  1.3211
 7935TIP3    H245221   2.779   1.039  12.943  0.1143 -0.4985 -0.1328
 7936TIP3   OH245222   1.716   5.628   1.539  0.3314 -0.0663 -0.1132
 7936TIP3    H145223   1.637   5.675   1.512  1.4129  0.6376 -2.3306
 7936TIP3    H245224   1.706   5.541   1.501 -0.1880 -0.5831  1.1818
 7937TIP3   OH245225   4.925   5.755   0.224  0.3770  0.2904  0.3514
 7937TIP3    H145226   4.830   5.744   0.217  0.2634  1.1159  0.4924
 7937TIP3    H245227   4.955   5.675   0.267 -0.0643 -0.6586 -1.0498
 7938TIP3   OH245228   4.589   0.856   3.731 -0.5393  0.2982 -0.9329
 7938TIP3    H145229   4.640   0.933   3.758  1.8685 -1.1704 -1.0025
 7938TIP3    H245230   4.654   0.797   3.693 -2.3411 -1.6967 -1.0726
 7939TIP3   OH245231   1.855   4.114  15.228  0.3960 -0.6411  0.5912
 7939TIP3    H145232   1.792   4.051  15.195  1.0585 -1.0812  0.1415
 7939TIP3    H245233   1.846   4.109  15.324 -1.3197  0.4320  0.5160
 7940TIP3   OH245234   3.746   6.731   1.374 -0.5874 -0.4166  0.3961
 7940TIP3    H145235   3.703   6.787   1.309  1.8746  1.4291  0.2124
 7940TIP3    H245236   3.692   6.739   1.453 -0.6319  1.8250  0.1992
 7941TIP3   OH245237   6.309   6.341  11.369  0.0158  0.5829  0.2199
 7941TIP3    H145238   6.328   6.427  11.405  1.1499 -0.1899  1.5937
 7941TIP3    H245239   6.349   6.340  11.282  0.8265  1.1154  0.5862
 7942TIP3   OH245240   3.861   6.278   3.876 -0.3396  0.1089  0.4364
 7942TIP3    H145241   3.882   6.344   3.942  0.9677 -0.3293  0.4821
 7942TIP3    H245242   3.809   6.326   3.811  1.4411  1.4880 -0.0668
 7943TIP3   OH245243   0.612   3.755   2.848  0.7561 -0.2072  0.1535
 7943TIP3    H145244   0.533   3.802   2.874  1.0967  0.6145 -0.2576
 7943TIP3    H245245   0.649   3.808   2.777  2.0509 -0.1954  0.8139
 7944TIP3   OH245246   6.128   3.186   1.610 -0.1287 -0.0966  0.0531
 7944TIP3    H145247   6.073   3.159   1.536  1.0427 -0.4588 -0.7088
 7944TIP3    H245248   6.218   3.176   1.579  0.4121 -0.7895  1.7197
 7945TIP3   OH245249   1.816   2.399   0.310 -0.0486 -0.4325 -0.2336
 7945TIP3    H145250   1.786   2.434   0.394 -1.2712  1.2369 -1.2904
 7945TIP3    H245251   1.777   2.458   0.245 -0.0787 -2.3414 -2.0299
 7946TIP3   OH245252   2.823   4.017   1.404 -0.5633 -0.1454 -0.2307
 7946TIP3    H145253   2.839   4.046   1.314  0.7882 -2.2617 -0.7572
 7946TIP3    H245254   2.890   3.950   1.420 -1.3939 -0.5359  2.0171
 7947TIP3   OH245255   4.829   2.514   6.322 -0.1022  0.6278  0.9449
 7947TIP3    H145256   4.783   2.593   6.353 -0.8882  0.4730  0.2006
 7947TIP3    H245257   4.839   2.461   6.401 -0.4415  1.0387  1.2756
 7948TIP3   OH245258   2.570   5.661   2.837 -0.0529  0.5576  0.2936
 7948TIP3    H145259   2.613   5.680   2.754 -0.3950  1.2653  0.2743
 7948TIP3    H245260   2.543   5.746   2.871 -1.2844  0.1637  0.3784
 7949TIP3   OH245261   2.948   2.333  15.608 -0.5810  0.0458  0.3996
 7949TIP3    H145262   2.856   2.328  15.584 -0.8582 -2.0890  1.6083
 7949TIP3    H245263   2.963   2.255  15.662  2.2783 -0.5006 -0.9637
 7950TIP3   OH245264   6.209   5.256  12.128  0.4328 -0.0466 -0.0858
 7950TIP3    H145265   6.138   5.317  12.109  0.8280  0.5034  0.1716
 7950TIP3    H245266   6.176   5.204  12.202 -0.0705 -0.4343 -0.5786
 7951TIP3   OH245267   2.421   3.048  16.821 -0.1945 -0.3812  0.3566
 7951TIP3    H145268   2.468   3.131  16.825  0.8393 -0.9360  0.1270
 7951TIP3    H245269   2.328   3.073  16.816  0.1913  0.8616 -2.8121
 7952TIP3   OH245270   1.408   2.132   0.094  0.8814  0.0281  0.5041
 7952TIP3    H145271   1.374   2.139   0.183  1.2325  1.4346  0.5535
 7952TIP3    H245272   1.502   2.144   0.104  0.9604 -0.1436 -0.0275
 7953TIP3   OH245273   5.064   1.838  12.257  0.0349 -0.5113 -0.2323
 7953TIP3    H145274   4.995   1.904  12.267  0.7005  0.0530  0.7582
 7953TIP3    H245275   5.128   1.880  12.199  0.8459  0.0496  1.0416
 7954TIP3   OH245276   6.105   6.374  15.937 -0.2634  0.4194 -0.5498
 7954TIP3    H145277   6.168   6.302  15.934  0.4147  0.8988  0.9410
 7954TIP3    H245278   6.040   6.352  15.870 -0.3679 -1.8320  0.2074
 7955TIP3   OH245279   5.804   0.075  13.043  0.2155 -0.1044  0.0715
 7955TIP3    H145280   5.749   0.144  13.080 -0.7046 -0.6208 -0.2748
 7955TIP3    H245281   5.868   0.056  13.111 -0.0539  0.4973  0.5007
 7956TIP3   OH245282   6.281   3.314   4.604  0.1368  0.1255 -0.4719
 7956TIP3    H145283   6.337   3.390   4.620 -0.4808  0.1888  1.7186
 7956TIP3    H245284   6.315   3.246   4.663 -0.7588 -0.5355 -0.6944
 7957TIP3   OH245285   1.932   6.243   5.735 -0.5433 -0.1096  0.1842
 7957TIP3    H145286   1.873   6.222   5.663 -0.0199 -0.0339 -0.2803
 7957TIP3    H245287   1.993   6.307   5.698  0.2211 -0.6579  0.4533
 7958TIP3   OH245288   0.996   1.202   5.722 -0.1250  0.4080  0.2135
 7958TIP3    H145289   1.066   1.157   5.770 -0.3669  0.8788  1.0220
 7958TIP3    H245290   0.965   1.137   5.658  1.3406  0.3342 -0.4636
 7959TIP3   OH245291   4.519   4.536  16.715 -0.3732  0.4708 -0.0639
 7959TIP3    H145292   4.565   4.455  16.696  0.9904  0.7096  1.8567
 7959TIP3    H245293   4.576   4.582  16.778 -1.0855  2.9171 -1.0687
 7960TIP3   OH245294   3.000   5.221   3.414  0.4478 -0.3622 -0.3430
 7960TIP3    H145295   3.066   5.152   3.410  0.9827  0.2028 -1.5216
 7960TIP3    H245296   2.978   5.239   3.323 -2.1111 -1.2433  0.0166
 7961TIP3   OH245297   3.702   3.385   5.544  0.2990 -0.1898  0.0130
 7961TIP3    H145298   3.795   3.397   5.525  0.2655  1.5759  0.7312
 7961TIP3    H245299   3.657   3.449   5.488 -0.3639 -0.1375  0.5835
 7962TIP3   OH245300   2.657   6.787   4.245 -0.0895 -0.0723  0.2641
 7962TIP3    H145301   2.670   6.801   4.339  1.0253  1.4698 -0.0720
 7962TIP3    H245302   2.568   6.817   4.229  0.5460  2.0771  0.4516
 7963TIP3   OH245303   5.691   0.441   3.998 -0.2004  0.2011 -0.4040
 7963TIP3    H145304   5.714   0.474   4.085  0.1847  0.5786 -0.6484
 7963TIP3    H245305   5.741   0.360   3.989 -0.1962  0.1916 -0.3035
 7964TIP3   OH245306   6.453   4.270  11.463 -0.2781  0.2630 -0.5082
 7964TIP3    H145307   6.407   4.196  11.502  0.1825 -0.4219 -1.2281
 7964TIP3    H245308   6.414   4.347  11.504 -0.3929 -0.3902  0.6556
 7965TIP3   OH245309   2.173   4.062   1.756  0.0263  0.1424 -0.6193
 7965TIP3    H145310   2.099   4.084   1.698 -0.1549 -0.4342 -0.6223
 7965TIP3    H245311   2.180   4.136   1.816 -0.0516  0.5601 -1.1164
 7966TIP3   OH245312   2.908   5.356   5.568  0.0935  0.3727 -0.0252
 7966TIP3    H145313   2.950   5.441   5.556  0.6457 -0.0059 -0.8875
 7966TIP3    H245314   2.816   5.377   5.584  0.6626  1.2413  2.5152
 7967TIP3   OH245315   4.742   2.795   3.986 -0.6299  0.2682 -0.2070
 7967TIP3    H145316   4.802   2.856   3.942 -0.1772  0.0193  0.0614
 7967TIP3    H245317   4.781   2.780   4.072 -0.4990 -0.7489 -0.4356
 7968TIP3   OH245318   2.449   0.440   4.622  0.1473 -0.4753  0.4651
 7968TIP3    H145319   2.472   0.440   4.715  0.3462 -1.6364  0.4311
 7968TIP3    H245320   2.392   0.365   4.611 -0.2949 -0.0496 -0.2628
 7969TIP3   OH245321   1.816   0.914   6.135 -0.5339 -0.1129  0.3317
 7969TIP3    H145322   1.833   0.821   6.152  0.6630 -0.0715 -0.5666
 7969TIP3    H245323   1.833   0.957   6.219  0.2122 -0.5410  0.4020
 7970TIP3   OH245324   1.704   0.708   4.154  0.4624 -0.4718  0.6867
 7970TIP3    H145325   1.691   0.638   4.091 -3.5222 -1.0266  1.8133
 7970TIP3    H245326   1.693   0.789   4.104  2.3666 -0.6823 -0.1320
 7971TIP3   OH245327   4.469   5.576  15.100 -0.0644 -0.2428  0.2214
 7971TIP3    H145328   4.549   5.523  15.099  0.4678  0.5496  0.2506
 7971TIP3    H245329   4.401   5.517  15.067  0.8798 -0.3631 -1.5888
 7972TIP3   OH245330   3.173   5.989  15.895 -0.3278  0.1163  0.2762
 7972TIP3    H145331   3.151   5.913  15.842 -0.2612 -0.1172  0.5769
 7972TIP3    H245332   3.173   5.956  15.985 -0.4276  0.5029  0.4187
 7973TIP3   OH245333   0.466   6.557   4.476 -0.5211  0.0057  0.7333
 7973TIP3    H145334   0.531   6.622   4.447 -0.4919 -0.2209  0.2827
 7973TIP3    H245335   0.500   6.473   4.444  0.1149 -0.4290  2.4290
 7974TIP3   OH245336   3.774   2.545  16.994 -0.0488 -0.3368  0.5845
 7974TIP3    H145337   3.801   2.466  17.041 -0.5899 -0.0453  1.4133
 7974TIP3    H245338   3.732   2.513  16.914  1.2166 -0.8320  0.0940
 7975TIP3   OH245339   2.635   3.459   0.943 -0.1428  0.2235 -0.2388
 7975TIP3    H145340   2.646   3.462   1.038 -0.0517 -0.5039 -0.2164
 7975TIP3    H245341   2.722   3.478   0.909 -0.3473  1.3063 -0.2052
 7976TIP3   OH245342   6.361   0.720   5.439 -0.4087 -0.4095  0.6749
 7976TIP3    H145343   6.302   0.776   5.389 -1.4631 -1.2228  0.9783
 7976TIP3    H245344   6.365   0.638   5.390  0.4113 -0.4022  0.7064
 7977TIP3   OH245345   1.946   4.611  12.655  0.6210 -0.4242  0.9458
 7977TIP3    H145346   1.896   4.692  12.652  0.9484 -0.2343  0.5260
 7977TIP3    H245347   1.941   4.583  12.746  1.3442  0.5953  1.3193
 7978TIP3   OH245348   5.613   1.452   5.533  0.7790 -0.6518 -0.0434
 7978TIP3    H145349   5.522   1.432   5.552  0.7699 -1.1411 -0.6035
 7978TIP3    H245350   5.651   1.369   5.504  1.5519 -0.5890  0.7531
 7979TIP3   OH245351   5.992   5.549   1.528  0.0809  0.1555 -0.4901
 7979TIP3    H145352   5.925   5.585   1.587 -0.7026 -1.1334 -0.5530
 7979TIP3    H245353   5.946   5.483   1.476  1.3630 -0.6569 -0.6545
 7980TIP3   OH245354   4.087   0.310   3.474  0.3073  0.6326 -0.2698
 7980TIP3    H145355   4.097   0.388   3.420  0.8153  1.0783  0.4457
 7980TIP3    H245356   4.164   0.310   3.531  0.2769 -0.3551 -0.2048
 7981TIP3   OH245357   1.856   1.284   3.476  0.5304  0.0842  0.9021
 7981TIP3    H145358   1.930   1.309   3.420 -0.2924 -1.4791 -0.9895
 7981TIP3    H245359   1.797   1.359   3.474  1.8882  1.2509  2.2333
 7982TIP3   OH245360   1.909   3.818   0.627  0.3797  0.1815 -0.5595
 7982TIP3    H145361   1.908   3.749   0.561 -1.3876  0.3332 -0.7390
 7982TIP3    H245362   1.823   3.859   0.619  1.3450  2.3531 -0.3924
 7983TIP3   OH245363   0.347   1.557   2.686  0.2160 -0.1287  0.1086
 7983TIP3    H145364   0.434   1.524   2.663  0.0535 -0.3606 -0.1857
 7983TIP3    H245365   0.317   1.601   2.606 -0.6069 -1.4694 -0.3437
 7984TIP3   OH245366   0.705   5.661   2.575 -0.2883 -0.2269 -0.2025
 7984TIP3    H145367   0.733   5.596   2.510  0.4670 -0.2692  0.1434
 7984TIP3    H245368   0.720   5.618   2.659  1.0965  0.7025  0.0673
 7985TIP3   OH245369   4.595   0.877  17.083  0.5944  0.3621 -0.1201
 7985TIP3    H145370   4.522   0.835  17.129  1.5285 -1.2061 -0.0136
 7985TIP3    H245371   4.582   0.854  16.991  1.5918 -0.9662  0.0465
 7986TIP3   OH245372   1.025   5.626   1.371  0.2074  0.7871  0.3186
 7986TIP3    H145373   0.950   5.604   1.317  0.4549  1.3734 -0.2777
 7986TIP3    H245374   1.028   5.721   1.372  0.4153  0.7870  1.0832
 7987TIP3   OH245375   0.403   2.165  14.649 -0.7532 -0.1779  0.5893
 7987TIP3    H145376   0.424   2.230  14.583 -1.5683  1.2805  1.6873
 7987TIP3    H245377   0.477   2.105  14.648  0.6504  1.4652  0.3602
 7988TIP3   OH245378   6.530   2.464  16.206 -0.1145  1.0272  0.1921
 7988TIP3    H145379   6.580   2.382  16.204  1.6857  2.0979 -1.2323
 7988TIP3    H245380   6.447   2.440  16.249  0.0935 -1.6769 -0.7248
 7989TIP3   OH245381   3.661   4.607  14.390 -0.4132 -0.1391 -0.4267
 7989TIP3    H145382   3.677   4.587  14.483  2.7468 -2.4583 -1.2827
 7989TIP3    H245383   3.626   4.525  14.354  0.0358  0.1653 -1.5863
 7990TIP3   OH245384   1.529   1.417   3.845  0.2848  0.1421 -0.2310
 7990TIP3    H145385   1.599   1.392   3.784 -0.4847  0.2127 -1.1663
 7990TIP3    H245386   1.490   1.334   3.872 -0.5241  0.1751 -1.2397
 7991TIP3   OH245387   5.686   0.867   2.802  0.0979 -0.6410 -0.0691
 7991TIP3    H145388   5.726   0.794   2.848  0.6397  1.1868  2.5478
 7991TIP3    H245389   5.598   0.875   2.840  0.5720  0.9277  0.8069
 7992TIP3   OH245390   2.087   0.602  12.017  0.6311 -0.0999 -0.3315
 7992TIP3    H145391   2.036   0.531  12.056 -0.1532  1.5835  1.9203
 7992TIP3    H245392   2.024   0.673  12.003  1.0841 -0.2118 -3.8947
 7993TIP3   OH245393   1.815   4.389  15.975  0.0057 -0.0839 -0.4708
 7993TIP3    H145394   1.816   4.297  16.000 -0.4096  0.0659  0.1135
 7993TIP3    H245395   1.907   4.415  15.975  0.0926 -0.3821 -0.1882
 7994TIP3   OH245396   0.947   6.197  15.308  0.1712 -0.0116 -0.3286
 7994TIP3    H145397   0.865   6.165  15.346  0.1561 -0.4481 -0.7297
 7994TIP3    H245398   1.008   6.124  15.318  0.6690  0.4889  0.4418
 7995TIP3   OH245399   2.137   0.353  11.698 -0.6500 -0.0865  0.4356
 7995TIP3    H145400   2.218   0.302  11.695 -1.2407 -1.0148 -1.8210
 7995TIP3    H245401   2.166   0.445  11.696  0.3363 -0.3880  0.3723
 7996TIP3   OH245402   0.073   4.206  13.392  0.2433 -0.6621  0.1882
 7996TIP3    H145403   0.131   4.266  13.439 -0.4164  0.3965 -0.2994
 7996TIP3    H245404   0.130   4.162  13.328  0.6367 -0.1341  0.1683
 7997TIP3   OH245405   1.492   5.374  15.881 -0.1884 -0.2399  0.0672
 7997TIP3    H145406   1.414   5.329  15.847 -0.3040 -0.2164  0.2970
 7997TIP3    H245407   1.475   5.467  15.864 -0.0517 -0.2651 -0.2024
 7998TIP3   OH245408   6.463   2.804  14.673 -0.6901  0.2597 -0.5011
 7998TIP3    H145409   6.417   2.727  14.640 -0.4864  0.4307 -1.2170
 7998TIP3    H245410   6.406   2.878  14.649 -1.6103  0.2505  1.4799
 7999TIP3   OH245411   1.918   1.709  13.487  0.4613 -0.5285  0.1807
 7999TIP3    H145412   1.888   1.750  13.406 -0.0741 -0.4888  0.3894
 7999TIP3    H245413   1.997   1.757  13.510  0.4712 -0.3655 -0.1815
 8000TIP3   OH245414   4.561   0.448   2.127 -0.2312  0.0712 -0.0305
 8000TIP3    H145415   4.607   0.364   2.125 -0.1955  0.0903 -0.0136
 8000TIP3    H245416   4.501   0.444   2.052 -0.0157  0.1503 -0.2115
 8001TIP3   OH245417   6.514   1.988  14.624 -0.0746 -0.5005 -0.4640
 8001TIP3    H145418   6.515   1.985  14.720 -1.2913  0.5567 -0.3899
 8001TIP3    H245419   6.449   1.923  14.598  0.5590 -1.0874 -0.6062
 8002TIP3   OH245420   5.371   4.413   4.666 -0.2514 -0.0541  0.9383
 8002TIP3    H145421   5.440   4.387   4.727 -0.2129  0.0926  0.9568
 8002TIP3    H245422   5.335   4.493   4.703  1.4362  1.4553 -0.5035
 8003TIP3   OH245423   1.474   2.124   2.287  0.1179  0.5077 -0.5694
 8003TIP3    H145424   1.480   2.146   2.194 -1.2931 -1.2529 -1.1187
 8003TIP3    H245425   1.555   2.158   2.325  0.4305  1.8273 -2.3037
 8004TIP3   OH245426   3.546   1.646   0.929 -0.0202 -0.0775  0.0687
 8004TIP3    H145427   3.548   1.593   1.008  1.3193 -0.6297 -0.3126
 8004TIP3    H245428   3.477   1.606   0.875 -0.2435 -0.3095  0.5252
 8005TIP3   OH245429   5.967   2.135   5.402 -0.1388 -0.2673 -0.6113
 8005TIP3    H145430   5.907   2.205   5.428 -0.7636 -1.6888  2.2343
 8005TIP3    H245431   6.054   2.169   5.424 -0.3463 -0.0116 -0.1726
 8006TIP3   OH245432   5.552   1.226  15.870 -0.1322  0.1628 -0.5478
 8006TIP3    H145433   5.493   1.212  15.796  0.3305  0.3572 -0.9566
 8006TIP3    H245434   5.502   1.197  15.946 -0.1359 -1.2958 -1.0772
 8007TIP3   OH245435   4.820   2.476   1.121  0.2547  0.0103 -0.2846
 8007TIP3    H145436   4.853   2.438   1.039 -1.1970 -0.7761 -0.5410
 8007TIP3    H245437   4.747   2.532   1.094  1.6204  2.1919  0.2069
 8008TIP3   OH245438   4.576   0.565  13.728 -0.5559  0.3544 -0.6294
 8008TIP3    H145439   4.500   0.536  13.679  0.3087 -0.5938 -1.4502
 8008TIP3    H245440   4.649   0.516  13.691  0.2351  0.0579  1.1935
 8009TIP3   OH245441   2.205   0.751   3.916 -0.0239  0.4141 -0.4819
 8009TIP3    H145442   2.236   0.795   3.838  0.9239  0.9768  0.1923
 8009TIP3    H245443   2.282   0.705   3.950 -0.4447  0.0911  0.0611
 8010TIP3   OH245444   6.010   0.106  15.110 -0.2617 -0.3650  0.2742
 8010TIP3    H145445   5.919   0.134  15.115  0.0499  0.6962  0.1921
 8010TIP3    H245446   6.061   0.187  15.120  0.6579 -0.2532 -3.6293
 8011TIP3   OH245447   5.373   4.996   0.960  0.3320 -0.0340 -0.8297
 8011TIP3    H145448   5.366   5.070   1.020 -0.4411 -2.2058  1.9870
 8011TIP3    H245449   5.448   5.016   0.905 -0.0620  2.9575 -0.4213
 8012TIP3   OH245450   0.021   0.513   4.898  0.3006 -0.9759 -0.2357
 8012TIP3    H145451  -0.067   0.476   4.903 -0.8296  1.5358  0.3580
 8012TIP3    H245452   0.046   0.529   4.989  0.3908  0.3722 -0.4773
 8013TIP3   OH245453   3.832   3.522   1.495 -0.8919  0.3657  0.2148
 8013TIP3    H145454   3.838   3.430   1.519  0.5995  0.4452  0.2658
 8013TIP3    H245455   3.774   3.561   1.560  1.3322  0.1495  2.5028
 8014TIP3   OH245456   0.400   3.556   4.543 -0.0589  0.1453 -0.4904
 8014TIP3    H145457   0.354   3.634   4.510  0.0367 -0.2172 -1.5303
 8014TIP3    H245458   0.490   3.566   4.509  0.1593 -0.0319  0.0314
 8015TIP3   OH245459   5.440   5.213  13.135 -0.1900  0.2567 -0.1209
 8015TIP3    H145460   5.435   5.293  13.083 -0.3145  0.4214  0.1385
 8015TIP3    H245461   5.467   5.145  13.074 -1.6172  0.1714 -0.7016
 8016TIP3   OH245462   1.434   2.048   0.682  0.1247  0.6661 -0.3429
 8016TIP3    H145463   1.475   2.082   0.603  1.4936 -0.8651 -0.3461
 8016TIP3    H245464   1.440   1.953   0.674 -0.7448  0.4588  1.0690
 8017TIP3   OH245465   4.624   6.303   2.800  0.0549 -0.0831 -0.3530
 8017TIP3    H145466   4.591   6.326   2.887 -2.2666 -0.3930 -1.0779
 8017TIP3    H245467   4.554   6.251   2.761  1.1240 -0.1129 -2.3554
 8018TIP3   OH245468   5.424   0.540   3.098 -0.2493  0.7607  0.7430
 8018TIP3    H145469   5.388   0.570   3.182 -2.8074  0.0721  0.0022
 8018TIP3    H245470   5.396   0.606   3.035  1.6173  1.2483  0.3649
 8019TIP3   OH245471   0.014   2.470   0.275  0.0369 -0.3712  0.0537
 8019TIP3    H145472   0.059   2.518   0.205  1.7087 -0.5777  0.9318
 8019TIP3    H245473   0.075   2.472   0.348 -1.4529 -0.6099  1.3589
 8020TIP3   OH245474   0.514   0.834   2.427  1.0006 -0.5894 -0.0703
 8020TIP3    H145475   0.610   0.834   2.432  1.0491 -0.4580 -0.8112
 8020TIP3    H245476   0.496   0.832   2.333  0.2948  1.5410 -0.0252
 8021TIP3   OH245477   0.939   4.643   3.412  0.4816 -0.3340  0.0455
 8021TIP3    H145478   1.028   4.676   3.399 -0.1445  0.5647 -2.5841
 8021TIP3    H245479   0.888   4.720   3.434  0.2935 -0.8366  1.4728
 8022TIP3   OH245480   2.861   0.317  11.211 -0.6569  0.1755 -0.3302
 8022TIP3    H145481   2.792   0.355  11.156 -0.5329 -0.5417 -1.0041
 8022TIP3    H245482   2.912   0.392  11.241 -1.7660  0.7335  0.2421
 8023TIP3   OH245483   5.040   2.189   3.723  0.3934 -0.0196  0.2482
 8023TIP3    H145484   4.960   2.162   3.677 -0.8173 -0.5476  2.4964
 8023TIP3    H245485   5.109   2.181   3.657 -0.9164 -2.5314 -0.9962
 8024TIP3   OH245486   5.376   0.045  14.839  0.3477 -0.5276  0.4918
 8024TIP3    H145487   5.416   0.061  14.753  0.8125 -1.3075  0.5574
 8024TIP3    H245488   5.291   0.006  14.819 -0.7298  1.7165  0.3316
 8025TIP3   OH245489   6.079   5.105  11.277 -0.1710  0.2711  0.1742
 8025TIP3    H145490   6.137   5.137  11.346  0.1088 -0.1900  0.1556
 8025TIP3    H245491   5.998   5.081  11.323  0.1900 -0.5044  0.4220
 8026TIP3   OH245492   2.693   2.945  15.081 -0.2005 -0.1672  0.5507
 8026TIP3    H145493   2.658   2.856  15.074  1.0053 -0.6063 -0.2966
 8026TIP3    H245494   2.721   2.954  15.172  1.0503 -1.2265  0.3022
 8027TIP3   OH245495   1.091   5.388   1.915 -0.2361 -0.7040 -0.2273
 8027TIP3    H145496   1.075   5.304   1.873 -0.4722 -0.1840 -1.2055
 8027TIP3    H245497   1.042   5.451   1.862 -0.7098 -0.0532  0.9490
 8028TIP3   OH245498   4.183   1.371   5.894 -0.5012 -0.0048 -0.5789
 8028TIP3    H145499   4.253   1.310   5.870 -0.2679 -0.4481  1.0740
 8028TIP3    H245500   4.106   1.340   5.846  0.0772 -0.4261 -1.2472
 8029TIP3   OH245501   0.728   2.698   1.008 -0.4308 -0.1539 -0.3566
 8029TIP3    H145502   0.806   2.750   1.028 -0.1829 -0.7611  0.3164
 8029TIP3    H245503   0.676   2.700   1.089 -1.0830  0.1856 -0.7754
 8030TIP3   OH245504   0.217   1.876  13.960 -0.1811 -0.0433  0.6913
 8030TIP3    H145505   0.252   1.884  13.871 -0.1798  0.5612  0.7472
 8030TIP3    H245506   0.260   1.946  14.009  2.6071 -2.4943  2.0769
 8031TIP3   OH245507   0.499   2.079  11.483  0.3902 -0.2402  0.0049
 8031TIP3    H145508   0.420   2.132  11.475  0.6560  0.0415 -0.8371
 8031TIP3    H245509   0.565   2.127  11.433  0.9634 -0.7268  0.2872
 8032TIP3   OH245510   6.121   2.437   2.322  0.1452 -0.3810  0.5365
 8032TIP3    H145511   6.059   2.460   2.391  3.3008 -1.2115  3.9611
 8032TIP3    H245512   6.126   2.342   2.324  1.7649 -0.3211  0.6304
 8033TIP3   OH245513   3.893   5.966   3.523 -0.2525 -0.3107  0.2058
 8033TIP3    H145514   3.972   5.917   3.499  1.2193  2.0617 -0.1122
 8033TIP3    H245515   3.887   5.956   3.618 -1.7313 -3.4429 -0.0784
 8034TIP3   OH245516   4.567   4.260  16.626 -0.0669 -0.1047 -0.2159
 8034TIP3    H145517   4.509   4.201  16.674 -1.0196  1.4893  0.7101
 8034TIP3    H245518   4.526   4.269  16.540 -0.7763  0.3627  0.1579
 8035TIP3   OH245519   5.462   5.554  16.637  0.5602 -0.7932  0.0839
 8035TIP3    H145520   5.375   5.518  16.651 -0.9434  2.7209  0.9401
 8035TIP3    H245521   5.452   5.617  16.566  2.2233  0.1499  0.6089
 8036TIP3   OH245522   3.838   1.945   2.845 -0.2625 -0.2143 -0.0290
 8036TIP3    H145523   3.812   2.000   2.919 -0.2331 -0.3220  0.0626
 8036TIP3    H245524   3.848   1.858   2.883 -1.9743 -0.6534 -0.4659
 8037TIP3   OH245525   6.605   4.054  11.771 -0.1136  0.1153 -0.4045
 8037TIP3    H145526   6.679   4.028  11.716  0.7676  0.3233  0.6545
 8037TIP3    H245527   6.605   4.150  11.768  0.2929  0.1498  0.3868
 8038TIP3   OH245528   5.676   2.407  13.557 -0.2084  0.1527  0.1414
 8038TIP3    H145529   5.672   2.323  13.512  1.2409  0.7546 -1.1766
 8038TIP3    H245530   5.741   2.457  13.509 -1.7763  2.4249  0.2555
 8039TIP3   OH245531   3.985   2.174  15.867  0.2526  0.7708  0.0456
 8039TIP3    H145532   3.992   2.079  15.876 -1.1193  0.6662  0.1925
 8039TIP3    H245533   4.026   2.193  15.783 -0.0683 -0.0397 -0.3047
 8040TIP3   OH245534   6.303   6.342   5.374 -0.0300  0.1871  0.3765
 8040TIP3    H145535   6.280   6.258   5.335 -1.9806  0.1461  1.4804
 8040TIP3    H245536   6.337   6.320   5.461  0.7196  0.4961  0.1781
 8041TIP3   OH245537   1.472   2.605  11.112  0.3781  0.2638 -0.2960
 8041TIP3    H145538   1.486   2.515  11.081  2.0731  1.1749 -2.3859
 8041TIP3    H245539   1.470   2.658  11.033  0.1325  2.1920  0.9254
 8042TIP3   OH245540   5.189   1.224  15.468 -0.6701  0.0846  0.1112
 8042TIP3    H145541   5.216   1.291  15.531 -3.9298  0.3991  1.3415
 8042TIP3    H245542   5.172   1.274  15.387 -2.8658  0.8046  0.9558
 8043TIP3   OH245543   6.664   1.563   2.154  0.6186 -0.1749 -0.7780
 8043TIP3    H145544   6.630   1.588   2.068 -1.7661 -2.2863 -0.5627
 8043TIP3    H245545   6.596   1.507   2.192  1.9719 -0.0412  2.1476
 8044TIP3   OH245546   4.143   1.003  15.149  0.6609  0.0870  0.7261
 8044TIP3    H145547   4.182   1.058  15.217 -1.0247  0.5442  1.3870
 8044TIP3    H245548   4.127   0.919  15.193  1.5328 -0.3372  0.2525
 8045TIP3   OH245549   0.878   6.236  16.181  0.1409 -0.5650  0.1879
 8045TIP3    H145550   0.836   6.161  16.223  0.2325  0.1442  1.5887
 8045TIP3    H245551   0.972   6.221  16.195  0.2394 -0.8634 -0.7259
 8046TIP3   OH245552   3.493   1.762   1.321  0.0896 -0.2464  0.8892
 8046TIP3    H145553   3.545   1.842   1.325  0.2577 -0.2093 -0.9247
 8046TIP3    H245554   3.403   1.793   1.304  0.5290 -0.4003 -2.3761
 8047TIP3   OH245555   4.783   4.119   5.894 -0.2750 -0.0204 -0.4667
 8047TIP3    H145556   4.692   4.115   5.926 -0.1512 -0.7302 -0.1819
 8047TIP3    H245557   4.835   4.128   5.974  0.0321 -1.6762 -0.4323
 8048TIP3   OH245558   6.257   2.368  13.338  0.2558  0.0345 -0.2383
 8048TIP3    H145559   6.240   2.459  13.316 -1.4972 -0.8992 -3.5289
 8048TIP3    H245560   6.189   2.345  13.400 -0.2593  0.5950 -0.5864
 8049TIP3   OH245561   2.055   0.978   5.607 -0.5156  0.0429  0.5230
 8049TIP3    H145562   1.964   0.949   5.610 -0.1186 -1.2236  1.5234
 8049TIP3    H245563   2.099   0.926   5.675  1.0083  0.4254 -0.1204
 8050TIP3   OH245564   0.010   2.956  16.492  0.1941  0.4134  0.2888
 8050TIP3    H145565   0.047   2.924  16.410  1.5906  1.8546  0.3020
 8050TIP3    H245566   0.037   3.048  16.496 -1.0248  0.7450  1.7016
 8051TIP3   OH245567   4.873   3.210   2.399  0.4261  0.3534 -0.2364
 8051TIP3    H145568   4.836   3.122   2.384  2.3071 -0.4856 -0.3087
 8051TIP3    H245569   4.840   3.236   2.484 -0.9275  0.0056 -0.6236
 8052TIP3   OH245570   2.832   4.534   2.893  0.0237  0.3758  0.2183
 8052TIP3    H145571   2.815   4.558   2.802 -0.5397  3.5848  1.0233
 8052TIP3    H245572   2.927   4.544   2.903  0.3696 -1.8477 -0.4081
 8053TIP3   OH245573   2.826   6.137  13.633 -0.0342  0.0015 -0.5910
 8053TIP3    H145574   2.888   6.141  13.706 -0.1613 -0.4940 -0.4561
 8053TIP3    H245575   2.835   6.223  13.590 -0.7730  0.7341  0.6620
 8054TIP3   OH245576   3.001   5.832  14.568  0.4672 -0.6795  0.1888
 8054TIP3    H145577   2.924   5.780  14.547 -0.0786 -0.0494  0.6222
 8054TIP3    H245578   3.033   5.795  14.650  0.4778 -0.7667  0.1458
 8055TIP3   OH245579   1.605   6.789   0.525  0.3038 -0.0226 -0.1826
 8055TIP3    H145580   1.642   6.875   0.547 -1.3999  0.2928  1.7711
 8055TIP3    H245581   1.604   6.742   0.609 -1.1434 -1.0074 -0.7220
 8056TIP3   OH245582   4.146   1.026  10.530  0.4811  0.1948  0.0101
 8056TIP3    H145583   4.164   1.088  10.601  1.7918 -0.0722 -0.0608
 8056TIP3    H245584   4.139   1.081  10.452  1.1379  0.3089  0.0246
 8057TIP3   OH245585   0.397   6.353  16.416  0.1219 -0.0763 -0.5579
 8057TIP3    H145586   0.470   6.291  16.425 -0.5664 -0.9418 -0.8515
 8057TIP3    H245587   0.430   6.434  16.456  0.4235 -1.1179  1.3983
 8058TIP3   OH245588   0.100   5.723   2.052  0.1625  0.9380 -0.0381
 8058TIP3    H145589   0.050   5.653   2.011  0.4660  0.7595 -0.1057
 8058TIP3    H245590   0.188   5.713   2.017  0.1448  1.5290 -0.2685
 8059TIP3   OH245591   3.013   4.651   3.547  0.1606 -0.0230  0.3365
 8059TIP3    H145592   3.059   4.681   3.468  1.2106 -0.5475  0.7146
 8059TIP3    H245593   3.013   4.726   3.606  1.2321 -0.2205  0.6152
 8060TIP3   OH245594   2.413   1.355   3.706 -0.2936 -0.3020 -0.5781
 8060TIP3    H145595   2.396   1.440   3.666  1.2612  0.3385  0.0331
 8060TIP3    H245596   2.425   1.375   3.799 -0.7774 -1.3259 -0.2867
 8061TIP3   OH245597   3.204   2.584  15.872 -0.1045  0.0832  0.3294
 8061TIP3    H145598   3.119   2.559  15.836  0.1248  1.0519 -0.9717
 8061TIP3    H245599   3.232   2.658  15.818  0.8750  0.7778  1.7085
 8062TIP3   OH245600   1.659   3.996  13.944 -0.0217  0.7790 -0.0345
 8062TIP3    H145601   1.565   4.017  13.948  0.2750  2.0333  0.6902
 8062TIP3    H245602   1.672   3.932  14.014 -0.6844 -1.0120 -1.4428
 8063TIP3   OH245603   6.758   1.043   6.054  0.8290 -0.1807 -0.2286
 8063TIP3    H145604   6.754   0.963   6.002  4.0113  0.4407 -1.6278
 8063TIP3    H245605   6.795   1.016   6.138 -0.2317 -0.4710  0.1706
 8064TIP3   OH245606   4.114   5.671  14.302  0.3094  0.1396  0.5591
 8064TIP3    H145607   4.137   5.617  14.377  0.9865  1.5481  1.4025
 8064TIP3    H245608   4.020   5.687  14.312  0.4412  0.5172  1.2482
 8065TIP3   OH245609   3.743   4.677   5.340  0.6728  0.3184  0.2370
 8065TIP3    H145610   3.697   4.705   5.419  1.4055  1.6676  0.2135
 8065TIP3    H245611   3.812   4.620   5.372 -0.1843 -0.6735  0.3820
 8066TIP3   OH245612   2.009   6.602   3.280 -0.0501  0.3750 -0.0972
 8066TIP3    H145613   1.929   6.623   3.231 -0.5263 -0.4385  0.2976
 8066TIP3    H245614   1.983   6.529   3.337  1.0153  0.0140 -0.0561
 8067TIP3   OH245615   3.726   5.401  13.751  0.2365 -1.1761 -0.1009
 8067TIP3    H145616   3.731   5.312  13.786  1.3303 -0.9740  0.3114
 8067TIP3    H245617   3.683   5.452  13.820 -1.9327 -1.6883 -1.0193
 8068TIP3   OH245618   2.060   6.110  14.791 -0.0932 -0.7353  0.0339
 8068TIP3    H145619   1.982   6.083  14.743 -0.3374 -0.8952  0.5118
 8068TIP3    H245620   2.035   6.192  14.834  0.1146 -0.6044 -0.0909
 8069TIP3   OH245621   0.224   5.115   3.065  0.0544 -0.3852 -0.1146
 8069TIP3    H145622   0.233   5.173   3.141 -1.4762  0.7293 -0.7357
 8069TIP3    H245623   0.205   5.029   3.103 -1.0703  0.2343  0.7902
 8070TIP3   OH245624   6.042   6.600   0.826 -0.0947 -0.1898 -0.0820
 8070TIP3    H145625   5.993   6.586   0.907 -2.0933 -1.1835 -1.3795
 8070TIP3    H245626   6.054   6.694   0.820 -1.0318 -0.0054  0.7603
 8071TIP3   OH245627   2.637   5.740   0.599  0.1747  0.2242  0.2841
 8071TIP3    H145628   2.653   5.833   0.615 -0.7193  0.8295 -1.8805
 8071TIP3    H245629   2.719   5.708   0.561 -0.0445  0.5661 -0.5020
 8072TIP3   OH245630   5.889   0.533   2.054  0.6563  0.4960 -0.4348
 8072TIP3    H145631   5.978   0.530   2.089  0.2708  0.8368  0.6295
 8072TIP3    H245632   5.853   0.446   2.070  0.9718  0.1795 -1.3822
 8073TIP3   OH245633   1.499   2.783  15.985  0.9767 -0.0195  0.6626
 8073TIP3    H145634   1.591   2.782  15.956  1.6900  1.2827  2.6834
 8073TIP3    H245635   1.489   2.702  16.035  0.2600 -1.3746 -1.5473
 8074TIP3   OH245636   5.067   1.687  11.493 -0.2401  0.2819 -0.1536
 8074TIP3    H145637   5.133   1.697  11.562 -0.8356  0.1612  0.4414
 8074TIP3    H245638   5.066   1.771  11.448 -0.9307  0.8990  0.9653
 8075TIP3   OH245639   5.316   1.189   3.769 -0.5355 -0.3217  0.6624
 8075TIP3    H145640   5.276   1.128   3.831 -1.7013  0.3116  0.5814
 8075TIP3    H245641   5.281   1.275   3.795  0.5381  0.2258  0.3634
 8076TIP3   OH245642   0.795   6.113  13.237 -0.2547  0.0241 -0.1004
 8076TIP3    H145643   0.754   6.116  13.151 -1.9054 -1.2401  0.5674
 8076TIP3    H245644   0.856   6.187  13.238 -1.2878  0.9686 -1.8066
 8077TIP3   OH245645   5.860   3.775   0.400 -0.0746  0.1967  0.2009
 8077TIP3    H145646   5.832   3.813   0.317 -0.8328  2.8431  1.5400
 8077TIP3    H245647   5.798   3.704   0.416 -0.0197 -0.2420 -1.3859
 8078TIP3   OH245648   5.266   0.807   0.506 -0.5784  0.3562  0.5233
 8078TIP3    H145649   5.335   0.758   0.552  1.2617  1.1950 -1.2028
 8078TIP3    H245650   5.287   0.797   0.413 -1.7517  2.1156  0.0154
 8079TIP3   OH245651   1.599   3.360   6.063  0.1429 -0.2344  0.2593
 8079TIP3    H145652   1.668   3.301   6.092 -0.4407 -0.4120  1.3120
 8079TIP3    H245653   1.541   3.305   6.010  0.1322 -0.3770  0.4184
 8080TIP3   OH245654   0.165   1.898  14.839 -0.2173 -0.9592 -0.1288
 8080TIP3    H145655   0.190   1.944  14.758 -0.7529 -0.0537  0.2015
 8080TIP3    H245656   0.248   1.876  14.881  0.0889  1.1189  0.4695
 8081TIP3   OH245657   4.668   3.503  12.230 -0.3776 -0.1892 -0.5183
 8081TIP3    H145658   4.649   3.587  12.188 -1.1753 -0.0599  0.0687
 8081TIP3    H245659   4.696   3.527  12.319 -3.4436 -0.5802  0.6929
 8082TIP3   OH245660   3.958   2.236  14.301 -0.2274 -0.5794  0.2840
 8082TIP3    H145661   3.989   2.173  14.366 -1.0020 -2.0409 -0.6872
 8082TIP3    H245662   4.013   2.313  14.313  1.8447 -2.0154  0.4966
 8083TIP3   OH245663   6.178   3.752  13.213  0.0262 -0.2170  0.4562
 8083TIP3    H145664   6.182   3.718  13.124 -0.2005  2.9399 -0.8789
 8083TIP3    H245665   6.255   3.715  13.256  1.0917 -0.4781 -1.5636
 8084TIP3   OH245666   6.311   3.107   5.585 -0.0089  0.9709 -0.1207
 8084TIP3    H145667   6.247   3.095   5.655  1.5468 -2.2280  0.9413
 8084TIP3    H245668   6.384   3.152   5.626 -0.2039  1.6232 -0.4692
 8085TIP3   OH245669   4.849   0.022   4.870 -0.2561  0.0737  0.3100
 8085TIP3    H145670   4.864   0.047   4.961 -0.1358  2.6137 -0.3203
 8085TIP3    H245671   4.774   0.076   4.843  0.7595  0.6372 -1.5319
 8086TIP3   OH245672   1.122   3.151   4.203 -0.2381  0.1421  0.0827
 8086TIP3    H145673   1.121   3.077   4.263 -2.3187 -1.5380 -1.8185
 8086TIP3    H245674   1.211   3.152   4.168  0.4393 -0.0531  1.7024
 8087TIP3   OH245675   6.435   4.346   3.698  0.4082 -0.2515  0.6723
 8087TIP3    H145676   6.392   4.309   3.775 -1.1192  2.1417  1.0750
 8087TIP3    H245677   6.525   4.315   3.704 -0.3790 -2.5166  1.7866
 8088TIP3   OH245678   2.297   4.687  16.111 -0.2097  0.1720 -0.1346
 8088TIP3    H145679   2.387   4.677  16.141  1.7407  0.7381 -4.8185
 8088TIP3    H245680   2.275   4.778  16.131  0.5290  0.2270  0.4560
 8089TIP3   OH245681   4.989   3.370  14.199  0.7434  0.3577 -0.1023
 8089TIP3    H145682   4.982   3.349  14.106 -2.2843  1.3131 -0.1849
 8089TIP3    H245683   4.991   3.286  14.244  1.2530 -0.0927 -0.9540
 8090TIP3   OH245684   4.528   4.672   5.606 -0.5693 -0.2632  0.8663
 8090TIP3    H145685   4.472   4.615   5.553 -0.8081  0.3725  0.4113
 8090TIP3    H245686   4.524   4.636   5.694  1.7301 -2.7917  0.0449
 8091TIP3   OH245687   6.041   2.980  14.250 -0.0534 -0.1132 -0.5386
 8091TIP3    H145688   6.073   2.905  14.300  0.4198  0.9109  0.7421
 8091TIP3    H245689   6.003   2.942  14.170  2.1585 -1.5478 -0.9677
 8092TIP3   OH245690   2.072   0.387   4.633  0.6887  0.1681  0.0798
 8092TIP3    H145691   2.162   0.363   4.655  0.0190 -2.8094 -0.0659
 8092TIP3    H245692   2.026   0.388   4.717  0.5985  0.5104  0.0282
 8093TIP3   OH245693   3.263   1.849   1.914 -0.6764  0.3702 -1.0731
 8093TIP3    H145694   3.238   1.807   1.996  0.4644  2.7778  0.6463
 8093TIP3    H245695   3.326   1.788   1.875 -2.2446 -1.4567 -0.9319
 8094TIP3   OH245696   5.853   4.829  16.671 -0.3283 -0.0122 -0.4086
 8094TIP3    H145697   5.806   4.913  16.667  1.2223  0.9115 -0.1929
 8094TIP3    H245698   5.788   4.764  16.644 -2.2276  0.9567  1.5153
 8095TIP3   OH245699   6.536   6.620  13.882  0.3746 -0.0470  0.7667
 8095TIP3    H145700   6.570   6.671  13.955 -0.9687  1.3046  0.5136
 8095TIP3    H245701   6.471   6.678  13.841  0.2252 -1.2274 -0.7577
 8096TIP3   OH245702   5.885   1.389   1.210  0.1479 -0.6016 -0.4648
 8096TIP3    H145703   5.959   1.375   1.151  1.3706  0.0464  0.8615
 8096TIP3    H245704   5.911   1.347   1.292 -0.5385  0.4714  0.3316
 8097TIP3   OH245705   6.129   4.290   2.784  0.0589  0.1702  0.0319
 8097TIP3    H145706   6.174   4.345   2.848 -1.3498  0.8293  0.4939
 8097TIP3    H245707   6.151   4.327   2.699  0.9335  0.0527  0.2002
 8098TIP3   OH245708   4.652   6.782  16.954  0.3284 -0.2846  0.0246
 8098TIP3    H145709   4.695   6.701  16.925  0.6144 -1.0152  2.3161
 8098TIP3    H245710   4.715   6.822  17.013 -0.4286  0.8751  0.0670
 8099TIP3   OH245711   5.283   6.187  13.342 -0.2178  0.1266 -0.1965
 8099TIP3    H145712   5.327   6.248  13.402 -1.7339  0.1697  0.9313
 8099TIP3    H245713   5.346   6.173  13.271  0.9513  1.4304  0.5402
 8100TIP3   OH245714   2.584   6.324   0.276 -0.2258  0.5321 -0.3681
 8100TIP3    H145715   2.530   6.394   0.239 -0.4338  0.9557  0.7107
 8100TIP3    H245716   2.674   6.353   0.261 -0.2812  1.9841  1.7112
 8101TIP3   OH245717   4.306   1.773  16.313  0.5315  0.1084  0.5478
 8101TIP3    H145718   4.224   1.727  16.331 -0.1688  1.3564  0.6697
 8101TIP3    H245719   4.323   1.823  16.393  1.5751 -0.3654  0.6337
 8102TIP3   OH245720   3.234   1.887  16.911  0.1492  0.3859  0.3269
 8102TIP3    H145721   3.224   1.792  16.906  1.2477  0.1644  1.7183
 8102TIP3    H245722   3.150   1.918  16.946 -0.2750 -0.0384 -0.2939
 8103TIP3   OH245723   1.507   4.060   4.788 -0.5258  0.4214  0.2454
 8103TIP3    H145724   1.578   4.124   4.788  0.7602 -0.9225 -1.9157
 8103TIP3    H245725   1.433   4.107   4.828  1.3972  1.9779  2.2418
 8104TIP3   OH245726   5.151   1.942  13.226 -0.7764 -0.4052 -0.0436
 8104TIP3    H145727   5.197   2.024  13.246 -1.6552 -0.1054  0.8139
 8104TIP3    H245728   5.065   1.952  13.267 -1.0074 -1.6424 -0.1959
 8105TIP3   OH245729   0.539   1.937   2.017 -0.0820 -0.0171  0.7636
 8105TIP3    H145730   0.484   1.935   1.939  0.4970 -3.0017  0.3255
 8105TIP3    H245731   0.603   2.007   2.000  0.3960 -0.9699 -1.7276
 8106TIP3   OH245732   6.310   5.256   0.880  0.5451 -0.3217  0.2237
 8106TIP3    H145733   6.316   5.238   0.974  0.2581 -0.4180  0.2246
 8106TIP3    H245734   6.246   5.326   0.873  1.3057  0.3937  0.1810
 8107TIP3   OH245735   1.743   4.863  14.089 -0.5371  0.4184 -0.2485
 8107TIP3    H145736   1.708   4.925  14.026 -2.9335  0.5918  1.1280
 8107TIP3    H245737   1.733   4.777  14.047 -0.2475  0.6695 -0.8494
 8108TIP3   OH245738   2.722   3.867  15.730  0.0830 -0.1377 -0.6169
 8108TIP3    H145739   2.807   3.824  15.740 -0.9087 -1.8095  1.4121
 8108TIP3    H245740   2.741   3.945  15.678  2.8865 -0.3518 -0.0934
 8109TIP3   OH245741   2.738   5.285   0.196  0.5024 -0.6073 -0.5218
 8109TIP3    H145742   2.682   5.334   0.136  0.9554 -2.1354 -2.3060
 8109TIP3    H245743   2.698   5.297   0.282 -0.5224  1.1860 -1.1904
 8110TIP3   OH245744   4.149   5.092  13.984 -0.3470  0.1706 -0.5274
 8110TIP3    H145745   4.201   5.012  13.982 -1.0672 -0.3779  0.8591
 8110TIP3    H245746   4.205   5.157  14.027 -0.6335 -0.2992  0.5786
 8111TIP3   OH245747   5.158   4.430  13.867  0.1629  0.0865  0.1264
 8111TIP3    H145748   5.195   4.501  13.920  2.3750 -1.4501  0.7919
 8111TIP3    H245749   5.101   4.474  13.804  0.0509  2.2693  1.6613
 8112TIP3   OH245750   1.695   2.616  16.625 -0.2151 -0.2151 -0.2068
 8112TIP3    H145751   1.749   2.688  16.594 -2.7749  2.2737  0.6451
 8112TIP3    H245752   1.709   2.614  16.720 -1.0160 -0.0087 -0.0707
 8113TIP3   OH245753   4.523   1.850   1.419 -0.0666 -0.3312 -0.7382
 8113TIP3    H145754   4.497   1.918   1.357 -0.7353 -0.5485 -0.7003
 8113TIP3    H245755   4.462   1.859   1.492  0.8083  0.0150 -0.0327
 8114TIP3   OH245756   2.938   0.514  10.648 -0.0854  0.2391 -0.2187
 8114TIP3    H145757   2.995   0.469  10.710 -0.3107  0.6301  0.2876
 8114TIP3    H245758   2.967   0.485  10.562 -1.1467 -2.0303  0.1096
 8115TIP3   OH245759   4.072   1.262   4.812  0.2816  0.1910  0.3091
 8115TIP3    H145760   3.994   1.309   4.841 -1.2272 -1.1389 -1.3278
 8115TIP3    H245761   4.132   1.330   4.782  0.4052  1.3402  2.9233
 8116TIP3   OH245762   4.841   3.495   4.211 -0.0397 -0.3806 -0.5510
 8116TIP3    H145763   4.873   3.579   4.178  2.0872 -1.4170 -1.2652
 8116TIP3    H245764   4.792   3.518   4.290  1.9013  1.4005  0.2100
 8117TIP3   OH245765   3.116   3.157   0.994  0.1124  0.0625  0.3401
 8117TIP3    H145766   3.204   3.160   1.031  0.2552  1.2187 -0.0595
 8117TIP3    H245767   3.071   3.089   1.044  1.5899 -1.4417 -0.2780
 8118TIP3   OH245768   0.812   4.694  15.631  0.0779  0.4695  0.1754
 8118TIP3    H145769   0.849   4.774  15.670  0.7638 -0.4396  1.4722
 8118TIP3    H245770   0.751   4.662  15.698  0.5451 -0.6201  0.0854
 8119TIP3   OH245771   4.606   0.169   0.206  0.0313  0.2559  0.0030
 8119TIP3    H145772   4.512   0.176   0.188 -0.1839 -0.2601  0.8812
 8119TIP3    H245773   4.625   0.243   0.263  0.5397  1.3919 -1.5768
 8120TIP3   OH245774   1.011   1.073  16.001  0.0358  0.1964 -0.0330
 8120TIP3    H145775   1.086   1.132  15.993  0.6347 -0.6230 -0.6409
 8120TIP3    H245776   0.997   1.039  15.912 -1.8637  1.2887 -0.2006
 8121TIP3   OH245777   3.060   6.552  14.585 -0.5011 -0.3907  0.2574
 8121TIP3    H145778   3.095   6.515  14.666  2.1437  2.1734  0.4315
 8121TIP3    H245779   2.995   6.616  14.613  1.6146  1.7438  0.6087
 8122TIP3   OH245780   4.747   1.705  11.427  0.5444 -0.0797  0.0299
 8122TIP3    H145781   4.836   1.673  11.445  0.6103 -0.4022 -0.8206
 8122TIP3    H245782   4.697   1.684  11.506  1.2907  0.3877  0.6503
 8123TIP3   OH245783   5.380   0.584  14.482  0.3889 -0.3364  0.0794
 8123TIP3    H145784   5.425   0.554  14.403 -1.0019  1.1903 -1.3779
 8123TIP3    H245785   5.340   0.668  14.456  0.1681  0.3832  2.5144
 8124TIP3   OH245786   0.449   0.505   1.334 -0.0343 -0.2137 -0.0069
 8124TIP3    H145787   0.449   0.412   1.359 -0.5454 -0.1928  0.0780
 8124TIP3    H245788   0.357   0.532   1.342 -0.5389 -0.5658 -3.2616
 8125TIP3   OH245789   0.825   1.202  15.626 -0.5099  0.4636 -0.5616
 8125TIP3    H145790   0.894   1.184  15.690 -0.9089 -0.7900 -0.4539
 8125TIP3    H245791   0.844   1.291  15.595  0.6124  0.4900  0.1243
 8126TIP3   OH245792   2.387   5.686  13.336  0.0259 -0.4953  0.5869
 8126TIP3    H145793   2.446   5.664  13.263  1.6211 -0.6855  1.8832
 8126TIP3    H245794   2.300   5.660  13.304  0.8789 -2.0920 -0.6531
 8127TIP3   OH245795   3.686   2.345  15.939 -0.0068 -0.4905 -0.3421
 8127TIP3    H145796   3.773   2.383  15.939 -1.0388  2.2134  2.2492
 8127TIP3    H245797   3.637   2.396  15.874 -0.3298 -0.1545  0.1576
 8128TIP3   OH245798   6.700   5.896  14.627  0.3636 -0.2958  0.4080
 8128TIP3    H145799   6.716   5.990  14.639  3.0723 -1.0418  4.4391
 8128TIP3    H245800   6.783   5.862  14.592 -0.0319 -1.4179  0.5119
 8129TIP3   OH245801   3.695   6.770   0.800  0.5499 -0.2805 -0.1237
 8129TIP3    H145802   3.632   6.732   0.739  1.3517 -0.8749 -0.5988
 8129TIP3    H245803   3.717   6.855   0.762  0.9071 -0.5716 -0.5773
 8130TIP3   OH245804   2.480   1.729  11.602  0.5573  0.3199  0.3930
 8130TIP3    H145805   2.509   1.667  11.669 -0.6749  0.0767  0.7233
 8130TIP3    H245806   2.536   1.710  11.527  1.5522  0.1847  1.1455
 8131TIP3   OH245807   3.143   4.131  15.884  0.0830  0.1926  0.4556
 8131TIP3    H145808   3.166   4.207  15.831 -1.7653 -1.1046 -2.5104
 8131TIP3    H245809   3.201   4.135  15.960  2.5529  2.5238 -1.3807
 8132TIP3   OH245810   2.671   6.645  12.444  0.1268  0.3234  0.0374
 8132TIP3    H145811   2.668   6.736  12.418 -0.4121  0.7909  1.6089
 8132TIP3    H245812   2.581   6.614  12.436  0.4571 -0.3541 -1.3473
 8133TIP3   OH245813   3.524   2.468  14.153 -0.0170  0.4259  0.2134
 8133TIP3    H145814   3.568   2.458  14.069  1.8813  0.8579  1.1038
 8133TIP3    H245815   3.525   2.380  14.191 -0.9777  0.2078 -0.2501
 8134TIP3   OH245816   6.146   4.682  10.936  0.1793 -0.3801  0.1353
 8134TIP3    H145817   6.119   4.748  11.001  1.3614 -0.4912  0.7648
 8134TIP3    H245818   6.221   4.638  10.977  2.1761  0.7901 -2.0446
 8135TIP3   OH245819   1.875   3.641  15.349  0.0197  0.0183 -0.1686
 8135TIP3    H145820   1.856   3.547  15.346 -1.0021  0.1990  0.2188
 8135TIP3    H245821   1.961   3.646  15.392  0.8274 -0.8056 -1.5963
 8136TIP3   OH245822   6.542   0.442   0.254 -0.5766  0.1623  0.2977
 8136TIP3    H145823   6.571   0.490   0.332  0.5743  0.5975 -0.3718
 8136TIP3    H245824   6.552   0.505   0.182  0.1968 -0.8206 -0.4767
 8137TIP3   OH245825   3.085   1.201  13.386  0.4362 -0.0446  0.0602
 8137TIP3    H145826   3.142   1.175  13.459  0.5405 -0.1021 -0.0429
 8137TIP3    H245827   3.029   1.270  13.423  0.3754 -0.1924  0.2414
 8138TIP3   OH245828   1.288   1.411   1.743 -0.1090 -0.7214  0.3311
 8138TIP3    H145829   1.305   1.429   1.651 -0.9295 -1.3597  0.0404
 8138TIP3    H245830   1.346   1.471   1.791  1.1792 -1.2163 -0.5868
 8139TIP3   OH245831   1.831   1.269  15.325 -0.1525  0.3753 -0.0816
 8139TIP3    H145832   1.924   1.284  15.311 -0.2235  0.0738 -0.9629
 8139TIP3    H245833   1.826   1.220  15.407  0.6070 -1.0938 -0.8672
 8140TIP3   OH245834   6.396   0.146  14.112 -0.0905 -0.5325 -0.5844
 8140TIP3    H145835   6.485   0.170  14.139 -0.1775  0.0084 -0.7458
 8140TIP3    H245836   6.360   0.228  14.076 -0.9583 -0.5165  0.2808
 8141TIP3   OH245837   5.545   0.479  14.248  0.3987 -0.1669 -0.1054
 8141TIP3    H145838   5.577   0.564  14.278 -1.1778  0.9969 -1.4606
 8141TIP3    H245839   5.607   0.452  14.181  0.2066  0.6012 -0.6123
 8142TIP3   OH245840   2.643   5.373   2.748 -0.2319  0.2674 -0.5700
 8142TIP3    H145841   2.626   5.460   2.786 -1.1473 -0.7997  1.6128
 8142TIP3    H245842   2.556   5.334   2.738  0.1996 -0.5737 -1.0933
 8143TIP3   OH245843   3.020   6.161  10.997  0.0902 -0.2788 -0.1118
 8143TIP3    H145844   2.992   6.182  10.908 -0.6217 -1.7088 -0.2565
 8143TIP3    H245845   3.066   6.240  11.027 -0.0596  0.3992 -1.5651
 8144TIP3   OH245846   4.878   1.105  15.608 -0.4347 -0.4864 -0.4063
 8144TIP3    H145847   4.875   1.146  15.694 -0.7915 -0.9325 -0.2033
 8144TIP3    H245848   4.941   1.158  15.558  0.7355 -0.9765  0.5038
 8145TIP3   OH245849   6.461   1.475  15.525 -0.0303  0.1010 -0.0960
 8145TIP3    H145850   6.381   1.463  15.475  0.5459  0.3303 -1.0959
 8145TIP3    H245851   6.525   1.417  15.483  0.7006  0.9480 -0.1985
 8146TIP3   OH245852   6.290   6.249   0.285  0.1269  0.0704  0.1064
 8146TIP3    H145853   6.304   6.194   0.208  0.0811 -1.4780  1.1571
 8146TIP3    H245854   6.197   6.271   0.282  0.1413  0.0944 -0.3026
 8147TIP3   OH245855   3.601   0.736  14.161 -0.2558  0.2227 -0.5781
 8147TIP3    H145856   3.636   0.707  14.245 -0.8354  0.8912 -0.0845
 8147TIP3    H245857   3.507   0.717  14.167 -0.5459  1.5825 -0.4838
 8148TIP3   OH245858   1.671   5.345   3.864 -0.1054 -0.5456 -0.4622
 8148TIP3    H145859   1.599   5.404   3.841  0.3644  0.3810  0.3626
 8148TIP3    H245860   1.671   5.344   3.960  0.7689 -0.8026 -0.4599
 8149TIP3   OH245861   2.096   6.530  11.428 -0.0234 -0.4647  0.2437
 8149TIP3    H145862   2.161   6.475  11.470  0.2131  0.0850  0.6047
 8149TIP3    H245863   2.026   6.470  11.403  1.4813 -1.4421 -2.0105
 8150TIP3   OH245864   4.785   2.659  16.735 -0.7291  0.7828 -0.1757
 8150TIP3    H145865   4.879   2.668  16.754 -0.5622 -0.7176 -0.2050
 8150TIP3    H245866   4.752   2.749  16.736  0.5521  1.2687  0.6114
 8151TIP3   OH245867   5.093   1.276   5.631  0.4546  0.3828 -0.4052
 8151TIP3    H145868   5.065   1.274   5.722 -1.1110 -0.4317 -0.8661
 8151TIP3    H245869   5.148   1.198   5.621 -1.3830 -0.9403 -0.7104
 8152TIP3   OH245870   2.957   5.602  15.950 -0.6188 -0.4508 -0.3425
 8152TIP3    H145871   2.990   5.663  15.885  0.4222  0.0607  0.6422
 8152TIP3    H245872   2.978   5.515  15.915 -1.2171 -0.2363 -1.2696
 8153TIP3   OH245873   6.033   0.047  12.894 -0.1704  0.3817  0.2342
 8153TIP3    H145874   5.940   0.058  12.910  0.1141  2.2560  0.7985
 8153TIP3    H245875   6.039   0.030  12.800 -1.1935 -1.8907  0.5155
 8154TIP3   OH245876   5.013   5.885   4.695 -0.3418 -0.0339  0.4018
 8154TIP3    H145877   4.990   5.884   4.788  0.3751 -0.7822  0.5833
 8154TIP3    H245878   5.038   5.794   4.676  0.8425  0.4006 -0.1859
 8155TIP3   OH245879   2.829   6.685   0.746  0.2308 -0.2630 -0.3608
 8155TIP3    H145880   2.742   6.725   0.738 -0.3226 -1.3580 -0.0521
 8155TIP3    H245881   2.846   6.645   0.661  0.7947  0.6138 -0.6772
 8156TIP3   OH245882   6.702   3.447   2.951 -0.4090 -0.1756  0.1569
 8156TIP3    H145883   6.618   3.484   2.980 -1.3002 -1.6175 -0.4795
 8156TIP3    H245884   6.682   3.356   2.930  1.6168 -0.9328  1.2581
 8157TIP3   OH245885   2.321   4.945  14.307 -0.0617 -0.7633  0.4822
 8157TIP3    H145886   2.416   4.941  14.292  0.1882  2.7641  0.2877
 8157TIP3    H245887   2.297   4.855  14.330  2.7859 -2.4507 -2.3309
 8158TIP3   OH245888   0.149   0.385  15.960  0.7416 -0.4640 -0.3005
 8158TIP3    H145889   0.240   0.358  15.970  0.3542 -2.5006 -1.6917
 8158TIP3    H245890   0.121   0.348  15.876 -1.0279  1.1439 -0.5047
 8159TIP3   OH245891   2.270   4.060   4.653 -0.0949  0.2502  0.2820
 8159TIP3    H145892   2.330   4.022   4.588 -0.3504  2.1071 -1.1453
 8159TIP3    H245893   2.245   3.986   4.709  1.6143 -1.0575 -0.5633
 8160TIP3   OH245894   5.342   1.376  10.521  0.4847 -0.5413 -0.1089
 8160TIP3    H145895   5.376   1.332  10.599  1.5952  1.1045  0.3740
 8160TIP3    H245896   5.419   1.404  10.473 -0.1953 -1.0033 -1.5393
 8161TIP3   OH245897   1.024   4.976   1.503  1.2622  0.2458  0.0138
 8161TIP3    H145898   1.043   5.025   1.423 -0.8516 -1.0157 -1.3457
 8161TIP3    H245899   1.063   4.890   1.488 -1.0750 -0.7726 -0.7656
 8162TIP3   OH245900   2.044   4.483   3.193  0.4756 -0.5176  0.2038
 8162TIP3    H145901   2.106   4.469   3.121 -1.7060 -1.0964 -1.6878
 8162TIP3    H245902   2.030   4.396   3.231 -0.4594 -0.7077 -0.5383
 8163TIP3   OH245903   6.461   0.667  11.368 -0.0475  0.3930 -0.5051
 8163TIP3    H145904   6.488   0.578  11.343  1.0251  0.7992 -0.8264
 8163TIP3    H245905   6.441   0.710  11.285  3.1188  1.6154 -0.7603
 8164TIP3   OH245906   5.094   3.481  16.975  0.6577  0.4950  0.5924
 8164TIP3    H145907   5.149   3.438  16.910  1.8657  0.4928  1.5876
 8164TIP3    H245908   5.144   3.556  17.004 -0.3462  1.1324  0.7311
 8165TIP3   OH245909   2.387   2.738   4.888  0.5623  0.2592 -0.5374
 8165TIP3    H145910   2.436   2.735   4.806 -0.4352 -0.1103 -1.1301
 8165TIP3    H245911   2.344   2.653   4.893  0.1088  0.5202  0.0542
 8166TIP3   OH245912   3.965   1.321   1.212  0.3611 -0.2473 -0.0576
 8166TIP3    H145913   3.955   1.231   1.181 -1.3412  0.4286 -1.6607
 8166TIP3    H245914   3.879   1.344   1.246  0.8909  0.6554  0.7003
 8167TIP3   OH245915   5.336   5.932   5.168 -0.4493 -0.4816  0.0921
 8167TIP3    H145916   5.406   5.965   5.224 -0.5876 -0.1483  0.0691
 8167TIP3    H245917   5.377   5.862   5.116 -0.3731 -0.9452  0.7589
 8168TIP3   OH245918   1.516   2.458  12.000  0.9077 -0.1776 -0.3949
 8168TIP3    H145919   1.560   2.444  12.083 -1.7358  0.0134  1.1452
 8168TIP3    H245920   1.485   2.549  12.004 -1.7801 -1.0196 -0.2280
 8169TIP3   OH245921   1.771   1.173  13.630 -0.5684  0.5333 -0.3492
 8169TIP3    H145922   1.683   1.136  13.643 -0.9779  0.8032 -2.0054
 8169TIP3    H245923   1.758   1.268  13.635 -0.0430  0.5454  1.0693
 8170TIP3   OH245924   6.729   2.456   4.986  0.6197  0.1623 -0.5867
 8170TIP3    H145925   6.769   2.518   5.046 -0.8001  0.9763 -0.4281
 8170TIP3    H245926   6.731   2.372   5.034 -0.0570  0.6974  0.4183
 8171TIP3   OH245927   1.460   4.843  14.376 -0.3467 -0.0862 -0.3093
 8171TIP3    H145928   1.426   4.786  14.444  0.0547  2.4832  2.2509
 8171TIP3    H245929   1.553   4.822  14.371 -0.5499 -0.9145 -0.7766
 8172TIP3   OH245930   2.959   1.273   5.065  0.0286  0.0287  0.2008
 8172TIP3    H145931   2.955   1.341   4.997 -0.3210  0.7409  0.9258
 8172TIP3    H245932   3.023   1.305   5.128 -1.6024  0.7166  1.6093
 8173TIP3   OH245933   3.243   2.805  16.806  0.0121  0.2266 -0.5566
 8173TIP3    H145934   3.329   2.823  16.767 -0.0264 -1.4447 -1.5033
 8173TIP3    H245935   3.262   2.790  16.898  0.3797  2.2529 -0.2536
 8174TIP3   OH245936   6.646   4.008   2.912  0.3831 -0.3677 -0.4111
 8174TIP3    H145937   6.737   3.986   2.891 -0.0200 -1.0766 -1.5096
 8174TIP3    H245938   6.612   3.928   2.953  0.0671 -0.3506 -0.6392
 8175TIP3   OH245939   5.569   0.086   2.600  0.0515  0.0554  0.0132
 8175TIP3    H145940   5.487   0.124   2.570  0.1457 -0.3534 -0.8057
 8175TIP3    H245941   5.617   0.066   2.519  0.9290  0.2333  0.4759
 8176TIP3   OH245942   2.426   4.773   3.466 -0.1854 -0.2637 -0.2329
 8176TIP3    H145943   2.389   4.716   3.533 -1.1934 -0.1212 -0.6497
 8176TIP3    H245944   2.478   4.837   3.514  0.9836 -1.5106  0.2494
 8177TIP3   OH245945   2.473   4.017  12.703 -0.0034  0.7518 -0.3404
 8177TIP3    H145946   2.475   4.008  12.798  0.6981  1.6648 -0.2600
 8177TIP3    H245947   2.381   4.031  12.682 -0.1276  0.8039  0.2224
 8178TIP3   OH245948   0.238   3.516  14.713 -0.0148  0.2115  0.4925
 8178TIP3    H145949   0.148   3.482  14.715 -0.5249  1.5241  0.8754
 8178TIP3    H245950   0.290   3.450  14.758 -1.0195  0.0438  1.4531
 8179TIP3   OH245951   1.643   6.392  15.686  0.4204 -0.8373 -0.2240
 8179TIP3    H145952   1.665   6.438  15.768 -1.7250 -0.4664  0.2147
 8179TIP3    H245953   1.650   6.299  15.708 -0.7215 -0.7540  0.6078
 8180TIP3   OH245954   4.536   5.971  16.878 -0.2779  0.4666 -0.5381
 8180TIP3    H145955   4.538   5.952  16.972  1.6454 -1.2808 -0.8559
 8180TIP3    H245956   4.626   5.997  16.857 -0.2455 -0.7896 -2.1624
 8181TIP3   OH245957   5.854   1.583  16.480 -0.3661 -0.1848  0.8066
 8181TIP3    H145958   5.884   1.642  16.411  2.0750 -0.4727  1.5301
 8181TIP3    H245959   5.812   1.511  16.434 -0.1816  0.3925 -0.2861
 8182TIP3   OH245960   5.150   6.197   4.174 -0.3317 -0.1420  0.3989
 8182TIP3    H145961   5.244   6.213   4.186 -0.5927  1.7067  0.3539
 8182TIP3    H245962   5.146   6.136   4.101  0.8377 -0.0950  0.2658
 8183TIP3   OH245963   5.429   2.844  15.984  0.4160 -0.0273 -0.0900
 8183TIP3    H145964   5.436   2.789  15.906  2.5214 -1.3475  0.9328
 8183TIP3    H245965   5.499   2.908  15.976 -1.5151  2.1223 -0.8719
 8184TIP3   OH245966   5.742   1.458   4.841 -0.2623 -0.0538  0.4203
 8184TIP3    H145967   5.708   1.497   4.760  0.7134  0.9574  0.4872
 8184TIP3    H245968   5.794   1.526   4.881  0.0943 -0.8830  1.4146
 8185TIP3   OH245969   6.182   6.759  14.638  0.1921 -0.6297  0.0229
 8185TIP3    H145970   6.250   6.692  14.640  1.9461  1.0638  0.1388
 8185TIP3    H245971   6.194   6.807  14.721 -0.8195  0.0053 -0.1842
 8186TIP3   OH245972   6.229   1.279   6.509  0.2249  0.0741 -0.4927
 8186TIP3    H145973   6.165   1.286   6.438 -0.7254  0.6333  0.3940
 8186TIP3    H245974   6.242   1.369   6.539  3.6799  0.4547 -2.5194
 8187TIP3   OH245975   2.655   3.658  16.706  0.2312 -0.1168 -0.4160
 8187TIP3    H145976   2.608   3.688  16.784 -0.4051  1.0700 -1.2271
 8187TIP3    H245977   2.647   3.730  16.644  0.0442 -1.3311 -1.8710
 8188TIP3   OH245978   6.786   1.888  13.002 -0.8129 -0.7388  0.2297
 8188TIP3    H145979   6.820   1.857  12.918 -0.2807 -2.1370  0.9258
 8188TIP3    H245980   6.750   1.975  12.983  0.1539 -0.6210 -1.2327
 8189TIP3   OH245981   5.176   1.056   6.157 -0.4921 -0.1089 -0.2767
 8189TIP3    H145982   5.123   1.102   6.222  1.0546 -0.5983  1.4265
 8189TIP3    H245983   5.265   1.087   6.173  0.2719 -2.0571 -0.5276
 8190TIP3   OH245984   5.872   0.750  13.132 -0.1762 -0.1238 -0.4239
 8190TIP3    H145985   5.956   0.786  13.104  0.2616 -1.3771 -0.7487
 8190TIP3    H245986   5.810   0.823  13.120  0.8942  0.8948  0.0815
 8191TIP3   OH245987   3.745   4.003   2.797  0.6393  0.3769  0.7858
 8191TIP3    H145988   3.810   3.970   2.735 -1.0456  0.4022 -1.0966
 8191TIP3    H245989   3.728   4.092   2.769 -0.1527  0.3975  1.3126
 8192TIP3   OH245990   0.402   6.501  15.609 -0.8524 -0.2317 -0.7645
 8192TIP3    H145991   0.493   6.484  15.633 -0.5052 -0.2325 -2.0337
 8192TIP3    H245992   0.361   6.414  15.608 -1.0583 -0.1661  0.4847
 8193TIP3   OH245993   6.704   3.929   0.425 -0.1914 -0.6027 -0.1655
 8193TIP3    H145994   6.741   3.887   0.348 -1.8069 -1.3923 -0.5459
 8193TIP3    H245995   6.612   3.943   0.403 -0.1834  1.2472  0.7595
 8194TIP3   OH245996   0.735   1.744  12.614  0.1023 -0.6223 -0.0368
 8194TIP3    H145997   0.816   1.747  12.665 -0.7089 -1.2070  1.3336
 8194TIP3    H245998   0.713   1.651  12.609 -0.3834 -0.4869 -0.5752
 8195TIP3   OH245999   1.829   2.029   1.945  0.1418 -0.4112  0.7570
 8195TIP3    H146000   1.777   2.006   2.022  0.6529  1.5047  1.7427
 8195TIP3    H246001   1.908   2.069   1.981  0.7906 -0.2648 -0.7545
 8196TIP3   OH246002   1.924   5.971  11.570  0.4820 -0.1508  0.4860
 8196TIP3    H146003   1.829   5.962  11.569  0.4194  0.4554 -0.7792
 8196TIP3    H246004   1.944   6.007  11.657 -0.4930  0.2260  0.5645
 8197TIP3   OH246005   2.163   5.240  15.988 -0.3860 -0.1558  0.8487
 8197TIP3    H146006   2.134   5.240  16.079 -1.3945  0.2803  0.5383
 8197TIP3    H246007   2.152   5.150  15.959 -1.3712 -0.0128  0.7594
 8198TIP3   OH246008   4.608   2.482  12.005 -0.7290  0.5354 -0.5240
 8198TIP3    H146009   4.665   2.483  12.081  1.3563 -0.3383 -1.9774
 8198TIP3    H246010   4.548   2.556  12.018  0.3231  1.1139  1.3596
 8199TIP3   OH246011   0.047   5.245  16.646  0.1584  0.0180  0.0233
 8199TIP3    H146012   0.051   5.280  16.557 -0.6574 -3.1247 -1.3868
 8199TIP3    H246013   0.074   5.153  16.637 -1.7533 -0.9274  2.6690
 8200TIP3   OH246014   4.409   5.463  14.248  0.0364  0.0056  0.2411
 8200TIP3    H146015   4.452   5.545  14.223  0.7654  0.0569  1.5777
 8200TIP3    H246016   4.350   5.444  14.175  1.8442  0.2749 -1.3534
 8201TIP3   OH246017   6.710   2.895   0.977 -0.2105  0.4022 -0.1998
 8201TIP3    H146018   6.718   2.900   1.073 -2.1739 -0.7693  0.0911
 8201TIP3    H246019   6.622   2.927   0.959  0.0722  0.4365 -1.6211
 8202TIP3   OH246020   5.137   1.798  11.852  0.2980 -0.1995  0.3570
 8202TIP3    H146021   5.047   1.784  11.824 -0.5077 -0.9434  2.9901
 8202TIP3    H246022   5.188   1.797  11.772 -1.9163 -0.7347 -1.1257
 8203TIP3   OH246023   4.177   4.951   2.558  0.4129 -0.6586  0.0570
 8203TIP3    H146024   4.203   4.910   2.640  0.3942 -0.7964 -0.0058
 8203TIP3    H246025   4.095   4.997   2.579  0.6120 -0.3728  0.2092
 8204TIP3   OH246026   0.329   3.580   2.580 -0.2487  0.1256  0.0021
 8204TIP3    H146027   0.237   3.597   2.561 -0.2669  0.2133  0.1691
 8204TIP3    H246028   0.328   3.539   2.666  0.0812  2.8000  1.3600
 8205TIP3   OH246029   2.355   0.735   4.295 -0.1081  0.0328  0.4883
 8205TIP3    H146030   2.317   0.730   4.383  1.4043  0.4224  1.2043
 8205TIP3    H246031   2.395   0.650   4.281 -1.0750 -0.3208 -0.1912
 8206TIP3   OH246032   3.609   1.962  12.723  0.3973  0.1764 -0.2151
 8206TIP3    H146033   3.668   1.985  12.795 -1.2790 -1.0820  1.6740
 8206TIP3    H246034   3.526   2.004  12.747 -0.5621 -1.3929 -0.6771
 8207TIP3   OH246035   0.342   4.991  14.122 -0.6075  0.0039  0.2472
 8207TIP3    H146036   0.269   5.044  14.089 -0.4551  0.3006  0.3881
 8207TIP3    H246037   0.343   5.007  14.216  2.2176  3.3391 -0.1248
 8208TIP3   OH246038   3.161   2.549   0.064  0.9755 -0.3749 -0.1272
 8208TIP3    H146039   3.254   2.571   0.078  0.9533  1.9305 -2.7956
 8208TIP3    H246040   3.115   2.632   0.077 -0.8066 -1.5363  1.3662
 8209TIP3   OH246041   3.017   3.819   1.833 -0.4276  0.2091  0.5399
 8209TIP3    H146042   3.097   3.768   1.821 -0.6211  0.4141 -2.2827
 8209TIP3    H246043   3.019   3.846   1.925  1.7203 -1.4369  1.0500
 8210TIP3   OH246044   2.162   5.449  10.558 -0.5045 -0.0050 -0.6524
 8210TIP3    H146045   2.075   5.413  10.574 -0.8966  0.4794 -1.6378
 8210TIP3    H246046   2.148   5.521  10.497  0.5193  0.4693 -0.3602
 8211TIP3   OH246047   6.538   4.767  16.915  0.0232  0.3648  0.2848
 8211TIP3    H146048   6.460   4.784  16.968 -0.2956  0.7911 -0.3144
 8211TIP3    H246049   6.569   4.854  16.890 -1.8364  0.2290 -3.1284
 8212TIP3   OH246050   5.371   5.065   4.311  0.0089  0.6270  0.0510
 8212TIP3    H146051   5.419   5.028   4.237  2.3651 -0.6523  2.0570
 8212TIP3    H246052   5.346   4.988   4.363 -2.8415  1.3924 -0.0451
 8213TIP3   OH246053   3.188   5.624   3.142 -0.6175  0.5992  0.0603
 8213TIP3    H146054   3.108   5.573   3.150  0.1178 -0.5553  0.2997
 8213TIP3    H246055   3.180   5.692   3.210 -1.1695  0.2004  0.4050
 8214TIP3   OH246056   4.351   5.091   3.162 -0.3069 -0.1969  0.4040
 8214TIP3    H146057   4.289   5.019   3.170  0.7041 -1.3233 -1.0661
 8214TIP3    H246058   4.307   5.155   3.106  0.5038 -1.9248 -2.4205
 8215TIP3   OH246059   6.314   3.512  10.443 -0.1106 -0.0596  0.1002
 8215TIP3    H146060   6.224   3.523  10.475 -0.5721 -0.4491 -1.0071
 8215TIP3    H246061   6.343   3.428  10.480 -0.5498 -0.3926 -0.3012
 8216TIP3   OH246062   6.645   3.417  13.470 -0.0673 -0.0924  0.1177
 8216TIP3    H146063   6.614   3.374  13.391 -0.0550 -0.3871  0.2721
 8216TIP3    H246064   6.647   3.510  13.448  0.8860 -0.2524 -0.5618
 8217TIP3   OH246065   2.948   0.060   4.235 -0.0404 -0.2312  0.3662
 8217TIP3    H146066   2.930   0.087   4.325 -0.6485 -0.7519  0.4098
 8217TIP3    H246067   2.862   0.039   4.198  0.2619 -0.6369 -0.1321
 8218TIP3   OH246068   3.285   3.249  16.552 -0.0456  0.0188 -0.1154
 8218TIP3    H146069   3.344   3.324  16.564  0.9234 -0.4002 -1.8835
 8218TIP3    H246070   3.326   3.178  16.600  0.8456 -0.2178 -1.1716
 8219TIP3   OH246071   4.431   1.781   3.577  0.1378  0.0402  0.8356
 8219TIP3    H146072   4.385   1.757   3.657  0.9759 -1.7007  0.8390
 8219TIP3    H246073   4.429   1.702   3.523  0.3631  0.9085 -0.5005
 8220TIP3   OH246074   2.535   0.540   5.863  0.2821  1.0753  0.1255
 8220TIP3    H146075   2.532   0.597   5.940 -1.5009  1.7181 -0.3488
 8220TIP3    H246076   2.452   0.558   5.818  1.1942  0.5710 -1.8405
 8221TIP3   OH246077   5.042   1.912  15.027  0.3779  0.0293  0.6384
 8221TIP3    H146078   5.028   1.965  15.105 -1.2820  1.1153 -0.3344
 8221TIP3    H246079   5.059   1.976  14.957 -0.0238 -0.7892 -0.2324
 8222TIP3   OH246080   0.032   3.232   1.157 -0.0756  0.5468  0.5369
 8222TIP3    H146081   0.063   3.144   1.137  0.3688  0.6375  0.8164
 8222TIP3    H246082   0.060   3.285   1.083 -1.1390  0.2851 -0.0751
 8223TIP3   OH246083   1.770   3.982  12.891  0.0191  0.0202  0.3049
 8223TIP3    H146084   1.794   4.036  12.967  0.6434 -2.1683  1.7956
 8223TIP3    H246085   1.675   3.984  12.889 -0.0991 -0.9881  2.1158
 8224TIP3   OH246086   3.535   1.474   0.503  0.0177  0.2391 -0.0008
 8224TIP3    H146087   3.486   1.406   0.551  1.9497 -1.4393 -0.2665
 8224TIP3    H246088   3.469   1.519   0.452 -1.9785  1.2829  3.2122
 8225TIP3   OH246089   0.868   3.046  11.201 -0.1378 -0.0163  0.3678
 8225TIP3    H146090   0.923   3.017  11.128 -0.1037  3.0345 -0.9635
 8225TIP3    H246091   0.785   3.000  11.188  0.8758 -1.8965  0.2815
 8226TIP3   OH246092   6.624   2.740   2.948 -0.0715  0.6843 -0.3329
 8226TIP3    H146093   6.606   2.787   2.866  0.4935  1.1369 -0.2031
 8226TIP3    H246094   6.575   2.788   3.014  0.4026  1.0119 -0.2204
 8227TIP3   OH246095   0.181   0.704   1.185  0.1866 -0.4852 -0.1513
 8227TIP3    H146096   0.164   0.612   1.207  1.9231 -0.9098 -0.3978
 8227TIP3    H246097   0.154   0.711   1.093  1.6995 -1.2974 -0.7156
 8228TIP3   OH246098   2.403   5.055   1.962  0.3787  0.4806 -0.1120
 8228TIP3    H146099   2.314   5.082   1.986 -0.0095  0.6292 -1.6403
 8228TIP3    H246100   2.394   4.962   1.940  0.0349  1.0390 -2.6771
 8229TIP3   OH246101   4.791   3.779   1.084 -0.3752  0.2217  0.6446
 8229TIP3    H146102   4.850   3.704   1.074 -0.6065  0.2577 -1.3206
 8229TIP3    H246103   4.811   3.835   1.010 -1.5960  1.1495  0.9853
 8230TIP3   OH246104   0.961   2.676   3.525 -0.4956 -0.5541  0.3338
 8230TIP3    H146105   1.022   2.604   3.517 -0.0580 -0.4621  2.1890
 8230TIP3    H246106   0.990   2.740   3.460  0.2366 -1.2842 -0.0759
 8231TIP3   OH246107   4.575   0.886   5.399 -0.0335  0.5071 -0.0414
 8231TIP3    H146108   4.566   0.941   5.321 -1.1196 -0.1398 -0.4095
 8231TIP3    H246109   4.623   0.939   5.462 -0.9250  1.8172 -0.4335
 8232TIP3   OH246110   6.399   2.057   3.135  0.3949  0.0940 -0.5471
 8232TIP3    H146111   6.346   2.005   3.075  1.6902 -1.1343 -0.6691
 8232TIP3    H246112   6.485   2.061   3.094  0.8390  0.6976  0.4095
 8233TIP3   OH246113   0.343   0.234   3.831 -0.4647 -0.1196  0.5161
 8233TIP3    H146114   0.388   0.201   3.909 -0.3096 -1.7652 -0.2268
 8233TIP3    H246115   0.398   0.306   3.800 -0.1669  0.1004  1.5276
 8234TIP3   OH246116   0.460   6.789  11.824  0.2114 -0.5045 -0.2091
 8234TIP3    H146117   0.519   6.865  11.824 -1.9472  1.2902 -0.3213
 8234TIP3    H246118   0.403   6.803  11.899 -1.5238 -0.9052 -1.3931
 8235TIP3   OH246119   3.441   4.512   4.850 -0.2256 -0.0066  0.6511
 8235TIP3    H146120   3.417   4.577   4.783  2.4563 -0.3671 -0.7745
 8235TIP3    H246121   3.447   4.563   4.931 -0.7980  0.9902  0.0999
 8236TIP3   OH246122   5.077   4.208  17.212 -0.3662  0.1078 -0.1213
 8236TIP3    H146123   5.160   4.228  17.257 -0.0843  0.6192 -0.8520
 8236TIP3    H246124   5.012   4.208  17.282  0.5989 -3.0635  0.9652
 8237TIP3   OH246125   3.577   0.256   1.500 -0.3822  0.5876  0.4378
 8237TIP3    H146126   3.641   0.234   1.432 -1.9586  2.4961 -1.8518
 8237TIP3    H246127   3.629   0.266   1.580  2.0406  0.9854 -1.0722
 8238TIP3   OH246128   2.245   0.477  16.702  0.2812  0.6697 -0.4520
 8238TIP3    H146129   2.335   0.462  16.733 -0.4902  0.2463  1.7684
 8238TIP3    H246130   2.222   0.396  16.657  0.1782 -0.2927  1.2361
 8239TIP3   OH246131   3.838   5.121  16.191 -0.0272 -0.0505  0.5022
 8239TIP3    H146132   3.822   5.198  16.137  3.2890  0.5552  0.2132
 8239TIP3    H246133   3.846   5.154  16.280  0.0203 -0.2538  0.5755
 8240TIP3   OH246134   4.085   5.379  11.921  0.6906  0.1136  0.8107
 8240TIP3    H146135   4.000   5.421  11.914  1.2392  1.6827  2.5616
 8240TIP3    H246136   4.118   5.405  12.007  2.1493 -1.9858  0.9700
 8241TIP3   OH246137   5.112   1.379   2.449  0.3541 -0.3328  0.2284
 8241TIP3    H146138   5.085   1.335   2.368  0.6384 -1.4083  0.7046
 8241TIP3    H246139   5.073   1.327   2.519 -0.1741  0.7798  0.7940
 8242TIP3   OH246140   2.891   0.478  15.913  0.1144 -0.1036 -0.1633
 8242TIP3    H146141   2.945   0.403  15.938 -1.0467 -0.8579  0.1097
 8242TIP3    H246142   2.821   0.481  15.978  1.1618  2.3855  0.9853
 8243TIP3   OH246143   4.286   1.816  14.067  0.4104  0.1699 -0.1654
 8243TIP3    H146144   4.214   1.812  14.004  1.4841  0.8146 -1.4849
 8243TIP3    H246145   4.260   1.884  14.129  0.1001  0.7484 -0.9189
 8244TIP3   OH246146   1.746   6.106  14.115  0.1659 -0.5013 -0.2637
 8244TIP3    H146147   1.760   6.184  14.169  0.4037  1.4311 -2.9149
 8244TIP3    H246148   1.821   6.050  14.134  0.1986  0.0580  1.4158
 8245TIP3   OH246149   4.695   4.421   3.622  0.1639 -0.4514 -0.3298
 8245TIP3    H146150   4.728   4.496   3.574  0.1588  1.0917  1.9018
 8245TIP3    H246151   4.601   4.437   3.630  0.6724  1.7079  3.7607
 8246TIP3   OH246152   2.488   2.351  14.383 -0.1309  0.1494  0.1964
 8246TIP3    H146153   2.415   2.330  14.441  1.4396  0.5127  2.4237
 8246TIP3    H246154   2.456   2.425  14.331 -1.3840  0.2094  0.9992
 8247TIP3   OH246155   0.201   5.458  12.998 -0.7504  0.2060 -0.2842
 8247TIP3    H146156   0.187   5.537  13.050 -0.8311 -0.2992  0.4761
 8247TIP3    H246157   0.175   5.386  13.055 -0.2670 -0.4015 -0.8042
 8248TIP3   OH246158   4.827   4.258  15.254 -0.2832  0.2677 -0.3813
 8248TIP3    H146159   4.879   4.308  15.317 -2.6791  0.8669  1.2813
 8248TIP3    H246160   4.786   4.323  15.199 -1.2687 -0.0044  0.0093
 8249TIP3   OH246161   3.115   5.262   5.447  0.2941 -0.2754  0.1132
 8249TIP3    H146162   3.189   5.298   5.497  0.9128 -1.5878  0.1623
 8249TIP3    H246163   3.039   5.283   5.501  0.8070 -0.4382  0.9235
 8250TIP3   OH246164   5.698   2.498   3.238 -0.0849 -0.9669  0.0974
 8250TIP3    H146165   5.724   2.457   3.320  0.7027  0.5970  0.6726
 8250TIP3    H246166   5.632   2.440   3.201 -0.8297 -1.4494  2.0911
 8251TIP3   OH246167   6.710   1.553   0.324  0.9523 -0.1488 -0.3646
 8251TIP3    H146168   6.740   1.590   0.407  1.5965 -1.4497  0.0043
 8251TIP3    H246169   6.632   1.604   0.302  1.9345  1.6044 -0.0238
 8252TIP3   OH246170   3.747   3.275   0.049  0.2703 -0.6280 -0.1371
 8252TIP3    H146171   3.661   3.279   0.007  1.0541 -0.2595 -1.7528
 8252TIP3    H246172   3.791   3.201   0.007  0.8290 -0.7157  0.5726
 8253TIP3   OH246173   1.882   3.161  11.296 -0.0636  0.7278  0.3200
 8253TIP3    H146174   1.799   3.140  11.254 -0.1405 -2.5903  1.8154
 8253TIP3    H246175   1.949   3.129  11.235  0.0054  0.3491  0.5960
 8254TIP3   OH246176   2.447   3.472  16.230  0.1382 -0.6831  0.4119
 8254TIP3    H146177   2.453   3.522  16.311  1.1514  0.1183 -0.1372
 8254TIP3    H246178   2.378   3.408  16.247 -0.2209 -0.0144  1.6227
 8255TIP3   OH246179   0.347   1.529   0.886  0.3369 -0.4349  0.0439
 8255TIP3    H146180   0.323   1.519   0.978  1.4734 -1.9684  0.2177
 8255TIP3    H246181   0.377   1.619   0.880  0.0924 -0.2573  1.1441
 8256TIP3   OH246182   1.258   0.815   5.459  0.2171  0.9658  0.4879
 8256TIP3    H146183   1.183   0.756   5.468 -0.5721  1.8886  0.1814
 8256TIP3    H246184   1.324   0.763   5.414 -1.0515  0.7674 -1.2736
 8257TIP3   OH246185   6.229   2.758  13.886  0.3089 -0.3994 -0.6312
 8257TIP3    H146186   6.308   2.784  13.840  1.9835 -0.1168  2.1598
 8257TIP3    H246187   6.258   2.690  13.947 -1.2171  0.7439  1.5109
 8258TIP3   OH246188   3.271   3.655  11.366 -0.5662 -0.1135 -0.0540
 8258TIP3    H146189   3.199   3.701  11.409 -0.5572  0.7298 -0.9365
 8258TIP3    H246190   3.331   3.723  11.337 -0.5616 -0.6622 -1.3992
 8259TIP3   OH246191   6.318   4.646  14.762 -0.2421  0.3463 -0.1775
 8259TIP3    H146192   6.243   4.664  14.705 -0.5207 -0.6524 -0.1408
 8259TIP3    H246193   6.391   4.691  14.719 -0.3434 -0.7902 -1.6125
 8260TIP3   OH246194   3.499   5.760  15.387 -0.3000  0.8002 -0.2158
 8260TIP3    H146195   3.450   5.681  15.365  0.2874  0.8613 -1.8607
 8260TIP3    H246196   3.470   5.826  15.324 -0.2103  1.6812  0.6335
 8261TIP3   OH246197   1.602   6.131  15.783 -0.6395  0.0747  0.5426
 8261TIP3    H146198   1.639   6.130  15.871 -0.2016  2.3665  0.4348
 8261TIP3    H246199   1.508   6.149  15.796 -0.5895  0.3315  0.5581
 8262TIP3   OH246200   4.739   0.132  11.943  0.5967  0.2498  0.2434
 8262TIP3    H146201   4.802   0.196  11.909 -0.2740  1.2823  0.5373
 8262TIP3    H246202   4.772   0.111  12.031  1.9671 -1.2254 -0.5646
 8263TIP3   OH246203   3.135   0.030  15.800 -0.1079 -0.1472 -0.1896
 8263TIP3    H146204   3.201  -0.038  15.787 -0.8646 -0.6689 -1.5453
 8263TIP3    H246205   3.103   0.017  15.889  0.8872 -0.5298  0.1247
 8264TIP3   OH246206   0.322   0.826   2.865  0.5116  0.0138 -0.5610
 8264TIP3    H146207   0.326   0.813   2.770 -0.4832 -1.3943 -0.4403
 8264TIP3    H246208   0.268   0.905   2.876  1.9363  1.1056 -1.1863
 8265TIP3   OH246209   3.244   4.404  14.958 -0.0927 -0.7653 -0.1861
 8265TIP3    H146210   3.150   4.422  14.952 -0.1079  0.0962  1.8496
 8265TIP3    H246211   3.251   4.337  15.027  0.7441 -1.2838 -0.7565
 8266TIP3   OH246212   0.451   6.009   1.719 -0.1782  0.4701 -0.2863
 8266TIP3    H146213   0.379   6.071   1.729 -1.5911 -1.1977  0.3076
 8266TIP3    H246214   0.411   5.931   1.681  1.6017 -0.0397 -1.2740
 8267TIP3   OH246215   0.897   1.403  16.670  0.3027 -0.1344 -0.3821
 8267TIP3    H146216   0.880   1.465  16.599 -0.1724  0.8712  0.5826
 8267TIP3    H246217   0.810   1.378  16.701  0.4093  2.1285  2.0949
 8268TIP3   OH246218   4.542   1.688  11.637 -0.0207  0.2743  0.1381
 8268TIP3    H146219   4.561   1.603  11.677  0.1739 -0.2947 -1.1218
 8268TIP3    H246220   4.449   1.703  11.655 -0.1982 -0.4809 -0.1238
 8269TIP3   OH246221   5.046   1.911   4.885 -0.1126 -0.1616 -0.4774
 8269TIP3    H146222   5.014   1.855   4.955 -0.5772 -0.5964 -1.0266
 8269TIP3    H246223   5.013   1.871   4.804  1.9336 -0.7182 -1.1056
 8270TIP3   OH246224   0.431   4.743  12.523 -0.0600 -0.3020  0.3478
 8270TIP3    H146225   0.405   4.714  12.435 -1.5453 -0.2537  0.7615
 8270TIP3    H246226   0.398   4.833  12.530  0.7937 -0.0033  0.6558
 8271TIP3   OH246227   1.903   1.584  12.249 -0.0186 -0.1327  0.3715
 8271TIP3    H146228   1.935   1.674  12.247  0.2180 -0.2053  0.8075
 8271TIP3    H246229   1.832   1.585  12.313  0.7879 -0.5086  1.3025
 8272TIP3   OH246230   2.609   3.960   0.759 -0.5480 -0.2883  0.2100
 8272TIP3    H146231   2.640   3.962   0.668  2.7486  1.2656  1.2060
 8272TIP3    H246232   2.518   3.991   0.754 -0.1527  0.6949 -2.4744
 8273TIP3   OH246233   5.575   4.102  11.502 -0.2442 -0.0184 -0.3784
 8273TIP3    H146234   5.592   4.168  11.434  1.9084  0.2892  0.3722
 8273TIP3    H246235   5.621   4.136  11.579 -0.4155 -1.6365  0.4678
 8274TIP3   OH246236   2.109   6.391   5.946 -0.6548 -0.2496  0.5236
 8274TIP3    H146237   2.077   6.393   5.855 -0.6623 -0.6866  0.5153
 8274TIP3    H246238   2.175   6.321   5.947 -1.0542 -0.6281  0.9817
 8275TIP3   OH246239   6.720   2.419   1.398 -0.4453  0.0762 -0.2520
 8275TIP3    H146240   6.625   2.427   1.392 -0.4390 -0.6534 -1.6913
 8275TIP3    H246241   6.742   2.342   1.346  0.7828 -0.9347  1.6469
 8276TIP3   OH246242   0.496   5.322  16.896  0.5884  0.6112 -0.2335
 8276TIP3    H146243   0.434   5.381  16.853 -0.1293  0.8294  1.0238
 8276TIP3    H246244   0.578   5.335  16.849  0.0675  1.4949 -0.9452
 8277TIP3   OH246245   2.164   1.808   0.583 -0.1853 -0.7934 -0.2535
 8277TIP3    H146246   2.235   1.794   0.646 -0.5905  1.2977  0.7492
 8277TIP3    H246247   2.111   1.729   0.589 -0.2252 -0.6521  2.0777
 8278TIP3   OH246248   4.645   2.109   2.337 -0.2560  0.4591 -0.2471
 8278TIP3    H146249   4.570   2.092   2.280 -0.8288  0.5190  0.4674
 8278TIP3    H246250   4.612   2.172   2.401  0.6171  1.0389 -0.3448
 8279TIP3   OH246251   5.702   0.757   2.083  1.2526 -0.0558 -0.4038
 8279TIP3    H146252   5.765   0.690   2.057  1.1286 -0.7877  1.0349
 8279TIP3    H246253   5.755   0.832   2.107  1.5155 -0.2829 -0.2679
 8280TIP3   OH246254   4.579   4.514   0.124 -0.0771 -0.2146 -0.1180
 8280TIP3    H146255   4.489   4.538   0.145  0.0471  1.2136 -1.0560
 8280TIP3    H246256   4.594   4.552   0.037  2.3052  2.0566  1.1640
 8281TIP3   OH246257   2.917   3.470   5.141 -0.1340  0.7925 -0.2103
 8281TIP3    H146258   2.886   3.541   5.198  0.5047 -0.2422  1.4899
 8281TIP3    H246259   3.012   3.474   5.148 -0.1034 -1.5019  1.6022
 8282TIP3   OH246260   2.085   4.917  17.235  0.1368 -0.4699 -0.6650
 8282TIP3    H146261   2.054   5.005  17.217  2.1776  0.3310 -0.5101
 8282TIP3    H246262   2.175   4.915  17.201  0.3580 -2.2882 -0.1045
 8283TIP3   OH246263   6.632   2.653  12.682  0.2773 -0.2537  0.0027
 8283TIP3    H146264   6.578   2.731  12.693 -1.5593 -1.5169  0.4176
 8283TIP3    H246265   6.711   2.671  12.734  0.5833  1.8850 -1.1081
 8284TIP3   OH246266   5.307   4.743  10.763 -0.4068 -0.2167 -0.3480
 8284TIP3    H146267   5.250   4.730  10.687  0.9406 -1.8350 -1.1550
 8284TIP3    H246268   5.321   4.838  10.767  0.2394 -0.1456 -2.7356
 8285TIP3   OH246269   1.851   4.078  10.540 -0.5556 -0.2263  0.0969
 8285TIP3    H146270   1.926   4.137  10.550 -1.1616  1.0228 -2.0614
 8285TIP3    H246271   1.778   4.125  10.581 -0.7632 -0.0707 -0.4453
 8286TIP3   OH246272   5.947   2.872  12.255 -0.1866  0.0019  0.1395
 8286TIP3    H146273   5.995   2.916  12.184 -0.3342 -2.2611 -1.4755
 8286TIP3    H246274   6.004   2.881  12.331 -0.1204  2.6972 -0.1334
 8287TIP3   OH246275   6.536   1.250  12.000  0.5254  0.2670  0.6167
 8287TIP3    H146276   6.540   1.164  11.959 -0.3920  1.2713 -1.7522
 8287TIP3    H246277   6.445   1.257  12.030 -0.7441  1.8857 -2.9900
 8288TIP3   OH246278   4.575   1.082   0.406 -0.1754  0.2733  0.2199
 8288TIP3    H146279   4.549   1.095   0.497 -0.4292 -1.3004  0.3939
 8288TIP3    H246280   4.536   1.156   0.359  0.4864  1.4582  1.4506
 8289TIP3   OH246281   1.804   6.196  13.026  0.0376  0.8629  0.1717
 8289TIP3    H146282   1.717   6.164  13.000  0.6192 -0.2807 -0.4368
 8289TIP3    H246283   1.845   6.223  12.944  1.4239 -1.6053 -0.0413
 8290TIP3   OH246284   4.177   0.356   4.802 -0.4050 -0.0677 -0.1061
 8290TIP3    H146285   4.123   0.285   4.837 -2.0272  2.0888  2.1862
 8290TIP3    H246286   4.253   0.359   4.860 -0.7221  0.5008  0.2944
 8291TIP3   OH246287   0.959   6.153   0.797  0.3733  0.6165  0.4636
 8291TIP3    H146288   1.053   6.137   0.804  0.0728 -0.5319  3.2632
 8291TIP3    H246289   0.920   6.066   0.785 -0.3289  1.2322 -2.7702
 8292TIP3   OH246290   3.608   5.972   1.997 -0.3565 -0.1161  0.1148
 8292TIP3    H146291   3.559   6.004   1.922  0.2048  1.6912  0.4747
 8292TIP3    H246292   3.587   6.033   2.068  1.4470  0.0029  0.5987
 8293TIP3   OH246293   1.911   1.553   0.880 -0.0544  0.5628  0.3675
 8293TIP3    H146294   1.889   1.635   0.924  0.5480  0.1689  1.4385
 8293TIP3    H246295   1.831   1.501   0.885 -0.3429  0.9578 -0.0393
 8294TIP3   OH246296   0.600   1.279  17.222 -0.0238  0.0384 -0.2499
 8294TIP3    H146297   0.625   1.351  17.280  0.5860 -0.8859  0.6636
 8294TIP3    H246298   0.526   1.313  17.172 -0.7366  0.7904  1.2534
 8295TIP3   OH246299   1.155   4.297  12.541  0.0265 -0.3394  0.3161
 8295TIP3    H146300   1.170   4.374  12.597 -0.3555  1.2636 -1.6739
 8295TIP3    H246301   1.238   4.285  12.494  0.1569 -1.3172  0.7640
 8296TIP3   OH246302   3.826   1.356  15.906 -0.1163 -0.0570  0.2354
 8296TIP3    H146303   3.771   1.344  15.829 -1.8569  0.7127  1.3058
 8296TIP3    H246304   3.770   1.334  15.980  1.5187 -0.8250  1.3304
 8297TIP3   OH246305   1.177   1.539   5.820  1.1014  0.4417 -0.2157
 8297TIP3    H146306   1.142   1.565   5.906  1.5412 -1.2476  0.5060
 8297TIP3    H246307   1.215   1.620   5.785  0.8006  1.1967  1.1153
 8298TIP3   OH246308   5.414   0.576  13.200  0.0933 -0.5570  0.0078
 8298TIP3    H146309   5.498   0.564  13.246 -0.3687  0.5987  1.2417
 8298TIP3    H246310   5.371   0.491  13.205  1.7566 -1.6061 -1.9408
 8299TIP3   OH246311   3.069   0.753  14.837  0.0237 -0.0323 -0.1846
 8299TIP3    H146312   2.980   0.731  14.809  0.5470 -0.4719 -1.5769
 8299TIP3    H246313   3.080   0.706  14.920 -0.5298 -1.2284 -0.7532
 8300TIP3   OH246314   0.651   2.900   4.745  0.0081 -0.4378 -0.0729
 8300TIP3    H146315   0.605   2.895   4.829  0.2574  0.1314  0.1019
 8300TIP3    H246316   0.712   2.826   4.747  1.2850  0.5827  1.0313
 8301TIP3   OH246317   4.497   0.721   2.414 -0.1507 -0.1805  0.1219
 8301TIP3    H146318   4.558   0.767   2.472  0.7776  0.5452 -1.3729
 8301TIP3    H246319   4.539   0.637   2.396  0.5558  0.4177 -1.1030
 8302TIP3   OH246320   5.246   5.934   3.226 -0.0294 -0.2094 -0.2030
 8302TIP3    H146321   5.188   6.006   3.254 -2.1278 -1.0822 -1.9885
 8302TIP3    H246322   5.252   5.877   3.303 -0.0644  0.8097  0.5755
 8303TIP3   OH246323   3.503   1.184   0.325  0.2963  0.1983 -0.0698
 8303TIP3    H146324   3.587   1.139   0.311 -0.1881 -0.5919 -0.4889
 8303TIP3    H246325   3.437   1.121   0.296 -0.6134 -0.2055  2.6110
 8304TIP3   OH246326   4.462   1.732   2.263 -0.2274  0.3629 -0.9240
 8304TIP3    H146327   4.440   1.641   2.241 -3.3046  0.7887 -0.1493
 8304TIP3    H246328   4.393   1.759   2.323  0.9432  3.0575 -0.6539
 8305TIP3   OH246329   1.746   6.560   1.487 -0.2951 -0.1121  0.4088
 8305TIP3    H146330   1.794   6.609   1.554  0.1009  0.8045 -0.5109
 8305TIP3    H246331   1.811   6.542   1.419 -0.9903  0.1809 -0.3585
 8306TIP3   OH246332   0.161   0.261   2.520  0.1189 -0.1591  0.0501
 8306TIP3    H146333   0.163   0.328   2.453  0.2379  0.6659  0.8588
 8306TIP3    H246334   0.244   0.271   2.567  0.3846 -1.2315 -0.1553
 8307TIP3   OH246335   6.020   3.522   0.134 -0.2330  0.0692 -0.2155
 8307TIP3    H146336   6.049   3.591   0.074  1.0398 -0.1403  0.1437
 8307TIP3    H246337   5.999   3.448   0.078  0.4588  0.0423 -0.4399
 8308TIP3   OH246338   5.111   6.258   3.853 -0.0206  0.0763  0.4739
 8308TIP3    H146339   5.096   6.163   3.862 -1.5006  0.2161 -0.1389
 8308TIP3    H246340   5.094   6.293   3.940 -0.2978 -0.1431  0.5121
 8309TIP3   OH246341   6.048   6.363   3.115  0.2231  0.0362 -0.9422
 8309TIP3    H146342   6.045   6.321   3.029  1.0365  0.8909 -1.4024
 8309TIP3    H246343   6.048   6.457   3.096  0.7907  0.2347 -0.0270
 8310TIP3   OH246344   2.369   5.271   3.289  0.4073 -0.0998 -0.1934
 8310TIP3    H146345   2.456   5.231   3.291  0.5163  0.1424  0.1216
 8310TIP3    H246346   2.364   5.318   3.372  0.3141  0.6081 -0.6000
 8311TIP3   OH246347   5.120   5.687  10.971 -0.2806 -0.3518 -0.4966
 8311TIP3    H146348   5.104   5.666  10.879  1.0979 -0.4879 -0.7318
 8311TIP3    H246349   5.100   5.780  10.978  0.1319 -0.2147 -1.0715
 8312TIP3   OH246350   1.857   6.481   4.285 -0.5033 -0.0488 -0.0815
 8312TIP3    H146351   1.796   6.497   4.213 -0.6871  0.7128  0.2276
 8312TIP3    H246352   1.901   6.400   4.262 -0.6867  0.0917 -0.9667
 8313TIP3   OH246353   2.988   4.331   1.032 -0.4254  0.1692  0.8063
 8313TIP3    H146354   3.028   4.253   1.070 -1.6523 -0.4076  0.9459
 8313TIP3    H246355   3.055   4.365   0.973  0.1674 -0.9467  0.8015
 8314TIP3   OH246356   4.921   3.422  15.667  0.0595 -0.4361  0.9608
 8314TIP3    H146357   5.013   3.428  15.639 -0.0407 -1.6067  0.3376
 8314TIP3    H246358   4.871   3.448  15.590 -0.1559 -1.1103  0.8656
 8315TIP3   OH246359   1.419   2.853  12.924  0.7698  0.4419  1.1053
 8315TIP3    H146360   1.487   2.845  12.857 -1.1722  1.0023 -1.0434
 8315TIP3    H246361   1.435   2.779  12.983  0.5018 -2.2839 -1.9633
 8316TIP3   OH246362   3.064   2.651   3.531  0.1670 -0.4874 -0.3735
 8316TIP3    H146363   3.116   2.575   3.502 -0.7669 -0.8988 -0.9834
 8316TIP3    H246364   2.974   2.618   3.535 -0.0513  0.2052  0.7379
 8317TIP3   OH246365   0.418   6.348  16.139 -0.1691 -0.1369  0.0374
 8317TIP3    H146366   0.376   6.330  16.223 -0.9975  2.3636  0.2302
 8317TIP3    H246367   0.353   6.397  16.089  0.4590 -1.2178 -1.9548
 8318TIP3   OH246368   2.603   1.644   4.158 -0.0627  0.9074 -0.0383
 8318TIP3    H146369   2.547   1.722   4.161 -1.0794  0.2011  0.0925
 8318TIP3    H246370   2.585   1.599   4.240 -0.8197 -0.3286 -0.8417
 8319TIP3   OH246371   0.257   6.596  14.606  0.4410  0.6493  0.4100
 8319TIP3    H146372   0.232   6.504  14.598  3.3043 -0.2224  0.1803
 8319TIP3    H246373   0.241   6.633  14.519  1.5897 -0.3343 -0.2502
 8320TIP3   OH246374   5.462   6.279   5.533  0.0421  0.6583  0.2346
 8320TIP3    H146375   5.376   6.276   5.574  0.1660 -1.2756  0.4509
 8320TIP3    H246376   5.524   6.279   5.606  0.2573  1.9709  0.0785
 8321TIP3   OH246377   4.295   5.351   5.760 -0.1466 -0.3160  0.3089
 8321TIP3    H146378   4.385   5.382   5.751 -0.1808 -0.6045 -1.3562
 8321TIP3    H246379   4.241   5.427   5.742 -0.2253 -0.4962 -0.2419
 8322TIP3   OH246380   2.731   2.516  17.123 -0.1553  0.5473 -0.6530
 8322TIP3    H146381   2.687   2.435  17.098 -2.3993  1.3516  0.4423
 8322TIP3    H246382   2.726   2.571  17.045 -0.0093  0.2246 -0.8981
 8323TIP3   OH246383   6.564   2.230   0.825 -0.2372 -0.8281 -0.6271
 8323TIP3    H146384   6.606   2.310   0.794  1.4779 -0.7049  1.7229
 8323TIP3    H246385   6.637   2.174   0.852 -1.4761 -2.2156 -0.0148
 8324TIP3   OH246386   4.194   0.927  11.417  0.0847  0.1195 -0.1766
 8324TIP3    H146387   4.160   0.995  11.359 -1.5203 -0.4377  0.0621
 8324TIP3    H246388   4.240   0.867  11.359  0.0462  0.5119 -0.6192
 8325TIP3   OH246389   0.978   3.316  16.834  0.2754 -0.3302  0.1085
 8325TIP3    H146390   1.026   3.234  16.844  1.0407  0.0970 -0.0253
 8325TIP3    H246391   1.015   3.356  16.755  1.5431  1.2440  1.4201
 8326TIP3   OH246392   4.043   0.560   1.306 -0.5343  0.9059  0.1735
 8326TIP3    H146393   3.955   0.549   1.270  0.5564  0.1257 -2.4330
 8326TIP3    H246394   4.032   0.545   1.400 -2.8983 -0.8498 -0.2991
 8327TIP3   OH246395   6.257   3.329  11.220 -0.6096  0.1888  0.2576
 8327TIP3    H146396   6.293   3.404  11.268 -3.0516  1.7398 -0.1639
 8327TIP3    H246397   6.298   3.334  11.134 -1.0746  1.3935  0.0730
 8328TIP3   OH246398   3.315   5.390  11.906 -0.1975  0.0032  0.2728
 8328TIP3    H146399   3.257   5.387  11.982  0.2819 -1.1643  0.6048
 8328TIP3    H246400   3.334   5.483  11.894 -0.1265  0.1911  1.7018
 8329TIP3   OH246401   0.719   4.968  15.643 -0.6574  0.1790  0.3077
 8329TIP3    H146402   0.660   4.922  15.582  0.2107  0.2486 -0.6107
 8329TIP3    H246403   0.715   5.060  15.614  0.2917  0.0986 -0.0840
 8330TIP3   OH246404   2.668   5.174  15.998 -0.5243 -0.1392 -0.3320
 8330TIP3    H146405   2.630   5.111  16.059 -2.5191  0.6684 -0.6904
 8330TIP3    H246406   2.594   5.222  15.962  0.8592  1.9343 -0.6247
 8331TIP3   OH246407   6.287   4.013  14.311  0.0574 -0.5034  0.4414
 8331TIP3    H146408   6.380   3.994  14.328  0.3034 -0.5660 -0.8558
 8331TIP3    H246409   6.240   3.940  14.353  0.5055  0.0339  1.9600
 8332TIP3   OH246410   0.136   3.165  13.406  0.2889  0.1916  0.2205
 8332TIP3    H146411   0.096   3.108  13.472  0.4240 -0.0614  0.0844
 8332TIP3    H246412   0.156   3.245  13.454  0.6590 -0.0988  0.5627
 8333TIP3   OH246413   6.200   6.414   1.149  0.5552 -0.3287  0.0106
 8333TIP3    H146414   6.231   6.390   1.062  0.9645 -1.0814  0.3574
 8333TIP3    H246415   6.147   6.339   1.177  1.4736 -0.6581  0.9247
 8334TIP3   OH246416   2.781   5.270   4.038 -0.0875  0.7010 -0.3078
 8334TIP3    H146417   2.842   5.337   4.069 -0.9634  1.0037  0.8263
 8334TIP3    H246418   2.780   5.205   4.107 -0.7252  0.4850 -0.5149
 8335TIP3   OH246419   3.547   2.959  14.715  0.2361  0.1261 -0.2373
 8335TIP3    H146420   3.603   2.916  14.780 -0.3330  1.3813  1.1450
 8335TIP3    H246421   3.516   3.038  14.759 -4.4400 -1.5066 -0.0587
 8336TIP3   OH246422   2.705   0.438  15.249  0.0727  0.1117 -0.8706
 8336TIP3    H146423   2.743   0.458  15.335  0.2763  1.0067 -1.1600
 8336TIP3    H246424   2.778   0.446  15.188 -0.4460  1.3816 -1.3694
 8337TIP3   OH246425   2.774   4.680   3.922 -0.7060  0.3267  0.5556
 8337TIP3    H146426   2.833   4.606   3.904  1.3764  2.0959 -0.3366
 8337TIP3    H246427   2.718   4.685   3.845 -0.5240 -0.0342  0.3963
 8338TIP3   OH246428   3.679   5.942   3.340 -0.2004 -0.2494 -0.0494
 8338TIP3    H146429   3.748   5.946   3.407 -0.9839  0.9333  0.7320
 8338TIP3    H246430   3.618   5.875   3.372 -0.2064 -0.1932  0.0569
 8339TIP3   OH246431   4.989   2.221  11.308  0.3523  0.4119 -0.3147
 8339TIP3    H146432   5.044   2.229  11.386  0.7130 -0.7879 -0.4123
 8339TIP3    H246433   4.899   2.229  11.340  0.5243  3.9868 -0.3566
 8340TIP3   OH246434   5.395   2.694  14.585  0.2357  0.4159  0.1784
 8340TIP3    H146435   5.308   2.672  14.553  0.3301  1.1451 -0.6289
 8340TIP3    H246436   5.455   2.657  14.520  0.7395 -2.6189  2.1459
 8341TIP3   OH246437   0.808   5.414   0.374  0.1092  0.4281  0.7903
 8341TIP3    H146438   0.859   5.408   0.294  1.0954 -4.3900  1.4818
 8341TIP3    H246439   0.722   5.445   0.346  0.0963 -2.0250 -2.3626
 8342TIP3   OH246440   2.431   1.167  12.200 -0.4500 -0.1164 -0.3089
 8342TIP3    H146441   2.525   1.179  12.205 -0.3329 -1.1648  0.3034
 8342TIP3    H246442   2.417   1.119  12.118 -0.3066 -1.0997  0.2260
 8343TIP3   OH246443   3.104   6.280   0.362 -0.5562  1.0546 -0.0666
 8343TIP3    H146444   3.191   6.302   0.331  0.2693  1.5632  2.4220
 8343TIP3    H246445   3.051   6.358   0.343 -0.7725  0.4148 -2.3875
 8344TIP3   OH246446   0.635   5.521   0.910 -0.8547 -0.5520  0.1288
 8344TIP3    H146447   0.572   5.497   0.978 -0.6732 -2.8914 -0.4487
 8344TIP3    H246448   0.600   5.482   0.830  0.0881  0.2222 -0.6859
 8345TIP3   OH246449   4.898   2.203   0.216 -0.0971  0.3634 -0.1048
 8345TIP3    H146450   4.949   2.281   0.194 -0.3560  0.2538 -1.1087
 8345TIP3    H246451   4.890   2.207   0.312  2.9789 -0.3505  0.2926
 8346TIP3   OH246452   0.893   3.656   5.069 -0.2298 -0.4961  0.5584
 8346TIP3    H146453   0.843   3.590   5.118  0.9958 -1.1546  0.9592
 8346TIP3    H246454   0.945   3.700   5.136  0.5769 -0.5876 -0.0069
 8347TIP3   OH246455   2.013   1.408  13.017  0.1562 -0.1812  0.3806
 8347TIP3    H146456   1.953   1.483  13.014 -0.1250 -0.4139 -0.1410
 8347TIP3    H246457   2.086   1.437  13.071 -0.1417  0.3262  0.5193
 8348TIP3   OH246458   0.433   0.275   1.584 -1.3078 -0.0756  0.3935
 8348TIP3    H146459   0.512   0.233   1.617 -2.2459 -1.3254  1.1321
 8348TIP3    H246460   0.425   0.356   1.635 -1.1715 -0.5623  1.2047
 8349TIP3   OH246461   6.156   5.480   2.726 -0.4552  0.4769  0.0803
 8349TIP3    H146462   6.197   5.539   2.662 -0.5064 -0.7835 -1.1646
 8349TIP3    H246463   6.129   5.537   2.798 -0.5473  1.9814 -1.1040
 8350TIP3   OH246464   0.238   0.802   5.024  0.5054  0.0045  0.0679
 8350TIP3    H146465   0.293   0.768   4.954 -0.1537 -0.6935 -0.1351
 8350TIP3    H246466   0.175   0.731   5.041 -1.2066  1.2719 -0.6698
 8351TIP3   OH246467   2.408   1.936  11.337  0.4635  0.0766 -0.0993
 8351TIP3    H146468   2.454   1.966  11.259 -1.4450  1.6257 -0.7029
 8351TIP3    H246469   2.398   1.841  11.324  1.6018  0.0509 -0.9201
 8352TIP3   OH246470   2.647   1.775  13.250 -0.0007 -0.3218 -0.1538
 8352TIP3    H146471   2.613   1.697  13.294 -0.9610  0.3803  0.4007
 8352TIP3    H246472   2.718   1.743  13.195 -0.2369 -1.5517  0.2264
 8353TIP3   OH246473   2.952   0.898   2.444 -0.0713  0.1867 -0.0064
 8353TIP3    H146474   3.039   0.888   2.485  0.9422  1.8580 -1.5863
 8353TIP3    H246475   2.947   0.991   2.422 -1.5357 -0.2072 -1.5356
 8354TIP3   OH246476   3.699   0.297   0.713  0.1524  0.4562 -0.2254
 8354TIP3    H146477   3.786   0.333   0.696  0.2541  0.2854 -0.0698
 8354TIP3    H246478   3.685   0.312   0.807  1.9622 -3.6470  0.9169
 8355TIP3   OH246479   1.674   0.168  14.625 -0.0072  0.5885  0.6511
 8355TIP3    H146480   1.673   0.077  14.655  1.7422  0.2525 -0.1750
 8355TIP3    H246481   1.731   0.214  14.687 -0.1738  0.9361  0.5538
 8356TIP3   OH246482   0.511   6.607   5.544 -0.2261  0.2258 -0.5780
 8356TIP3    H146483   0.576   6.641   5.606 -2.1859  1.0144  1.1824
 8356TIP3    H246484   0.512   6.670   5.471  1.4239 -0.1664 -0.9361
 8357TIP3   OH246485   4.538   1.505  14.955  0.4924  0.4150 -0.7903
 8357TIP3    H146486   4.509   1.596  14.960 -0.1333  0.1418  1.3088
 8357TIP3    H246487   4.507   1.475  14.870  0.8611  2.1948 -1.5958
 8358TIP3   OH246488   0.660   5.284  15.621 -0.3189 -0.2102  0.6789
 8358TIP3    H146489   0.587   5.301  15.680 -1.7279  0.8516 -1.2360
 8358TIP3    H246490   0.712   5.365  15.625 -0.3948 -0.1522  0.5239
 8359TIP3   OH246491   2.162   3.342   2.717  0.5048 -0.3550 -0.3636
 8359TIP3    H146492   2.069   3.327   2.702  0.1499 -0.5937  1.7726
 8359TIP3    H246493   2.202   3.330   2.631 -1.2810 -1.3872 -1.1164
 8360TIP3   OH246494   0.871   5.519  15.018 -0.1551 -0.5527 -0.1914
 8360TIP3    H146495   0.830   5.432  15.010 -1.7914  0.1496  0.1089
 8360TIP3    H246496   0.811   5.568  15.074  0.2290  1.0673 -1.1287
 8361TIP3   OH246497   0.772   0.418  14.538  0.5335 -0.1434  0.3367
 8361TIP3    H146498   0.772   0.363  14.617 -0.4660  0.7207  0.9689
 8361TIP3    H246499   0.805   0.361  14.469 -1.3299 -1.8546  0.7764
 8362TIP3   OH246500   5.483   5.425   4.675  0.0552 -0.1467  0.5913
 8362TIP3    H146501   5.499   5.496   4.738  0.3897  0.1186  0.2148
 8362TIP3    H246502   5.554   5.363   4.689  0.0677 -0.1422  0.5493
 8363TIP3   OH246503   1.742   0.408  12.370 -0.1476  0.2051 -0.0988
 8363TIP3    H146504   1.687   0.483  12.395 -0.5438 -0.4948  1.1876
 8363TIP3    H246505   1.787   0.383  12.451  0.3149 -0.6817 -0.6145
 8364TIP3   OH246506   0.026   1.530   3.297 -0.3741  0.0577 -0.1573
 8364TIP3    H146507  -0.063   1.512   3.268 -0.8895  2.1397  0.0311
 8364TIP3    H246508   0.017   1.590   3.371  1.1818  0.4341 -0.2215
 8365TIP3   OH246509   5.636   3.314  13.997 -0.0022  0.2798 -0.0470
 8365TIP3    H146510   5.563   3.295  14.056  1.0187 -0.4440  1.0189
 8365TIP3    H246511   5.598   3.372  13.931 -2.4486 -2.6671 -1.5170
 8366TIP3   OH246512   3.873   6.564   3.547 -0.6148 -0.4649  0.8044
 8366TIP3    H146513   3.881   6.469   3.555  2.5099 -0.4830 -0.8500
 8366TIP3    H246514   3.931   6.599   3.615 -1.1473  0.2570  0.9075
 8367TIP3   OH246515   2.994   3.420   2.226  0.5440 -0.4041  0.4441
 8367TIP3    H146516   2.904   3.440   2.197  0.8921  0.8829  0.1886
 8367TIP3    H246517   3.032   3.372   2.153  0.0243 -1.0606  0.6024
 8368TIP3   OH246518   6.067   4.915   1.082 -0.2893  0.1977 -0.0134
 8368TIP3    H146519   6.158   4.935   1.060 -0.7662  1.7460 -0.7726
 8368TIP3    H246520   6.050   4.831   1.039  0.4969  0.3763 -0.7156
 8369TIP3   OH246521   2.179   1.750   1.465  0.0802  0.1507  0.1105
 8369TIP3    H146522   2.097   1.710   1.493  0.2515 -0.9830 -0.9129
 8369TIP3    H246523   2.152   1.828   1.416 -0.4592 -0.7120 -1.0157
 8370TIP3   OH246524   1.030   4.874  16.795  0.5532  0.1414 -0.1045
 8370TIP3    H146525   0.968   4.843  16.861 -1.1766  2.3368 -0.5927
 8370TIP3    H246526   1.066   4.794  16.756  1.0780 -1.2366  2.9034
 8371TIP3   OH246527   4.103   2.831  14.584  0.4618  0.2416  0.5655
 8371TIP3    H146528   4.099   2.927  14.588  1.2773  0.4302 -1.6732
 8371TIP3    H246529   4.161   2.813  14.511  0.0921 -1.9880  0.7615
 8372TIP3   OH246530   2.360   4.682  14.957 -0.1491 -0.3539 -0.1853
 8372TIP3    H146531   2.378   4.589  14.948  1.8124 -0.0263 -0.0943
 8372TIP3    H246532   2.441   4.718  14.994 -1.1863  1.2467  0.6166
 8373TIP3   OH246533   1.256   5.262   1.044  0.3755 -0.2054  0.0337
 8373TIP3    H146534   1.322   5.324   1.013  0.2201  1.5695  2.8907
 8373TIP3    H246535   1.172   5.304   1.025  0.1334 -1.0982 -0.9526
 8374TIP3   OH246536   5.404   5.922  12.686 -0.4939 -0.1018 -0.3086
 8374TIP3    H146537   5.494   5.955  12.687 -0.5461  0.0477 -0.4308
 8374TIP3    H246538   5.371   5.939  12.774 -0.6309  0.4866 -0.4635
 8375TIP3   OH246539   6.593   4.396  10.797  0.1490 -0.4282  0.0831
 8375TIP3    H146540   6.530   4.326  10.780 -0.2815 -0.2126  0.7674
 8375TIP3    H246541   6.540   4.475  10.801  0.5821 -0.1208 -0.2527
 8376TIP3   OH246542   1.180   6.230  15.061 -0.2440  0.9248  0.4638
 8376TIP3    H146543   1.134   6.165  15.114 -1.6176  1.3270 -0.1886
 8376TIP3    H246544   1.222   6.287  15.125  0.5651 -0.2815  1.0523
 8377TIP3   OH246545   1.334   3.029  14.341  0.6171  0.5644  0.2882
 8377TIP3    H146546   1.306   2.945  14.304 -2.0705  0.7328  1.6621
 8377TIP3    H246547   1.395   3.006  14.411  0.2593 -0.2386  0.3503
 8378TIP3   OH246548   5.146   0.639   6.415 -0.3406 -0.4853 -0.1169
 8378TIP3    H146549   5.103   0.554   6.404  1.7026 -1.3804 -1.7705
 8378TIP3    H246550   5.078   0.703   6.394 -1.3945 -1.7584 -0.7204
 8379TIP3   OH246551   0.548   6.129  16.412 -0.0602 -0.4643  0.1121
 8379TIP3    H146552   0.636   6.092  16.414 -0.4824 -1.5460 -0.2972
 8379TIP3    H246553   0.501   6.080  16.479 -0.0115  1.0775  1.3351
 8380TIP3   OH246554   4.222   3.134  16.049  0.4011 -0.2420 -0.4175
 8380TIP3    H146555   4.262   3.091  16.125 -0.5830  0.1220  0.3311
 8380TIP3    H246556   4.249   3.080  15.974  0.2727 -1.4043  0.3489
 8381TIP3   OH246557   2.022   0.630   1.971 -0.0635 -0.6988 -0.6370
 8381TIP3    H146558   2.037   0.558   2.032 -1.2993 -0.9633 -0.6198
 8381TIP3    H246559   2.091   0.693   1.991  1.1187 -1.9069 -0.7186
 8382TIP3   OH246560   3.313   6.309  12.831  0.5092 -0.1717  0.4422
 8382TIP3    H146561   3.242   6.337  12.889  0.8067 -0.1681  0.8040
 8382TIP3    H246562   3.274   6.312  12.743  0.0440 -0.2250  0.6420
 8383TIP3   OH246563   0.328   3.286   1.935 -0.1579  0.0886  0.1107
 8383TIP3    H146564   0.370   3.256   2.016 -3.7963  1.0537  2.6282
 8383TIP3    H246565   0.296   3.206   1.894  0.1030 -0.2941  0.6381
 8384TIP3   OH246566   0.891   2.254   5.889 -0.4891 -0.7012 -0.2223
 8384TIP3    H146567   0.849   2.223   5.808  0.6390 -1.3848 -0.5607
 8384TIP3    H246568   0.828   2.232   5.958 -2.0055  0.9577 -1.0106
 8385TIP3   OH246569   5.985   3.064   3.696  0.5675  0.0773  0.0785
 8385TIP3    H146570   6.070   3.057   3.653 -0.6560  1.2560 -2.7881
 8385TIP3    H246571   5.951   2.975   3.696  1.0570 -0.1165 -0.3924
 8386TIP3   OH246572   3.907   2.607   5.893  0.0782 -0.1085 -0.1601
 8386TIP3    H146573   3.953   2.553   5.956  0.8365  0.3912 -0.2701
 8386TIP3    H246574   3.896   2.692   5.937 -0.5959 -0.1682 -0.1961
 8387TIP3   OH246575   0.358   0.947  15.379 -0.3684 -0.1118 -0.5500
 8387TIP3    H146576   0.297   0.961  15.452 -0.9548  1.5401 -1.3031
 8387TIP3    H246577   0.373   1.035  15.343  3.4591 -0.2366  0.3306
 8388TIP3   OH246578   6.034   3.559  14.781 -0.0458 -0.4185 -0.0101
 8388TIP3    H146579   6.079   3.527  14.859 -1.1074 -1.8455  0.0648
 8388TIP3    H246580   6.094   3.540  14.709  1.6518  2.3634  0.5284
 8389TIP3   OH246581   2.461   6.691  13.792  0.0196 -0.0874  0.0015
 8389TIP3    H146582   2.492   6.600  13.798  0.3168  0.0432  0.4486
 8389TIP3    H246583   2.367   6.685  13.809 -0.3306 -0.5461 -1.7943
 8390TIP3   OH246584   6.492   5.882   4.836  0.4426  0.6120 -0.6267
 8390TIP3    H146585   6.574   5.905   4.793  0.1845 -0.6980 -1.9343
 8390TIP3    H246586   6.425   5.932   4.789  0.1501 -0.8835 -1.9006
 8391TIP3   OH246587   1.017   1.295  12.292  0.1615  0.3851  0.0183
 8391TIP3    H146588   1.035   1.329  12.380  0.0127 -1.8211  0.9557
 8391TIP3    H246589   1.104   1.286  12.252  0.3066  0.4392  0.3152
 8392TIP3   OH246590   3.528   2.064  14.058 -0.2257  0.2497 -0.9304
 8392TIP3    H146591   3.531   1.989  14.000 -2.1061 -1.6722  1.2554
 8392TIP3    H246592   3.581   2.039  14.133  0.3927  1.7812 -0.8071
 8393TIP3   OH246593   4.706   3.144  13.706  0.1654  0.6512 -0.5364
 8393TIP3    H146594   4.736   3.152  13.616 -1.0990 -3.0525 -1.4456
 8393TIP3    H246595   4.778   3.103  13.753 -0.5125 -0.9480 -0.8362
 8394TIP3   OH246596   1.946   3.610   0.454 -0.5372  0.3782  0.5807
 8394TIP3    H146597   2.004   3.599   0.378 -0.6858  0.4668  0.4547
 8394TIP3    H246598   1.939   3.522   0.492 -0.6407  0.2916  0.3618
 8395TIP3   OH246599   5.953   4.067   2.863  0.1689 -0.0882  0.8217
 8395TIP3    H146600   6.011   4.137   2.835  0.1723 -0.0725  0.8671
 8395TIP3    H246601   6.011   4.002   2.903  0.0900  0.2526  1.5201
 8396TIP3   OH246602   1.890   1.654   2.809  0.8305  0.0631  0.1013
 8396TIP3    H146603   1.974   1.614   2.832  1.4669  1.4407  0.2725
 8396TIP3    H246604   1.825   1.606   2.861  1.6777 -0.1266  1.0084
 8397TIP3   OH246605   5.209   2.413  14.886 -0.1096 -0.0546  0.6140
 8397TIP3    H146606   5.213   2.320  14.906  0.6343 -0.9804 -3.0541
 8397TIP3    H246607   5.138   2.421  14.822  2.1618  1.1289 -1.9793
 8398TIP3   OH246608   5.683   3.400   4.543 -0.8607 -0.3638  0.3573
 8398TIP3    H146609   5.768   3.415   4.501 -0.8535  0.3772  0.6171
 8398TIP3    H246610   5.686   3.455   4.622 -1.2343 -1.0323  0.8414
 8399TIP3   OH246611   0.645   2.305   6.377  0.2989 -0.5458  0.5802
 8399TIP3    H146612   0.573   2.327   6.319  0.2335 -0.3020  0.7519
 8399TIP3    H246613   0.713   2.370   6.358  0.6352 -1.0187  0.1325
 8400TIP3   OH246614   1.772   0.485   1.540 -0.0196 -0.8140  0.0884
 8400TIP3    H146615   1.859   0.461   1.507 -0.4192 -3.0362  0.5104
 8400TIP3    H246616   1.711   0.442   1.480 -0.7924 -1.4173  1.2734
 8401TIP3   OH246617   1.735   4.207  11.600 -0.2833  0.3470  0.3543
 8401TIP3    H146618   1.786   4.218  11.520 -1.9889  2.0789 -0.6039
 8401TIP3    H246619   1.737   4.293  11.641 -1.7760  0.2779  0.6390
 8402TIP3   OH246620   4.220   1.962  15.400 -0.3569 -0.3057 -0.0801
 8402TIP3    H146621   4.219   2.002  15.487 -2.9997 -0.4508  0.0492
 8402TIP3    H246622   4.295   1.903  15.401 -1.4414 -1.8658  2.9148
 8403TIP3   OH246623   0.053   1.317  13.018 -0.0233 -0.6460 -0.1723
 8403TIP3    H146624   0.040   1.347  13.108 -1.1385 -2.9311  0.5089
 8403TIP3    H246625  -0.035   1.315  12.980  0.3823 -0.1538 -1.1827
 8404TIP3   OH246626   1.476   0.638  17.038  0.5044  0.7169  0.1652
 8404TIP3    H146627   1.431   0.616  17.119  0.6710  0.6181  0.2318
 8404TIP3    H246628   1.540   0.704  17.063 -0.1004  1.4023 -0.0613
 8405TIP3   OH246629   1.537   6.369  14.955  0.3999  0.4904  0.0905
 8405TIP3    H146630   1.613   6.391  15.007 -1.3366  0.6026  2.7585
 8405TIP3    H246631   1.487   6.450  14.948 -1.5069 -0.4142  2.0894
 8406TIP3   OH246632   4.593   0.280  13.996 -0.4685 -0.4411  0.2284
 8406TIP3    H146633   4.606   0.373  13.975 -0.5904 -0.6363 -0.7464
 8406TIP3    H246634   4.518   0.279  14.055  0.3008  0.1827  1.2553
 8407TIP3   OH246635   0.511   5.013   5.141  0.3144  0.6420 -0.1680
 8407TIP3    H146636   0.524   5.095   5.190  1.7272  0.5502 -0.3659
 8407TIP3    H246637   0.588   5.005   5.085 -0.5853 -0.0075 -1.3681
 8408TIP3   OH246638   6.219   1.899   5.148 -0.0217  0.2057 -0.5472
 8408TIP3    H146639   6.179   1.985   5.135  2.0734  1.3326 -0.0442
 8408TIP3    H246640   6.168   1.860   5.219 -1.4986  0.6880 -1.3102
 8409TIP3   OH246641   1.774   4.103   5.546 -0.2347 -0.0070 -0.2835
 8409TIP3    H146642   1.805   4.176   5.600  0.1043 -0.4954  0.1900
 8409TIP3    H246643   1.844   4.038   5.551 -0.2770 -0.1300 -1.1743
 8410TIP3   OH246644   3.116   0.348   1.000 -0.6611  0.2512  0.2469
 8410TIP3    H146645   3.051   0.316   1.063 -0.9467  1.1361  0.4214
 8410TIP3    H246646   3.156   0.423   1.044  1.0387 -0.7341  0.4564
 8411TIP3   OH246647   1.346   4.222   2.331  0.4563  0.7965  0.0057
 8411TIP3    H146648   1.440   4.240   2.327  0.3075  1.4649 -3.5327
 8411TIP3    H246649   1.339   4.128   2.318  0.6087  0.2946  2.8159
 8412TIP3   OH246650   2.836   1.981   6.153  0.4693  0.8116 -0.8956
 8412TIP3    H146651   2.855   1.977   6.247 -2.6411 -1.6456 -0.1611
 8412TIP3    H246652   2.888   1.911   6.115  0.8888  1.0755 -0.8102
 8413TIP3   OH246653   2.104   1.491   3.148 -0.2208  0.0431 -0.1288
 8413TIP3    H146654   2.012   1.502   3.123  0.0483  1.6367 -0.5521
 8413TIP3    H246655   2.153   1.530   3.075  0.9914 -3.5653 -1.5214
 8414TIP3   OH246656   2.804   1.775  17.271 -0.1702  0.3467  0.2024
 8414TIP3    H146657   2.808   1.718  17.194 -0.1562  0.4022  0.1612
 8414TIP3    H246658   2.750   1.728  17.334 -0.4079  0.4215  0.0554
 8415TIP3   OH246659   4.060   6.185   5.219  0.0323  0.3566 -0.5042
 8415TIP3    H146660   4.025   6.116   5.276 -1.1919  0.2441 -1.3761
 8415TIP3    H246661   4.000   6.189   5.145  1.1339  1.0798 -1.3961
 8416TIP3   OH246662   1.971   5.139   6.593  0.4331 -0.1958  0.0383
 8416TIP3    H146663   1.915   5.083   6.540 -1.9177  1.8307  0.2099
 8416TIP3    H246664   1.980   5.093   6.676 -1.1084 -0.5460  0.0366
 8417TIP3   OH246665   0.167   1.663   5.298 -0.4391  0.1369 -1.1043
 8417TIP3    H146666   0.073   1.670   5.313 -0.3469 -0.2709 -0.2845
 8417TIP3    H246667   0.176   1.654   5.203 -1.1955  0.5793 -1.2233
 8418TIP3   OH246668   4.191   5.864   5.207  0.8228 -0.2699 -0.0880
 8418TIP3    H146669   4.274   5.906   5.229 -0.3627  1.1882  1.9957
 8418TIP3    H246670   4.202   5.773   5.233  1.5104  0.1126  1.0666
 8419TIP3   OH246671   3.813   5.073  14.555  0.2531  0.0267  0.5649
 8419TIP3    H146672   3.852   5.028  14.630  0.5147 -1.2415 -0.2897
 8419TIP3    H246673   3.732   5.111  14.590  0.6159 -0.1011  1.6002
 8420TIP3   OH246674   6.610   0.863   3.510  0.5761 -0.2131 -0.1257
 8420TIP3    H146675   6.670   0.911   3.454  0.1920  2.7677  1.8037
 8420TIP3    H246676   6.523   0.894   3.484  0.1243 -1.5216 -0.2499
 8421TIP3   OH246677   6.328   1.485   1.486  0.3839 -0.1519  0.4787
 8421TIP3    H146678   6.349   1.403   1.530  0.2996 -0.1873  0.4536
 8421TIP3    H246679   6.274   1.534   1.548  0.6678  0.0056  0.6042
 8422TIP3   OH246680   4.724   2.803   0.393  0.3915  0.6980  0.2597
 8422TIP3    H146681   4.799   2.793   0.451  1.8801  0.5442 -1.5898
 8422TIP3    H246682   4.722   2.722   0.342 -1.0292  0.7163  0.2436
 8423TIP3   OH246683   0.840   3.566  12.427 -0.6403 -0.0780  0.1975
 8423TIP3    H146684   0.781   3.641  12.425  0.5290  0.8589 -0.3817
 8423TIP3    H246685   0.877   3.562  12.338 -0.8058 -1.4548  0.1618
 8424TIP3   OH246686   3.697   5.867  12.359  0.4616 -0.0751 -0.3184
 8424TIP3    H146687   3.779   5.854  12.311 -0.9816 -0.0966 -2.9847
 8424TIP3    H246688   3.675   5.781  12.394  1.3523 -0.1496  0.0851
 8425TIP3   OH246689   0.941   6.489  15.700 -0.2759 -0.4471 -0.1348
 8425TIP3    H146690   0.987   6.461  15.621  0.1765  2.2271 -0.9323
 8425TIP3    H246691   1.007   6.484  15.769 -0.6380 -2.6647  0.1411
 8426TIP3   OH246692   4.880   4.206   3.537 -0.2404  0.0635 -0.1749
 8426TIP3    H146693   4.824   4.281   3.556  0.8350  1.2641 -1.5518
 8426TIP3    H246694   4.905   4.216   3.445  2.3138 -0.3455  0.3971
 8427TIP3   OH246695   6.293   3.587  11.832  0.2580  0.1773 -0.6310
 8427TIP3    H146696   6.373   3.627  11.864  1.3504 -0.3691 -2.4973
 8427TIP3    H246697   6.240   3.571  11.910  1.1721  2.2033  0.4721
 8428TIP3   OH246698   1.410   3.452   4.680  0.6882 -0.5416 -0.1104
 8428TIP3    H146699   1.314   3.452   4.683  0.6963 -1.7162  0.7766
 8428TIP3    H246700   1.432   3.377   4.624  1.0977  0.8910 -1.9688
 8429TIP3   OH246701   5.741   1.855   0.997  0.5870 -0.3684  0.7482
 8429TIP3    H146702   5.779   1.916   1.060  0.1666  1.7013 -0.8903
 8429TIP3    H246703   5.764   1.891   0.912 -3.8303  0.3620 -0.3899
 8430TIP3   OH246704   5.867   1.029  12.896  0.3003  0.0411 -0.4570
 8430TIP3    H146705   5.807   1.088  12.849  0.0857 -0.3443 -0.6762
 8430TIP3    H246706   5.823   1.012  12.979 -1.8195 -3.2074 -2.0092
 8431TIP3   OH246707   2.290   6.344   5.381  0.0776  0.8250  0.1183
 8431TIP3    H146708   2.320   6.435   5.388  0.7009  0.5962  0.4561
 8431TIP3    H246709   2.299   6.308   5.469 -1.0387  0.6910  0.1933
 8432TIP3   OH246710   2.962   2.608  13.536  0.6154 -0.0642 -0.1375
 8432TIP3    H146711   2.938   2.520  13.565  0.8184 -0.1938 -0.3636
 8432TIP3    H246712   2.886   2.640  13.488  0.0021  0.4140  1.0993
 8433TIP3   OH246713   6.473   3.458  11.627  0.1216  0.4830 -0.3409
 8433TIP3    H146714   6.561   3.420  11.624 -0.5623 -1.2175 -0.2836
 8433TIP3    H246715   6.444   3.444  11.717 -0.2772  0.8750 -0.4033
 8434TIP3   OH246716   0.688   5.465  13.582  0.3211  0.9770  0.7657
 8434TIP3    H146717   0.783   5.461  13.566  0.2174  1.8625 -0.2060
 8434TIP3    H246718   0.667   5.381  13.621  1.9698  1.7923  3.7005
 8435TIP3   OH246719   6.353   5.450  12.267 -0.4476 -0.4115  0.0823
 8435TIP3    H146720   6.275   5.505  12.274 -0.4149  0.0306 -2.2889
 8435TIP3    H246721   6.319   5.364  12.242 -0.2751 -0.6929  0.7912
 8436TIP3   OH246722   0.125   5.196   3.408 -0.0182 -0.0691 -0.2461
 8436TIP3    H146723   0.092   5.124   3.355  0.4203  0.8021 -1.7537
 8436TIP3    H246724   0.094   5.275   3.363  1.6748  0.7133 -0.0996
 8437TIP3   OH246725   0.994   3.204   4.551  0.8164  0.5409  0.3729
 8437TIP3    H146726   1.047   3.134   4.512  1.7954  1.5966 -0.2592
 8437TIP3    H246727   0.964   3.167   4.634 -1.6690 -1.9513 -1.4306
 8438TIP3   OH246728   3.907   3.319  15.929  0.2003 -0.5168 -0.5125
 8438TIP3    H146729   3.815   3.297  15.940  0.6460 -2.0497  0.6801
 8438TIP3    H246730   3.952   3.234  15.932  1.7425  0.2745  0.3387
 8439TIP3   OH246731   2.634   2.682   3.614  0.4882 -0.0053 -0.0897
 8439TIP3    H146732   2.548   2.721   3.630  0.0002 -0.6704 -0.9778
 8439TIP3    H246733   2.696   2.753   3.628 -0.2945  0.7883 -0.5907
 8440TIP3   OH246734   0.391   1.074   3.949  0.0670  0.8133 -0.2037
 8440TIP3    H146735   0.359   1.100   3.863 -3.3188 -1.9869 -0.0174
 8440TIP3    H246736   0.356   1.139   4.009  0.8216  1.7088 -0.7127
 8441TIP3   OH246737   5.488   3.960  15.650  0.1833  0.0306  0.0119
 8441TIP3    H146738   5.475   4.042  15.602  0.4331  0.6588  0.9960
 8441TIP3    H246739   5.415   3.904  15.622 -0.3883  0.8409 -0.1360
 8442TIP3   OH246740   4.640   4.090   4.678  0.0149  0.5920 -0.3770
 8442TIP3    H146741   4.558   4.082   4.629  0.0437  1.3554 -0.5511
 8442TIP3    H246742   4.708   4.085   4.611  0.2027 -1.5741 -0.0998
 8443TIP3   OH246743   6.591   4.124   0.047 -0.2190 -0.0699  0.0785
 8443TIP3    H146744   6.641   4.088  -0.026 -2.9712 -0.3302 -1.8082
 8443TIP3    H246745   6.546   4.048   0.085 -1.4833  0.5145 -0.1933
 8444TIP3   OH246746   5.321   0.699   1.841 -0.2457  0.1715 -0.2888
 8444TIP3    H146747   5.234   0.662   1.855  0.3651 -0.5801  2.0835
 8444TIP3    H246748   5.336   0.755   1.917  1.3666  0.2299 -0.6103
 8445TIP3   OH246749   3.034   5.696  13.768  0.5871  0.2061  0.7681
 8445TIP3    H146750   3.046   5.789  13.745  2.3094 -0.5165 -1.6381
 8445TIP3    H246751   2.972   5.664  13.704  1.3577 -0.6873  0.4512
 8446TIP3   OH246752   5.716   2.203  16.274 -0.2984  0.0326  0.2796
 8446TIP3    H146753   5.722   2.287  16.228  0.1687  0.4414  1.0609
 8446TIP3    H246754   5.629   2.204  16.315 -0.5693 -0.1730 -0.2828
 8447TIP3   OH246755   0.064   3.099  15.681 -0.4583 -0.1710 -0.1695
 8447TIP3    H146756   0.019   3.015  15.676 -2.0931  0.6561 -0.1835
 8447TIP3    H246757   0.073   3.126  15.589 -0.0847 -0.2454 -0.1569
 8448TIP3   OH246758   5.815   3.023  15.763  0.5802  0.0786 -0.3156
 8448TIP3    H146759   5.824   2.928  15.763 -0.3537 -0.0495  1.6018
 8448TIP3    H246760   5.843   3.049  15.850 -3.2450  1.0826  0.7888
 8449TIP3   OH246761   0.633   5.856  13.852  0.1773  0.1529 -0.0590
 8449TIP3    H146762   0.634   5.766  13.818 -2.6675 -0.1971  0.5250
 8449TIP3    H246763   0.611   5.910  13.775 -0.9925 -0.0173  0.1426
 8450TIP3   OH246764   0.385   3.522   5.451 -0.3988 -0.1261  0.2386
 8450TIP3    H146765   0.301   3.497   5.488  0.5915 -3.5295  0.4829
 8450TIP3    H246766   0.417   3.591   5.511 -1.6341 -0.9901  1.9918
 8451TIP3   OH246767   0.676   6.309  16.010  0.0132  0.3130  0.4041
 8451TIP3    H146768   0.594   6.323  16.057  0.0794 -0.2858  0.7025
 8451TIP3    H246769   0.743   6.304  16.079  0.2110  0.1437  0.1993
 8452TIP3   OH246770   1.741   0.288  15.898 -0.2321  0.2373 -0.0048
 8452TIP3    H146771   1.744   0.201  15.938 -0.4277  0.7929  1.2640
 8452TIP3    H246772   1.648   0.309  15.893 -0.1410  0.9800  1.0928
 8453TIP3   OH246773   6.095   0.402   4.444 -0.0582 -0.4328 -0.4496
 8453TIP3    H146774   6.089   0.481   4.391 -0.8830  0.5757  1.0393
 8453TIP3    H246775   6.024   0.346   4.412 -0.0786 -0.1514 -0.8990
 8454TIP3   OH246776   3.461   1.782   2.762  0.3137 -0.2222  0.0415
 8454TIP3    H146777   3.386   1.839   2.744 -0.3606 -0.8835  0.6970
 8454TIP3    H246778   3.534   1.825   2.718 -0.4028  0.5473 -0.4386
 8455TIP3   OH246779   1.072   0.146   4.301 -0.1021  0.1177  0.3265
 8455TIP3    H146780   1.068   0.082   4.230 -0.0372  0.6648 -0.1730
 8455TIP3    H246781   0.981   0.170   4.317 -0.1882 -0.5764  0.9647
 8456TIP3   OH246782   0.029   4.535  13.848  0.6223 -0.8549  0.2082
 8456TIP3    H146783   0.001   4.532  13.757 -2.0890 -0.4453  0.9378
 8456TIP3    H246784  -0.048   4.567  13.896  2.7106  1.4121  2.3475
 8457TIP3   OH246785   0.439   2.976   0.478 -0.0821  0.5377 -0.7422
 8457TIP3    H146786   0.533   2.973   0.458  0.0785 -1.4598  0.0941
 8457TIP3    H246787   0.399   2.918   0.412 -0.9135  2.1621 -1.7469
 8458TIP3   OH246788   5.221   1.571  12.049  0.1691  0.2998  0.0773
 8458TIP3    H146789   5.181   1.635  11.990 -0.3981 -0.2216 -0.1231
 8458TIP3    H246790   5.295   1.616  12.088  1.0275  0.4238 -1.6100
 8459TIP3   OH246791   6.252   2.775   5.382 -0.3118 -0.5020 -0.0897
 8459TIP3    H146792   6.172   2.727   5.404 -0.8936  0.2190 -0.5506
 8459TIP3    H246793   6.305   2.773   5.462 -1.4805  0.3458  0.7397
 8460TIP3   OH246794   2.894   2.008  16.043  0.4611  0.0490  0.4165
 8460TIP3    H146795   2.859   1.926  16.009  1.6696 -0.7792  1.1072
 8460TIP3    H246796   2.853   2.018  16.129 -0.9449  1.0539 -0.3110
 8461TIP3   OH246797   4.344   4.970  16.168  0.5828 -0.8591  0.9944
 8461TIP3    H146798   4.250   4.976  16.182  0.6037  0.0586  0.7834
 8461TIP3    H246799   4.382   5.026  16.235  0.9057 -0.1537  0.2375
 8462TIP3   OH246800   4.317   0.428   1.946  0.1333  0.0342  0.0701
 8462TIP3    H146801   4.250   0.361   1.963  1.1619 -1.8405 -2.6205
 8462TIP3    H246802   4.267   0.508   1.928 -1.4790 -1.3167 -1.8996
 8463TIP3   OH246803   3.293   3.211  11.769 -0.1164 -0.2126 -0.0158
 8463TIP3    H146804   3.272   3.265  11.845 -0.9439  1.0559 -1.0897
 8463TIP3    H246805   3.223   3.145  11.767  0.4063 -0.7998  0.8097
 8464TIP3   OH246806   0.366   0.680  13.307 -0.4925 -0.3337  0.3266
 8464TIP3    H146807   0.440   0.714  13.356  0.5605  0.2479 -1.5507
 8464TIP3    H246808   0.329   0.756  13.262 -2.1246 -0.6505  1.0336
 8465TIP3   OH246809   6.278   4.326   1.416 -0.1284  0.5007 -0.4793
 8465TIP3    H146810   6.193   4.282   1.412 -0.4341  0.9903  0.3751
 8465TIP3    H246811   6.330   4.272   1.475  0.3675 -0.1180 -1.4476
 8466TIP3   OH246812   4.892   4.246   3.994 -0.4951 -0.0725 -0.6436
 8466TIP3    H146813   4.874   4.330   4.037 -1.2513  1.2615 -3.3249
 8466TIP3    H246814   4.984   4.228   4.015  0.2911  2.4610 -1.5288
 8467TIP3   OH246815   1.845   6.563  11.151  0.0541 -0.1507 -0.8438
 8467TIP3    H146816   1.833   6.639  11.208  0.3462 -0.1202 -0.8259
 8467TIP3    H246817   1.939   6.559  11.134  0.0640 -0.5978 -0.7153
 8468TIP3   OH246818   0.645   3.320   1.384  0.6830  0.2360  0.0278
 8468TIP3    H146819   0.649   3.225   1.372 -0.4863  0.4689 -3.2093
 8468TIP3    H246820   0.554   3.342   1.366  0.8887  1.9890  0.9421
 8469TIP3   OH246821   3.644   4.785  12.059 -0.2701  0.0205  0.0007
 8469TIP3    H146822   3.713   4.733  12.019 -1.6563 -2.2642  0.4037
 8469TIP3    H246823   3.652   4.768  12.153  0.1257  1.7088  0.2961
 8470TIP3   OH246824   3.829   0.633  16.794  0.5096 -0.7719 -0.4740
 8470TIP3    H146825   3.885   0.584  16.854 -0.5955  0.3074  1.5394
 8470TIP3    H246826   3.757   0.573  16.774  0.0135 -0.5952  0.6766
 8471TIP3   OH246827   3.129   5.398   2.325 -0.2462 -0.3643  0.1370
 8471TIP3    H146828   3.220   5.375   2.339 -0.3402 -0.5455  0.4584
 8471TIP3    H246829   3.121   5.406   2.230 -0.3553 -2.3361 -0.0699
 8472TIP3   OH246830   1.887   3.878  12.499 -0.1014 -0.0262  0.4841
 8472TIP3    H146831   1.892   3.826  12.419  1.9409 -0.6742  0.9766
 8472TIP3    H246832   1.909   3.817  12.569  0.2897  1.0240  1.3079
 8473TIP3   OH246833   0.830   4.246  14.220 -0.0224 -0.0400  0.2361
 8473TIP3    H146834   0.843   4.302  14.297  1.7398 -0.0147 -0.0435
 8473TIP3    H246835   0.762   4.291  14.169 -1.2377 -0.0830  1.7762
 8474TIP3   OH246836   5.061   5.402   4.198 -0.2376 -0.1226 -0.2721
 8474TIP3    H146837   5.007   5.441   4.267  1.7160 -0.1682  1.3917
 8474TIP3    H246838   5.134   5.363   4.245  0.6052 -1.1490 -2.3313
 8475TIP3   OH246839   3.526   5.251  12.216 -0.0100  0.3365 -0.0904
 8475TIP3    H146840   3.583   5.180  12.247  0.6731 -0.0189 -2.0640
 8475TIP3    H246841   3.550   5.263  12.125 -0.9099  2.3669 -0.1051
 8476TIP3   OH246842   5.465   2.058   6.614  0.3600  0.2781 -0.5559
 8476TIP3    H146843   5.533   2.105   6.662  0.9772  0.1887 -1.3145
 8476TIP3    H246844   5.384   2.075   6.662  1.0892 -0.5672  1.0459
 8477TIP3   OH246845   0.136   2.604   4.438 -0.3182  0.0123  1.0553
 8477TIP3    H146846   0.217   2.622   4.486  1.5503 -1.3310 -1.3352
 8477TIP3    H246847   0.158   2.624   4.347 -1.6712 -3.2187 -0.1199
 8478TIP3   OH246848   5.798   3.914  12.333 -0.1389 -0.0191  0.0636
 8478TIP3    H146849   5.838   3.837  12.293 -0.3812 -0.5414  0.7942
 8478TIP3    H246850   5.716   3.926  12.286 -0.5138 -0.7449  0.5094
 8479TIP3   OH246851   2.441   1.212  12.974 -0.2365  0.2529  0.3757
 8479TIP3    H146852   2.375   1.213  12.905  1.8441 -0.9302 -1.7647
 8479TIP3    H246853   2.477   1.124  12.972  0.6363  0.5111  2.2729
 8480TIP3   OH246854   1.013   6.281   1.566 -0.4118 -0.9217 -0.5022
 8480TIP3    H146855   1.008   6.371   1.534 -2.3944 -1.6920 -2.6314
 8480TIP3    H246856   1.104   6.255   1.550  0.7510  1.1854  1.8767
 8481TIP3   OH246857   0.929   1.262   4.313  0.3306 -0.3780  0.0409
 8481TIP3    H146858   0.856   1.317   4.340  0.6452  0.9990 -1.7297
 8481TIP3    H246859   0.944   1.204   4.388 -2.8073 -1.0031  0.3361
 8482TIP3   OH246860   2.856   1.520   0.335 -0.0023 -0.3555  0.0193
 8482TIP3    H146861   2.877   1.596   0.388 -0.4161 -0.5387  0.4478
 8482TIP3    H246862   2.766   1.534   0.305  0.6043  0.3140 -1.6201
 8483TIP3   OH246863   6.172   1.758  11.618 -0.3066 -0.2136 -0.0638
 8483TIP3    H146864   6.116   1.681  11.610  0.1537 -0.6435  0.6952
 8483TIP3    H246865   6.261   1.722  11.619 -0.0868  0.3291  0.2456
 8484TIP3   OH246866   2.228   2.967   3.091  0.3423 -0.1686  0.5370
 8484TIP3    H146867   2.250   2.889   3.142 -2.5738 -2.2517 -1.1075
 8484TIP3    H246868   2.309   2.988   3.043  1.2284 -2.1755  1.0468
 8485TIP3   OH246869   1.203   1.789   3.890  0.1732 -0.5461  0.6560
 8485TIP3    H146870   1.110   1.798   3.867  0.4733  0.9323 -0.0890
 8485TIP3    H246871   1.209   1.702   3.928 -1.3653 -1.0141 -0.0713
 8486TIP3   OH246872   2.929   3.931  16.033 -0.2449 -0.2046 -0.1596
 8486TIP3    H146873   2.916   4.016  16.075  0.0671 -0.0967 -0.2805
 8486TIP3    H246874   3.014   3.901  16.065  0.0084 -0.1090 -0.7353
 8487TIP3   OH246875   0.158   0.886  13.455  0.6110 -0.2666  0.0558
 8487TIP3    H146876   0.149   0.981  13.446 -1.7501 -0.4450 -0.0167
 8487TIP3    H246877   0.226   0.874  13.522  1.2462  1.4334 -0.2382
 8488TIP3   OH246878   5.820   3.479  13.814 -0.5169 -0.1893  0.5372
 8488TIP3    H146879   5.757   3.536  13.858 -0.1833  0.6251 -0.0236
 8488TIP3    H246880   5.855   3.424  13.884 -0.5769  0.5456  1.1618
 8489TIP3   OH246881   6.061   1.436   5.498 -0.5635 -0.1266  0.2762
 8489TIP3    H146882   6.039   1.476   5.582 -0.6900  1.5800 -0.5410
 8489TIP3    H246883   6.150   1.402   5.510 -1.1190 -1.2207  1.5389
 8490TIP3   OH246884   1.479   3.675   0.880 -0.5871 -0.1282 -0.0274
 8490TIP3    H146885   1.488   3.646   0.789 -1.6003  2.6426 -1.0987
 8490TIP3    H246886   1.568   3.697   0.907 -0.6275  2.1972 -1.5580
 8491TIP3   OH246887   0.182   2.362  16.131  0.5258 -0.3038 -0.0814
 8491TIP3    H146888   0.103   2.351  16.183  0.6196 -0.0662  0.1144
 8491TIP3    H246889   0.159   2.427  16.065  0.8974  0.6330  0.6902
 8492TIP3   OH246890   3.814   5.365  12.545  0.2074 -0.3311  0.4612
 8492TIP3    H146891   3.726   5.379  12.582  0.3085 -0.5524  0.7899
 8492TIP3    H246892   3.870   5.423  12.596  0.0318  0.9265 -0.7252
 8493TIP3   OH246893   5.691   1.805   3.043  0.1622  0.3152  0.3245
 8493TIP3    H146894   5.700   1.731   2.983  1.6845  0.8994 -0.2224
 8493TIP3    H246895   5.758   1.867   3.015  1.5029  0.2980  3.0684
 8494TIP3   OH246896   3.096   6.773   2.066  0.2175 -0.3254 -0.1412
 8494TIP3    H146897   3.090   6.678   2.053  1.6912 -0.7227  1.6783
 8494TIP3    H246898   3.143   6.783   2.148 -0.0798  2.0133 -0.1881
 8495TIP3   OH246899   3.376   4.351  16.707  0.3591  0.4207  0.8280
 8495TIP3    H146900   3.356   4.443  16.723  4.4892  1.5330  0.7028
 8495TIP3    H246901   3.406   4.318  16.792 -2.0674 -1.2934  1.1579
 8496TIP3   OH246902   6.085   2.348  16.021  0.0797  0.1823 -1.0435
 8496TIP3    H146903   6.175   2.380  16.012  0.0195  0.4234 -0.7821
 8496TIP3    H246904   6.064   2.359  16.114 -0.4969  0.8549 -1.2487
 8497TIP3   OH246905   3.948   2.124  14.052  0.4721 -0.4563 -0.1295
 8497TIP3    H146906   3.958   2.175  14.132 -0.1633  0.9372 -0.9023
 8497TIP3    H246907   4.016   2.156  13.993  0.9775 -1.5157 -0.1610
 8498TIP3   OH246908   5.701   0.893  15.628 -0.1436 -0.4309  0.6694
 8498TIP3    H146909   5.704   0.965  15.691 -2.6446  0.9528 -0.6414
 8498TIP3    H246910   5.774   0.910  15.568  0.6013 -0.2577  1.5963
 8499TIP3   OH246911   3.994   6.113  16.007 -0.0091 -0.7770  0.4349
 8499TIP3    H146912   3.902   6.114  16.035  0.0458 -0.4392  0.6036
 8499TIP3    H246913   4.032   6.037  16.050 -0.2955 -1.1209  0.0893
 8500TIP3   OH246914   4.023   0.008  12.712  0.6789  0.5986  0.8729
 8500TIP3    H146915   3.978   0.085  12.678 -0.2370 -0.4645 -0.4717
 8500TIP3    H246916   3.997   0.004  12.804 -0.3488  1.1572  0.6262
 8501TIP3   OH246917   0.341   2.720  16.385 -0.6103  0.1105  0.8199
 8501TIP3    H146918   0.390   2.651  16.429 -2.5515 -1.5739  0.4746
 8501TIP3    H246919   0.351   2.797  16.442 -0.1663 -1.0329  2.3527
 8502TIP3   OH246920   2.910   0.370   2.609 -0.6515 -0.2070 -0.4093
 8502TIP3    H146921   2.842   0.353   2.674 -0.3875  1.1029  0.2453
 8502TIP3    H246922   2.989   0.333   2.647 -0.6964 -0.3296 -0.4366
 8503TIP3   OH246923   5.244   6.775   3.589 -0.1054 -0.4735  0.0965
 8503TIP3    H146924   5.339   6.778   3.597  0.0629 -2.0401 -0.8491
 8503TIP3    H246925   5.228   6.761   3.495 -1.2592 -0.4018  0.2622
 8504TIP3   OH246926   3.713   1.007   1.918 -0.3704 -0.5211  0.4814
 8504TIP3    H146927   3.776   0.935   1.919  0.4184  0.1286 -0.3881
 8504TIP3    H246928   3.767   1.086   1.905 -1.1570  0.3048  1.9835
 8505TIP3   OH246929   0.950   2.734  11.992  0.2994  0.0258 -0.3711
 8505TIP3    H146930   1.010   2.770  12.056  0.9043  0.6279 -1.2528
 8505TIP3    H246931   0.884   2.687  12.044  2.0588 -1.5100  0.5702
 8506TIP3   OH246932   3.459   1.656   1.964 -0.6537  0.1958  0.1820
 8506TIP3    H146933   3.527   1.721   1.978 -0.8134 -0.1223  3.2208
 8506TIP3    H246934   3.485   1.583   2.021 -1.8675 -1.2820 -1.0867
 8507TIP3   OH246935   2.888   2.237  14.846 -0.3232 -0.1813 -0.5579
 8507TIP3    H146936   2.946   2.313  14.837 -2.6723  2.0499  1.4539
 8507TIP3    H246937   2.809   2.272  14.886 -1.1129 -3.9384  1.6666
 8508TIP3   OH246938   4.036   6.118  10.933  0.3013  0.3495 -0.2828
 8508TIP3    H146939   4.107   6.160  10.885  0.1423  1.7355  0.6476
 8508TIP3    H246940   4.080   6.056  10.991  0.8371  1.6765  0.7736
 8509TIP3   OH246941   2.404   1.898   0.139  0.0300  1.1783  0.5257
 8509TIP3    H146942   2.389   1.920   0.231 -0.6580 -0.1335  0.7612
 8509TIP3    H246943   2.326   1.848   0.114  1.7596 -1.6123  0.3185
 8510TIP3   OH246944   3.742   1.377   1.326 -0.4087 -0.3694  0.2463
 8510TIP3    H146945   3.767   1.429   1.403  1.5175 -1.9185  0.7386
 8510TIP3    H246946   3.704   1.297   1.363 -0.4886 -0.6585 -0.4510
 8511TIP3   OH246947   3.444   0.329  11.473  0.3817 -0.1625  0.8149
 8511TIP3    H146948   3.536   0.305  11.464  0.0605 -0.9271 -0.9682
 8511TIP3    H246949   3.409   0.264  11.534  0.6473 -1.0564  0.0465
 8512TIP3   OH246950   5.907   1.276   0.001 -0.0319  0.0260  0.5348
 8512TIP3    H146951   5.927   1.207  -0.061 -0.8231 -0.4724  0.8211
 8512TIP3    H246952   5.893   1.231   0.084 -1.9434  0.3549  0.4366
 8513TIP3   OH246953   0.867   1.688  11.227  0.6203 -0.4447 -0.6435
 8513TIP3    H146954   0.935   1.639  11.273 -0.5538  1.1233  3.2034
 8513TIP3    H246955   0.786   1.661  11.269 -0.4478  1.9748 -0.9665
 8514TIP3   OH246956   0.318   6.405   5.168  0.1865  0.0787  0.6198
 8514TIP3    H146957   0.408   6.424   5.141 -0.2703  2.0554  0.3571
 8514TIP3    H246958   0.309   6.448   5.253 -0.5496 -0.0572  0.6126
 8515TIP3   OH246959   5.158   6.450   0.855 -0.4081  0.0202  0.0332
 8515TIP3    H146960   5.237   6.505   0.854 -0.0977 -0.3687  1.1089
 8515TIP3    H246961   5.186   6.368   0.814 -0.9160  0.6747 -1.7247
 8516TIP3   OH246962   3.251   4.437   0.967  0.5495 -0.0526  0.0848
 8516TIP3    H146963   3.322   4.489   1.006 -0.2020  0.0873  1.3130
 8516TIP3    H246964   3.296   4.380   0.904  1.5390  1.2208 -0.4294
 8517TIP3   OH246965   1.243   1.616  16.160 -0.5310 -0.2695  0.0701
 8517TIP3    H146966   1.244   1.644  16.069 -0.9261  1.7099  0.6293
 8517TIP3    H246967   1.201   1.688  16.207  1.5975 -0.2314  2.1098
 8518TIP3   OH246968   1.539   6.294   5.976  0.0512  0.6390  0.3242
 8518TIP3    H146969   1.539   6.214   6.029 -0.4107  1.4219  1.5448
 8518TIP3    H246970   1.514   6.264   5.888 -0.9632 -0.4453  0.9523
 8519TIP3   OH246971   3.340   2.042  15.108 -0.0863 -0.6498  0.8330
 8519TIP3    H146972   3.268   2.068  15.165 -1.2389  0.5441 -1.0642
 8519TIP3    H246973   3.297   2.002  15.033  1.1867  0.4481 -0.5245
 8520TIP3   OH246974   5.206   0.467  12.902  0.1625  0.1818 -0.0647
 8520TIP3    H146975   5.299   0.491  12.903  0.3452 -0.4614 -0.7555
 8520TIP3    H246976   5.180   0.478  12.811 -0.1071 -0.8400 -0.1232
 8521TIP3   OH246977   0.625   0.961   0.696 -0.0609 -0.0690  0.4876
 8521TIP3    H146978   0.531   0.947   0.711 -0.2776  1.7375  1.0439
 8521TIP3    H246979   0.654   0.881   0.652 -2.0468 -0.2928 -0.5413
 8522TIP3   OH246980   6.316   3.150   2.465  0.1861  0.1962 -0.4788
 8522TIP3    H146981   6.259   3.179   2.394  0.1120 -1.5714 -1.1793
 8522TIP3    H246982   6.278   3.067   2.494 -0.0510  1.0555  1.9656
 8523TIP3   OH246983   6.078   3.955  13.059 -0.7809 -0.0027  0.8010
 8523TIP3    H146984   6.059   3.888  13.124  0.0730 -0.5911  0.4599
 8523TIP3    H246985   6.021   3.934  12.985  1.3528 -2.0153 -0.3909
 8524TIP3   OH246986   5.813   4.318   1.464 -0.3438  0.4612  0.0052
 8524TIP3    H146987   5.719   4.302   1.467 -0.1914 -0.7411 -0.8974
 8524TIP3    H246988   5.837   4.303   1.372  0.8890 -0.2321  0.4227
 8525TIP3   OH246989   2.363   0.977  14.130 -0.1339  0.0741  0.1184
 8525TIP3    H146990   2.301   0.905  14.143  0.6240 -0.7865 -0.7791
 8525TIP3    H246991   2.320   1.036  14.069 -0.7715  0.4034  0.8749
 8526TIP3   OH246992   1.493   1.645   0.294 -0.7270  0.3116  0.7258
 8526TIP3    H146993   1.407   1.609   0.316 -1.1560 -0.2898 -1.7168
 8526TIP3    H246994   1.542   1.571   0.260  0.2542  0.9707  0.6692
 8527TIP3   OH246995   1.307   1.199  17.220  0.6741  0.0861  0.2754
 8527TIP3    H146996   1.277   1.270  17.162  1.5314 -0.5389 -0.9663
 8527TIP3    H246997   1.238   1.192  17.286 -0.6917  0.3406 -1.0770
 8528TIP3   OH246998   1.497   6.486  14.524 -0.3103 -0.6028 -0.0833
 8528TIP3    H146999   1.421   6.523  14.479 -0.1954 -1.2859 -0.8653
 8528TIP3    H247000   1.473   6.395  14.539  1.0949 -1.3888 -2.1343
 8529TIP3   OH247001   4.025   5.188   3.939  0.1515  0.0365  0.1061
 8529TIP3    H147002   4.009   5.143   3.855  1.8747 -1.7248  0.6608
 8529TIP3    H247003   4.053   5.119   3.998  0.3944  1.4901  1.7534
 8530TIP3   OH247004   1.900   0.198   3.265 -0.5387  0.0461 -0.2116
 8530TIP3    H147005   1.870   0.289   3.270 -0.9315 -0.0601 -0.5844
 8530TIP3    H247006   1.921   0.175   3.355 -1.4869  0.1607  0.0520
 8531TIP3   OH247007   1.413   4.675  15.713  0.1365  0.2299  0.1514
 8531TIP3    H147008   1.397   4.688  15.807  0.1388 -0.1627  0.2090
 8531TIP3    H247009   1.508   4.661  15.707  0.4284  2.0593 -0.1291
 8532TIP3   OH247010   0.399   6.365   6.715  0.5927  0.1991 -0.0284
 8532TIP3    H147011   0.495   6.363   6.719  0.5994 -0.6830 -0.4360
 8532TIP3    H247012   0.373   6.416   6.792  1.4254  1.8909 -0.8264
 8533TIP3   OH247013   2.482   3.360  14.322  0.5393  0.1141  0.2651
 8533TIP3    H147014   2.419   3.410  14.374 -3.2918 -2.1441 -1.7493
 8533TIP3    H247015   2.496   3.414  14.244 -0.4556 -0.1569 -0.1198
 8534TIP3   OH247016   4.098   1.637  14.973  0.5704  0.2163 -0.6528
 8534TIP3    H147017   4.009   1.624  15.005  0.9469 -1.0184 -0.0128
 8534TIP3    H247018   4.088   1.659  14.881 -0.3541 -2.9246 -1.4299
 8535TIP3   OH247019   2.580   4.944   4.633 -0.0599  0.0273  0.0886
 8535TIP3    H147020   2.592   5.013   4.568  1.2045  0.0464  0.3223
 8535TIP3    H247021   2.590   4.988   4.718  1.7456 -0.5658  0.2329
 8536TIP3   OH247022   0.941   6.228   1.947  0.7319  0.3082  0.0416
 8536TIP3    H147023   0.888   6.276   1.883 -0.0096  0.1303  0.5198
 8536TIP3    H247024   0.880   6.168   1.989  1.3231  0.0646  0.5640
 8537TIP3   OH247025   6.084   4.943  16.782  0.0268  0.4084 -0.3468
 8537TIP3    H147026   6.028   4.885  16.730 -0.3451 -0.9304  1.4551
 8537TIP3    H247027   6.023   4.988  16.841  0.5772  0.8120 -0.0786
 8538TIP3   OH247028   6.291   2.646  16.493 -0.0078  0.2160  0.0749
 8538TIP3    H147029   6.289   2.566  16.546  1.4039  0.6731  0.8880
 8538TIP3    H247030   6.268   2.716  16.554  0.6553  0.6394 -0.1429
 8539TIP3   OH247031   1.347   3.209  14.684 -0.0796 -0.3682 -0.3321
 8539TIP3    H147032   1.363   3.254  14.601 -1.7391  0.2753 -0.3272
 8539TIP3    H247033   1.378   3.270  14.751  1.1497 -0.8381 -0.4408
 8540TIP3   OH247034   1.222   6.368  13.291  0.4138 -0.0187 -0.0417
 8540TIP3    H147035   1.243   6.342  13.380  1.5057  1.2400  0.1001
 8540TIP3    H247036   1.251   6.459  13.285 -0.4227  0.1906 -1.4284
 8541TIP3   OH247037   0.199   0.142  14.170 -0.0795 -0.2218  0.4016
 8541TIP3    H147038   0.133   0.109  14.108 -0.3409 -1.0098  1.0802
 8541TIP3    H247039   0.283   0.124  14.128 -0.2629 -0.3525  0.0887
 8542TIP3   OH247040   1.166   1.849  12.640 -0.5001 -0.1246 -0.4175
 8542TIP3    H147041   1.123   1.765  12.622 -0.6010 -0.0946 -0.3165
 8542TIP3    H247042   1.258   1.833  12.621 -0.4153 -0.4424  0.2193
 8543TIP3   OH247043   5.185   2.452  15.546 -0.1926 -0.4583  0.0773
 8543TIP3    H147044   5.277   2.463  15.570 -0.3386  0.7004  0.1800
 8543TIP3    H247045   5.137   2.472  15.626 -0.5712  0.5149 -0.3653
 8544TIP3   OH247046   5.014   5.631  11.383 -0.5890 -0.2190  0.0445
 8544TIP3    H147047   4.929   5.674  11.393  0.2273  1.2031  1.4533
 8544TIP3    H247048   5.046   5.622  11.473  0.1464 -2.0392 -0.3702
 8545TIP3   OH247049   4.178   5.313   3.406  0.0457  0.5040 -0.4664
 8545TIP3    H147050   4.233   5.272   3.472 -0.9153  0.1271  0.1300
 8545TIP3    H247051   4.138   5.388   3.451 -1.2654 -0.2368 -0.3249
 8546TIP3   OH247052   2.993   5.813   0.077 -0.2104  0.0492  1.1132
 8546TIP3    H147053   3.087   5.803   0.062 -0.4905 -1.3287  0.0857
 8546TIP3    H247054   2.972   5.900   0.043  0.5797  0.1090  0.7720
 8547TIP3   OH247055   3.776   6.021  16.610  0.2300  0.1906 -0.6475
 8547TIP3    H147056   3.853   6.021  16.553 -0.6280 -2.4819 -1.9760
 8547TIP3    H247057   3.730   6.102  16.589 -0.7715 -1.2497 -4.9875
 8548TIP3   OH247058   6.234   0.374   6.289 -0.0079  0.7619  0.7240
 8548TIP3    H147059   6.309   0.332   6.330 -0.5887  0.1920  1.2271
 8548TIP3    H247060   6.214   0.319   6.213  0.4393  1.2507  0.2351
 8549TIP3   OH247061   2.439   0.058  12.900  0.0268  0.3046  0.9188
 8549TIP3    H147062   2.493   0.136  12.887  1.1872 -0.7698 -1.2786
 8549TIP3    H247063   2.401   0.040  12.814  1.1197 -2.4300  0.9136
 8550TIP3   OH247064   6.259   3.519   2.333 -0.5528 -0.0263 -0.3852
 8550TIP3    H147065   6.212   3.437   2.342  1.1733 -0.8062  2.7898
 8550TIP3    H247066   6.299   3.515   2.246 -1.5129 -1.9605 -0.7749
 8551TIP3   OH247067   5.433   0.284   0.255  0.1144  0.5196 -0.3063
 8551TIP3    H147068   5.500   0.352   0.257  2.5234 -1.6863  1.3644
 8551TIP3    H247069   5.350   0.330   0.268  1.3121  3.3308 -1.9546
 8552TIP3   OH247070   4.025   2.127   0.803  0.3374  0.3846  0.0011
 8552TIP3    H147071   3.983   2.162   0.724 -1.9313 -0.8410  0.5900
 8552TIP3    H247072   4.015   2.196   0.868 -3.5252 -0.8101  0.9619
 8553TIP3   OH247073   0.501   2.307  14.374  0.3364  0.2355 -0.4802
 8553TIP3    H147074   0.499   2.218  14.339 -0.5371 -0.2750  0.8102
 8553TIP3    H247075   0.443   2.356  14.316 -0.5225 -0.4378 -0.2147
 8554TIP3   OH247076   1.540   4.519   1.960 -0.5903 -0.0363 -0.2691
 8554TIP3    H147077   1.554   4.596   1.905 -2.0375 -0.7295 -1.6850
 8554TIP3    H247078   1.445   4.510   1.966 -0.4846 -2.4116 -1.1925
 8555TIP3   OH247079   5.425   2.996   2.722  0.7562  0.1997 -0.2147
 8555TIP3    H147080   5.495   2.932   2.711 -0.4741 -0.8690 -3.0410
 8555TIP3    H247081   5.374   2.963   2.796  2.1643 -0.0330  0.6853
 8556TIP3   OH247082   6.328   2.184   5.618 -0.0372  0.6200 -0.1145
 8556TIP3    H147083   6.297   2.195   5.529 -0.3421 -2.8344 -0.5842
 8556TIP3    H247084   6.422   2.170   5.609  0.2571  2.1562  0.3533
 8557TIP3   OH247085   6.763   3.807   4.849  0.4706  0.1312 -0.7264
 8557TIP3    H147086   6.700   3.773   4.786 -1.4185  0.6190  0.8000
 8557TIP3    H247087   6.730   3.894   4.871 -0.1946 -0.7948  2.4574
 8558TIP3   OH247088   5.499   5.295  17.222  0.1707  0.5586  0.5783
 8558TIP3    H147089   5.431   5.363  17.217  0.0504  0.4032 -0.0700
 8558TIP3    H247090   5.580   5.342  17.241  0.1368  0.9202 -0.1447
 8559TIP3   OH247091   0.564   4.588  12.719  0.0517 -0.0237 -0.3698
 8559TIP3    H147092   0.587   4.504  12.679 -2.1284 -1.2256  0.7289
 8559TIP3    H247093   0.563   4.649  12.646  0.5371 -1.1946 -1.3965
 8560TIP3   OH247094   0.796   4.048   3.271 -0.3506  0.0637  0.4698
 8560TIP3    H147095   0.777   4.089   3.187 -0.9795  0.9649  1.0472
 8560TIP3    H247096   0.712   4.046   3.317  0.0388 -0.1736  1.1877
 8561TIP3   OH247097   2.270   4.796  11.591 -0.3385  0.1901  0.6397
 8561TIP3    H147098   2.195   4.763  11.642  0.1651 -0.7373  0.8097
 8561TIP3    H247099   2.256   4.761  11.503 -0.3726  0.4552  0.5386
 8562TIP3   OH247100   3.633   0.711   5.498 -0.3945 -0.2663  0.0850
 8562TIP3    H147101   3.643   0.625   5.539  0.9114  0.4514  1.3767
 8562TIP3    H247102   3.559   0.751   5.543 -0.1239 -0.1898  0.4686
 8563TIP3   OH247103   6.236   0.697  15.018  0.5247  0.9194  0.2837
 8563TIP3    H147104   6.212   0.741  14.936 -0.7643  1.7348  1.0534
 8563TIP3    H247105   6.332   0.697  15.019  0.5601  0.5432 -1.3910
 8564TIP3   OH247106   5.323   6.691   0.854 -0.1975 -0.6330 -0.5113
 8564TIP3    H147107   5.239   6.737   0.857  0.6778  1.0091  0.8061
 8564TIP3    H247108   5.387   6.760   0.832  0.7871 -1.9052 -1.8104
 8565TIP3   OH247109   6.541   3.948  16.393  0.0660 -0.0557 -0.0879
 8565TIP3    H147110   6.633   3.927  16.375  0.4165  0.7197  0.7299
 8565TIP3    H247111   6.514   3.882  16.456  0.0145 -0.3652 -0.4293
 8566TIP3   OH247112   6.555   5.007  12.150  0.6648 -0.0462 -0.1765
 8566TIP3    H147113   6.616   4.935  12.164  0.6051 -0.2060 -0.7062
 8566TIP3    H247114   6.539   5.043  12.237  1.2770 -0.1982  0.0034
 8567TIP3   OH247115   0.275   5.046   4.748  0.6874  0.7308  0.3847
 8567TIP3    H147116   0.278   5.004   4.662  2.3383 -0.3710  0.9326
 8567TIP3    H247117   0.365   5.075   4.763  0.3230  1.2956  1.5637
 8568TIP3   OH247118   0.562   2.643  17.121 -0.2700  0.3088 -0.1528
 8568TIP3    H147119   0.639   2.688  17.157 -0.7200  0.8245  0.1813
 8568TIP3    H247120   0.527   2.593  17.194 -0.1432 -0.0736 -0.3545
 8569TIP3   OH247121   5.758   0.377  14.621 -0.3004 -0.2857  0.2080
 8569TIP3    H147122   5.667   0.356  14.598 -0.3593 -0.6726  0.7693
 8569TIP3    H247123   5.777   0.458  14.573 -0.9136 -0.2476  0.0204
 8570TIP3   OH247124   1.016   4.950   6.749  0.1298 -0.5922  0.1263
 8570TIP3    H147125   0.969   4.872   6.720  1.0184 -1.3897  0.7646
 8570TIP3    H247126   1.096   4.950   6.697 -0.8956  1.2396 -1.5866
 8571TIP3   OH247127   2.329   5.896   4.368  0.2530  0.3907 -0.4736
 8571TIP3    H147128   2.393   5.830   4.344 -1.5973 -1.1975 -1.3037
 8571TIP3    H247129   2.289   5.923   4.285 -1.9687 -0.6520  0.1664
 8572TIP3   OH247130   3.316   6.094  11.906  0.1610 -0.8538 -1.0075
 8572TIP3    H147131   3.363   6.172  11.875  0.8772 -1.0946 -0.5405
 8572TIP3    H247132   3.226   6.107  11.876 -0.4631  1.5661  1.5037
 8573TIP3   OH247133   4.584   5.641  15.907 -0.4186 -0.3191  0.8327
 8573TIP3    H147134   4.552   5.728  15.883  0.9338  0.0814  0.3995
 8573TIP3    H247135   4.580   5.591  15.825 -1.0555 -0.6224  1.0477
 8574TIP3   OH247136   6.298   0.203  12.234  0.2276  0.0975  0.0718
 8574TIP3    H147137   6.350   0.164  12.164 -0.8806  0.0232 -0.7313
 8574TIP3    H247138   6.359   0.262  12.279  1.2832 -0.8010 -0.1581
 8575TIP3   OH247139   1.738   6.446   5.305  0.0216  0.0411  0.4072
 8575TIP3    H147140   1.726   6.386   5.378 -0.0646  0.8556  1.0721
 8575TIP3    H247141   1.779   6.393   5.237 -0.3166 -0.8397  0.8753
 8576TIP3   OH247142   2.874   0.208  10.350  0.2804 -0.3917 -0.4554
 8576TIP3    H147143   2.819   0.205  10.271  0.2599  0.0860 -0.4605
 8576TIP3    H247144   2.813   0.220  10.422  0.4724  2.0442 -0.6224
 8577TIP3   OH247145   1.469   5.503   1.927  0.0579  0.2400 -0.1155
 8577TIP3    H147146   1.563   5.487   1.928 -0.0466 -0.4027 -0.3855
 8577TIP3    H247147   1.446   5.511   1.835 -0.4936 -1.7279 -0.1878
 8578TIP3   OH247148   4.179   2.437   4.219 -0.3326 -0.0667 -0.8655
 8578TIP3    H147149   4.122   2.505   4.184  0.1812  0.9530  0.1870
 8578TIP3    H247150   4.262   2.483   4.237  0.3004 -1.1590 -0.9194
 8579TIP3   OH247151   0.568   3.597  16.452  0.5991  0.4477 -0.0590
 8579TIP3    H147152   0.544   3.529  16.515  0.6488  0.6149  0.1418
 8579TIP3    H247153   0.508   3.584  16.379  0.9847 -0.1717 -0.2747
 8580TIP3   OH247154   1.912   5.746   4.317  0.1853 -0.0056 -0.2587
 8580TIP3    H147155   1.960   5.720   4.239  0.1132 -0.4507 -0.1571
 8580TIP3    H247156   1.860   5.669   4.341  1.7241 -0.6229  1.3781
 8581TIP3   OH247157   0.873   0.070  13.474  0.0213 -1.0490 -0.1852
 8581TIP3    H147158   0.825   0.047  13.394  0.1274  1.0603 -0.9145
 8581TIP3    H247159   0.807   0.107  13.532  0.5870  1.5389 -1.0584
 8582TIP3   OH247160   5.769   1.011  16.189 -0.0099  0.4702 -0.3392
 8582TIP3    H147161   5.678   1.013  16.217 -0.4190 -1.6883 -1.3186
 8582TIP3    H247162   5.767   0.971  16.102  1.7395  1.8720 -1.1035
 8583TIP3   OH247163   2.494   0.586   1.339  0.2634 -0.0539  0.1702
 8583TIP3    H147164   2.439   0.591   1.417 -0.9485  1.2524 -0.7389
 8583TIP3    H247165   2.460   0.511   1.290 -0.5693  0.6245 -0.2889
 8584TIP3   OH247166   5.688   4.582   5.050 -0.4328  1.0496  1.0215
 8584TIP3    H147167   5.780   4.598   5.070 -0.4276  0.2526  1.7048
 8584TIP3    H247168   5.653   4.542   5.130 -0.6344 -1.4373 -0.2208
 8585TIP3   OH247169   4.287   2.051   6.389  0.1186  0.0019  0.0501
 8585TIP3    H147170   4.329   2.135   6.371  1.0804 -0.3562  0.5603
 8585TIP3    H247171   4.203   2.056   6.344  1.3084  0.1523 -2.2746
 8586TIP3   OH247172   1.314   6.315   1.601  0.0779 -0.6095  0.3123
 8586TIP3    H147173   1.362   6.273   1.673  1.9184  0.6793 -0.0729
 8586TIP3    H247174   1.262   6.383   1.644  0.0548 -0.7785  0.5566
 8587TIP3   OH247175   2.345   0.984  14.838  0.3748  0.2937  0.2501
 8587TIP3    H147176   2.285   0.992  14.912  0.7358 -0.0820  0.5853
 8587TIP3    H247177   2.369   1.075  14.816 -4.1605  1.0564 -3.1302
 8588TIP3   OH247178   5.947   3.711  13.619 -0.1072 -0.5108 -0.1390
 8588TIP3    H147179   5.881   3.663  13.670 -1.1223  0.6681 -0.3024
 8588TIP3    H247180   5.988   3.644  13.565 -1.1852 -1.2783 -0.0458
 8589TIP3   OH247181   3.280   5.072  17.131 -0.5732  0.7944  0.2136
 8589TIP3    H147182   3.316   5.111  17.211 -1.3674 -1.8710  1.9939
 8589TIP3    H247183   3.186   5.089  17.137 -0.9080 -1.0462  0.9259
 8590TIP3   OH247184   4.239   0.081   5.926  0.4060  0.2108  0.1740
 8590TIP3    H147185   4.265   0.132   6.003  0.1489 -0.2787  0.5921
 8590TIP3    H247186   4.144   0.071   5.935  0.4000 -0.0002 -0.1097
 8591TIP3   OH247187   0.297   0.000   5.844 -0.5726 -0.0353  0.3088
 8591TIP3    H147188   0.336   0.064   5.784 -2.3709 -0.2569 -1.2020
 8591TIP3    H247189   0.370  -0.055   5.871  0.7083  1.5189  0.2108
 8592TIP3   OH247190   5.075   4.599  14.180 -0.2098 -0.1814  0.0009
 8592TIP3    H147191   5.117   4.531  14.233 -1.2555 -0.1475  0.9080
 8592TIP3    H247192   5.142   4.626  14.118  1.3102  0.2894  1.7603
 8593TIP3   OH247193   4.759   2.799  12.994 -0.0745  0.2897  0.1986
 8593TIP3    H147194   4.711   2.867  12.946 -0.9677 -0.7526 -0.4094
 8593TIP3    H247195   4.701   2.774  13.065  1.4911  2.2706  2.3382
 8594TIP3   OH247196   3.824   4.311  10.613  0.5727 -0.2916 -0.3390
 8594TIP3    H147197   3.747   4.288  10.562  0.4176  1.2327 -0.8401
 8594TIP3    H247198   3.857   4.391  10.573  0.5288  0.9032  1.8466
 8595TIP3   OH247199   1.956   6.747  12.280  0.4931 -0.1098  0.1663
 8595TIP3    H147200   1.986   6.669  12.232 -1.7159 -1.9216  1.5434
 8595TIP3    H247201   1.869   6.764  12.245  0.9975  1.9091 -0.2122
 8596TIP3   OH247202   2.469   0.063  12.117  0.1004 -0.1074  0.5250
 8596TIP3    H147203   2.483  -0.032  12.122  0.3972 -0.0766  0.3487
 8596TIP3    H247204   2.487   0.094  12.206 -1.7459 -0.4254  1.0405
 8597TIP3   OH247205   0.033   0.014  15.848  0.3289  0.4204 -0.3869
 8597TIP3    H147206   0.126  -0.002  15.833 -0.2000 -2.8847 -0.9077
 8597TIP3    H247207  -0.005   0.018  15.760 -0.1812  0.4711 -0.1669
 8598TIP3   OH247208   4.878   5.367   1.949  0.5313  0.3299  0.4540
 8598TIP3    H147209   4.804   5.409   1.993  0.3954  0.3334  0.2248
 8598TIP3    H247210   4.914   5.435   1.893 -0.1457 -0.0543 -0.4825
 8599TIP3   OH247211   4.611   1.043  14.747 -0.0071 -0.6032 -0.2032
 8599TIP3    H147212   4.659   1.083  14.820 -1.6447  2.0731 -0.4418
 8599TIP3    H247213   4.577   0.962  14.784 -0.9320  0.7360  2.1904
 8600TIP3   OH247214   1.481   4.103  12.124 -0.4255  0.1195 -0.8174
 8600TIP3    H147215   1.527   4.170  12.075  1.1952 -0.3985 -0.0740
 8600TIP3    H247216   1.402   4.146  12.156  0.7085  1.7668 -0.1325
 8601TIP3   OH247217   6.512   2.590  10.414 -0.1200 -0.2432  0.2625
 8601TIP3    H147218   6.482   2.538  10.488 -0.6262 -1.1440 -0.5523
 8601TIP3    H247219   6.600   2.556  10.395  0.1744  0.2616  0.6860
 8602TIP3   OH247220   1.892   5.954   5.014 -0.0758 -0.3494  0.8072
 8602TIP3    H147221   1.883   5.903   4.933 -1.9014 -1.3133  1.5611
 8602TIP3    H247222   1.818   6.015   5.012  0.6994  0.6286  1.0937
 8603TIP3   OH247223   4.558   5.746  12.033 -0.3737 -0.4456  0.0486
 8603TIP3    H147224   4.581   5.786  12.116  0.8384 -0.5350 -0.2212
 8603TIP3    H247225   4.638   5.753  11.980 -1.3041  0.2143 -1.3502
 8604TIP3   OH247226   4.327   3.339  14.186  0.3588 -0.4291  0.3071
 8604TIP3    H147227   4.421   3.350  14.196  0.5275 -0.9507 -0.5641
 8604TIP3    H247228   4.297   3.422  14.149  0.0774  0.6440  2.7973
 8605TIP3   OH247229   6.542   5.348   4.538  0.0532  0.9413  0.3066
 8605TIP3    H147230   6.479   5.356   4.610 -0.6918 -2.5906  0.2205
 8605TIP3    H247231   6.628   5.357   4.580 -0.4045  0.5766  1.3470
 8606TIP3   OH247232   3.912   5.915   0.258 -0.0106  0.5151  0.2918
 8606TIP3    H147233   3.856   5.855   0.208  0.7011  0.8772 -0.9978
 8606TIP3    H247234   4.001   5.886   0.240  0.3980  2.3493 -0.9686
 8607TIP3   OH247235   3.391   4.708   5.542  0.5765 -0.0317 -0.6494
 8607TIP3    H147236   3.412   4.677   5.630 -0.1095  2.4259  0.4624
 8607TIP3    H247237   3.476   4.730   5.503  0.7487  1.1807  0.3593
 8608TIP3   OH247238   4.178   4.893   3.193 -0.7330  0.0033  0.5025
 8608TIP3    H147239   4.202   4.802   3.174  2.4386  0.4970  1.4887
 8608TIP3    H247240   4.151   4.891   3.285 -1.7361 -0.0765  0.2177
 8609TIP3   OH247241   5.219   0.415   4.015 -0.9409 -0.2618 -1.1832
 8609TIP3    H147242   5.176   0.363   3.947 -0.9586 -1.9533  0.0376
 8609TIP3    H247243   5.309   0.426   3.985 -1.4234  0.7270 -2.3611
 8610TIP3   OH247244   1.615   2.729   2.025 -0.6203 -0.4308 -0.2886
 8610TIP3    H147245   1.655   2.814   2.041 -1.7966  0.1665 -0.3979
 8610TIP3    H247246   1.641   2.706   1.936  0.5619 -0.6918  0.1130
 8611TIP3   OH247247   6.138   2.067  14.790 -0.7634  0.1241 -0.0456
 8611TIP3    H147248   6.208   2.067  14.855 -0.3464 -1.6089 -0.4624
 8611TIP3    H247249   6.059   2.088  14.840  0.0519  2.6892  0.3374
 8612TIP3   OH247250   6.728   1.571   3.813 -0.2466  0.0192  0.4247
 8612TIP3    H147251   6.800   1.625   3.780 -0.0998  0.2021  1.0307
 8612TIP3    H247252   6.663   1.571   3.742 -0.2446  0.9817  0.4092
 8613TIP3   OH247253   6.362   1.128  12.852  0.5142  0.1037  0.1779
 8613TIP3    H147254   6.317   1.212  12.842 -0.9834 -0.8812 -2.3959
 8613TIP3    H247255   6.371   1.095  12.762  4.3057 -0.9204  0.7573
 8614TIP3   OH247256   4.054   6.052  15.340  0.2680  0.5315  0.4783
 8614TIP3    H147257   4.080   6.120  15.278 -1.4861  0.3079 -0.5539
 8614TIP3    H247258   4.044   6.098  15.424 -0.8842  1.5443 -0.1973
 8615TIP3   OH247259   0.443   0.170   3.205 -0.2720  0.1044 -0.4358
 8615TIP3    H147260   0.432   0.092   3.150 -0.6938  0.7505 -1.2869
 8615TIP3    H247261   0.355   0.203   3.217 -0.2907 -0.5056  1.3893
 8616TIP3   OH247262   6.081   6.320  16.820 -0.1751 -0.1101  0.1634
 8616TIP3    H147263   6.074   6.406  16.862  2.7207 -0.3019  1.2848
 8616TIP3    H247264   6.030   6.262  16.877 -0.5941  0.5291  0.4561
 8617TIP3   OH247265   0.091   5.903   4.154  0.3729 -0.1095  0.1756
 8617TIP3    H147266   0.089   5.828   4.214  0.4014 -1.4850 -1.4760
 8617TIP3    H247267   0.184   5.927   4.148  0.7625 -1.8133 -1.4521
 8618TIP3   OH247268   4.342   2.361   5.187  0.2321  0.1163  0.0928
 8618TIP3    H147269   4.273   2.422   5.213 -1.7492 -2.1638  0.5411
 8618TIP3    H247270   4.301   2.274   5.190  2.1004 -1.0775 -3.1454
 8619TIP3   OH247271   6.624   5.408   5.665  0.1541 -0.6645 -0.6440
 8619TIP3    H147272   6.658   5.396   5.753  0.3430  1.0117 -0.4467
 8619TIP3    H247273   6.647   5.498   5.642 -3.1293  0.2735 -0.9051
 8620TIP3   OH247274   2.455   1.900  14.163  0.4403 -0.1607 -0.3780
 8620TIP3    H147275   2.414   1.931  14.244 -0.8344 -1.8691 -0.3219
 8620TIP3    H247276   2.436   1.806  14.160  0.2570 -0.1096 -2.7822
 8621TIP3   OH247277   1.898   5.566  13.612 -0.1184 -0.5156 -0.1467
 8621TIP3    H147278   1.858   5.635  13.665  0.2043 -1.2700  1.1439
 8621TIP3    H247279   1.948   5.613  13.545  0.9434  0.5803  1.3239
 8622TIP3   OH247280   6.034   6.475   5.571  0.2907 -0.4746  0.3207
 8622TIP3    H147281   6.028   6.451   5.664  0.9088  1.3746  0.8946
 8622TIP3    H247282   6.126   6.498   5.558  0.7108 -2.7590 -1.3634
 8623TIP3   OH247283   5.515   4.600  13.475 -0.1278 -0.0991  0.3069
 8623TIP3    H147284   5.561   4.677  13.442  0.9665 -1.8203 -2.5556
 8623TIP3    H247285   5.435   4.635  13.515  1.7859  2.6980  2.0167
 8624TIP3   OH247286   2.368   1.738  13.912  0.6166  0.0251  0.0227
 8624TIP3    H147287   2.455   1.732  13.951  0.4169  0.4643  0.5534
 8624TIP3    H247288   2.358   1.831  13.890 -0.3945  0.3384  1.6053
 8625TIP3   OH247289   3.377   4.381   5.645 -0.2578  0.2537 -0.2785
 8625TIP3    H147290   3.355   4.369   5.737 -0.1419  2.2469  0.0445
 8625TIP3    H247291   3.305   4.431   5.608 -0.0497 -0.0620 -1.1530
 8626TIP3   OH247292   4.852   4.812  11.879 -0.5086  0.3367  0.4313
 8626TIP3    H147293   4.760   4.786  11.877 -0.5855  0.6794 -1.0676
 8626TIP3    H247294   4.853   4.892  11.932 -1.1249  0.5304  0.1602
 8627TIP3   OH247295   3.694   5.911  13.365  0.4058  0.3631  0.2468
 8627TIP3    H147296   3.740   5.930  13.447 -0.3818 -1.3926  1.1432
 8627TIP3    H247297   3.608   5.953  13.376  0.6554  0.9849 -0.1210
 8628TIP3   OH247298   2.550   4.216   2.663 -0.1078 -0.6033  0.2965
 8628TIP3    H147299   2.499   4.149   2.709  0.8331 -1.6877 -0.1755
 8628TIP3    H247300   2.487   4.260   2.606 -0.1920 -3.7386 -2.3762
 8629TIP3   OH247301   5.593   5.492  12.600  0.0715 -0.1219  0.1700
 8629TIP3    H147302   5.501   5.497  12.628 -0.0859  0.4528 -0.4389
 8629TIP3    H247303   5.592   5.518  12.508  0.6828 -1.3026 -0.2013
 8630TIP3   OH247304   1.367   6.148  12.661 -0.2244  0.3891  0.3997
 8630TIP3    H147305   1.300   6.113  12.604  1.2510 -0.3528 -0.9694
 8630TIP3    H247306   1.344   6.241  12.672 -1.0952  0.2974 -0.5571
 8631TIP3   OH247307   1.335   5.032   2.591  0.0177 -0.1375 -0.6677
 8631TIP3    H147308   1.259   5.059   2.540  0.8607  1.5905 -1.0915
 8631TIP3    H247309   1.299   5.003   2.675 -1.0468  2.8932  0.0675
 8632TIP3   OH247310   1.948   5.930  14.044  0.4818  0.4990 -0.1862
 8632TIP3    H147311   2.028   5.981  14.034  0.1453  1.0041 -0.3454
 8632TIP3    H247312   1.973   5.841  14.018  0.9189  0.7145 -0.5123
 8633TIP3   OH247313   4.294   4.798   1.889  0.4685 -0.2913  0.1988
 8633TIP3    H147314   4.244   4.723   1.856  0.7553 -0.4461  0.1048
 8633TIP3    H247315   4.369   4.804   1.829  0.8563 -0.4084  0.6668
 8634TIP3   OH247316   6.669   1.824   5.719 -0.4668  0.1304 -0.2530
 8634TIP3    H147317   6.748   1.866   5.683 -0.4041 -0.0347 -0.3066
 8634TIP3    H247318   6.702   1.756   5.778 -0.5460 -1.0477 -1.5153
 8635TIP3   OH247319   6.345   6.671   2.365  0.2945 -0.1501  0.2344
 8635TIP3    H147320   6.259   6.654   2.327 -0.1887 -1.2007  1.6834
 8635TIP3    H247321   6.360   6.764   2.351 -1.7921  0.4084  1.2777
 8636TIP3   OH247322   4.409   2.470  11.626  0.2306  0.2972  0.0538
 8636TIP3    H147323   4.321   2.506  11.622  0.2691  0.3400 -0.4557
 8636TIP3    H247324   4.404   2.400  11.692 -0.4406 -0.3791 -0.6911
 8637TIP3   OH247325   2.281   3.207  12.323  0.2997 -0.4400 -0.0611
 8637TIP3    H147326   2.245   3.198  12.411  0.3109  0.6195  0.0691
 8637TIP3    H247327   2.330   3.126  12.309 -1.0701 -1.3563  0.2412
 8638TIP3   OH247328   6.140   1.683   4.985 -0.4680  0.1146  0.1273
 8638TIP3    H147329   6.162   1.709   4.896  0.8557  1.5760  0.8294
 8638TIP3    H247330   6.181   1.750   5.040  0.4529 -1.8300  1.9288
 8639TIP3   OH247331   4.366   5.325  16.117 -0.5394  0.3960 -0.3282
 8639TIP3    H147332   4.402   5.266  16.184 -1.7547  0.1335  0.1119
 8639TIP3    H247333   4.434   5.327  16.049  0.6210  0.4945  0.7923
 8640TIP3   OH247334   3.773   4.470  14.101  0.0327  0.1548  0.9210
 8640TIP3    H147335   3.840   4.413  14.062 -0.3623  0.8841 -0.9710
 8640TIP3    H247336   3.808   4.558  14.091 -0.6728  0.4495  1.0278
 8641TIP3   OH247337   4.090   4.438  15.260  0.3986 -0.7219  0.0270
 8641TIP3    H147338   4.171   4.418  15.308  2.5144  1.4783 -2.2881
 8641TIP3    H247339   4.080   4.532  15.269 -0.6642 -0.6508 -1.6137
 8642TIP3   OH247340   6.071   0.945  13.597  0.4080 -0.5494  0.2777
 8642TIP3    H147341   6.096   0.993  13.519  1.5804  0.0242  0.9784
 8642TIP3    H247342   6.066   1.012  13.666 -1.7146 -0.8571  0.5005
 8643TIP3   OH247343   4.956   3.681   5.258  0.2449 -0.2928  0.0754
 8643TIP3    H147344   5.038   3.646   5.225  0.3923 -0.9493  1.1113
 8643TIP3    H247345   4.969   3.688   5.353 -0.4228  0.8598  0.1047
 8644TIP3   OH247346   5.494   4.357  15.626 -0.3307 -0.0255 -0.2211
 8644TIP3    H147347   5.535   4.302  15.693  3.6278  1.2791 -1.2627
 8644TIP3    H247348   5.450   4.426  15.675  0.5516 -0.3278  1.0437
 8645TIP3   OH247349   2.545   3.481  10.724  0.1718  0.7906  0.3081
 8645TIP3    H147350   2.624   3.533  10.741  0.5257  1.0503 -1.8426
 8645TIP3    H247351   2.561   3.442  10.637 -2.2155  1.1600 -0.3497
 8646TIP3   OH247352   4.753   6.662  12.704  0.1916 -0.5491 -0.9023
 8646TIP3    H147353   4.769   6.581  12.655 -3.1658 -0.4535 -2.4141
 8646TIP3    H247354   4.715   6.631  12.787  2.1996 -0.5689  0.0565
 8647TIP3   OH247355   2.909   3.830  13.144 -0.6530  0.1069  0.0342
 8647TIP3    H147356   2.885   3.859  13.056 -1.7281  0.5526  0.4627
 8647TIP3    H247357   2.921   3.911  13.194 -1.7918 -0.1356  0.7434
 8648TIP3   OH247358   1.752   5.451   5.689  0.0335  0.0154 -0.3699
 8648TIP3    H147359   1.710   5.365   5.692 -0.4803  0.2019 -1.7014
 8648TIP3    H247360   1.732   5.490   5.775  0.6206 -1.3330  0.4060
 8649TIP3   OH247361   6.521   2.522  13.160 -0.2968 -0.1113 -0.2885
 8649TIP3    H147362   6.462   2.588  13.197  0.4816  1.7736 -2.2088
 8649TIP3    H247363   6.589   2.511  13.227 -1.4820 -0.5262  0.9037
 8650TIP3   OH247364   3.402   3.610  16.463  0.4197  0.1631  0.2384
 8650TIP3    H147365   3.344   3.581  16.393 -0.2286 -0.6640  1.0880
 8650TIP3    H247366   3.487   3.622  16.421  0.4182 -1.8073 -0.4012
 8651TIP3   OH247367   3.130   6.150   1.384 -0.4078  0.2173 -0.1456
 8651TIP3    H147368   3.160   6.110   1.466 -1.6622 -0.8032 -0.1533
 8651TIP3    H247369   3.209   6.163   1.333  0.4709  1.2671  1.3672
 8652TIP3   OH247370   1.510   2.441   5.062 -0.4956  0.3355  0.2140
 8652TIP3    H147371   1.482   2.424   5.152 -0.1085 -2.3632 -0.1019
 8652TIP3    H247372   1.602   2.416   5.061 -0.2357  1.2748 -0.7367
 8653TIP3   OH247373   5.777   1.030   0.162 -0.3876 -0.6731  0.4428
 8653TIP3    H147374   5.872   1.016   0.166 -0.2640  0.2777  1.4969
 8653TIP3    H247375   5.761   1.103   0.222 -1.8639 -1.2042  0.7446
 8654TIP3   OH247376   3.639   6.111  16.367 -0.1169 -0.5444  0.1696
 8654TIP3    H147377   3.567   6.173  16.354  0.2918 -0.0970  0.0298
 8654TIP3    H247378   3.606   6.049  16.431 -0.8671 -0.7128 -0.3649
 8655TIP3   OH247379   1.107   5.876   0.122 -0.4906 -0.3678 -0.0314
 8655TIP3    H147380   1.073   5.965   0.124  0.5703  0.0896 -1.2885
 8655TIP3    H247381   1.058   5.833   0.051 -1.5197 -1.0406  1.0397
 8656TIP3   OH247382   5.727   3.591  17.225 -0.1055 -0.7767  0.1577
 8656TIP3    H147383   5.668   3.517  17.241 -0.0640 -1.1178 -1.1550
 8656TIP3    H247384   5.815   3.552  17.223  0.0226 -0.5127  0.5754
 8657TIP3   OH247385   1.248   1.798   2.866  0.0182 -0.3279 -0.3448
 8657TIP3    H147386   1.212   1.723   2.819 -0.9624 -0.1415  0.0937
 8657TIP3    H247387   1.225   1.782   2.958 -0.7304  0.8090 -0.3262
 8658TIP3   OH247388   6.494   2.119   1.694 -0.1341 -0.5541 -0.0715
 8658TIP3    H147389   6.490   2.208   1.730 -1.5952 -0.1240 -1.2179
 8658TIP3    H247390   6.430   2.069   1.745 -0.0531 -0.7010 -0.1119
 8659TIP3   OH247391   0.495   2.925   5.995  0.3366 -0.6020 -0.1673
 8659TIP3    H147392   0.581   2.884   5.998  0.2321 -0.8901 -0.9326
 8659TIP3    H247393   0.513   3.019   6.005  0.7955 -0.6086 -0.8597
 8660TIP3   OH247394   0.054   0.366  16.889 -0.5182 -0.5896 -0.3774
 8660TIP3    H147395   0.042   0.432  16.821 -3.9517 -1.8430 -1.1988
 8660TIP3    H247396   0.105   0.410  16.957 -1.6748  2.5276 -1.3547
 8661TIP3   OH247397   6.044   6.505  11.499  0.3885  0.3048  0.0166
 8661TIP3    H147398   5.971   6.479  11.555  0.8867  1.6027  1.3315
 8661TIP3    H247399   6.003   6.553  11.427 -0.3382 -2.1285 -1.2879
 8662TIP3   OH247400   5.275   4.090  13.861 -0.1483 -0.6250  0.0328
 8662TIP3    H147401   5.206   4.067  13.800 -1.2208  0.7061  0.6917
 8662TIP3    H247402   5.346   4.029  13.841 -1.0695 -1.2720 -1.4273
 8663TIP3   OH247403   5.743   5.143   0.527  0.1801 -0.3219  0.6879
 8663TIP3    H147404   5.787   5.058   0.538  0.8393 -0.2714 -1.2864
 8663TIP3    H247405   5.798   5.205   0.575 -0.0511 -0.8999  1.7450
 8664TIP3   OH247406   4.981   5.734   5.776  0.1062 -0.0097  0.0460
 8664TIP3    H147407   4.988   5.824   5.809  0.9140  0.7831 -2.1009
 8664TIP3    H247408   5.045   5.685   5.827 -1.3725  0.2597  2.2669
 8665TIP3   OH247409   3.068   3.558  15.211 -0.2298 -0.4745 -0.0812
 8665TIP3    H147410   2.983   3.594  15.239 -1.3558 -1.7283 -1.6621
 8665TIP3    H247411   3.066   3.565  15.115  0.0820 -3.2747 -0.3893
 8666TIP3   OH247412   1.548   4.166  13.009  0.2545  0.3915  0.4903
 8666TIP3    H147413   1.518   4.101  12.946  0.5752 -0.0261  0.7696
 8666TIP3    H247414   1.520   4.250  12.971  0.0500  0.1130  0.0168
 8667TIP3   OH247415   3.035   6.106   0.575  0.3500 -0.3319  0.3242
 8667TIP3    H147416   3.052   6.149   0.492  2.0446  0.2061  0.9120
 8667TIP3    H247417   3.035   6.176   0.640 -2.3095 -0.5499  0.6849
 8668TIP3   OH247418   4.311   3.471   0.358 -0.1574  0.6327 -0.4055
 8668TIP3    H147419   4.228   3.503   0.392  0.2638  0.1757  1.1343
 8668TIP3    H247420   4.373   3.542   0.377  0.0043  0.5530 -0.6319
 8669TIP3   OH247421   2.072   4.104   4.106  0.1743 -0.2511 -0.2149
 8669TIP3    H147422   2.020   4.052   4.167  0.1799  0.8299  0.7468
 8669TIP3    H247423   2.016   4.116   4.030 -0.5192 -0.1357  0.3109
 8670TIP3   OH247424   5.459   0.583   4.374 -0.6160  0.3862  0.0165
 8670TIP3    H147425   5.376   0.535   4.369 -0.8183  0.6584  0.7487
 8670TIP3    H247426   5.511   0.536   4.439  0.7579 -1.2040 -2.0881
 8671TIP3   OH247427   3.456   3.409   3.744 -1.0007  0.0702 -0.2632
 8671TIP3    H147428   3.500   3.437   3.663  0.2262  1.6601  0.8764
 8671TIP3    H247429   3.484   3.318   3.756 -1.0065 -0.1069 -1.4850
 8672TIP3   OH247430   4.414   5.780   4.029  0.3187 -0.0715  0.5483
 8672TIP3    H147431   4.486   5.830   4.069  0.2630  0.7400 -0.3251
 8672TIP3    H247432   4.417   5.804   3.937  0.1731 -1.5836  0.1323
 8673TIP3   OH247433   5.983   1.280   1.431 -0.2081  0.5343  0.4690
 8673TIP3    H147434   5.953   1.295   1.520 -2.1253 -0.2553  0.0200
 8673TIP3    H247435   6.074   1.253   1.440 -0.3668  0.4810  2.1866
 8674TIP3   OH247436   6.424   3.533   3.941 -0.0296  0.6294 -0.6160
 8674TIP3    H147437   6.399   3.566   3.855 -0.1517 -2.3969 -1.8423
 8674TIP3    H247438   6.365   3.459   3.957  1.4720 -0.2837  1.0505
 8675TIP3   OH247439   5.063   4.169   0.785 -0.6752  0.3977  0.5507
 8675TIP3    H147440   4.983   4.168   0.837 -1.7604 -1.4188 -1.0227
 8675TIP3    H247441   5.064   4.083   0.742  1.0119  1.2061 -1.1307
 8676TIP3   OH247442   5.494   3.473  13.814 -0.3592 -0.2687 -0.0180
 8676TIP3    H147443   5.529   3.560  13.833 -0.5267 -0.2807  0.3468
 8676TIP3    H247444   5.520   3.457  13.723  1.6068 -0.7671  0.5908
 8677TIP3   OH247445   2.367   3.873  13.471 -0.7948 -0.4345  0.1777
 8677TIP3    H147446   2.427   3.811  13.512 -0.7276 -0.8366 -0.5169
 8677TIP3    H247447   2.398   3.881  13.381  0.2592  1.9548  0.6899
 8678TIP3   OH247448   6.405   2.140  11.052  0.2892  0.7974  0.0376
 8678TIP3    H147449   6.448   2.087  10.984  0.7630 -0.3641  1.1973
 8678TIP3    H247450   6.447   2.225  11.047  0.4282  0.6822 -1.0100
 8679TIP3   OH247451   0.381   4.415  16.195  0.4822 -0.0069  0.4570
 8679TIP3    H147452   0.365   4.450  16.283  2.4486  2.8406 -0.1595
 8679TIP3    H247453   0.308   4.448  16.142  0.3359 -0.0367  0.6403
 8680TIP3   OH247454   5.499   6.441  11.821  0.0096  0.6370 -0.4590
 8680TIP3    H147455   5.575   6.499  11.811  0.1146  0.7231  0.6905
 8680TIP3    H247456   5.483   6.407  11.734  1.6435  0.2906 -0.6532
 8681TIP3   OH247457   1.149   1.989   4.489 -0.3483  0.6267  0.1933
 8681TIP3    H147458   1.102   2.071   4.506 -1.6600 -0.1646  0.4749
 8681TIP3    H247459   1.116   1.960   4.405 -0.1452  0.2037  0.2603
 8682TIP3   OH247460   2.610   6.678  11.886 -0.0423  0.3829 -0.2581
 8682TIP3    H147461   2.668   6.604  11.868 -0.7010  0.2413 -2.0542
 8682TIP3    H247462   2.584   6.667  11.977  0.7555 -0.9658 -0.1662
 8683TIP3   OH247463   6.727   0.609  16.751  0.2270 -0.1176 -0.5236
 8683TIP3    H147464   6.730   0.705  16.757  0.5597 -0.2253  1.8391
 8683TIP3    H247465   6.718   0.592  16.657  0.1318  2.2183 -1.0117
 8684TIP3   OH247466   0.506   5.624  16.998 -0.3439  0.2458 -0.1457
 8684TIP3    H147467   0.422   5.609  16.954 -0.0255 -1.5819 -0.2097
 8684TIP3    H247468   0.498   5.580  17.082 -1.1522  4.1738  2.0917
 8685TIP3   OH247469   4.094   0.734  11.030 -0.5234  0.3133  0.0039
 8685TIP3    H147470   4.123   0.702  11.116  1.6533 -0.8764 -1.1077
 8685TIP3    H247471   4.006   0.697  11.020  0.2225 -1.7983  0.6200
 8686TIP3   OH247472   0.997   5.701   3.457  0.0159 -0.1706 -0.6304
 8686TIP3    H147473   1.070   5.681   3.516  0.7390  1.1021 -1.0461
 8686TIP3    H247474   0.936   5.629   3.469  0.8643 -0.7362  0.5132
 8687TIP3   OH247475   5.227   6.155   2.460  0.1016  0.0992  0.0030
 8687TIP3    H147476   5.188   6.147   2.547  1.0080  1.8247  0.6160
 8687TIP3    H247477   5.191   6.236   2.425  0.8472  0.1710 -0.6287
 8688TIP3   OH247478   3.654   4.737  12.341  0.5489  0.1246 -0.4332
 8688TIP3    H147479   3.581   4.698  12.389 -0.2427 -0.0471 -1.7166
 8688TIP3    H247480   3.731   4.719  12.394 -0.1010 -1.3084  0.0548
 8689TIP3   OH247481   5.887   0.378  16.097  0.1866 -0.0728  0.3177
 8689TIP3    H147482   5.795   0.398  16.113  0.0713  0.2957 -0.7193
 8689TIP3    H247483   5.935   0.447  16.142  0.0539 -1.2707  2.4086
 8690TIP3   OH247484   1.027   3.220   2.467  0.8272  0.5442 -0.1833
 8690TIP3    H147485   0.959   3.259   2.412  0.8640 -0.1970 -0.7780
 8690TIP3    H247486   0.980   3.184   2.542  0.7551  1.4213  0.2017
 8691TIP3   OH247487   4.188   4.159  13.372  0.5159  0.5957 -0.2189
 8691TIP3    H147488   4.254   4.092  13.387  0.8658  0.7315 -1.0849
 8691TIP3    H247489   4.196   4.219  13.446 -0.0368 -0.4894  0.7525
 8692TIP3   OH247490   1.384   6.101   5.776 -0.2832 -0.0267  0.4978
 8692TIP3    H147491   1.356   6.105   5.685  0.1847  1.0625  0.3883
 8692TIP3    H247492   1.378   6.008   5.799  0.9465 -0.5326 -1.0745
 8693TIP3   OH247493   1.523   5.174   1.735 -0.1762  0.2701  0.2860
 8693TIP3    H147494   1.444   5.127   1.760 -0.3656  1.0003  1.1037
 8693TIP3    H247495   1.494   5.243   1.676 -0.6391  2.3622  2.7504
 8694TIP3   OH247496   6.093   3.669  15.673  0.2951  0.2423 -0.1094
 8694TIP3    H147497   6.068   3.748  15.624  0.4335  0.8751  0.8116
 8694TIP3    H247498   6.159   3.626  15.618 -0.3009  0.3838 -0.9517
 8695TIP3   OH247499   3.363   1.292   4.294  0.4385 -0.0734  0.0055
 8695TIP3    H147500   3.379   1.360   4.360 -0.8134  0.1077  0.1321
 8695TIP3    H247501   3.320   1.222   4.341 -1.3734  0.4551 -0.7750
 8696TIP3   OH247502   0.057   4.661   5.387  0.5577  0.2472 -0.2604
 8696TIP3    H147503   0.037   4.663   5.293 -2.3860  0.9613  0.2632
 8696TIP3    H247504   0.054   4.753   5.414  1.0318  0.0251  0.5868
 8697TIP3   OH247505   0.920   2.429   4.594 -0.1274 -0.2716 -0.2817
 8697TIP3    H147506   0.949   2.493   4.529 -1.4989 -0.1153 -0.7786
 8697TIP3    H247507   0.976   2.445   4.670  0.6271  0.4267 -0.9622
 8698TIP3   OH247508   2.764   6.649   3.266 -0.1242  0.3527  0.0159
 8698TIP3    H147509   2.823   6.575   3.255  0.6702  1.0004 -0.1844
 8698TIP3    H247510   2.794   6.713   3.202 -0.9947  0.7314 -0.0273
 8699TIP3   OH247511   5.790   2.580  11.875  0.7050 -0.4898  0.5480
 8699TIP3    H147512   5.837   2.662  11.861  0.0627 -0.4076 -1.5917
 8699TIP3    H247513   5.815   2.525  11.800 -2.0318 -0.6637 -0.3777
 8700TIP3   OH247514   3.433   2.270  14.794  0.0015  0.4453 -0.2250
 8700TIP3    H147515   3.360   2.315  14.837 -0.7234  0.8297 -1.7957
 8700TIP3    H247516   3.394   2.193  14.754  0.9763 -0.8345  1.2036
 8701TIP3   OH247517   1.355   2.019   5.434 -0.2276 -0.2123  0.0506
 8701TIP3    H147518   1.367   1.926   5.417  0.5735  0.0327 -0.7692
 8701TIP3    H247519   1.402   2.035   5.516  0.9512 -0.2285 -0.6127
 8702TIP3   OH247520   4.082   5.237   5.290 -0.1288  0.6340  0.1037
 8702TIP3    H147521   4.078   5.295   5.366 -0.9136  1.2293 -0.3747
 8702TIP3    H247522   4.079   5.149   5.327 -0.2872  0.9121  0.7771
 8703TIP3   OH247523   1.129   6.506   3.729 -0.0239 -0.0488 -0.0495
 8703TIP3    H147524   1.035   6.518   3.719 -0.1244  1.3749  1.9916
 8703TIP3    H247525   1.137   6.426   3.782 -0.0955  0.0957  0.1777
 8704TIP3   OH247526   1.202   3.890  14.554 -0.4502 -0.0442 -0.6232
 8704TIP3    H147527   1.140   3.820  14.576 -1.8005  0.7407 -1.7778
 8704TIP3    H247528   1.268   3.886  14.623 -2.7363  0.2606  1.7171
 8705TIP3   OH247529   5.613   5.207  11.310  0.6292 -0.2594 -0.0839
 8705TIP3    H147530   5.630   5.158  11.229 -1.1446 -1.2473  0.0995
 8705TIP3    H247531   5.584   5.141  11.372 -0.3005  0.8221  0.6606
 8706TIP3   OH247532   0.671   3.788  13.370 -0.3342 -0.6522  0.0165
 8706TIP3    H147533   0.713   3.859  13.419  0.3233  0.1681 -1.6466
 8706TIP3    H247534   0.716   3.709  13.399  0.0698 -0.1802  0.6942
 8707TIP3   OH247535   6.017   1.510  11.266  0.5656 -0.2307  0.0606
 8707TIP3    H147536   5.958   1.582  11.287 -0.9057 -0.7780 -2.0008
 8707TIP3    H247537   6.102   1.552  11.250  0.0323  0.8904  0.1213
 8708TIP3   OH247538   1.194   1.654  13.706 -0.7766  0.0712 -0.1911
 8708TIP3    H147539   1.123   1.715  13.729 -0.8953  0.0072 -0.3882
 8708TIP3    H247540   1.271   1.711  13.694 -0.0293 -0.0864  2.9485
 8709TIP3   OH247541   6.593   3.099   3.223  0.4726  0.0996  0.3983
 8709TIP3    H147542   6.683   3.125   3.246  0.4788 -1.4964  2.4831
 8709TIP3    H247543   6.556   3.067   3.305 -1.9000  0.3384 -0.5121
 8710TIP3   OH247544   4.770   4.344   2.706 -0.1775 -0.2335 -0.0025
 8710TIP3    H147545   4.680   4.344   2.674 -0.0197 -0.3295 -0.4566
 8710TIP3    H247546   4.781   4.431   2.745 -0.9505 -0.7742  1.4738
 8711TIP3   OH247547   4.903   6.343   5.484  0.2932  0.2167 -0.0801
 8711TIP3    H147548   4.892   6.252   5.510  0.9347 -0.5443 -2.2850
 8711TIP3    H247549   4.913   6.340   5.389 -0.0471  2.6317 -0.2582
 8712TIP3   OH247550   2.761   0.302  10.813 -0.2304 -0.1418 -0.1773
 8712TIP3    H147551   2.790   0.349  10.891  3.8132 -0.7815 -1.0472
 8712TIP3    H247552   2.771   0.366  10.742  3.5909 -1.5305 -1.1078
 8713TIP3   OH247553   4.273   3.405   6.121  0.2951 -0.0413 -0.0128
 8713TIP3    H147554   4.329   3.478   6.148 -0.6152  0.4011  0.7324
 8713TIP3    H247555   4.287   3.398   6.026 -0.4048  1.8251 -0.2968
 8714TIP3   OH247556   3.765   1.805   1.027 -0.0607 -0.0406 -0.3223
 8714TIP3    H147557   3.707   1.757   0.967 -0.4166 -0.2620  0.1931
 8714TIP3    H247558   3.827   1.739   1.057 -0.1812 -0.0381 -0.0711
 8715TIP3   OH247559   1.854   0.896  15.493  0.1377 -0.5023 -0.2712
 8715TIP3    H147560   1.766   0.914  15.525 -0.2613  0.6341 -1.8803
 8715TIP3    H247561   1.912   0.940  15.555 -0.3593 -1.6660  1.0743
 8716TIP3   OH247562   4.513   1.003   4.266 -0.6532  0.5646 -0.3079
 8716TIP3    H147563   4.599   1.043   4.253 -1.2735  2.0007 -0.1598
 8716TIP3    H247564   4.518   0.919   4.221  1.0124  0.3658  0.1847
 8717TIP3   OH247565   4.156   1.314  13.943 -0.4103 -0.1251 -0.2252
 8717TIP3    H147566   4.091   1.374  13.981 -0.6458 -0.1012 -0.6642
 8717TIP3    H247567   4.105   1.241  13.909 -0.5237  1.1134 -2.9834
 8718TIP3   OH247568   6.417   2.863   4.724  0.5238 -0.1779  0.2594
 8718TIP3    H147569   6.401   2.769   4.712  0.5218 -0.4261  1.9278
 8718TIP3    H247570   6.456   2.869   4.811 -0.1174  1.4418  0.4564
 8719TIP3   OH247571   0.511   2.562  16.520  0.1138 -0.2875  0.7428
 8719TIP3    H147572   0.577   2.573  16.589  0.1848  1.3184  0.4600
 8719TIP3    H247573   0.556   2.511  16.452 -0.1848 -2.5144  2.1316
 8720TIP3   OH247574   4.904   0.239  12.321 -0.9300 -0.3656 -0.1275
 8720TIP3    H147575   4.945   0.184  12.254  0.8866  1.8434 -0.9643
 8720TIP3    H247576   4.892   0.181  12.396  0.4912 -2.0048 -1.0952
 8721TIP3   OH247577   1.794   2.071   3.912  0.3587  0.0965 -0.7202
 8721TIP3    H147578   1.764   2.154   3.874  0.0329 -0.5846 -1.9931
 8721TIP3    H247579   1.744   2.063   3.994  1.2180  1.6815  0.0137
 8722TIP3   OH247580   0.627   0.565   5.792 -0.2486 -0.3726 -0.8804
 8722TIP3    H147581   0.627   0.499   5.861  0.5061 -0.3820 -0.8779
 8722TIP3    H247582   0.604   0.646   5.836 -0.5001 -0.5083 -0.7585
 8723TIP3   OH247583   0.165   6.109  11.616  0.2558  0.2820 -0.1207
 8723TIP3    H147584   0.257   6.135  11.627  0.2714  0.5779 -0.8282
 8723TIP3    H247585   0.124   6.186  11.576 -0.3623  0.2448  0.4276
 8724TIP3   OH247586   1.649   0.500   4.323 -0.1127 -0.3337 -0.0395
 8724TIP3    H147587   1.671   0.498   4.416  1.2757  0.1888 -0.3239
 8724TIP3    H247588   1.640   0.593   4.302  1.4119 -0.3057 -0.7761
 8725TIP3   OH247589   4.109   5.469  14.087 -0.0794  0.0108  0.1422
 8725TIP3    H147590   4.161   5.405  14.039 -0.2748 -0.4421  0.5306
 8725TIP3    H247591   4.132   5.553  14.047 -1.0424 -0.4534 -1.4725
 8726TIP3   OH247592   4.215   6.649   5.043 -0.5250  0.3629 -0.4303
 8726TIP3    H147593   4.126   6.626   5.016 -0.4633 -0.2520 -0.1209
 8726TIP3    H247594   4.271   6.583   5.001 -0.0439  1.5926 -1.8376
 8727TIP3   OH247595   2.345   4.135   0.246 -0.0603  0.0639  0.0932
 8727TIP3    H147596   2.280   4.093   0.190  1.0768 -1.2736 -0.2914
 8727TIP3    H247597   2.399   4.187   0.186  0.1128 -0.0048  0.1860
 8728TIP3   OH247598   1.601   5.240   2.794 -0.0400 -0.2821  0.4193
 8728TIP3    H147599   1.637   5.168   2.743  1.1716 -0.1218  1.0169
 8728TIP3    H247600   1.629   5.222   2.884  0.3110  0.9552  0.5672
 8729TIP3   OH247601   0.595   5.442  11.537  0.1633 -0.1175  0.0902
 8729TIP3    H147602   0.510   5.422  11.577  0.8191 -0.8077  1.2061
 8729TIP3    H247603   0.657   5.441  11.611  1.2578 -0.3852 -0.8031
 8730TIP3   OH247604   1.656   4.493  13.717 -0.0835 -0.2191  0.4344
 8730TIP3    H147605   1.681   4.585  13.704  0.5496 -0.1314  2.1136
 8730TIP3    H247606   1.564   4.490  13.690  0.2976  0.5412 -1.0877
 8731TIP3   OH247607   6.075   5.871  13.760  0.3066 -0.2485  0.0127
 8731TIP3    H147608   6.078   5.867  13.665  0.2737 -0.6526  0.0301
 8731TIP3    H247609   6.015   5.944  13.779 -1.0012 -1.2133 -0.2692
 8732TIP3   OH247610   5.681   6.384   5.705 -0.2553  0.7825  0.3371
 8732TIP3    H147611   5.722   6.464   5.738 -0.8784  0.3494  2.3251
 8732TIP3    H247612   5.610   6.366   5.767 -1.0781 -0.5075 -0.9073
 8733TIP3   OH247613   1.094   2.336  14.141 -0.5207 -0.0751  0.1498
 8733TIP3    H147614   1.145   2.319  14.220  0.3685  0.6655 -0.2543
 8733TIP3    H247615   1.065   2.249  14.112  3.0822 -0.9500 -1.3301
 8734TIP3   OH247616   1.926   3.290   0.493  0.1202  0.3925  0.4157
 8734TIP3    H147617   1.834   3.314   0.504  0.7421  2.2432  1.9047
 8734TIP3    H247618   1.924   3.219   0.428 -2.2682  0.9661 -0.2338
 8735TIP3   OH247619   4.475   1.340  15.508 -0.1624  0.2503 -0.5090
 8735TIP3    H147620   4.530   1.264  15.487 -0.5649 -0.7635  1.7819
 8735TIP3    H247621   4.526   1.389  15.573 -0.7968  0.7768 -0.3978
 8736TIP3   OH247622   1.183   5.592  13.096 -0.6685 -0.5886  0.1542
 8736TIP3    H147623   1.236   5.638  13.161  1.8274  0.5022 -2.4655
 8736TIP3    H247624   1.126   5.660  13.060 -1.9879 -1.1756  1.0383
 8737TIP3   OH247625   4.537   1.409   3.175  0.3996 -0.9070 -0.0773
 8737TIP3    H147626   4.621   1.370   3.150  2.6773  2.8879  0.7794
 8737TIP3    H247627   4.502   1.444   3.093  1.9899  1.3051  0.0934
 8738TIP3   OH247628   3.287   2.066  16.694 -0.7247 -0.0486  0.6154
 8738TIP3    H147629   3.225   2.131  16.728 -1.0056 -0.2402  0.4698
 8738TIP3    H247630   3.282   1.994  16.757 -1.6242 -0.6266 -0.0802
 8739TIP3   OH247631   5.923   6.727   0.307 -0.0872 -0.4848  0.9025
 8739TIP3    H147632   5.940   6.705   0.399  1.2000 -0.4816  0.6808
 8739TIP3    H247633   5.949   6.819   0.300 -2.5050  0.2727  1.0908
 8740TIP3   OH247634   1.625   4.287   5.074 -0.0742  0.0046 -0.0412
 8740TIP3    H147635   1.685   4.239   5.018  1.4991  0.9133  0.8033
 8740TIP3    H247636   1.598   4.223   5.140 -1.4710 -0.8999 -1.4193
 8741TIP3   OH247637   2.426   2.052  17.143  0.1451 -0.0182  0.3145
 8741TIP3    H147638   2.361   2.020  17.080 -0.6856  0.5780  0.8512
 8741TIP3    H247639   2.459   1.972  17.186 -1.0889 -0.2478  0.8592
 8742TIP3   OH247640   6.307   4.855  17.033  0.2807  0.1585  0.5855
 8742TIP3    H147641   6.254   4.935  17.037 -0.0672 -0.1058  3.0736
 8742TIP3    H247642   6.358   4.856  17.114 -1.3846 -3.1725  1.8690
 8743TIP3   OH247643   6.207   5.310  17.050 -0.2221  0.3153  0.4382
 8743TIP3    H147644   6.296   5.347  17.049  0.2767 -0.8518  0.3648
 8743TIP3    H247645   6.151   5.382  17.020  0.8724  0.6412 -0.9190
 8744TIP3   OH247646   4.390   2.279  13.572  0.1854 -0.1542 -0.2707
 8744TIP3    H147647   4.299   2.267  13.600  0.5447  0.3644  1.2095
 8744TIP3    H247648   4.402   2.374  13.570  1.4448 -0.1689  2.3180
 8745TIP3   OH247649   5.100   6.709  14.851  0.7297  0.4240  0.0690
 8745TIP3    H147650   5.081   6.655  14.928 -1.1628 -0.1393 -0.7488
 8745TIP3    H247651   5.097   6.649  14.777  1.3274  1.1815 -0.5969
 8746TIP3   OH247652   1.907   5.872  16.800 -0.7668  0.0936  0.1078
 8746TIP3    H147653   1.846   5.800  16.782 -0.3015 -0.0155 -1.1849
 8746TIP3    H247654   1.870   5.947  16.753 -0.3660  0.2439  0.0254
 8747TIP3   OH247655   1.155   0.433  12.752  0.3099  0.3860 -0.5752
 8747TIP3    H147656   1.117   0.520  12.741  2.4096  1.4318 -0.1355
 8747TIP3    H247657   1.245   0.450  12.782  0.0895 -1.9423  1.8229
 8748TIP3   OH247658   3.959   1.087  16.841  0.0259  0.3443  0.0129
 8748TIP3    H147659   3.975   1.015  16.780 -0.4606  1.0488 -0.9828
 8748TIP3    H247660   4.046   1.113  16.871  0.1554 -1.1853  1.0438
 8749TIP3   OH247661   2.733   1.463   3.704  0.4526  0.1497 -0.9114
 8749TIP3    H147662   2.796   1.533   3.689 -0.8453  1.6020  0.1763
 8749TIP3    H247663   2.655   1.507   3.738 -0.1725 -1.8787  0.4706
 8750TIP3   OH247664   1.613   5.800   3.951 -0.2598 -0.4632  1.0372
 8750TIP3    H147665   1.549   5.861   3.915  0.7296 -0.3075 -0.5597
 8750TIP3    H247666   1.662   5.852   4.015  0.2509  0.3203  0.0448
 8751TIP3   OH247667   1.713   4.612  12.413 -0.5401  0.1471 -0.0775
 8751TIP3    H147668   1.753   4.683  12.464  0.5722 -1.1921  0.9774
 8751TIP3    H247669   1.703   4.540  12.475 -0.8888 -0.9040 -1.3143
 8752TIP3   OH247670   3.287   3.397  11.190 -0.2051  0.3208  0.3325
 8752TIP3    H147671   3.305   3.488  11.211 -0.0593  0.3832 -0.0586
 8752TIP3    H247672   3.210   3.374  11.243 -1.0663  1.0585 -0.5726
 8753TIP3   OH247673   0.562   3.941  17.096 -0.3204  0.8567 -0.2604
 8753TIP3    H147674   0.518   3.891  17.165  0.0831  1.9569  0.8361
 8753TIP3    H247675   0.645   3.896  17.083 -0.7441  0.1724 -0.6095
 8754TIP3   OH247676   5.528   6.772  14.151  0.7275  0.0773  0.2755
 8754TIP3    H147677   5.519   6.688  14.196 -0.6127 -0.2128 -0.4807
 8754TIP3    H247678   5.550   6.835  14.220  0.6063 -0.6903  1.0207
 8755TIP3   OH247679   5.364   2.269  16.520 -0.4461  0.1443 -0.4086
 8755TIP3    H147680   5.427   2.239  16.586  0.0057 -1.9001 -1.6726
 8755TIP3    H247681   5.319   2.343  16.561  1.5989  0.6061  1.1817
 8756TIP3   OH247682   3.876   1.584  15.616  0.8985  0.2965  0.0122
 8756TIP3    H147683   3.868   1.636  15.535  2.1866 -0.1936 -0.4598
 8756TIP3    H247684   3.970   1.575  15.629  0.6964 -0.2697  1.1679
 8757TIP3   OH247685   0.655   4.952  10.782  0.1942 -0.0467  0.2570
 8757TIP3    H147686   0.626   4.866  10.751  1.6519 -0.4005 -0.2160
 8757TIP3    H247687   0.751   4.947  10.779  0.3053  1.6233  0.1327
 8758TIP3   OH247688   2.195   2.226  11.590  0.5871 -0.1307 -0.1008
 8758TIP3    H147689   2.164   2.229  11.500 -0.6140  0.0102  0.3077
 8758TIP3    H247690   2.290   2.214  11.582  1.4191  5.0800 -1.5198
 8759TIP3   OH247691   5.608   6.022   5.877 -0.5128  1.0423 -0.6057
 8759TIP3    H147692   5.677   6.000   5.939  0.6799  0.4708 -2.0799
 8759TIP3    H247693   5.653   6.071   5.808 -2.0134  2.7159 -0.4814
 8760TIP3   OH247694   2.063   6.245  16.994  0.4691  0.4584 -0.1688
 8760TIP3    H147695   2.150   6.232  16.956 -0.2236  1.4283 -2.2757
 8760TIP3    H247696   2.074   6.318  17.056  1.1911  0.4686 -0.3051
 8761TIP3   OH247697   4.218   1.374   2.668  0.2575  0.0190  0.5857
 8761TIP3    H147698   4.174   1.460   2.671 -1.7660 -0.9615  1.3325
 8761TIP3    H247699   4.179   1.330   2.593  0.8686 -0.4375  0.5352
 8762TIP3   OH247700   6.777   6.109   2.668 -0.0272 -0.1126 -0.2070
 8762TIP3    H147701   6.716   6.094   2.740  0.6218  0.3792  0.4627
 8762TIP3    H247702   6.862   6.080   2.702 -0.1107 -2.2979 -1.6698
 8763TIP3   OH247703   3.434   4.072  11.519 -0.4009  0.4620 -0.0104
 8763TIP3    H147704   3.381   4.106  11.447  1.8215  0.5109 -1.7249
 8763TIP3    H247705   3.423   4.136  11.590 -2.2294  0.6765 -0.4584
 8764TIP3   OH247706   4.073   2.874   5.673 -0.4224 -0.0973  0.0438
 8764TIP3    H147707   4.138   2.935   5.707 -0.6987  1.3684 -1.8847
 8764TIP3    H247708   4.123   2.796   5.648  0.4053  0.4945 -0.1805
 8765TIP3   OH247709   3.679   2.694  12.934  0.2781  0.0083  0.2429
 8765TIP3    H147710   3.705   2.749  12.860  0.5531  0.0207  0.3474
 8765TIP3    H247711   3.693   2.605  12.903  2.9387  0.0252  1.1619
 8766TIP3   OH247712   2.172   3.690   3.171 -0.2265 -0.1013  0.0639
 8766TIP3    H147713   2.239   3.759   3.167  1.0373 -1.2102  1.0612
 8766TIP3    H247714   2.184   3.640   3.091  0.6899 -0.7645  0.6023
 8767TIP3   OH247715   2.963   5.629   5.192 -0.0267 -0.0432  0.8275
 8767TIP3    H147716   3.014   5.619   5.271 -1.3533 -1.5503  1.5424
 8767TIP3    H247717   2.915   5.547   5.182 -0.7103  0.4967 -0.9541
 8768TIP3   OH247718   2.459   0.051   0.080 -0.1542 -0.4935 -0.0332
 8768TIP3    H147719   2.537   0.088   0.121  0.9448 -1.1559 -1.4118
 8768TIP3    H247720   2.417   0.126   0.038 -0.0690 -0.1870  0.4218
 8769TIP3   OH247721   4.811   2.304  14.297 -0.8898 -0.3321  0.1642
 8769TIP3    H147722   4.785   2.230  14.352  0.0113  0.0632  1.1576
 8769TIP3    H247723   4.781   2.381  14.345  1.7387  0.1307  1.2238
 8770TIP3   OH247724   2.995   0.847   1.913 -0.2066 -0.4820 -0.3659
 8770TIP3    H147725   3.082   0.806   1.917  0.0976  0.2466  0.9180
 8770TIP3    H247726   3.006   0.932   1.956 -1.1441  0.4057 -1.8106
 8771TIP3   OH247727   1.862   0.980   3.208  0.0349 -0.3970 -0.1278
 8771TIP3    H147728   1.955   0.981   3.187 -0.0213  0.1969 -0.3620
 8771TIP3    H247729   1.843   0.888   3.226  0.4351 -0.6803 -1.1065
 8772TIP3   OH247730   2.275   3.319   0.316  0.7606  0.2242  0.0041
 8772TIP3    H147731   2.257   3.228   0.295 -0.9831  0.3143  0.8993
 8772TIP3    H247732   2.324   3.315   0.399  0.9784  0.1040 -0.1284
 8773TIP3   OH247733   5.832   0.513  13.690  0.7345  0.0026 -0.3083
 8773TIP3    H147734   5.889   0.482  13.760 -0.3537  0.5517  0.8659
 8773TIP3    H247735   5.890   0.558  13.629  1.5565  0.7339  0.9667
 8774TIP3   OH247736   6.133   6.509  13.967 -0.0507 -0.2160 -0.3670
 8774TIP3    H147737   6.114   6.592  13.924 -0.0616  0.4173  0.8195
 8774TIP3    H247738   6.219   6.484  13.932 -0.1524  0.1734 -0.9130
 8775TIP3   OH247739   2.622   1.123   1.798  0.3624  0.3962 -0.0728
 8775TIP3    H147740   2.564   1.047   1.797 -0.0257  0.6340  1.4826
 8775TIP3    H247741   2.636   1.144   1.705  2.0202 -2.6797 -0.6578
 8776TIP3   OH247742   1.710   6.309   2.815  0.1868  0.0687  0.2806
 8776TIP3    H147743   1.785   6.367   2.829  0.3096 -0.2021  0.7951
 8776TIP3    H247744   1.748   6.228   2.779  0.0149  0.3119 -0.4507
 8777TIP3   OH247745   1.673   4.993   6.025  0.4914 -0.0979 -0.0716
 8777TIP3    H147746   1.723   5.071   6.002  0.4160 -0.4892 -1.6331
 8777TIP3    H247747   1.719   4.958   6.102  2.0152  0.1145 -0.8415
 8778TIP3   OH247748   3.706   4.942   1.438  0.3664 -0.7368  0.0714
 8778TIP3    H147749   3.774   5.006   1.460 -0.3852  0.2244 -0.2932
 8778TIP3    H247750   3.627   4.977   1.479 -1.2445  1.4573 -4.3026
 8779TIP3   OH247751   6.018   0.899   0.441 -0.4687 -0.2857  0.3179
 8779TIP3    H147752   6.069   0.902   0.522 -0.3924 -0.7825  0.2923
 8779TIP3    H247753   5.969   0.817   0.447 -1.1024  0.0833  0.2427
 8780TIP3   OH247754   3.337   2.572   5.932 -0.3909 -0.6134  0.3215
 8780TIP3    H147755   3.413   2.617   5.969  0.6286 -0.3890 -1.8364
 8780TIP3    H247756   3.329   2.492   5.983  1.9104 -1.0871  0.0520
 8781TIP3   OH247757   5.172   1.559   3.150  0.2833 -0.2724 -0.3119
 8781TIP3    H147758   5.264   1.559   3.122  0.1064 -0.5557 -0.8925
 8781TIP3    H247759   5.122   1.566   3.069 -0.2907 -3.0608 -0.2792
 8782TIP3   OH247760   1.697   5.772   6.448 -0.4008 -0.0530  0.2343
 8782TIP3    H147761   1.745   5.723   6.515 -0.4141  1.9183  1.7656
 8782TIP3    H247762   1.653   5.705   6.396  0.0389 -1.6798  1.8652
 8783TIP3   OH247763   4.127   1.427   1.470 -0.1996 -0.4427  0.3864
 8783TIP3    H147764   4.081   1.473   1.540  1.3851  0.8995  0.6127
 8783TIP3    H247765   4.071   1.439   1.393 -0.6315  0.4292  0.8165
 8784TIP3   OH247766   4.612   1.631  11.198 -0.3026 -1.1600 -0.0987
 8784TIP3    H147767   4.519   1.646  11.216 -0.7461 -3.3607 -0.2316
 8784TIP3    H247768   4.657   1.674  11.271 -1.3430  0.5653 -0.4102
 8785TIP3   OH247769   3.940   5.168  12.119 -0.1074 -0.2037  0.2511
 8785TIP3    H147770   3.898   5.106  12.059 -2.4143 -0.2781  1.8073
 8785TIP3    H247771   4.001   5.218  12.064 -0.4933 -1.7141 -1.6653
 8786TIP3   OH247772   3.170   0.215  13.089 -0.6870 -0.0899  0.6751
 8786TIP3    H147773   3.199   0.196  13.000 -1.8759 -1.3648  0.5286
 8786TIP3    H247774   3.226   0.161  13.145  0.2496  0.9212  0.7584
 8787TIP3   OH247775   4.461   1.648   4.802 -0.2994  0.3691  0.4399
 8787TIP3    H147776   4.542   1.700   4.800  0.6437 -1.0144  0.9847
 8787TIP3    H247777   4.437   1.645   4.895 -0.0324 -0.5825  0.4930
 8788TIP3   OH247778   5.806   5.584  12.963  0.0797  0.5394  0.5575
 8788TIP3    H147779   5.802   5.499  12.918  0.4016  0.4158  0.7639
 8788TIP3    H247780   5.898   5.596  12.985 -0.2303  0.0225  2.2932
 8789TIP3   OH247781   3.854   4.940   2.426 -0.4361 -0.1366 -0.2771
 8789TIP3    H147782   3.786   4.975   2.369 -0.9547 -0.8723 -0.1324
 8789TIP3    H247783   3.817   4.944   2.514  0.2139  0.6452 -0.0284
 8790TIP3   OH247784   2.416   2.494  12.768  0.8180 -0.3002 -0.6276
 8790TIP3    H147785   2.327   2.474  12.741  0.9969 -2.2181  0.0379
 8790TIP3    H247786   2.471   2.461  12.697  1.0177  0.9468 -1.0724
 8791TIP3   OH247787   4.923   1.471   4.957  0.1921 -0.1178 -0.0843
 8791TIP3    H147788   4.928   1.499   4.866  0.0767 -0.9897 -0.3712
 8791TIP3    H247789   4.837   1.428   4.964  1.0058 -1.8457 -0.1136
 8792TIP3   OH247790   6.167   4.111  13.275  0.2497  0.3150 -0.1498
 8792TIP3    H147791   6.135   4.064  13.198  1.8776  0.0188 -0.6814
 8792TIP3    H247792   6.253   4.144  13.249  1.8437 -1.6312  2.2107
 8793TIP3   OH247793   3.063   3.646   4.102 -0.4082 -0.1335  0.4503
 8793TIP3    H147794   3.076   3.577   4.037 -0.6048 -0.8958  1.2040
 8793TIP3    H247795   3.113   3.617   4.178 -1.4327 -0.0214  1.1901
 8794TIP3   OH247796   3.639   1.563  14.786  0.3053  0.4987  0.4734
 8794TIP3    H147797   3.701   1.526  14.848 -0.0479 -3.2732 -1.1352
 8794TIP3    H247798   3.671   1.534  14.700 -2.2290  0.6471 -0.6043
 8795TIP3   OH247799   6.765   2.352   5.315  0.2023 -0.2468  0.1963
 8795TIP3    H147800   6.758   2.284   5.248 -0.8796 -0.1110  0.1583
 8795TIP3    H247801   6.859   2.358   5.334  0.3225 -1.6403  0.0956
 8796TIP3   OH247802   0.858   3.685   1.079 -0.4827 -0.9264  0.1122
 8796TIP3    H147803   0.873   3.739   1.002  1.6295 -2.4919 -0.6903
 8796TIP3    H247804   0.905   3.729   1.149 -2.3361  0.4568  0.5475
 8797TIP3   OH247805   0.457   1.698  14.693  0.1598  0.0785  0.0132
 8797TIP3    H147806   0.469   1.603  14.686 -0.2069  0.0194  0.1781
 8797TIP3    H247807   0.402   1.721  14.618 -0.5952  0.0069  0.5333
 8798TIP3   OH247808   5.908   3.295  14.032 -0.2326  0.5425  0.0323
 8798TIP3    H147809   5.929   3.253  14.116 -1.7552 -1.9691 -0.7453
 8798TIP3    H247810   5.816   3.273  14.016  0.3539 -0.1690 -2.8988
 8799TIP3   OH247811   2.934   5.207   0.049 -0.0024  0.2105  0.6210
 8799TIP3    H147812   2.852   5.223   0.096 -0.1678 -0.2670  0.4958
 8799TIP3    H247813   2.919   5.126   0.001  0.7862 -0.2576  1.1439
 8800TIP3   OH247814   4.068   5.013   3.621  0.3663 -0.4636 -0.5656
 8800TIP3    H147815   4.144   5.027   3.678 -0.4657  0.5960  0.3066
 8800TIP3    H247816   4.103   4.959   3.549  1.9098 -0.1180 -0.1221
 8801TIP3   OH247817   4.567   3.907   1.612 -0.1728 -0.4892 -0.1007
 8801TIP3    H147818   4.547   3.814   1.598  1.1398 -0.6875 -0.8014
 8801TIP3    H247819   4.634   3.907   1.680 -0.8903  0.0171  0.6152
 8802TIP3   OH247820   6.395   5.725   0.866 -0.2742 -0.0981  0.9982
 8802TIP3    H147821   6.335   5.749   0.937  0.6027  2.8063  0.8851
 8802TIP3    H247822   6.446   5.652   0.901 -1.9837 -0.8559  2.0994
 8803TIP3   OH247823   0.175   0.200   5.124 -0.7535 -0.1519 -0.2774
 8803TIP3    H147824   0.082   0.225   5.130 -0.6726  0.1795 -0.4082
 8803TIP3    H247825   0.189   0.183   5.030 -0.3233  1.1856 -0.4660
 8804TIP3   OH247826   4.731   1.649   5.308  0.0860  0.1567 -0.2349
 8804TIP3    H147827   4.824   1.658   5.330 -0.0063  2.1531 -0.4666
 8804TIP3    H247828   4.708   1.732   5.265 -1.8276 -0.2442 -0.0961
 8805TIP3   OH247829   3.221   5.263  14.236  0.0057  0.1009 -0.6850
 8805TIP3    H147830   3.240   5.191  14.296 -1.3383 -1.2716 -1.8131
 8805TIP3    H247831   3.205   5.338  14.292 -2.5055 -1.4129  0.7920
 8806TIP3   OH247832   0.310   1.740   4.671 -0.6745  1.1094 -0.1009
 8806TIP3    H147833   0.389   1.689   4.654 -1.1723  0.0282  0.6608
 8806TIP3    H247834   0.239   1.676   4.667 -1.1880  1.4571  2.1725
 8807TIP3   OH247835   5.647   4.410  12.324 -0.1726  0.4637  0.0719
 8807TIP3    H147836   5.713   4.342  12.341  1.5753  1.8767 -0.7271
 8807TIP3    H247837   5.635   4.453  12.409  0.5736  0.7206  0.0570
 8808TIP3   OH247838   1.413   5.766   4.512  0.3362  0.2368 -0.4031
 8808TIP3    H147839   1.426   5.832   4.580  1.2787  1.0682 -1.3474
 8808TIP3    H247840   1.373   5.692   4.557 -0.0101  1.1538  0.8406
 8809TIP3   OH247841   2.453   6.367   1.957 -0.1767 -0.3860 -0.6969
 8809TIP3    H147842   2.403   6.442   1.924 -0.4425 -0.1341  0.2666
 8809TIP3    H247843   2.431   6.361   2.050 -0.5585 -1.9700 -0.8495
 8810TIP3   OH247844   2.562   2.912  15.531 -0.5434  0.3546 -0.2141
 8810TIP3    H147845   2.537   2.987  15.585  0.4575  1.0867 -0.7430
 8810TIP3    H247846   2.485   2.856  15.531 -0.1705 -0.3487  3.0834
 8811TIP3   OH247847   6.391   5.461  13.466 -0.4448  0.3444  0.1314
 8811TIP3    H147848   6.408   5.492  13.555 -1.8791  1.3202  0.1105
 8811TIP3    H247849   6.308   5.412  13.474 -0.2527 -0.1071 -0.5627
 8812TIP3   OH247850   1.595   5.826   5.648  0.0979 -0.2721 -0.0303
 8812TIP3    H147851   1.634   5.842   5.734 -0.8790 -0.8954  0.5462
 8812TIP3    H247852   1.501   5.829   5.663 -0.0870 -0.3023 -1.1034
 8813TIP3   OH247853   4.266   4.410   5.724 -1.1180  0.3042 -0.1043
 8813TIP3    H147854   4.337   4.437   5.783 -1.9999  1.2094  0.5630
 8813TIP3    H247855   4.308   4.350   5.663  0.3121  1.0921  0.0577
 8814TIP3   OH247856   2.017   0.801   1.690 -0.7535 -0.0327  0.0650
 8814TIP3    H147857   1.983   0.798   1.779  0.1763 -0.3465  0.4116
 8814TIP3    H247858   2.057   0.888   1.683  0.1577 -0.4268  0.3221
 8815TIP3   OH247859   2.564   3.239   6.151 -0.3609  1.1908  0.6300
 8815TIP3    H147860   2.496   3.205   6.208 -2.5266  3.2407 -0.5812
 8815TIP3    H247861   2.646   3.213   6.194 -1.7246 -2.9918  1.2101
 8816TIP3   OH247862   4.238   0.562   0.218 -0.4708  0.0751  0.2633
 8816TIP3    H147863   4.187   0.588   0.295 -0.3371  0.4069  0.2443
 8816TIP3    H247864   4.321   0.532   0.254  1.1990  3.9090  0.1434
 8817TIP3   OH247865   0.225   2.327  12.031 -0.2592 -0.1622 -0.1443
 8817TIP3    H147866   0.254   2.408  11.989  2.2719  0.0272  1.6982
 8817TIP3    H247867   0.259   2.257  11.976  1.9648  0.0881  0.8106
 8818TIP3   OH247868   0.972   4.108   1.094 -0.2608 -0.2074 -0.1774
 8818TIP3    H147869   1.011   4.028   1.128 -1.2565 -1.2340 -1.3805
 8818TIP3    H247870   0.996   4.109   1.002 -1.3259  0.2193 -0.4584
 8819TIP3   OH247871   6.177   2.830  16.655  0.0864 -0.2189 -0.6935
 8819TIP3    H147872   6.173   2.821  16.751  0.7020 -0.1352 -0.6577
 8819TIP3    H247873   6.088   2.857  16.630 -0.3023 -1.0471 -0.2356
 8820TIP3   OH247874   1.737   4.571   5.876  0.1051  0.4332  0.2570
 8820TIP3    H147875   1.675   4.502   5.851  0.5860 -0.2478  0.8974
 8820TIP3    H247876   1.808   4.563   5.813 -0.6062  1.4539 -0.7041
 8821TIP3   OH247877   4.271   6.467  12.033 -0.8547  0.1544  0.2991
 8821TIP3    H147878   4.303   6.493  11.947 -0.9149 -1.3841 -0.2206
 8821TIP3    H247879   4.328   6.512  12.095  0.9288 -0.7871 -0.5729
 8822TIP3   OH247880   0.926   3.904  13.707 -0.1489 -0.2055  0.1802
 8822TIP3    H147881   0.953   3.849  13.781 -0.3018 -0.5599 -0.0224
 8822TIP3    H247882   0.837   3.932  13.730 -0.1418 -0.1982  0.1982
 8823TIP3   OH247883   6.780   3.795   2.229  0.5988 -0.7704  0.0784
 8823TIP3    H147884   6.759   3.702   2.224  1.5568 -0.9727 -0.4828
 8823TIP3    H247885   6.868   3.798   2.266  1.0483 -0.1703 -0.9763
 8824TIP3   OH247886   1.138   3.559   0.378 -0.0726  0.0273  0.3524
 8824TIP3    H147887   1.225   3.575   0.415 -0.6706  0.4886  1.6477
 8824TIP3    H247888   1.116   3.470   0.407  0.1949 -0.3217 -0.4823
 8825TIP3   OH247889   2.542   2.002  11.999  0.0621 -0.1045 -0.0835
 8825TIP3    H147890   2.630   2.033  12.023 -0.1331  0.7429 -0.4140
 8825TIP3    H247891   2.558   1.933  11.935  0.4836  0.8637 -1.0555
 8826TIP3   OH247892   0.328   5.981   1.181 -0.4877 -0.1173 -0.3631
 8826TIP3    H147893   0.302   5.932   1.104 -1.4822 -0.9542  0.4645
 8826TIP3    H247894   0.338   5.915   1.250 -0.9782  0.7357  0.5648
 8827TIP3   OH247895   1.513   2.012  12.727  0.2622  0.2909 -0.1645
 8827TIP3    H147896   1.480   2.066  12.799 -1.0777 -0.0370 -0.5115
 8827TIP3    H247897   1.496   1.922  12.754  3.0203 -0.0720  0.6776
 8828TIP3   OH247898   1.552   2.688   2.933  0.1523  0.0646  0.1198
 8828TIP3    H147899   1.641   2.715   2.955  0.3319 -0.7094  0.3711
 8828TIP3    H247900   1.495   2.744   2.986  0.5611 -1.5792  2.4258
 8829TIP3   OH247901   1.863   5.130   1.661  0.1848 -0.3093  0.6141
 8829TIP3    H147902   1.874   5.211   1.710 -0.9503  0.8020 -0.8873
 8829TIP3    H247903   1.865   5.157   1.569  1.0455 -2.1710  0.0359
 8830TIP3   OH247904   2.120   4.038   5.847 -0.3132 -0.0853  0.1128
 8830TIP3    H147905   2.192   4.096   5.823  0.2537 -0.6027  0.5138
 8830TIP3    H247906   2.055   4.095   5.888  1.0297  0.0323  2.2219
 8831TIP3   OH247907   3.790   0.632  15.680  0.4438  0.4399 -0.1508
 8831TIP3    H147908   3.776   0.563  15.615 -2.2644  0.2867  0.4768
 8831TIP3    H247909   3.878   0.665  15.661  1.1364 -1.9702 -1.5852
 8832TIP3   OH247910   3.834   4.623   3.103  0.2363  0.1299  0.9872
 8832TIP3    H147911   3.740   4.628   3.085  0.4127 -1.0463 -0.4002
 8832TIP3    H247912   3.853   4.703   3.151 -1.3340  0.7627  0.6184
 8833TIP3   OH247913   5.296   4.813  11.169  0.1064  0.4177  0.0092
 8833TIP3    H147914   5.364   4.858  11.119 -0.4819 -0.2384 -1.4331
 8833TIP3    H247915   5.217   4.864  11.153 -0.2377 -0.2186 -0.3674
 8834TIP3   OH247916   1.828   5.392   5.311 -0.8001  0.0143 -0.1881
 8834TIP3    H147917   1.881   5.389   5.391 -1.0528 -0.9887 -0.0458
 8834TIP3    H247918   1.776   5.312   5.314  1.2256 -1.5492 -2.7768
 8835TIP3   OH247919   3.237   2.381  14.607  0.4810 -0.0242 -0.4331
 8835TIP3    H147920   3.220   2.360  14.515 -0.6979  1.3671 -0.5677
 8835TIP3    H247921   3.332   2.392  14.612  0.8662 -2.5157 -0.9101
 8836TIP3   OH247922   0.499   6.279  10.901 -0.0343 -0.1101  0.3214
 8836TIP3    H147923   0.591   6.280  10.929  0.2463 -0.2242 -0.5600
 8836TIP3    H247924   0.460   6.355  10.944  1.0942  1.4665 -1.3173
 8837TIP3   OH247925   4.280   4.114   2.117 -0.3125  0.1140  0.4572
 8837TIP3    H147926   4.298   4.207   2.135  2.6188 -0.4474  0.8375
 8837TIP3    H247927   4.299   4.104   2.024  1.8074 -0.5275  0.9029
 8838TIP3   OH247928   3.743   1.291   5.805 -0.0920 -0.2356  0.3080
 8838TIP3    H147929   3.694   1.372   5.795  0.1582  0.0033  0.9397
 8838TIP3    H247930   3.720   1.260   5.893 -0.8355 -1.2953 -0.2405
 8839TIP3   OH247931   5.473   1.195  14.936 -0.2418  0.2494 -0.0910
 8839TIP3    H147932   5.483   1.129  14.868  0.6295  0.5971 -0.3111
 8839TIP3    H247933   5.406   1.160  14.994  0.4848 -0.9888  0.0073
 8840TIP3   OH247934   3.390   5.551  15.872  0.5488 -0.0860  0.4782
 8840TIP3    H147935   3.354   5.526  15.957  0.4135 -1.7616 -0.0352
 8840TIP3    H247936   3.468   5.602  15.892 -0.5051  1.1729  1.5999
 8841TIP3   OH247937   0.950   3.087   0.319 -0.2736  0.2826 -0.2958
 8841TIP3    H147938   0.955   2.992   0.315  0.1161  0.3170 -0.6041
 8841TIP3    H247939   1.008   3.118   0.250 -0.7891  0.7410 -0.5370
 8842TIP3   OH247940   0.732   3.600  13.772 -0.1136  0.3604  0.5417
 8842TIP3    H147941   0.644   3.633  13.786 -0.6979 -0.8974  0.0012
 8842TIP3    H247942   0.720   3.510  13.741  1.3115  0.6016 -0.8795
 8843TIP3   OH247943   2.989   0.254  16.507  0.2239  0.4178 -0.5007
 8843TIP3    H147944   2.997   0.176  16.561 -1.5502  0.6138  0.0984
 8843TIP3    H247945   3.045   0.236  16.431 -1.3156 -2.1355 -1.1489
 8844TIP3   OH247946   1.623   2.715   0.744 -0.2521  0.7436 -0.1782
 8844TIP3    H147947   1.564   2.690   0.815 -1.3745  3.8444  0.1615
 8844TIP3    H247948   1.689   2.771   0.786 -0.3836  1.8558 -1.3832
 8845TIP3   OH247949   1.745   0.998  13.111  0.0486 -0.3517 -0.9303
 8845TIP3    H147950   1.789   0.984  13.195  1.3575  0.1462 -1.5146
 8845TIP3    H247951   1.814   1.024  13.051 -0.8726 -0.6702 -2.1797
 8846TIP3   OH247952   1.507   3.891  10.687  0.3020  0.7331 -0.2802
 8846TIP3    H147953   1.445   3.946  10.735 -0.0828 -0.2555  0.4166
 8846TIP3    H247954   1.516   3.813  10.742 -1.2785 -1.1266 -2.4835
 8847TIP3   OH247955   3.621   3.633  16.305 -0.0415  0.1792  0.3571
 8847TIP3    H147956   3.682   3.568  16.271 -0.2398  0.3927 -0.4380
 8847TIP3    H247957   3.585   3.675  16.227 -1.7282 -0.4160  0.7768
 8848TIP3   OH247958   5.608   4.112   5.644 -0.2016 -0.3873  0.1578
 8848TIP3    H147959   5.582   4.138   5.733 -0.3756 -0.5574  0.1556
 8848TIP3    H247960   5.657   4.188   5.611  1.0649 -0.8440  0.9069
 8849TIP3   OH247961   4.490   0.954  12.266  0.1779  0.1400  0.0712
 8849TIP3    H147962   4.522   0.865  12.281 -0.1541  0.1879  1.1536
 8849TIP3    H247963   4.557   1.011  12.303  0.0623  0.3196  0.0083
 8850TIP3   OH247964   0.311   2.180   3.421 -0.9135  0.2161 -0.5849
 8850TIP3    H147965   0.385   2.239   3.409 -0.2131 -0.8097 -1.5780
 8850TIP3    H247966   0.277   2.201   3.507  2.3966 -1.2491  1.2538
 8851TIP3   OH247967   5.877   5.578   5.307 -0.2171  0.0620  0.6019
 8851TIP3    H147968   5.883   5.514   5.236 -1.1712  0.5638  0.0524
 8851TIP3    H247969   5.968   5.599   5.328  0.1352  1.3702 -1.8381
 8852TIP3   OH247970   6.177   0.037  12.424 -0.1213 -0.8658  0.6604
 8852TIP3    H147971   6.214   0.110  12.374  0.2070 -0.5830  1.3071
 8852TIP3    H247972   6.156  -0.029  12.357 -1.2538  0.1527 -0.0374
 8853TIP3   OH247973   6.511   5.813   5.697  0.2667 -0.2184 -0.1346
 8853TIP3    H147974   6.540   5.766   5.619  1.0134  0.2305 -0.1402
 8853TIP3    H247975   6.588   5.863   5.725  0.2130 -0.8581  1.2620
 8854TIP3   OH247976   4.271   0.337   1.440  0.3721  0.3772 -0.5925
 8854TIP3    H147977   4.329   0.400   1.484  1.9227  0.9529 -3.2713
 8854TIP3    H247978   4.249   0.274   1.509  1.8020  1.7752  1.2618
 8855TIP3   OH247979   3.788   3.135  14.763  0.0136  0.4965  0.1389
 8855TIP3    H147980   3.815   3.213  14.812  0.0926 -0.9208  2.5100
 8855TIP3    H247981   3.827   3.062  14.811 -0.6064 -1.0645 -1.6158
 8856TIP3   OH247982   0.018   5.369   5.883  0.1459  0.5287  0.4985
 8856TIP3    H147983   0.090   5.337   5.937 -1.1106 -0.2648  1.8004
 8856TIP3    H247984   0.049   5.362   5.793  0.9965 -1.6843  0.9039
 8857TIP3   OH247985   6.753   5.603  15.139  0.3145 -0.3022 -0.2997
 8857TIP3    H147986   6.817   5.542  15.103 -0.4518 -1.4007  0.1294
 8857TIP3    H247987   6.804   5.680  15.164  1.4463 -1.0915 -0.0998
 8858TIP3   OH247988   0.093   4.618   2.752 -0.3209  0.4555 -0.2361
 8858TIP3    H147989   0.012   4.573   2.732  0.0336 -0.0845 -0.4868
 8858TIP3    H247990   0.084   4.646   2.843  0.2101 -1.8256  0.5880
 8859TIP3   OH247991   0.598   2.795  13.696  0.0351 -0.3640 -0.1898
 8859TIP3    H147992   0.631   2.761  13.613  0.8090 -0.5292  0.1835
 8859TIP3    H247993   0.640   2.880  13.707  0.5312 -0.6819  0.4051
 8860TIP3   OH247994   0.026   5.776   4.907  0.4861  0.3353  0.4072
 8860TIP3    H147995   0.049   5.700   4.962 -0.4780 -0.1277  0.1962
 8860TIP3    H247996   0.007   5.845   4.970 -1.7540 -0.5157  0.7775
 8861TIP3   OH247997   0.475   5.384  12.995 -0.4694  0.1686  0.3163
 8861TIP3    H147998   0.391   5.429  13.004 -0.3565  0.5964 -0.6234
 8861TIP3    H247999   0.486   5.374  12.901  0.4588 -0.0245  0.4406
 8862TIP3   OH248000   3.984   0.186   0.672 -0.2278  0.1548  0.1840
 8862TIP3    H148001   3.988   0.225   0.760  1.1235  1.1158 -0.2700
 8862TIP3    H248002   4.020   0.098   0.684  0.1146  0.3405  0.5690
 8863TIP3   OH248003   3.659   5.579   3.052  0.6625  0.0260 -0.2422
 8863TIP3    H148004   3.700   5.659   3.020  1.1675 -0.2609 -0.3216
 8863TIP3    H248005   3.664   5.517   2.979 -1.1365  0.4023 -0.7283
 8864TIP3   OH248006   0.200   5.279  13.732 -0.1075  0.1393 -0.4921
 8864TIP3    H148007   0.140   5.308  13.800  1.1925  2.0326 -0.0590
 8864TIP3    H248008   0.145   5.235  13.667 -1.6825  0.3340  0.6639
 8865TIP3   OH248009   2.381   2.539  15.099  0.0922  0.1859  0.1591
 8865TIP3    H148010   2.331   2.465  15.132  1.1040 -2.0427 -2.9609
 8865TIP3    H248011   2.331   2.572  15.025  1.6453 -0.0565 -1.0468
 8866TIP3   OH248012   6.274   3.986   1.910  0.1695  0.4437 -0.0606
 8866TIP3    H148013   6.183   4.014   1.897  0.6764  2.1737 -0.1189
 8866TIP3    H248014   6.322   4.068   1.927  1.4697 -0.5830  1.4089
 8867TIP3   OH248015   0.368   0.539   0.974  0.2394  0.1121  0.1444
 8867TIP3    H148016   0.292   0.592   0.952  0.0947 -0.4247 -0.6865
 8867TIP3    H248017   0.332   0.456   1.003  0.4634  0.4714  1.5210
 8868TIP3   OH248018   2.711   2.697  13.484  0.0721  0.2030  0.0720
 8868TIP3    H148019   2.652   2.645  13.429  1.5931 -1.0417 -0.4426
 8868TIP3    H248020   2.689   2.670  13.573  0.7417 -1.2677 -0.1811
 8869TIP3   OH248021   3.686   0.666  14.422  0.2957  0.5525  0.6709
 8869TIP3    H148022   3.675   0.571  14.433 -1.1890 -0.1919 -4.4053
 8869TIP3    H248023   3.780   0.676  14.403  0.4052  0.0609  0.9136
 8870TIP3   OH248024   3.067   5.963  11.654 -0.5351 -0.1733  0.0031
 8870TIP3    H148025   3.056   6.048  11.697 -2.6944  0.7510 -2.1287
 8870TIP3    H248026   3.000   5.907  11.693 -0.2686 -0.3703  0.1816
 8871TIP3   OH248027   0.281   1.481   3.150 -0.6925 -0.1052 -0.0666
 8871TIP3    H148028   0.272   1.537   3.073  1.9038  1.8190  0.8810
 8871TIP3    H248029   0.197   1.487   3.195 -1.7163 -0.0232 -1.8736
 8872TIP3   OH248030   6.630   4.554   1.640 -0.1510  0.0920 -0.2145
 8872TIP3    H148031   6.572   4.615   1.594 -0.7415 -1.7538 -2.1380
 8872TIP3    H248032   6.659   4.493   1.571  1.7207 -0.8049  1.2740
 8873TIP3   OH248033   2.190   0.082  10.485  0.0414  0.6615 -0.1069
 8873TIP3    H148034   2.137   0.024  10.431 -0.0712  0.7684 -0.1106
 8873TIP3    H248035   2.275   0.086  10.440 -0.0337  0.7058 -0.2446
 8874TIP3   OH248036   3.495   1.150   5.742 -0.1161  0.4170 -0.1326
 8874TIP3    H148037   3.578   1.169   5.785 -1.4904  0.6851  2.5901
 8874TIP3    H248038   3.485   1.055   5.747 -0.2336  0.4391  0.0555
 8875TIP3   OH248039   1.866   1.310   5.746  0.4676 -0.0915  0.1570
 8875TIP3    H148040   1.958   1.327   5.767  0.3175 -1.3843  2.1846
 8875TIP3    H248041   1.826   1.397   5.739  1.6336  0.4680  0.2715
 8876TIP3   OH248042   0.627   1.193   0.223 -0.0665  1.1289  0.5728
 8876TIP3    H148043   0.660   1.162   0.139 -0.0596 -0.1087  1.0177
 8876TIP3    H248044   0.645   1.287   0.222  0.9170  0.9500 -0.3529
 8877TIP3   OH248045   0.135   4.626  10.993  0.2263 -0.1273  0.2832
 8877TIP3    H148046   0.075   4.553  11.006  0.0694  0.0228  0.4055
 8877TIP3    H248047   0.218   4.597  11.030  0.5922 -0.8314 -1.0326
 8878TIP3   OH248048   6.272   2.506  11.283  0.3522  0.0579  0.1574
 8878TIP3    H148049   6.337   2.449  11.242 -1.2171 -1.2462 -0.5976
 8878TIP3    H248050   6.291   2.593  11.248  1.0317 -0.4851 -0.8636
 8879TIP3   OH248051   2.201   0.816  12.354 -0.2480  0.1799  0.3527
 8879TIP3    H148052   2.155   0.749  12.405  0.2861  0.7127  1.5524
 8879TIP3    H248053   2.227   0.770  12.273 -1.1778 -0.6457  0.5037
 8880TIP3   OH248054   1.781   0.890   2.800 -0.2218 -0.6160 -0.4626
 8880TIP3    H148055   1.705   0.871   2.855 -0.4895  1.2540 -0.1118
 8880TIP3    H248056   1.769   0.834   2.723 -0.9025 -1.7939  0.4737
 8881TIP3   OH248057   0.843   5.556   1.067 -0.2129 -0.7457  0.3772
 8881TIP3    H148058   0.784   5.531   0.996  0.0233 -0.4990  0.0943
 8881TIP3    H248059   0.805   5.515   1.145 -1.0183 -0.2091  0.2815
 8882TIP3   OH248060   1.485   0.254  15.889 -0.4140  0.0951  0.2851
 8882TIP3    H148061   1.489   0.161  15.913 -0.3342  0.3378  1.2565
 8882TIP3    H248062   1.397   0.282  15.913 -0.1118  0.5076  0.9558
 8883TIP3   OH248063   4.367   2.498   0.636  0.3068  0.0224 -0.7122
 8883TIP3    H148064   4.455   2.512   0.670  0.8693  1.7622 -2.6628
 8883TIP3    H248065   4.352   2.572   0.577 -2.9965  0.5488  0.5425
 8884TIP3   OH248066   4.976   0.203   4.078  0.7923 -0.5401  0.7960
 8884TIP3    H148067   5.034   0.156   4.137 -0.5161 -3.2762  0.0393
 8884TIP3    H248068   5.018   0.195   3.992 -0.7691 -2.9614  0.1516
 8885TIP3   OH248069   5.631   0.425  16.138  0.2068 -0.1887 -0.0115
 8885TIP3    H148070   5.581   0.444  16.058  0.0794 -0.2960  0.0423
 8885TIP3    H248071   5.571   0.375  16.192  0.6311 -0.9874 -0.2647
 8886TIP3   OH248072   2.130   0.456   5.626 -0.3294  0.2173 -0.0231
 8886TIP3    H148073   2.048   0.505   5.624 -0.4599 -0.0099 -1.0617
 8886TIP3    H248074   2.105   0.365   5.610  0.1071  0.1218 -0.1888
 8887TIP3   OH248075   5.815   5.543   0.767  0.5921 -0.6152 -0.1669
 8887TIP3    H148076   5.736   5.507   0.725 -0.2934 -1.3852  2.0310
 8887TIP3    H248077   5.784   5.623   0.809  1.0497 -0.7579  0.4458
 8888TIP3   OH248078   2.506   4.634   1.720 -0.5867 -0.2360 -0.1308
 8888TIP3    H148079   2.461   4.609   1.639  0.7007  0.3352 -1.0501
 8888TIP3    H248080   2.599   4.620   1.701  0.0079  2.6473  0.1968
 8889TIP3   OH248081   4.505   4.359   2.579 -0.2898  0.1019 -0.0486
 8889TIP3    H148082   4.545   4.390   2.498 -0.2482 -1.4357 -0.6419
 8889TIP3    H248083   4.411   4.373   2.565 -0.2795 -0.1128 -0.3376
 8890TIP3   OH248084   5.737   2.063  12.785 -0.4860 -0.0253  0.1289
 8890TIP3    H148085   5.823   2.023  12.802 -0.9353 -1.4404 -0.7487
 8890TIP3    H248086   5.686   1.993  12.744 -1.8105  1.0340 -0.0945
 8891TIP3   OH248087   0.545   3.820   0.886  0.0984  0.4305  0.1008
 8891TIP3    H148088   0.591   3.879   0.947 -0.2583  1.5534 -0.6779
 8891TIP3    H248089   0.454   3.820   0.917 -0.9644  3.8964 -2.3587
 8892TIP3   OH248090   5.167   5.630   4.707 -0.4213  0.2225  0.7666
 8892TIP3    H148091   5.190   5.625   4.614 -1.1467  0.3206  0.5775
 8892TIP3    H248092   5.081   5.588   4.713 -1.4519  2.2752  1.0085
 8893TIP3   OH248093   6.646   4.691  13.970  0.5703  0.4824 -0.1828
 8893TIP3    H148094   6.678   4.764  14.023  2.6744  0.5384 -1.4159
 8893TIP3    H248095   6.584   4.731  13.909  1.0734  1.1075 -0.2934
 8894TIP3   OH248096   1.712   6.569   5.870  0.3187 -0.0447  0.7494
 8894TIP3    H148097   1.717   6.615   5.786 -0.8128 -0.6802  0.3160
 8894TIP3    H248098   1.655   6.495   5.854  0.6116 -0.5529  1.9275
 8895TIP3   OH248099   5.812   2.553   2.976  0.2742  0.2523 -0.6847
 8895TIP3    H148100   5.908   2.556   2.983  0.3260 -0.8621 -0.6094
 8895TIP3    H248101   5.781   2.563   3.066  0.4029 -0.9149 -0.4875
 8896TIP3   OH248102   1.298   5.466  12.878 -0.3003  0.1651 -0.0354
 8896TIP3    H148103   1.262   5.519  12.949 -0.7932  1.2241 -1.0483
 8896TIP3    H248104   1.237   5.392  12.870 -0.0703 -0.1334  0.8258
 8897TIP3   OH248105   2.855   1.058   0.681 -0.1367  0.5779 -0.1787
 8897TIP3    H148106   2.769   1.080   0.715  0.3384  2.7118 -0.1948
 8897TIP3    H248107   2.849   1.071   0.586  0.2047  0.7585 -0.1794
 8898TIP3   OH248108   4.709   5.437   1.075 -0.2119  0.6890 -0.4067
 8898TIP3    H148109   4.695   5.509   1.136 -0.7841  0.1061  0.1723
 8898TIP3    H248110   4.620   5.411   1.048 -0.0759 -0.4538  0.1835
 8899TIP3   OH248111   5.302   3.078   2.107  0.2608  0.2139 -0.0274
 8899TIP3    H148112   5.236   3.097   2.174  1.0752 -0.0905  0.8806
 8899TIP3    H248113   5.313   2.983   2.111  0.9373  0.2887  0.0097
 8900TIP3   OH248114   0.601   3.440   4.309 -0.2909  0.7148  0.1038
 8900TIP3    H148115   0.683   3.443   4.258 -1.2265  0.5284 -1.4853
 8900TIP3    H248116   0.625   3.395   4.390  1.0922  0.2915 -0.4957
 8901TIP3   OH248117   4.149   0.424   3.798  0.6653 -0.1669 -0.0168
 8901TIP3    H148118   4.153   0.503   3.745  1.9499 -1.1972 -1.5447
 8901TIP3    H248119   4.134   0.455   3.887 -0.1418  1.6935 -0.7702
 8902TIP3   OH248120   2.433   3.101  16.152  0.4802  0.4262  0.1751
 8902TIP3    H148121   2.464   3.141  16.071  1.1735 -1.8738 -0.7537
 8902TIP3    H248122   2.485   3.143  16.221  1.1871  1.0892 -0.7417
 8903TIP3   OH248123   1.303   2.938   0.871  0.1418  0.8227 -0.5187
 8903TIP3    H148124   1.291   2.851   0.834 -0.1520  1.3419 -1.7059
 8903TIP3    H248125   1.341   2.923   0.957 -1.9981 -0.6078  0.2799
 8904TIP3   OH248126   5.931   2.304   4.132 -0.6115 -0.4664 -0.0587
 8904TIP3    H148127   5.939   2.399   4.130 -1.2443 -0.3891  0.7157
 8904TIP3    H248128   5.943   2.277   4.041  0.7209  0.2480 -0.1111
 8905TIP3   OH248129   0.138   3.643  15.170 -0.1800  0.0627 -0.4991
 8905TIP3    H148130   0.151   3.606  15.257 -1.2474  0.9112  0.0481
 8905TIP3    H248131   0.130   3.737  15.185 -0.3781  0.2158 -1.5105
 8906TIP3   OH248132   6.659   3.933  15.697  0.2714 -0.3406  0.3133
 8906TIP3    H148133   6.677   3.839  15.699  0.5263 -0.3295 -0.6609
 8906TIP3    H248134   6.657   3.954  15.604  0.5036  0.6762  0.5298
 8907TIP3   OH248135   3.412   3.637  13.758  0.3139 -0.4702  0.3045
 8907TIP3    H148136   3.408   3.713  13.700  0.8354  2.0315  3.3072
 8907TIP3    H248137   3.489   3.652  13.812  0.4632 -3.2322  0.9851
 8908TIP3   OH248138   4.159   3.741   5.708 -0.1378 -0.4885 -0.4257
 8908TIP3    H148139   4.127   3.735   5.618  0.0271  1.8874 -0.6882
 8908TIP3    H248140   4.245   3.782   5.700 -0.2853  0.1121  0.8461
 8909TIP3   OH248141   5.334   3.679   2.622 -0.1194 -0.0945 -0.1438
 8909TIP3    H148142   5.337   3.769   2.591 -1.0186  0.0565  0.1932
 8909TIP3    H248143   5.406   3.635   2.575 -1.6330  0.0320 -2.7710
 8910TIP3   OH248144   3.054   5.450  12.659  0.1063  0.5148 -0.3043
 8910TIP3    H148145   3.045   5.477  12.750 -0.3304 -1.2762  0.2234
 8910TIP3    H248146   3.131   5.393  12.658 -0.1329  0.1861 -0.9696
 8911TIP3   OH248147   6.263   0.697  15.913  0.1450  0.0780  0.1041
 8911TIP3    H148148   6.185   0.658  15.873  0.8408 -0.4961 -0.7405
 8911TIP3    H248149   6.336   0.668  15.857  0.9633  0.6272  0.8521
 8912TIP3   OH248150   2.061   0.086  11.272 -0.6507 -0.4179  0.2971
 8912TIP3    H148151   2.038   0.140  11.348  2.0674  2.7629 -0.8898
 8912TIP3    H248152   2.141   0.040  11.300 -1.7141 -2.2237  0.5254
 8913TIP3   OH248153   1.074   1.204   0.168  0.2076  0.0615 -0.0189
 8913TIP3    H148154   1.027   1.239   0.093 -0.2196  1.1391  0.7210
 8913TIP3    H248155   1.005   1.174   0.228  0.5250 -0.1950  0.2214
 8914TIP3   OH248156   0.339   6.286   0.467 -0.0918  0.0957 -0.2953
 8914TIP3    H148157   0.245   6.269   0.473 -0.1507  0.7487  0.7711
 8914TIP3    H248158   0.379   6.224   0.528  0.1495  0.0869 -0.4602
 8915TIP3   OH248159   3.677   5.945   4.431  0.1860 -0.3550 -0.0398
 8915TIP3    H148160   3.668   5.919   4.523 -0.2711 -2.2782 -0.5799
 8915TIP3    H248161   3.699   5.864   4.386 -1.0752  0.2555 -1.8525
 8916TIP3   OH248162   6.418   1.468  14.689  0.4635 -0.2994  0.2899
 8916TIP3    H148163   6.445   1.538  14.629  0.8512 -0.1004  0.6922
 8916TIP3    H248164   6.326   1.452  14.667  0.3212  0.4469  0.2904
 8917TIP3   OH248165   5.340   0.159   1.892  0.2515 -0.1113  0.8747
 8917TIP3    H148166   5.396   0.108   1.951  1.0236 -0.1971  0.0818
 8917TIP3    H248167   5.273   0.098   1.864 -0.0820 -0.0900  1.6047
 8918TIP3   OH248168   2.788   3.424  10.487 -0.5320  0.5371  0.0694
 8918TIP3    H148169   2.884   3.424  10.485 -0.4932 -1.3704 -0.3817
 8918TIP3    H248170   2.764   3.514  10.464  1.1403  1.0714  0.2272
 8919TIP3   OH248171   2.725   1.407  10.717 -0.0040  0.1611  0.2369
 8919TIP3    H148172   2.728   1.470  10.789  0.2289  0.4687 -0.0412
 8919TIP3    H248173   2.649   1.433  10.666 -0.9416 -0.8257  1.0592
 8920TIP3   OH248174   5.739   6.495   3.202 -0.5070 -0.0576 -0.2596
 8920TIP3    H148175   5.726   6.404   3.229  1.0464  0.1420  1.3461
 8920TIP3    H248176   5.720   6.495   3.108  1.1478 -2.4356 -0.6898
 8921TIP3   OH248177   1.960   5.942   2.402  0.6554  0.4052  0.4136
 8921TIP3    H148178   1.868   5.968   2.405  0.3888 -0.4234 -0.0286
 8921TIP3    H248179   1.983   5.925   2.493 -0.0390 -0.6666  0.4191
 8922TIP3   OH248180   0.556   4.278  15.450  0.0374  0.1173  1.3262
 8922TIP3    H148181   0.573   4.369  15.428  0.1188 -0.1914  0.0378
 8922TIP3    H248182   0.615   4.259  15.523  2.8273  0.0511 -0.7736
 8923TIP3   OH248183   5.644   0.636  13.382  0.5510 -0.1699  0.5810
 8923TIP3    H148184   5.712   0.704  13.389  2.0459 -1.3573 -1.3403
 8923TIP3    H248185   5.681   0.560  13.427 -1.1308  0.2179  2.7509
 8924TIP3   OH248186   4.054   1.981   4.729 -0.1427  0.7593 -0.1494
 8924TIP3    H148187   4.015   1.956   4.645  2.0055 -0.3248 -0.8787
 8924TIP3    H248188   4.050   1.901   4.782  1.3727  0.5038 -0.3803
 8925TIP3   OH248189   3.494   5.786  14.181 -0.1497 -0.8235  0.0365
 8925TIP3    H148190   3.411   5.743  14.160 -1.1855  0.2091  1.8166
 8925TIP3    H248191   3.523   5.744  14.262  0.6902 -0.6594 -0.1694
 8926TIP3   OH248192   6.757   3.151  13.167 -1.2348  0.4160  0.3215
 8926TIP3    H148193   6.808   3.160  13.248 -0.6841 -1.8354  0.2895
 8926TIP3    H248194   6.787   3.225  13.113  0.3018  0.4872  1.1841
 8927TIP3   OH248195   3.859   5.205   4.167 -0.2611 -0.2955 -0.1719
 8927TIP3    H148196   3.915   5.237   4.097 -0.7614  0.8556 -0.0680
 8927TIP3    H248197   3.776   5.251   4.153 -1.1869 -1.9436 -0.3167
 8928TIP3   OH248198   5.857   1.653   4.992 -0.1440 -0.0388  0.2060
 8928TIP3    H148199   5.952   1.664   4.985 -0.0735 -0.6838  0.1188
 8928TIP3    H248200   5.830   1.718   5.057  0.4287 -0.1896  0.6053
 8929TIP3   OH248201   2.514   2.026  16.770  0.0332  0.0573 -0.4292
 8929TIP3    H148202   2.519   1.995  16.680  1.3067  0.8428 -0.6509
 8929TIP3    H248203   2.484   2.117  16.763  0.8003  0.3465 -0.1259
 8930TIP3   OH248204   2.170   3.352   5.443 -0.1719 -0.1243  0.0698
 8930TIP3    H148205   2.077   3.338   5.463  0.4280 -1.3622  2.3248
 8930TIP3    H248206   2.176   3.445   5.422 -2.0125 -0.1650 -0.8921
 8931TIP3   OH248207   5.748   1.636   2.018  0.0853  0.2452 -0.1192
 8931TIP3    H148208   5.689   1.563   2.001  0.7108 -0.1605 -0.5955
 8931TIP3    H248209   5.813   1.601   2.079 -0.8602  1.0541  1.4170
 8932TIP3   OH248210   1.045   1.232   1.392 -0.2039 -0.7204 -0.0538
 8932TIP3    H148211   1.025   1.211   1.301  2.4381 -1.6143 -0.5035
 8932TIP3    H248212   1.036   1.150   1.439 -2.5474 -0.0683  0.7628
 8933TIP3   OH248213   5.542   1.429   5.059 -0.2189  0.3678 -0.1024
 8933TIP3    H148214   5.545   1.512   5.108 -2.7011  0.5491 -0.1244
 8933TIP3    H248215   5.609   1.439   4.991  1.4770  1.1827  1.5844
 8934TIP3   OH248216   0.871   0.084   0.344  0.0232 -0.1148  0.2705
 8934TIP3    H148217   0.915   0.081   0.260 -0.5971 -1.7500 -0.0434
 8934TIP3    H248218   0.922   0.026   0.400 -1.6820 -2.1558 -0.1419
 8935TIP3   OH248219   0.977   1.311   0.922 -0.4826 -1.0205 -0.3177
 8935TIP3    H148220   0.929   1.296   1.003 -0.5658 -1.3207 -0.4232
 8935TIP3    H248221   1.041   1.239   0.917  2.0609  0.9309  1.3280
 8936TIP3   OH248222   2.317   1.130   1.223  0.5653 -0.0530  0.3806
 8936TIP3    H148223   2.308   1.221   1.196  0.6340 -0.4245 -0.9552
 8936TIP3    H248224   2.281   1.080   1.150 -0.5003 -1.0760  1.5614
 8937TIP3   OH248225   0.206   3.290  11.091  0.2500 -0.3019 -0.0577
 8937TIP3    H148226   0.276   3.354  11.078  1.5483 -1.4090  1.1068
 8937TIP3    H248227   0.140   3.337  11.141  1.4261  0.0277  1.2524
 8938TIP3   OH248228   2.852   4.192  14.965 -0.1678  0.8550 -0.5151
 8938TIP3    H148229   2.871   4.246  15.042 -0.8591  1.0246 -0.4559
 8938TIP3    H248230   2.928   4.205  14.908  2.4085 -2.3926  1.7851
 8939TIP3   OH248231   4.978   2.284   3.464 -0.2743 -0.2442 -0.4201
 8939TIP3    H148232   5.056   2.308   3.514 -0.5294  0.5302 -0.3700
 8939TIP3    H248233   5.013   2.248   3.382  0.1358 -0.5477 -0.1180
 8940TIP3   OH248234   3.127   0.833   0.083 -0.1030 -0.1757 -0.3304
 8940TIP3    H148235   3.220   0.815   0.068  0.1521  1.2520 -0.5638
 8940TIP3    H248236   3.110   0.913   0.035 -0.7384  1.1923  2.0349
 8941TIP3   OH248237   4.566   0.279  13.608 -0.1719  0.2500 -0.2241
 8941TIP3    H148238   4.583   0.254  13.699  0.9244 -1.0867 -0.7519
 8941TIP3    H248239   4.470   0.276  13.600 -0.2863  0.5379  0.9211
 8942TIP3   OH248240   4.998   4.283  10.479  0.3151 -0.0741  0.0679
 8942TIP3    H148241   5.087   4.300  10.448  0.1484 -1.0070 -1.0029
 8942TIP3    H248242   4.965   4.369  10.505  1.0037  0.5304 -0.9767
 8943TIP3   OH248243   3.425   3.656   1.467  0.1816  0.0364 -0.5478
 8943TIP3    H148244   3.373   3.719   1.417  1.0441 -0.4018 -2.0548
 8943TIP3    H248245   3.413   3.573   1.422  0.1919 -0.6019  0.5817
 8944TIP3   OH248246   5.276   5.306   4.366 -0.1828 -0.0668 -0.7184
 8944TIP3    H148247   5.313   5.225   4.330  2.9536  1.4446 -1.2750
 8944TIP3    H248248   5.279   5.293   4.461 -0.8868 -1.0573 -0.8228
 8945TIP3   OH248249   1.600   4.616   2.791 -0.6452 -0.0659 -0.2476
 8945TIP3    H148250   1.528   4.679   2.789 -1.6004 -1.0772  0.6112
 8945TIP3    H248251   1.558   4.532   2.769 -0.2525 -1.1260  2.5961
 8946TIP3   OH248252   3.002   6.192   3.241 -0.4744  0.1851 -0.4445
 8946TIP3    H148253   2.977   6.111   3.196 -2.2932 -0.0023  0.8055
 8946TIP3    H248254   3.028   6.163   3.329  0.5574  0.8079 -0.5207
 8947TIP3   OH248255   5.159   2.816   6.149  0.2826 -0.2819  0.0314
 8947TIP3    H148256   5.101   2.753   6.107 -0.8856  0.6930  0.1387
 8947TIP3    H248257   5.207   2.765   6.214 -2.4116 -0.6396  1.8603
 8948TIP3   OH248258   6.532   3.677   1.320  0.0138  0.2755  0.0212
 8948TIP3    H148259   6.593   3.748   1.340  0.0886  0.0177  0.7730
 8948TIP3    H248260   6.446   3.716   1.328 -0.0355 -0.1246  2.4341
 8949TIP3   OH248261   1.485   2.229  11.840  0.3901 -0.2427  0.5422
 8949TIP3    H148262   1.487   2.309  11.892  1.4442 -1.4886  2.5936
 8949TIP3    H248263   1.427   2.170  11.889 -1.7731 -0.2485 -1.8245
 8950TIP3   OH248264   4.197   3.973  15.551 -0.4185 -0.0929  0.1070
 8950TIP3    H148265   4.197   3.943  15.642 -0.0131  1.0252  0.5024
 8950TIP3    H248266   4.286   3.956  15.520 -0.4353 -0.0875  0.0562
 8951TIP3   OH248267   3.104   1.582  13.872  0.4045  0.1121  0.7962
 8951TIP3    H148268   3.014   1.583  13.841 -0.0094 -0.6969  1.8886
 8951TIP3    H248269   3.096   1.593  13.967  1.4407 -0.0673  0.9143
 8952TIP3   OH248270   0.609   3.994   0.355  0.6059 -0.2214  0.3305
 8952TIP3    H148271   0.646   3.998   0.267  2.2624 -0.7029  0.9766
 8952TIP3    H248272   0.647   3.916   0.395 -0.8415 -0.5452  1.1854
 8953TIP3   OH248273   2.377   2.529  14.163  0.2053 -0.3030 -0.8910
 8953TIP3    H148274   2.369   2.622  14.143  0.2995 -0.0149  0.3321
 8953TIP3    H248275   2.297   2.490  14.128 -0.3939  0.4381 -0.3921
 8954TIP3   OH248276   0.988   6.442  11.864  0.0398 -0.5178 -0.2311
 8954TIP3    H148277   1.019   6.528  11.893  0.5545 -0.3917 -1.1217
 8954TIP3    H248278   0.893   6.454  11.853  0.0860 -0.1003 -0.2017
 8955TIP3   OH248279   0.115   4.027   5.623  0.3314 -0.2893 -0.3411
 8955TIP3    H148280   0.176   3.970   5.575  0.0483 -0.0015 -1.0599
 8955TIP3    H248281   0.155   4.114   5.617 -0.6672  0.1049 -1.7634
 8956TIP3   OH248282   4.693   0.539   2.344 -0.3772 -0.1328 -0.0441
 8956TIP3    H148283   4.744   0.491   2.409 -0.0223  0.8780  0.4335
 8956TIP3    H248284   4.646   0.470   2.296  0.6772 -1.0089  0.1345
 8957TIP3   OH248285   2.616   5.725   5.617  0.3511  0.8906 -0.1254
 8957TIP3    H148286   2.711   5.729   5.604  0.6372 -0.5856  1.0613
 8957TIP3    H248287   2.580   5.722   5.529  1.5757 -0.6130 -0.6375
 8958TIP3   OH248288   1.769   1.782   4.039 -0.3090  0.4037 -0.2190
 8958TIP3    H148289   1.842   1.762   3.981 -0.9666  1.2832 -1.3959
 8958TIP3    H248290   1.761   1.704   4.095  1.3890  0.2215 -0.1839
 8959TIP3   OH248291   3.599   3.121   2.712 -0.5903 -0.1145 -0.5314
 8959TIP3    H148292   3.586   3.086   2.801  0.0478 -0.3147 -0.5119
 8959TIP3    H248293   3.513   3.157   2.688 -0.7133  0.1515  0.2551
 8960TIP3   OH248294   0.157   3.300  12.200 -0.2247 -0.7507  0.0979
 8960TIP3    H148295   0.217   3.241  12.153  1.0002  1.3998 -1.2273
 8960TIP3    H248296   0.105   3.341  12.131 -1.1184 -0.3564  0.9851
 8961TIP3   OH248297   6.690   5.781  12.759 -0.8656 -0.5070 -0.6257
 8961TIP3    H148298   6.638   5.747  12.686 -0.3014 -1.1905 -0.7205
 8961TIP3    H248299   6.679   5.876  12.754  0.0898 -0.4527 -2.3027
 8962TIP3   OH248300   4.353   5.002  12.359 -0.4026 -0.0232  0.1690
 8962TIP3    H148301   4.297   5.079  12.346 -1.4456 -0.7947 -0.0616
 8962TIP3    H248302   4.407   4.999  12.280 -2.1941 -0.9880 -1.0988
 8963TIP3   OH248303   0.617   5.881   3.936  0.1294 -0.3542 -0.0795
 8963TIP3    H148304   0.711   5.898   3.940 -0.1121  1.2616 -0.3994
 8963TIP3    H248305   0.608   5.787   3.952  1.7950 -0.5422 -0.1290
 8964TIP3   OH248306   6.512   0.762   4.507 -0.0373  0.3284 -0.2623
 8964TIP3    H148307   6.442   0.827   4.514 -1.6965 -1.2869 -0.9180
 8964TIP3    H248308   6.516   0.739   4.414  0.0913 -0.9070  0.0188
 8965TIP3   OH248309   3.536   1.217   4.757  0.2954 -0.4975 -0.5654
 8965TIP3    H148310   3.530   1.133   4.712  0.6616  0.1546 -1.8901
 8965TIP3    H248311   3.620   1.253   4.731  0.2439  0.1871  0.1623
 8966TIP3   OH248312   5.084   6.252  12.556  0.1997  0.4067 -0.3348
 8966TIP3    H148313   5.042   6.298  12.628  0.5129 -0.0997  0.1797
 8966TIP3    H248314   5.174   6.239  12.585  0.6845  1.3390 -1.3514
 8967TIP3   OH248315   3.695   5.697  10.993  0.4200 -0.3562 -0.2967
 8967TIP3    H148316   3.697   5.725  11.085 -0.5879  2.1209 -0.9504
 8967TIP3    H248317   3.602   5.694  10.971  0.6329 -1.3331 -1.1479
 8968TIP3   OH248318   4.434   4.235  12.741 -0.4788  0.0016 -0.1369
 8968TIP3    H148319   4.374   4.162  12.759  0.4629 -1.6856 -3.1613
 8968TIP3    H248320   4.378   4.303  12.703 -1.2216  0.5992  1.8920
 8969TIP3   OH248321   6.567   1.009   3.015  0.5729 -0.7397 -0.2401
 8969TIP3    H148322   6.473   1.016   3.002  0.5781 -0.2156  0.0020
 8969TIP3    H248323   6.587   0.917   2.994 -0.0986 -1.0458  0.4095
 8970TIP3   OH248324   0.313   1.387  15.823  0.1320  0.0902  0.0195
 8970TIP3    H148325   0.301   1.320  15.756  1.6096  1.0854 -1.3096
 8970TIP3    H248326   0.278   1.347  15.903  0.3255 -1.9802 -0.8675
 8971TIP3   OH248327   5.268   3.690  14.790  0.1392  0.3522 -0.3759
 8971TIP3    H148328   5.202   3.757  14.774  1.6805  1.5462 -2.1900
 8971TIP3    H248329   5.277   3.645  14.706  0.8673 -0.4920  0.1403
 8972TIP3   OH248330   3.036   3.512  11.650  0.4170 -0.0032  0.2195
 8972TIP3    H148331   3.008   3.424  11.626  0.1708  0.2065 -0.2558
 8972TIP3    H248332   2.976   3.537  11.721 -1.5035  0.9537 -1.6405
 8973TIP3   OH248333   4.809   0.412   4.398 -0.3931  0.2620 -0.0498
 8973TIP3    H148334   4.834   0.327   4.434  2.2719  1.5782  1.4744
 8973TIP3    H248335   4.811   0.399   4.303  2.6444 -0.7819  0.0644
 8974TIP3   OH248336   1.979   5.576   0.087  0.9462 -0.5159 -0.1735
 8974TIP3    H148337   2.029   5.643   0.042 -0.2294  0.1352 -0.5535
 8974TIP3    H248338   1.988   5.597   0.180  1.7746 -0.7090 -0.2040
 8975TIP3   OH248339   4.931   0.827  15.699 -0.1275 -0.0885 -0.3998
 8975TIP3    H148340   4.899   0.909  15.662 -0.1215 -0.2740 -0.8168
 8975TIP3    H248341   4.984   0.788  15.630  0.1781 -0.2646 -0.0694
 8976TIP3   OH248342   3.172   1.117   1.672 -0.1927  0.5889 -0.4492
 8976TIP3    H148343   3.246   1.108   1.732 -1.5151 -0.6271  1.0928
 8976TIP3    H248344   3.112   1.177   1.716 -0.8861  0.2099 -0.8558
 8977TIP3   OH248345   5.958   6.400  10.760  0.3711 -0.5433  0.0752
 8977TIP3    H148346   5.975   6.337  10.690 -0.1424 -0.5880 -0.0081
 8977TIP3    H248347   5.870   6.379  10.791  0.1808  0.1667  0.0226
 8978TIP3   OH248348   5.743   3.345   5.635 -0.3748  0.5635 -0.3371
 8978TIP3    H148349   5.723   3.259   5.598 -1.4322  0.8476 -0.4501
 8978TIP3    H248350   5.784   3.326   5.719  0.2992 -0.0586 -0.7998
 8979TIP3   OH248351   4.725   0.932  12.954  0.4167  0.4098  0.0014
 8979TIP3    H148352   4.727   0.983  13.034 -1.4218  0.7008 -0.0878
 8979TIP3    H248353   4.672   0.856  12.975  1.2501 -0.3310 -0.5052
 8980TIP3   OH248354   4.555   1.327   1.787  0.3100 -0.5901 -0.1925
 8980TIP3    H148355   4.551   1.257   1.852  0.8067  0.1476  0.6441
 8980TIP3    H248356   4.488   1.304   1.723 -0.8339 -0.8273  1.0641
 8981TIP3   OH248357   2.440   1.239  14.819 -0.0267  0.0015  0.0949
 8981TIP3    H148358   2.390   1.306  14.866 -0.6447 -0.4483  0.0977
 8981TIP3    H248359   2.529   1.248  14.852 -0.0208  1.0732 -0.1927
 8982TIP3   OH248360   3.175   6.756  14.915  0.2165 -0.0869 -0.5657
 8982TIP3    H148361   3.225   6.768  14.835  0.4638 -1.0058 -0.5620
 8982TIP3    H248362   3.131   6.840  14.929  1.5161  0.6431 -0.7257
 8983TIP3   OH248363   2.154   2.610  14.907 -0.1654 -0.2865  0.7470
 8983TIP3    H148364   2.064   2.626  14.937 -0.3779 -1.3537  0.7330
 8983TIP3    H248365   2.164   2.667  14.831 -2.6035 -3.5435 -2.3724
 8984TIP3   OH248366   0.910   2.486  17.094  0.3510 -0.3437  0.4662
 8984TIP3    H148367   0.865   2.441  17.022  1.0796  1.0021 -0.9200
 8984TIP3    H248368   0.970   2.421  17.129  0.3297 -0.9128 -0.5026
 8985TIP3   OH248369   4.650   3.794   3.717  0.3954  0.2724 -0.2133
 8985TIP3    H148370   4.682   3.705   3.731 -1.4565 -0.6058 -1.1703
 8985TIP3    H248371   4.578   3.804   3.779 -0.1205  0.6835 -0.8667
 8986TIP3   OH248372   2.704   6.417   4.424  0.3106 -0.0050 -0.2548
 8986TIP3    H148373   2.735   6.326   4.430  0.5764  0.1070  0.1259
 8986TIP3    H248374   2.784   6.470   4.427  0.1300  0.2578 -0.0560
 8987TIP3   OH248375   6.159   2.480  12.749  0.6160 -0.4061  0.1906
 8987TIP3    H148376   6.189   2.531  12.675 -1.0747 -0.6722 -0.7349
 8987TIP3    H248377   6.169   2.538  12.824  1.9796  0.0011 -0.2811
 8988TIP3   OH248378   3.286   3.518  13.139 -0.1857  0.3094  0.1453
 8988TIP3    H148379   3.318   3.599  13.180  0.9679 -0.5301  0.9684
 8988TIP3    H248380   3.302   3.530  13.046  0.9097  0.6502  0.3582
 8989TIP3   OH248381   5.299   5.010  16.122 -0.2303 -0.3735  0.1922
 8989TIP3    H148382   5.277   4.918  16.138  1.5054 -1.2806 -2.0227
 8989TIP3    H248383   5.291   5.020  16.027  0.8227  1.4353  0.2526
 8990TIP3   OH248384   3.818   3.067   3.775 -0.0326  0.0478  0.2967
 8990TIP3    H148385   3.855   3.027   3.854  0.7860  2.1439  1.0506
 8990TIP3    H248386   3.724   3.060   3.786  0.0800 -0.2027  1.1663
 8991TIP3   OH248387   1.303   4.639   0.310 -0.6539 -0.1136  0.7864
 8991TIP3    H148388   1.290   4.545   0.303  0.4296 -0.1950 -0.7544
 8991TIP3    H248389   1.276   4.661   0.399 -0.4651 -1.9472  1.3367
 8992TIP3   OH248390   3.231   3.702  16.676  0.6167 -0.5182 -0.0236
 8992TIP3    H148391   3.140   3.698  16.644  0.2737 -3.0140  0.9963
 8992TIP3    H248392   3.281   3.655  16.609  1.4398  1.8273 -1.1621
 8993TIP3   OH248393   0.604   5.206   5.632 -0.6074 -0.3104 -0.2226
 8993TIP3    H148394   0.685   5.222   5.681 -0.0780 -0.2244 -1.1186
 8993TIP3    H248395   0.629   5.142   5.566 -1.2081 -0.0612 -0.6913
 8994TIP3   OH248396   1.440   0.093  12.927 -0.1906 -0.7094 -0.1201
 8994TIP3    H148397   1.352   0.127  12.916  0.7259  1.9728  0.1647
 8994TIP3    H248398   1.487   0.119  12.848  0.7287 -0.7381  0.3907
 8995TIP3   OH248399   2.783   3.686  11.258  0.1009  0.3420 -0.1267
 8995TIP3    H148400   2.782   3.727  11.172  1.8615  0.6843 -0.0118
 8995TIP3    H248401   2.727   3.742  11.312  1.3924  1.8712 -0.3059
 8996TIP3   OH248402   3.030   2.557  12.593 -0.2322 -0.2370 -0.8615
 8996TIP3    H148403   3.014   2.542  12.500 -0.5563  0.6314 -0.9466
 8996TIP3    H248404   3.091   2.487  12.617  0.4346 -0.0409 -1.8937
 8997TIP3   OH248405   2.115   4.462  13.797 -0.4004 -0.2176  0.1959
 8997TIP3    H148406   2.076   4.540  13.757  1.3513  0.1372 -0.9334
 8997TIP3    H248407   2.133   4.404  13.723 -1.4523 -1.6221  0.9955
 8998TIP3   OH248408   4.697   0.171  15.685 -0.3512  0.4621  0.3147
 8998TIP3    H148409   4.668   0.230  15.615 -1.9371 -1.1854 -0.5150
 8998TIP3    H248410   4.647   0.198  15.762  1.8034  2.6434  1.0864
 8999TIP3   OH248411   3.646   3.952   2.290 -0.1948  0.1961  0.0149
 8999TIP3    H148412   3.616   3.882   2.232  3.0101 -1.6776  0.4054
 8999TIP3    H248413   3.630   3.918   2.378  0.3083  0.4377  0.2033
 9000TIP3   OH248414   6.105   6.701   1.760  0.3493  0.5748  0.3482
 9000TIP3    H148415   6.074   6.765   1.696 -0.3923  0.8274  0.9441
 9000TIP3    H248416   6.052   6.717   1.838 -0.0230 -0.9080  0.4445
 9001TIP3   OH248417   6.630   5.376  12.384  0.4727  0.2377  0.4955
 9001TIP3    H148418   6.601   5.456  12.341 -0.7491 -0.3968  0.0866
 9001TIP3    H248419   6.555   5.317  12.378  0.6973 -0.3159  2.3812
 9002TIP3   OH248420   4.144   3.789  16.798 -0.2454 -0.5093  0.1118
 9002TIP3    H148421   4.175   3.835  16.876  0.6189  0.5621 -0.8327
 9002TIP3    H248422   4.212   3.722  16.783 -0.6860 -1.0749  0.5589
 9003TIP3   OH248423   0.143   4.944   4.085 -0.2634 -0.3878  0.6614
 9003TIP3    H148424   0.092   5.021   4.112 -0.2156 -0.0178 -0.2890
 9003TIP3    H248425   0.104   4.917   4.002  0.2632 -0.8824  0.5745
 9004TIP3   OH248426   2.170   1.385  14.971 -0.4827  0.5828 -0.8654
 9004TIP3    H148427   2.144   1.432  15.050 -0.8279  0.3159 -0.8161
 9004TIP3    H248428   2.235   1.441  14.930 -1.9585  1.8258 -1.6100
 9005TIP3   OH248429   1.955   5.710  11.759 -0.2045 -0.0562 -0.1649
 9005TIP3    H148430   1.870   5.749  11.741 -0.0804  0.1056 -0.4059
 9005TIP3    H248431   1.943   5.664  11.842 -0.4630  0.1603 -0.0792
 9006TIP3   OH248432   0.702   2.290   2.929  0.1544 -0.0127 -0.3817
 9006TIP3    H148433   0.781   2.342   2.914  0.7281 -0.8440 -0.3078
 9006TIP3    H248434   0.681   2.253   2.844  0.2510 -0.3513 -0.2599
 9007TIP3   OH248435   1.596   4.191   3.517  0.2746  0.3930  0.3976
 9007TIP3    H148436   1.631   4.241   3.442  1.1678  0.2706  0.7196
 9007TIP3    H248437   1.544   4.122   3.477  0.8725  0.2316 -0.1242
 9008TIP3   OH248438   5.567   2.924  13.021 -0.4480 -0.1483 -0.3293
 9008TIP3    H148439   5.529   2.852  12.970  0.6631 -0.0025 -1.4324
 9008TIP3    H248440   5.657   2.896  13.037 -0.8231 -0.2799  1.8019
 9009TIP3   OH248441   0.735   1.881   2.414  0.0005 -0.0487  0.4082
 9009TIP3    H148442   0.736   1.913   2.504 -0.7820  0.1764  0.3420
 9009TIP3    H248443   0.825   1.850   2.398  0.3916  0.8001  0.9369
 9010TIP3   OH248444   0.286   0.914  14.409  0.2295  0.2632 -0.0235
 9010TIP3    H148445   0.192   0.900  14.404  0.2454  0.0585  0.2520
 9010TIP3    H248446   0.324   0.843  14.358  0.1460  1.7732 -2.3039
 9011TIP3   OH248447   3.540   1.198  15.051 -0.2503 -0.1642 -0.5796
 9011TIP3    H148448   3.519   1.106  15.032 -1.3104 -0.8209  3.0165
 9011TIP3    H248449   3.456   1.237  15.075  0.2649  1.6642 -1.5745
 9012TIP3   OH248450   6.452   0.412  12.333  0.1050 -0.5172 -0.0536
 9012TIP3    H148451   6.430   0.503  12.315 -0.5055 -0.4943  0.7691
 9012TIP3    H248452   6.533   0.397  12.285  0.3127  0.5097 -0.0396
 9013TIP3   OH248453   2.035   4.983  13.240 -0.0547 -0.3454 -0.1647
 9013TIP3    H148454   1.969   4.913  13.240 -1.0001  0.5225 -0.1336
 9013TIP3    H248455   2.110   4.945  13.284 -0.2972 -1.5804 -0.7706
 9014TIP3   OH248456   4.588   5.955   0.701 -0.0393  0.3500  0.0503
 9014TIP3    H148457   4.631   6.017   0.760 -1.0831  0.9727  0.2001
 9014TIP3    H248458   4.507   5.932   0.747 -0.9392  0.9525 -1.1791
 9015TIP3   OH248459   5.420   6.470   2.109 -0.1212 -0.0607 -0.2806
 9015TIP3    H148460   5.406   6.428   2.195  0.5914 -0.3588 -0.3012
 9015TIP3    H248461   5.505   6.437   2.081 -0.0540  0.5585 -0.8072
 9016TIP3   OH248462   1.347   2.013  14.950  0.4433  0.6613 -0.5047
 9016TIP3    H148463   1.335   1.966  15.032  1.8553  0.4614 -0.3836
 9016TIP3    H248464   1.339   1.946  14.882  0.9415  0.5062 -0.4183
 9017TIP3   OH248465   5.539   2.415  10.887  0.0489  0.0931 -0.0943
 9017TIP3    H148466   5.617   2.389  10.838  0.6703 -0.1136  0.9708
 9017TIP3    H248467   5.481   2.452  10.821  0.8564 -0.1672 -0.9829
 9018TIP3   OH248468   3.411   4.623  11.549 -0.3687 -0.1279  0.1897
 9018TIP3    H148469   3.392   4.650  11.460 -2.9438 -0.5287  0.5388
 9018TIP3    H248470   3.459   4.540  11.539  1.6365  1.0849 -0.7821
 9019TIP3   OH248471   3.991   1.569  14.705  0.4302 -0.4478 -0.3405
 9019TIP3    H148472   3.945   1.486  14.707 -2.2466  0.8874 -1.5893
 9019TIP3    H248473   4.039   1.568  14.622 -0.2513 -0.4641 -0.7438
 9020TIP3   OH248474   0.679   0.356  13.255  0.1975 -0.2998  0.0324
 9020TIP3    H148475   0.735   0.380  13.182  0.3729 -0.9002 -0.0414
 9020TIP3    H248476   0.675   0.434  13.310  1.2915 -0.3088  0.1483
 9021TIP3   OH248477   1.783   1.797  12.860 -0.3580 -0.3369 -0.2172
 9021TIP3    H148478   1.819   1.882  12.834  1.9406 -1.1741  0.0040
 9021TIP3    H248479   1.775   1.803  12.955 -0.7346 -0.1726 -0.2593
 9022TIP3   OH248480   2.134   3.502  17.109  0.0528 -0.1758 -0.1501
 9022TIP3    H148481   2.172   3.589  17.101 -0.1966  0.0059  0.6084
 9022TIP3    H248482   2.189   3.458  17.174 -0.4008 -0.2567  0.1862
 9023TIP3   OH248483   5.616   4.315   3.862  0.4437 -0.4234  0.4371
 9023TIP3    H148484   5.542   4.261   3.890  0.7793 -1.4317 -0.5493
 9023TIP3    H248485   5.692   4.259   3.874  0.6764 -0.6819 -1.7739
 9024TIP3   OH248486   0.268   5.247  10.616 -0.8904 -0.1186  0.0462
 9024TIP3    H148487   0.216   5.280  10.690  0.0696 -2.3427  1.8744
 9024TIP3    H248488   0.358   5.273  10.636 -0.6934 -0.2230 -0.6804
 9025TIP3   OH248489   2.512   4.831  15.607  0.1734  0.1145 -0.0907
 9025TIP3    H148490   2.543   4.921  15.618 -1.7192  0.7964  0.0816
 9025TIP3    H248491   2.470   4.810  15.691  0.1769 -0.7526 -0.2982
 9026TIP3   OH248492   5.321   1.761  11.631  0.0833 -0.3495  0.5435
 9026TIP3    H148493   5.370   1.750  11.550  0.4969  0.9831  0.5863
 9026TIP3    H248494   5.376   1.720  11.698 -0.6800 -2.2640  0.0586
 9027TIP3   OH248495   1.878   0.556  12.898 -0.2033  0.0039 -0.5434
 9027TIP3    H148496   1.787   0.529  12.915 -0.5214 -0.0339 -2.1309
 9027TIP3    H248497   1.920   0.555  12.984 -1.8145  0.4141  0.2865
 9028TIP3   OH248498   5.200   3.643   4.067  0.1265 -0.4918  0.4192
 9028TIP3    H148499   5.260   3.634   4.142  0.0971  1.1402  0.6747
 9028TIP3    H248500   5.227   3.724   4.025 -0.6621 -0.7553 -0.6383
 9029TIP3   OH248501   2.642   4.188   5.044  0.1806 -0.5148  0.3911
 9029TIP3    H148502   2.714   4.209   5.103 -1.4209 -0.1648  2.3255
 9029TIP3    H248503   2.631   4.267   4.990  0.4899 -0.1240  0.8911
 9030TIP3   OH248504   3.229   2.790  13.238  0.0368  0.0840 -0.0126
 9030TIP3    H148505   3.285   2.752  13.171 -0.9879 -2.0564  0.2785
 9030TIP3    H248506   3.278   2.776  13.320 -0.2033 -0.3249  0.0608
 9031TIP3   OH248507   1.385   5.502   0.877  0.0079  0.3120  0.5723
 9031TIP3    H148508   1.447   5.462   0.816 -1.0993 -0.9982  0.2431
 9031TIP3    H248509   1.313   5.532   0.821 -0.1847  0.7687  1.0547
 9032TIP3   OH248510   5.955   2.616  16.193 -0.3055  0.1909 -1.1357
 9032TIP3    H148511   6.044   2.598  16.222 -1.8704 -2.3987  3.0477
 9032TIP3    H248512   5.915   2.662  16.267 -2.3571  1.9223 -3.1737
 9033TIP3   OH248513   5.745   3.078   5.499 -0.3890 -0.3231 -0.4575
 9033TIP3    H148514   5.729   3.005   5.439  1.1353 -1.1486  0.0834
 9033TIP3    H248515   5.840   3.087   5.500 -0.3384 -0.5037  1.9857
 9034TIP3   OH248516   5.640   4.144   4.945  0.4705  0.2060 -0.6012
 9034TIP3    H148517   5.582   4.086   4.895  0.7362 -1.7092  1.1739
 9034TIP3    H248518   5.610   4.136   5.035  0.7134  2.7117 -0.2168
 9035TIP3   OH248519   4.086   3.214   3.859  0.3445  0.2230 -0.6635
 9035TIP3    H148520   4.022   3.144   3.870 -1.0985  1.6232  0.1581
 9035TIP3    H248521   4.036   3.288   3.825  1.2867  1.6823  0.9520
 9036TIP3   OH248522   0.206   0.199  11.362 -0.3438 -0.7981  0.2464
 9036TIP3    H148523   0.134   0.170  11.305  0.8267 -2.9239 -0.2629
 9036TIP3    H248524   0.285   0.182  11.311  0.5776  2.4631  0.3642
 9037TIP3   OH248525   1.464   3.974   1.097  0.2430 -0.2507  0.7624
 9037TIP3    H148526   1.489   3.885   1.121 -0.0534 -0.6038 -0.2083
 9037TIP3    H248527   1.386   3.992   1.149 -0.5972 -1.1355 -0.1412
 9038TIP3   OH248528   6.612   6.082   5.613 -0.0099 -0.9301 -0.1071
 9038TIP3    H148529   6.666   6.095   5.691 -2.3283 -2.1289  1.8430
 9038TIP3    H248530   6.608   6.169   5.572 -1.2513  0.5718  2.9023
 9039TIP3   OH248531   2.331   1.976  15.395  0.4565 -0.0740 -0.0255
 9039TIP3    H148532   2.380   1.988  15.313  0.0123  1.5910 -0.0724
 9039TIP3    H248533   2.382   2.024  15.461 -1.0662  1.7440 -0.0878
 9040TIP3   OH248534   6.666   0.667   5.335  0.4005 -0.0219  0.4827
 9040TIP3    H148535   6.572   0.646   5.338  0.3331  0.3389  1.2031
 9040TIP3    H248536   6.695   0.655   5.426  1.3335 -1.3935  0.0279
 9041TIP3   OH248537   2.584   4.508   4.442 -0.7872  0.3019 -0.2068
 9041TIP3    H148538   2.635   4.588   4.438  0.2649 -0.2648  1.0979
 9041TIP3    H248539   2.556   4.501   4.533 -0.1139 -1.2346 -0.0842
 9042TIP3   OH248540   1.661   3.791   2.484  0.0537  0.4030  0.4758
 9042TIP3    H148541   1.601   3.798   2.410 -0.4551 -1.6699  0.6180
 9042TIP3    H248542   1.701   3.878   2.492 -1.2393  1.1803 -1.0499
 9043TIP3   OH248543   4.955   5.117   5.232 -0.4163  0.3396  0.9180
 9043TIP3    H148544   4.947   5.190   5.171 -1.0033 -0.1249  0.4336
 9043TIP3    H248545   5.015   5.150   5.300  1.3585  0.3767 -0.5934
 9044TIP3   OH248546   0.144   0.174   3.633  0.4195 -0.1501  0.1820
 9044TIP3    H148547   0.189   0.188   3.716  0.2180 -0.9275  0.4303
 9044TIP3    H248548   0.071   0.236   3.635  1.8696  1.6535 -0.5579
 9045TIP3   OH248549   3.090   2.841   1.281 -0.2305  0.1546  0.2889
 9045TIP3    H148550   3.010   2.844   1.229 -1.0377  1.0273  1.5384
 9045TIP3    H248551   3.103   2.931   1.311 -1.3882 -0.7114  3.8809
 9046TIP3   OH248552   2.704   1.738  13.600 -0.5290  0.1006  0.2269
 9046TIP3    H148553   2.704   1.726  13.505  0.0594  2.0276 -0.0628
 9046TIP3    H248554   2.696   1.833  13.612 -0.6803 -0.1161  2.1088
 9047TIP3   OH248555   6.069   3.782   4.733 -0.3455  0.3760 -0.2215
 9047TIP3    H148556   6.067   3.878   4.730 -0.5674  0.3661 -0.4741
 9047TIP3    H248557   6.003   3.758   4.797  2.0792  0.4840  2.5401
 9048TIP3   OH248558   5.081   5.131  11.850 -0.4683 -0.2710 -0.2266
 9048TIP3    H148559   5.046   5.152  11.763 -1.8240  0.6708  0.5051
 9048TIP3    H248560   5.082   5.215  11.896 -0.2018 -0.8276  0.8154
 9049TIP3   OH248561   1.407   3.223   5.915  0.4112 -0.0446 -0.1084
 9049TIP3    H148562   1.355   3.272   5.851  0.7469 -0.0730 -0.4067
 9049TIP3    H248563   1.457   3.161   5.862  0.9013  0.1204  0.1525
 9050TIP3   OH248564   4.842   3.365  14.810  0.1085  0.6011  0.1951
 9050TIP3    H148565   4.841   3.432  14.743 -0.2006  0.8717  0.4672
 9050TIP3    H248566   4.904   3.397  14.876  0.5974  0.2212 -0.0750
 9051TIP3   OH248567   4.271   4.898   1.528  0.2046 -0.2237  0.1006
 9051TIP3    H148568   4.306   4.976   1.484 -0.0634  0.1800  0.5936
 9051TIP3    H248569   4.349   4.849   1.554  0.4888  1.1287  2.0115
 9052TIP3   OH248570   0.284   3.636   3.775 -0.6896 -0.0405 -0.4424
 9052TIP3    H148571   0.320   3.566   3.721  0.7823 -0.8504  1.4648
 9052TIP3    H248572   0.333   3.714   3.751  1.4564 -0.8283  1.0836
 9053TIP3   OH248573   3.074   2.822   5.500 -0.0248 -0.0277  0.3650
 9053TIP3    H148574   3.048   2.878   5.573  1.2160  0.1024  0.7328
 9053TIP3    H248575   3.065   2.877   5.422  0.5725  0.4895  0.6546
 9054TIP3   OH248576   4.003   5.259   0.755  0.6602  0.6887 -0.2740
 9054TIP3    H148577   4.066   5.203   0.709 -1.9729 -0.1697 -3.1634
 9054TIP3    H248578   3.988   5.332   0.695  0.2083  1.8050  1.1605
 9055TIP3   OH248579   0.982   5.629   5.031 -0.7049 -0.5022 -1.0438
 9055TIP3    H148580   0.991   5.564   4.961  3.6212 -0.5361 -0.7173
 9055TIP3    H248581   1.016   5.585   5.108 -1.0017  1.0451  0.0090
 9056TIP3   OH248582   3.449   2.599   5.370  0.0657  0.3008 -0.3662
 9056TIP3    H148583   3.399   2.525   5.335  0.8118 -0.1514 -0.4837
 9056TIP3    H248584   3.529   2.601   5.317  0.2234  0.9582 -0.1132
 9057TIP3   OH248585   1.216   4.487   4.716 -0.4831 -0.1535  0.4192
 9057TIP3    H148586   1.198   4.456   4.804 -2.1307 -0.3856  0.0401
 9057TIP3    H248587   1.194   4.413   4.659 -0.5980  0.3810 -0.2490
 9058TIP3   OH248588   0.671   2.615  16.722  0.3558  0.1421 -0.0735
 9058TIP3    H148589   0.736   2.684  16.734 -0.3003  0.7658 -0.0899
 9058TIP3    H248590   0.588   2.656  16.745 -0.0823 -0.5462 -0.4180
 9059TIP3   OH248591   1.769   3.520  14.809  0.1623  0.0007  0.2386
 9059TIP3    H148592   1.679   3.540  14.836  0.3987  0.5148  0.6767
 9059TIP3    H248593   1.769   3.528  14.714  0.0871  1.4871  0.3436
 9060TIP3   OH248594   4.779   1.643   2.850 -0.6631 -0.1918  0.1221
 9060TIP3    H148595   4.785   1.560   2.802  1.0768  0.7216 -1.3685
 9060TIP3    H248596   4.771   1.709   2.782  2.0207  1.1806  0.9817
 9061TIP3   OH248597   2.690   6.641  17.275 -0.3214 -0.8577  0.0499
 9061TIP3    H148598   2.597   6.621  17.268 -0.1720 -1.3225 -0.7898
 9061TIP3    H248599   2.730   6.561  17.307 -0.0759 -1.0374 -0.6784
 9062TIP3   OH248600   3.797   2.948  13.441  0.4158  0.1253 -0.0887
 9062TIP3    H148601   3.831   2.921  13.356  0.5420 -0.7052  0.2176
 9062TIP3    H248602   3.709   2.911  13.444  0.3729  0.2412  0.0988
 9063TIP3   OH248603   0.854   0.222  14.763 -0.5268  0.2208  0.1940
 9063TIP3    H148604   0.869   0.155  14.697 -2.0354  0.7831 -0.7783
 9063TIP3    H248605   0.875   0.179  14.846 -1.8963 -1.6322 -0.3547
 9064TIP3   OH248606   6.646   2.670   5.728 -0.8217 -0.2234 -0.0375
 9064TIP3    H148607   6.632   2.593   5.782 -1.0268  1.1465  1.9759
 9064TIP3    H248608   6.739   2.689   5.736 -0.9841  0.4091  0.4941
 9065TIP3   OH248609   6.650   3.300   4.144  0.1561  0.9316  0.0627
 9065TIP3    H148610   6.604   3.380   4.168  2.2469  2.3969 -0.5229
 9065TIP3    H248611   6.680   3.315   4.054  1.3126 -0.1404  0.2421
 9066TIP3   OH248612   0.323   1.384   5.822 -0.5300 -0.1882  0.0484
 9066TIP3    H148613   0.273   1.332   5.884 -0.1344 -1.7021 -0.8475
 9066TIP3    H248614   0.397   1.418   5.873 -0.4927 -0.9691  0.5350
 9067TIP3   OH248615   3.042   5.347   1.149  0.4425  0.1841 -0.2839
 9067TIP3    H148616   3.087   5.326   1.231  0.6592  1.3835 -0.0724
 9067TIP3    H248617   3.112   5.360   1.085  0.3637  1.1138 -0.1898
 9068TIP3   OH248618   6.404   2.778   0.536  0.6348  0.0797 -0.0873
 9068TIP3    H148619   6.471   2.727   0.492  0.1152 -1.1185  0.4654
 9068TIP3    H248620   6.321   2.739   0.508  0.2714 -0.2522  1.3562
 9069TIP3   OH248621   5.802   2.363  10.782  0.0101  0.3365  0.0055
 9069TIP3    H148622   5.898   2.363  10.774  0.1100  0.5891  1.0304
 9069TIP3    H248623   5.771   2.397  10.698  0.8486  0.8483 -0.1166
 9070TIP3   OH248624   0.919   5.295   4.007 -0.2056 -0.3851 -0.1463
 9070TIP3    H148625   0.982   5.309   4.078 -0.2382 -0.1913 -0.1546
 9070TIP3    H248626   0.834   5.292   4.049 -0.5870  2.8706 -0.4502
 9071TIP3   OH248627   2.952   1.813  15.107 -0.1794 -0.8320 -0.2851
 9071TIP3    H148628   2.888   1.789  15.040  0.0254  0.1491 -0.8591
 9071TIP3    H248629   2.979   1.902  15.083  1.3238 -1.1749 -0.0015
 9072TIP3   OH248630   3.625   0.298   4.108  0.4631  0.1805  0.0127
 9072TIP3    H148631   3.637   0.218   4.158  1.3784  0.2124 -0.1420
 9072TIP3    H248632   3.638   0.272   4.017  0.1461  0.3869 -0.0957
 9073TIP3   OH248633   6.044   1.195   5.819 -0.4537  0.0667  0.8980
 9073TIP3    H148634   6.128   1.231   5.847 -0.0761 -0.6411  0.6902
 9073TIP3    H248635   5.980   1.236   5.878 -0.0023  0.8283  0.8712
 9074TIP3   OH248636   4.991   3.030   5.931 -0.0616 -0.8809 -0.0392
 9074TIP3    H148637   4.927   3.102   5.928 -0.3388 -0.9854  2.1797
 9074TIP3    H248638   5.066   3.068   5.976  0.5420 -1.4613 -0.5449
 9075TIP3   OH248639   4.155   1.532   5.070 -0.2953 -0.6403 -0.0774
 9075TIP3    H148640   4.061   1.517   5.071 -0.9002  2.5653  0.5106
 9075TIP3    H248641   4.192   1.461   5.123 -2.4759 -1.2668  0.6768
 9076TIP3   OH248642   5.410   3.259   4.125  0.4138  0.3429 -0.1897
 9076TIP3    H148643   5.326   3.226   4.158  0.8041 -0.4306  0.0586
 9076TIP3    H248644   5.447   3.309   4.198  0.6957 -0.2985  0.1145
 9077TIP3   OH248645   1.358   1.463  14.765  0.5882 -0.1036  0.0053
 9077TIP3    H148646   1.303   1.452  14.842  2.0535 -1.4004  0.9173
 9077TIP3    H248647   1.433   1.407  14.780  0.9173 -0.4330 -2.4079
 9078TIP3   OH248648   5.871   6.219  13.744 -0.4775 -0.9547  0.3232
 9078TIP3    H148649   5.955   6.205  13.700 -1.3262 -0.8937 -1.4085
 9078TIP3    H248650   5.849   6.311  13.726 -0.4917 -0.6891  1.5780
 9079TIP3   OH248651   1.961   2.244  13.767 -0.4487  0.5757  0.3177
 9079TIP3    H148652   1.972   2.228  13.860  1.5327 -0.2719  0.0005
 9079TIP3    H248653   1.936   2.336  13.761  1.3891  1.2246  1.6216
 9080TIP3   OH248654   6.535   3.458  12.986 -0.1543  0.2226 -0.3291
 9080TIP3    H148655   6.511   3.540  12.943  0.1013  1.3049  1.4950
 9080TIP3    H248656   6.493   3.463  13.072 -1.0287 -2.0689 -0.5534
 9081TIP3   OH248657   3.847   0.313   1.410  0.2040  0.3298  0.6056
 9081TIP3    H148658   3.840   0.404   1.380  1.2188  0.5414  0.9876
 9081TIP3    H248659   3.912   0.274   1.353 -1.1671 -0.5525 -0.4209
 9082TIP3   OH248660   0.511   0.507   0.256 -0.2375  0.5759  0.2843
 9082TIP3    H148661   0.424   0.516   0.296  0.4354  0.0713  1.9335
 9082TIP3    H248662   0.541   0.420   0.283  0.5139  0.4719 -0.8359
 9083TIP3   OH248663   4.706   3.567   2.074  0.5576 -0.2069  0.0414
 9083TIP3    H148664   4.689   3.475   2.093  1.7379 -0.7439 -1.2926
 9083TIP3    H248665   4.802   3.576   2.082  0.4646  0.9013  0.1252
 9084TIP3   OH248666   4.603   0.498   4.979 -0.0322  0.4365  0.2397
 9084TIP3    H148667   4.626   0.579   5.025  0.4560  0.1689  0.4749
 9084TIP3    H248668   4.683   0.445   4.984  0.0422  0.4124 -0.9328
 9085TIP3   OH248669   3.883   2.386  15.537  0.0362  0.4915 -0.1010
 9085TIP3    H148670   3.853   2.401  15.447 -1.2534  1.9000  0.5120
 9085TIP3    H248671   3.865   2.294  15.554 -1.2130  0.6005 -0.7678
 9086TIP3   OH248672   4.687   5.983   2.809  0.4772 -0.0205  0.2271
 9086TIP3    H148673   4.634   5.914   2.770  0.9907  0.0908 -0.6811
 9086TIP3    H248674   4.665   6.061   2.759  0.3954  0.3419  0.8194
 9087TIP3   OH248675   1.915   3.961   0.347 -0.3236  0.4056 -0.2224
 9087TIP3    H148676   1.836   3.984   0.395  0.3190 -0.9222  1.5825
 9087TIP3    H248677   1.889   3.966   0.255 -2.5074  0.0182  0.3094
 9088TIP3   OH248678   3.266   5.702  16.473  0.1689 -0.0707  0.5576
 9088TIP3    H148679   3.235   5.639  16.538  0.1260  1.7128  2.3637
 9088TIP3    H248680   3.196   5.767  16.467  0.3349 -0.0059 -1.0189
 9089TIP3   OH248681   4.959   5.041  15.213 -0.1625  1.0698 -0.1680
 9089TIP3    H148682   4.918   5.126  15.229 -0.4891  0.9983 -0.6118
 9089TIP3    H248683   5.024   5.058  15.145  1.7978  1.5371  1.6945
 9090TIP3   OH248684   1.459   1.872  14.677 -0.0180 -0.3435  0.2142
 9090TIP3    H148685   1.502   1.790  14.653 -0.2134 -0.5804  0.6703
 9090TIP3    H248686   1.454   1.921  14.595 -0.2486 -0.9424 -0.1364
 9091TIP3   OH248687   0.866   5.949   3.529 -0.2111 -0.2563 -0.1167
 9091TIP3    H148688   0.792   5.926   3.585 -0.6331  0.7275 -0.2554
 9091TIP3    H248689   0.905   5.864   3.505 -1.0100 -0.7595  0.3231
 9092TIP3   OH248690   4.135   3.971   4.144 -0.0919  0.0250 -0.2000
 9092TIP3    H148691   4.046   3.990   4.173  0.3126  1.5055  0.1635
 9092TIP3    H248692   4.166   4.053   4.107  1.4316 -0.2007  0.4913
 9093TIP3   OH248693   0.996   3.853   3.321  0.2898 -0.1900 -0.1616
 9093TIP3    H148694   0.929   3.913   3.290 -0.7789  1.6153  4.6483
 9093TIP3    H248695   0.957   3.766   3.314 -0.8296  0.3842 -1.2439
 9094TIP3   OH248696   5.187   3.554  15.682 -0.0162 -0.4697  0.1947
 9094TIP3    H148697   5.199   3.543  15.587  1.4570  1.9014  0.0178
 9094TIP3    H248698   5.277   3.561  15.716 -0.5078 -1.7870  1.8703
 9095TIP3   OH248699   6.194   3.184  14.226 -0.2691  0.7916 -0.1918
 9095TIP3    H148700   6.261   3.150  14.285 -1.3716  2.1390  1.9535
 9095TIP3    H248701   6.126   3.117  14.226 -0.5524  1.0690  0.6214
 9096TIP3   OH248702   0.086   4.822  11.692 -0.3318 -0.0244 -0.5472
 9096TIP3    H148703  -0.003   4.854  11.700  0.1249  1.1849 -0.0127
 9096TIP3    H248704   0.077   4.728  11.673 -1.6950 -0.0104 -0.0439
 9097TIP3   OH248705   4.570   1.342  14.715 -0.0883 -0.7574  0.2172
 9097TIP3    H148706   4.589   1.249  14.728 -0.1564 -1.1041 -1.9226
 9097TIP3    H248707   4.475   1.346  14.703 -0.0743 -0.4239  0.2070
 9098TIP3   OH248708   6.409   0.605   1.740 -0.0543 -0.8676 -0.1428
 9098TIP3    H148709   6.376   0.695   1.730  2.2282 -0.1579 -2.9016
 9098TIP3    H248710   6.375   0.558   1.664  2.3132 -1.0175 -1.1951
 9099TIP3   OH248711   4.404   2.778   1.240 -0.5367  0.0173  0.0525
 9099TIP3    H148712   4.460   2.805   1.168 -1.9892 -0.3726 -1.2931
 9099TIP3    H248713   4.408   2.682   1.239 -1.7829 -0.0616 -0.5981
 9100TIP3   OH248714   3.431   5.931  14.484 -0.0072  0.1581  0.2764
 9100TIP3    H148715   3.405   5.841  14.465  2.0300 -0.3828 -0.1856
 9100TIP3    H248716   3.403   5.981  14.407 -0.1659 -0.2658  0.0558
 9101TIP3   OH248717   5.360   3.235  11.752 -0.5989  0.2606  0.0107
 9101TIP3    H148718   5.363   3.288  11.832 -0.4596  0.0229  0.1636
 9101TIP3    H248719   5.333   3.297  11.684 -2.5839  0.0644  0.5667
 9102TIP3   OH248720   3.956   0.911  16.122  0.7136 -0.1986 -0.5512
 9102TIP3    H148721   3.995   0.847  16.182  1.4020 -0.4030 -1.1977
 9102TIP3    H248722   3.931   0.985  16.178 -0.1616 -1.0520  0.2222
 9103TIP3   OH248723   0.549   5.457  14.257  0.0134  0.1477 -0.0759
 9103TIP3    H148724   0.512   5.385  14.206  0.2438  0.2231 -0.3499
 9103TIP3    H248725   0.605   5.504  14.196  0.2603  0.2652  0.2355
 9104TIP3   OH248726   3.924   4.632  13.787 -0.0390  0.7061  0.2599
 9104TIP3    H148727   3.913   4.725  13.767 -0.1566  0.3924 -1.2996
 9104TIP3    H248728   3.840   4.593  13.762  0.2144  0.1006  0.3468
 9105TIP3   OH248729   4.978   6.015   1.644  0.4655  0.1258  0.2154
 9105TIP3    H148730   4.946   5.938   1.598  0.9847  0.0287  0.0133
 9105TIP3    H248731   4.941   6.089   1.595  0.6358  0.0181 -0.0771
 9106TIP3   OH248732   2.770   0.909  11.216 -0.1517 -0.4744  0.5415
 9106TIP3    H148733   2.698   0.951  11.168  0.9796  0.1507 -0.6878
 9106TIP3    H248734   2.744   0.913  11.308 -1.3408  0.4214  0.1814
 9107TIP3   OH248735   6.163   4.198   5.224 -0.2425  0.1194 -0.2257
 9107TIP3    H148736   6.165   4.241   5.310  0.9170 -0.3713  0.0098
 9107TIP3    H248737   6.191   4.109   5.242 -1.8581 -0.5486 -0.8405
 9108TIP3   OH248738   3.566   3.370  12.230  0.8555  0.3230 -0.1636
 9108TIP3    H148739   3.616   3.437  12.183 -0.0148  0.7348 -0.5358
 9108TIP3    H248740   3.557   3.404  12.319  2.7209 -0.5720  0.4080
 9109TIP3   OH248741   0.111   0.083   6.239 -0.3443 -0.4768 -0.6944
 9109TIP3    H148742   0.123   0.143   6.165 -0.6902 -0.1770 -0.5076
 9109TIP3    H248743   0.020   0.093   6.264  0.2280  0.8617  1.0129
 9110TIP3   OH248744   4.489   6.354  16.635  0.4608 -0.0145  0.5486
 9110TIP3    H148745   4.419   6.327  16.576  0.2097 -1.5027  1.4715
 9110TIP3    H248746   4.543   6.276  16.646 -0.3244 -0.2664  3.3833
 9111TIP3   OH248747   2.741   0.591   0.521 -0.0227  0.3820  0.0820
 9111TIP3    H148748   2.777   0.679   0.534  2.4878 -0.7566  1.5860
 9111TIP3    H248749   2.648   0.605   0.504  0.6199  3.4004 -1.5066
 9112TIP3   OH248750   4.750   2.546  13.186 -0.2308  0.0699 -0.0106
 9112TIP3    H148751   4.694   2.529  13.261  0.1858 -0.4803  0.1789
 9112TIP3    H248752   4.725   2.479  13.122  1.5843 -1.4759  0.8288
 9113TIP3   OH248753   0.358   2.653   5.088 -0.3338 -0.4169 -0.2409
 9113TIP3    H148754   0.265   2.670   5.098 -0.6226 -1.1809 -1.3449
 9113TIP3    H248755   0.389   2.635   5.177 -1.8276 -2.8649 -0.1199
 9114TIP3   OH248756   1.471   3.112  15.475 -0.5999 -0.0703  0.3190
 9114TIP3    H148757   1.563   3.086  15.479 -0.8937 -1.0321  1.4006
 9114TIP3    H248758   1.469   3.200  15.511 -0.0191  0.2554 -0.3992
 9115TIP3   OH248759   2.225   5.295   3.045  0.4559 -0.0195  0.8743
 9115TIP3    H148760   2.237   5.211   3.002  1.6730  0.1141  0.9045
 9115TIP3    H248761   2.282   5.291   3.122 -1.9463 -0.4043  2.7567
 9116TIP3   OH248762   1.071   1.545   1.403  0.3198  0.3122  0.3698
 9116TIP3    H148763   1.023   1.465   1.386 -1.8650  1.6877 -0.3541
 9116TIP3    H248764   1.028   1.584   1.479  0.9542  1.0994  0.3470
 9117TIP3   OH248765   0.940   4.537   5.637 -0.7305  0.5394  0.8196
 9117TIP3    H148766   0.935   4.484   5.557  1.7025  0.8377  0.3873
 9117TIP3    H248767   1.020   4.507   5.681 -0.2137  2.6072  1.4246
 9118TIP3   OH248768   3.192   5.222  16.670 -0.1147  0.2365 -0.8702
 9118TIP3    H148769   3.146   5.139  16.663  1.3394 -0.5645 -1.5565
 9118TIP3    H248770   3.267   5.204  16.726  0.1672  1.1076 -0.9410
 9119TIP3   OH248771   4.025   0.972  13.637 -0.2760 -0.1456 -0.2134
 9119TIP3    H148772   3.990   1.030  13.571 -0.3019 -1.1975 -1.1487
 9119TIP3    H248773   4.119   0.989  13.637 -0.4300  0.8320  0.4829
 9120TIP3   OH248774   0.288   0.987  14.666  0.1471  0.2318 -0.0409
 9120TIP3    H148775   0.195   1.000  14.647  0.1147 -0.8526 -0.6547
 9120TIP3    H248776   0.323   0.943  14.589  1.0311  0.0129  0.4735
 9121TIP3   OH248777   1.411   5.062  16.659 -0.2540 -0.6902 -0.4336
 9121TIP3    H148778   1.455   5.035  16.739 -0.7448 -0.8155 -0.1972
 9121TIP3    H248779   1.479   5.101  16.605  0.4133 -2.0253 -0.6058
 9122TIP3   OH248780   6.118   1.024  16.138  0.2047  0.0172  0.0102
 9122TIP3    H148781   6.197   1.065  16.103  0.5650  1.1786  1.9994
 9122TIP3    H248782   6.080   0.976  16.064  1.6785  1.0869 -1.5104
 9123TIP3   OH248783   4.929   4.029  16.523  0.2142  0.7976 -0.4669
 9123TIP3    H148784   4.913   4.106  16.577 -0.5754 -2.1286  4.0249
 9123TIP3    H248785   4.847   4.015  16.476 -0.3093  1.6634  0.1482
 9124TIP3   OH248786   1.138   2.668  11.623  0.3816 -0.5847 -0.7452
 9124TIP3    H148787   1.113   2.582  11.588 -0.0938 -0.6699 -0.2277
 9124TIP3    H248788   1.164   2.650  11.714 -4.8395  0.3831  1.3058
 9125TIP3   OH248789   3.971   0.704   5.041 -0.0100 -0.6842 -0.2077
 9125TIP3    H148790   3.913   0.693   5.116 -0.7950  1.1245 -0.5100
 9125TIP3    H248791   4.000   0.795   5.046 -0.0394 -0.5466 -2.0647
 9126TIP3   OH248792   5.700   3.139   3.537 -0.4722 -0.4019  0.1867
 9126TIP3    H148793   5.659   3.080   3.600  0.3102 -0.7318  0.4010
 9126TIP3    H248794   5.694   3.093   3.453 -0.6725 -0.3767  0.1859
 9127TIP3   OH248795   6.746   3.359   3.559 -0.3241  0.0792 -0.1060
 9127TIP3    H148796   6.660   3.371   3.598 -0.6917 -0.7256 -0.6479
 9127TIP3    H248797   6.748   3.267   3.531 -0.2374  0.6694 -2.2741
 9128TIP3   OH248798   3.194   0.979  12.937 -0.3445 -0.0341 -0.1120
 9128TIP3    H148799   3.225   0.973  13.028 -1.7664 -0.4885  0.3632
 9128TIP3    H248800   3.172   1.071  12.926  0.4890  0.1607 -0.2382
 9129TIP3   OH248801   5.941   2.573   4.081 -0.1926  0.2316 -0.3202
 9129TIP3    H148802   5.904   2.598   4.165 -0.7087  0.4204 -0.6025
 9129TIP3    H248803   6.005   2.641   4.061 -0.0388  0.1633 -0.0609
 9130TIP3   OH248804   1.776   2.165  16.102  0.6486 -0.0323 -0.2271
 9130TIP3    H148805   1.809   2.241  16.052 -1.4154  0.0507 -1.5729
 9130TIP3    H248806   1.699   2.198  16.147  0.1990 -1.1408 -0.1670
 9131TIP3   OH248807   0.478   2.587  16.156  0.3188  0.0949 -0.4522
 9131TIP3    H148808   0.473   2.592  16.061  2.3066  0.9056 -0.5574
 9131TIP3    H248809   0.439   2.668  16.187  1.4222  0.7327 -0.6849
 9132TIP3   OH248810   2.572   3.969  13.260 -0.0177 -0.2396 -0.3231
 9132TIP3    H148811   2.593   3.877  13.278  0.7408  0.0387  0.2670
 9132TIP3    H248812   2.651   4.004  13.218 -0.2136  0.2026 -0.3241
 9133TIP3   OH248813   4.776   5.606   4.627  0.3523 -0.4485  0.7525
 9133TIP3    H148814   4.717   5.531   4.623 -0.1670 -0.0627  0.9643
 9133TIP3    H248815   4.773   5.633   4.719  0.4068 -0.0732  0.6445
 9134TIP3   OH248816   3.021   3.327  11.323 -0.2976 -0.2103 -0.3867
 9134TIP3    H148817   3.064   3.265  11.383 -0.5238 -1.9965 -1.9659
 9134TIP3    H248818   2.933   3.292  11.313 -0.5605  0.6121 -1.0068
 9135TIP3   OH248819   1.486   4.701   1.299 -0.4015 -0.2379 -0.3826
 9135TIP3    H148820   1.519   4.612   1.310 -0.3250 -0.4391 -2.0002
 9135TIP3    H248821   1.514   4.747   1.378 -0.0974 -1.5437  0.2912
 9136TIP3   OH248822   0.204   0.526   5.662  0.0359  0.1889  0.2442
 9136TIP3    H148823   0.145   0.581   5.713 -1.1881 -2.7902  2.3507
 9136TIP3    H248824   0.147   0.486   5.596  0.7076  0.7168 -0.6752
 9137TIP3   OH248825   4.851   6.261  13.674  0.4483 -0.4629  0.0757
 9137TIP3    H148826   4.897   6.224  13.749 -0.0188 -1.9521 -0.3357
 9137TIP3    H248827   4.763   6.226  13.680  0.2542 -0.1755 -0.8717
 9138TIP3   OH248828   1.135   0.129  13.575 -0.6043  0.6943  0.1441
 9138TIP3    H148829   1.181   0.185  13.512  0.3481  0.7877  0.9076
 9138TIP3    H248830   1.068   0.085  13.523  1.1942 -0.4898 -1.3259
 9139TIP3   OH248831   4.258   3.086   2.458  0.8148  0.7649 -0.3188
 9139TIP3    H148832   4.269   3.052   2.547  1.2769  0.3992 -0.5079
 9139TIP3    H248833   4.344   3.122   2.436  0.5601  1.3263 -0.4313
 9140TIP3   OH248834   5.038   3.490   5.711  0.0190 -0.6462  0.0787
 9140TIP3    H148835   5.075   3.428   5.774 -1.4555 -0.4123  1.2289
 9140TIP3    H248836   4.947   3.463   5.702  0.7541 -2.4404 -4.1990
 9141TIP3   OH248837   3.889   4.362   1.700 -0.5224 -0.4433  0.6378
 9141TIP3    H148838   3.949   4.422   1.745 -1.4191  0.3082  0.8537
 9141TIP3    H248839   3.935   4.278   1.701  0.7192  0.2128  0.3921
 9142TIP3   OH248840   4.116   2.558  12.009  0.2069 -0.0919  0.3418
 9142TIP3    H148841   4.167   2.622  11.959  2.3712 -0.4652  1.9118
 9142TIP3    H248842   4.153   2.561  12.097 -0.1856 -2.8443  0.7163
 9143TIP3   OH248843   5.432   0.824  16.889  0.2040 -0.2060  0.0064
 9143TIP3    H148844   5.499   0.875  16.933 -0.3477 -0.4901  1.1998
 9143TIP3    H248845   5.363   0.887  16.868 -0.1869 -0.3319  0.8901
 9144TIP3   OH248846   4.144   4.409   0.356  0.5872 -0.6281  0.1105
 9144TIP3    H148847   4.219   4.449   0.398  0.7712 -0.9219  0.0676
 9144TIP3    H248848   4.181   4.342   0.299  0.4743  0.9621 -1.9409
 9145TIP3   OH248849   1.289   3.513   5.521 -0.4628 -0.1245 -0.1428
 9145TIP3    H148850   1.335   3.447   5.470  0.5801  0.7563 -0.3578
 9145TIP3    H248851   1.297   3.594   5.470 -1.6580  0.1995  0.1487
 9146TIP3   OH248852   3.073   1.536  14.571  0.4084 -0.3127  0.2328
 9146TIP3    H148853   3.011   1.608  14.568  1.0117  0.1922 -1.0047
 9146TIP3    H248854   3.020   1.457  14.562 -0.2737 -0.0666  1.7488
 9147TIP3   OH248855   1.665   1.869   0.312 -0.6631 -0.1863  0.6449
 9147TIP3    H148856   1.597   1.807   0.286  0.1932 -1.1982  0.7292
 9147TIP3    H248857   1.714   1.823   0.380  0.6291  0.1668 -0.0167
 9148TIP3   OH248858   1.018   5.103  16.375 -0.3355  0.0724 -0.1571
 9148TIP3    H148859   1.080   5.048  16.423 -0.3140 -0.6156 -0.9671
 9148TIP3    H248860   1.043   5.193  16.398  1.2753 -0.1778 -0.8627
 9149TIP3   OH248861   6.490   0.731  16.264  0.0662  0.1515 -0.2391
 9149TIP3    H148862   6.403   0.757  16.233  0.4060  1.1875 -0.3673
 9149TIP3    H248863   6.536   0.703  16.185 -0.3661 -1.0839 -0.0732
 9150TIP3   OH248864   4.371   0.165  11.989  0.2859 -0.7518 -0.4427
 9150TIP3    H148865   4.459   0.131  11.970 -0.2758 -1.6957 -1.4869
 9150TIP3    H248866   4.323   0.089  12.022 -0.4058 -0.4719 -0.7860
 9151TIP3   OH248867   5.619   6.729   1.822  0.2717 -0.0809 -0.7731
 9151TIP3    H148868   5.684   6.663   1.846 -0.9305 -1.2080 -0.4795
 9151TIP3    H248869   5.535   6.685   1.834 -0.5579  1.3562 -1.0659
 9152TIP3   OH248870   0.248   3.901  16.553 -0.2942  0.2221  0.0062
 9152TIP3    H148871   0.308   3.846  16.504 -0.1482  1.9531 -1.9078
 9152TIP3    H248872   0.292   3.986  16.557 -1.9462  1.1233 -0.1152
 9153TIP3   OH248873   3.451   1.666  11.946 -0.1818  0.3530 -0.2214
 9153TIP3    H148874   3.543   1.639  11.939 -0.8179 -2.3257  0.5300
 9153TIP3    H248875   3.403   1.600  11.895 -1.7233  1.5741 -0.4108
 9154TIP3   OH248876   3.590   4.870   5.481  0.4079  0.0875 -0.1042
 9154TIP3    H148877   3.522   4.937   5.477 -1.6207 -1.7852  1.0677
 9154TIP3    H248878   3.646   4.889   5.405 -0.4729  2.6196 -0.2283
 9155TIP3   OH248879   4.517   0.616  15.816  0.1413 -0.1701  0.4902
 9155TIP3    H148880   4.504   0.710  15.829  1.9506 -0.0551  1.9944
 9155TIP3    H248881   4.606   0.600  15.847  0.2540 -2.2289 -0.7084
 9156TIP3   OH248882   2.356   6.678   3.918 -0.2648  0.5355  0.0609
 9156TIP3    H148883   2.444   6.716   3.915  0.6410 -1.3808  0.7588
 9156TIP3    H248884   2.352   6.622   3.840 -0.0200 -1.0374  1.1278
 9157TIP3   OH248885   1.906   2.621  15.542  0.5388 -0.5392  0.1425
 9157TIP3    H148886   1.974   2.554  15.544  0.4305 -0.6927 -0.7672
 9157TIP3    H248887   1.838   2.584  15.486  0.7878  0.6096 -0.9696
 9158TIP3   OH248888   5.590   3.600  13.579 -0.2339  0.7220 -0.5352
 9158TIP3    H148889   5.618   3.690  13.564 -0.8204  1.0146  0.0707
 9158TIP3    H248890   5.565   3.568  13.492 -1.7869  1.7679 -0.5237
 9159TIP3   OH248891   3.918   2.044   1.057  0.5486  0.1278 -0.4668
 9159TIP3    H148892   3.954   2.057   0.970 -0.6567 -0.5321 -1.0845
 9159TIP3    H248893   3.850   1.978   1.046  0.8843 -0.5258  1.1108
 9160TIP3   OH248894   1.525   0.276   6.131  0.1957 -0.5351 -0.0300
 9160TIP3    H148895   1.581   0.353   6.141  0.8338 -1.0489  0.4108
 9160TIP3    H248896   1.553   0.217   6.201  0.8810 -1.8862 -1.3836
 9161TIP3   OH248897   3.027   0.082  13.884 -0.1023 -0.7153  0.2123
 9161TIP3    H148898   3.057  -0.005  13.910  0.2482  0.1934  3.1483
 9161TIP3    H248899   3.107   0.128  13.857 -0.3798 -1.4373 -2.1022
 9162TIP3   OH248900   0.049   2.950   4.627  0.0583  0.4709  0.2013
 9162TIP3    H148901  -0.030   2.951   4.572 -1.5763 -0.8670  2.3351
 9162TIP3    H248902   0.119   2.981   4.570 -1.8604  0.9479 -2.0371
 9163TIP3   OH248903   0.413   1.867  16.339  0.7938 -0.5654 -0.2959
 9163TIP3    H148904   0.499   1.841  16.307 -0.1171 -0.1495 -3.3932
 9163TIP3    H248905   0.367   1.898  16.261 -2.0388 -0.3812  1.3269
 9164TIP3   OH248906   4.249   4.020   2.374  0.3431  0.8048 -0.1399
 9164TIP3    H148907   4.155   4.013   2.394  0.7363 -0.4143  1.5515
 9164TIP3    H248908   4.252   4.049   2.283 -1.7166 -1.3703 -1.0272
 9165TIP3   OH248909   3.355   0.781   5.461  0.3179 -0.0442  0.2739
 9165TIP3    H148910   3.347   0.844   5.390  0.0869 -0.1665  0.1911
 9165TIP3    H248911   3.332   0.697   5.422  0.1533 -0.1072  0.5021
 9166TIP3   OH248912   6.017   6.004  16.495 -0.1020 -0.1928  0.4380
 9166TIP3    H148913   5.927   6.037  16.505  0.2158  0.1830  2.5019
 9166TIP3    H248914   6.072   6.080  16.514  0.7295 -0.1588 -1.7459
 9167TIP3   OH248915   6.043   4.808   6.196  0.4492  0.0226 -0.0610
 9167TIP3    H148916   5.951   4.786   6.208  0.6532 -0.6384  0.3499
 9167TIP3    H248917   6.089   4.751   6.258  1.2190 -0.5409 -1.1217
 9168TIP3   OH248918   3.925   5.597  11.502  0.3206 -0.5565  0.6351
 9168TIP3    H148919   3.877   5.668  11.544 -0.2024 -1.4120  1.5289
 9168TIP3    H248920   4.001   5.640  11.462 -0.0950  0.5249  0.9718
 9169TIP3   OH248921   6.201   0.965  11.070 -0.0036  0.2675 -0.7906
 9169TIP3    H148922   6.160   0.904  11.131  0.7409  1.3781  0.9273
 9169TIP3    H248923   6.183   1.051  11.107  2.0925  0.8911 -1.0636
 9170TIP3   OH248924   2.424   4.502  12.634 -0.0902 -0.3441 -0.4731
 9170TIP3    H148925   2.446   4.524  12.543  0.2882  1.2192 -0.0129
 9170TIP3    H248926   2.450   4.410  12.643  1.7977  0.0648 -1.3487
 9171TIP3   OH248927   1.004   0.650  15.900  0.6666 -0.0703  0.4685
 9171TIP3    H148928   1.032   0.624  15.988 -1.3203 -2.8318  0.4470
 9171TIP3    H248929   0.910   0.668  15.909  0.9220  2.1361 -0.6671
 9172TIP3   OH248930   1.381   5.335   6.035  0.0499 -0.0074  0.0478
 9172TIP3    H148931   1.370   5.249   5.994 -0.2843 -0.5011  1.1226
 9172TIP3    H248932   1.342   5.325   6.122 -3.0448  2.2122 -0.9215
 9173TIP3   OH248933   1.927   6.785   3.031  0.5886  0.1501  0.0833
 9173TIP3    H148934   1.903   6.836   3.108 -2.5213 -2.1567  0.8501
 9173TIP3    H248935   1.852   6.793   2.972  0.9617 -1.6936 -0.7245
 9174TIP3   OH248936   0.317   4.850   4.927 -0.0936 -0.7222 -0.3353
 9174TIP3    H148937   0.303   4.935   4.885  0.6268 -0.2377  0.3847
 9174TIP3    H248938   0.411   4.834   4.918 -0.1918 -1.3554 -0.2851
 9175TIP3   OH248939   2.478   2.438   3.366 -0.2789  0.3372  0.1779
 9175TIP3    H148940   2.389   2.467   3.344 -0.5478  0.9693  1.9006
 9175TIP3    H248941   2.466   2.350   3.402 -0.0817  0.0454 -0.4642
 9176TIP3   OH248942   5.370   6.454   0.689 -0.4367 -0.6776 -0.0608
 9176TIP3    H148943   5.391   6.547   0.695  1.1136 -0.9643 -0.6186
 9176TIP3    H248944   5.317   6.447   0.610 -2.3152 -0.0116  1.0828
 9177TIP3   OH248945   5.531   2.592  16.449  0.2477 -0.0950  0.3203
 9177TIP3    H148946   5.554   2.676  16.488 -4.2428  0.8671  1.3888
 9177TIP3    H248947   5.559   2.527  16.513  4.0829  0.3258 -0.6660
 9178TIP3   OH248948   0.706   1.785   1.657 -0.2539  0.2248  0.1090
 9178TIP3    H148949   0.672   1.755   1.741 -0.6317  0.8855  0.1937
 9178TIP3    H248950   0.800   1.796   1.671 -0.1716 -0.5388  0.1852
 9179TIP3   OH248951   4.828   6.761   4.138 -0.8999 -0.1200  0.6859
 9179TIP3    H148952   4.735   6.783   4.150 -0.8855  0.6011 -0.3534
 9179TIP3    H248953   4.871   6.846   4.128 -0.2091 -0.4748  0.6131
 9180TIP3   OH248954   2.067   1.957   3.462 -0.0056 -0.1021 -0.4754
 9180TIP3    H148955   2.023   1.977   3.545 -0.6423 -0.2157 -0.7841
 9180TIP3    H248956   2.157   1.936   3.488  0.1034  0.9923  0.0716
 9181TIP3   OH248957   6.000   2.710  14.369 -0.3636 -0.5210 -0.2618
 9181TIP3    H148958   5.999   2.619  14.341 -0.7864 -0.9733  1.1309
 9181TIP3    H248959   5.913   2.726  14.406 -0.0664  0.2218  0.1624
 9182TIP3   OH248960   2.543   4.375  16.483  0.1344 -0.0360 -0.1918
 9182TIP3    H148961   2.627   4.393  16.525 -0.1284 -0.1390  0.3935
 9182TIP3    H248962   2.479   4.379  16.555 -0.1625 -1.5605 -0.3331
 9183TIP3   OH248963   2.342   4.936   4.876 -0.0796 -0.1420 -0.1822
 9183TIP3    H148964   2.356   4.980   4.960 -0.9631 -1.1412  0.5066
 9183TIP3    H248965   2.405   4.978   4.817  0.9541  0.2049  1.1055
 9184TIP3   OH248966   2.168   5.178   2.754  0.6513 -0.1321 -0.1321
 9184TIP3    H148967   2.076   5.203   2.745  1.0581  1.7135  0.2865
 9184TIP3    H248968   2.172   5.128   2.835  0.4517  2.5778  1.6909
 9185TIP3   OH248969   5.266   0.876   4.631 -0.0904  0.2363  0.0654
 9185TIP3    H148970   5.189   0.931   4.616  0.8264  1.2694 -1.1142
 9185TIP3    H248971   5.231   0.790   4.654 -1.6946 -0.3384 -3.8301
 9186TIP3   OH248972   3.934   0.739  13.456  0.0021 -0.0797  0.0819
 9186TIP3    H148973   3.844   0.766  13.438 -0.0714  0.8116  1.5840
 9186TIP3    H248974   3.962   0.796  13.527  1.8743 -0.1361 -0.5531
 9187TIP3   OH248975   0.445   0.867   1.082  0.1614  0.0300 -0.2363
 9187TIP3    H148976   0.432   0.812   1.005  0.1905  1.3366 -1.1931
 9187TIP3    H248977   0.381   0.834   1.146 -0.8709 -0.1366 -1.3231
 9188TIP3   OH248978   0.369   0.243   1.045 -0.2386  0.2424 -0.1764
 9188TIP3    H148979   0.327   0.207   1.123 -1.1813 -0.0423 -0.7997
 9188TIP3    H248980   0.463   0.235   1.062 -0.3895  2.0285  1.7701
 9189TIP3   OH248981   5.061   0.167  15.285  0.3822 -0.3829  0.1040
 9189TIP3    H148982   5.086   0.129  15.201  1.6304  0.0435  0.2474
 9189TIP3    H248983   5.052   0.091  15.343 -1.4346 -0.7541 -0.6144
 9190TIP3   OH248984   2.251   1.648   1.967 -0.2303  0.3163 -0.6926
 9190TIP3    H148985   2.206   1.692   1.894  0.9703 -0.7798 -2.1551
 9190TIP3    H248986   2.337   1.691   1.971 -0.1377  0.0870 -0.1997
 9191TIP3   OH248987   5.900   5.031  17.268 -0.4219 -0.4166 -0.0536
 9191TIP3    H148988   5.922   4.941  17.294 -1.0800 -1.2853 -2.2814
 9191TIP3    H248989   5.815   5.047  17.309 -0.1495 -0.6885  0.6276
 9192TIP3   OH248990   5.329   2.383  11.357  0.3602 -0.1277 -0.6021
 9192TIP3    H148991   5.339   2.400  11.263  0.2149  2.8157 -0.1700
 9192TIP3    H248992   5.243   2.341  11.364 -0.1130  0.5825 -1.7231
 9193TIP3   OH248993   4.223   4.535   4.697 -0.1264 -0.1540 -0.1290
 9193TIP3    H148994   4.165   4.549   4.772 -0.5881 -0.1471 -0.4868
 9193TIP3    H248995   4.271   4.618   4.689  0.2360 -0.3004  0.4176
 9194TIP3   OH248996   0.208   2.101   4.216 -0.1474 -0.0582  0.5718
 9194TIP3    H148997   0.154   2.024   4.201 -1.0025  0.9705 -2.4856
 9194TIP3    H248998   0.168   2.145   4.291 -1.2216 -1.2433  0.7202
 9195TIP3   OH248999   1.032   3.189  12.219  0.2507  0.6152 -0.0201
 9195TIP3    H149000   1.006   3.097  12.219 -0.7066  0.8556  1.0088
 9195TIP3    H249001   1.111   3.191  12.272 -1.3463  0.7253  2.5460
 9196TIP3   OH249002   2.861   2.144  11.490 -0.3688 -0.5820  0.1419
 9196TIP3    H149003   2.898   2.232  11.482 -0.0548 -0.8469 -1.7691
 9196TIP3    H249004   2.790   2.153  11.553 -0.8450  1.2111 -0.5980
 9197TIP3   OH249005   1.463   5.731   2.770  0.3809  0.5301 -0.3084
 9197TIP3    H149006   1.512   5.697   2.695 -0.2401  0.0887 -0.5190
 9197TIP3    H249007   1.457   5.656   2.830  0.9548  0.9060  0.2259
 9198TIP3   OH249008   0.534   3.823  12.666 -0.2782 -0.4124  0.3392
 9198TIP3    H149009   0.489   3.907  12.673  0.4330 -0.0938  1.2248
 9198TIP3    H249010   0.469   3.758  12.695 -0.6996 -0.1330  0.0230
 9199TIP3   OH249011   1.107   2.583   1.425  0.5058  0.6380 -0.4940
 9199TIP3    H149012   1.029   2.543   1.387  1.6445 -3.1228  0.6893
 9199TIP3    H249013   1.073   2.646   1.489 -1.5733 -0.5205 -0.3572
 9200TIP3   OH249014   3.129   3.615   2.392  0.0268  0.7545  0.0759
 9200TIP3    H149015   3.087   3.701   2.395  0.9511  1.2048  1.0938
 9200TIP3    H249016   3.057   3.553   2.383 -0.6194  1.6590 -1.2802
 9201TIP3   OH249017   5.891   1.273  11.427  0.3812  0.0863 -0.1306
 9201TIP3    H149018   5.944   1.341  11.386 -0.5900  0.7355 -0.3391
 9201TIP3    H249019   5.876   1.305  11.516 -3.1447  2.0851 -1.2071
 9202TIP3   OH249020   2.927   2.816   4.775 -0.2099  0.4473 -0.5977
 9202TIP3    H149021   2.901   2.731   4.811  1.6188 -0.4979 -1.3830
 9202TIP3    H249022   2.902   2.811   4.682  1.1962  0.1431 -0.9905
 9203TIP3   OH249023   4.137   1.155   5.111  0.4481 -0.1698  0.4774
 9203TIP3    H149024   4.077   1.223   5.141 -0.9588  0.6157 -3.4427
 9203TIP3    H249025   4.096   1.073   5.136 -0.1192  0.3852  1.4122
 9204TIP3   OH249026   0.434   4.282   0.463  0.4846 -0.0030 -0.2602
 9204TIP3    H149027   0.423   4.341   0.387 -1.9995  1.8124  1.3220
 9204TIP3    H249028   0.494   4.329   0.521  1.3006 -0.7399 -0.5019
 9205TIP3   OH249029   2.837   5.606  14.623  0.0266  0.0446  0.3589
 9205TIP3    H149030   2.812   5.599  14.531 -0.0734 -0.9288  0.4559
 9205TIP3    H249031   2.817   5.521  14.661 -0.6983  0.6898  1.4792
 9206TIP3   OH249032   2.589   4.467  11.547 -0.6303 -0.0033  0.3420
 9206TIP3    H149033   2.648   4.478  11.473 -1.0869  0.2495  0.0124
 9206TIP3    H249034   2.555   4.555  11.565  0.4475  0.1713  1.6758
 9207TIP3   OH249035   6.640   3.002  12.890  0.6278 -0.5922 -0.1294
 9207TIP3    H149036   6.635   3.012  12.985 -1.0882  0.4537 -0.2835
 9207TIP3    H249037   6.561   2.951  12.868  0.2500  0.3984 -1.1127
 9208TIP3   OH249038   4.963   4.283   2.915 -0.2013 -0.0549 -0.1586
 9208TIP3    H149039   5.027   4.318   2.853 -0.1843  0.1773 -0.0109
 9208TIP3    H249040   4.929   4.360   2.960  0.2799 -0.2780  0.5945
 9209TIP3   OH249041   0.188   1.184   4.510  0.8015 -0.4708 -0.0389
 9209TIP3    H149042   0.093   1.182   4.496  0.4123  0.7577  2.0232
 9209TIP3    H249043   0.206   1.104   4.560  0.7375 -0.4024  0.0958
 9210TIP3   OH249044   1.758   5.645   5.503  0.5323 -0.0365 -0.2169
 9210TIP3    H149045   1.694   5.705   5.542  0.5218 -0.2844  0.1534
 9210TIP3    H249046   1.747   5.563   5.552  3.1887  0.7484  1.9760
 9211TIP3   OH249047   5.788   1.654   4.322 -0.4094 -0.3943  0.1871
 9211TIP3    H149048   5.787   1.746   4.347  0.1737 -0.2306 -0.3556
 9211TIP3    H249049   5.758   1.607   4.400  1.4541  0.0943  1.2753
 9212TIP3   OH249050   1.619   0.022   1.538 -0.2681  0.1280 -0.0033
 9212TIP3    H149051   1.651  -0.059   1.499 -1.7160  0.4219 -1.9292
 9212TIP3    H249052   1.697   0.076   1.550  0.9805 -2.0362  2.8170
 9213TIP3   OH249053   2.047   0.803  13.905  0.3557 -0.0198 -0.2307
 9213TIP3    H149054   2.048   0.863  13.979  0.3393 -1.1660  0.7449
 9213TIP3    H249055   1.985   0.840  13.843 -1.0075  0.0579  1.1429
 9214TIP3   OH249056   2.150   5.991   0.846 -0.3007  0.3595  0.3996
 9214TIP3    H149057   2.134   5.914   0.791  0.7239 -0.0065  0.5928
 9214TIP3    H249058   2.121   5.964   0.933 -1.4640  0.7710  0.1604
 9215TIP3   OH249059   6.058   4.175   1.755 -0.4769 -0.6748  0.1136
 9215TIP3    H149060   5.989   4.206   1.696  0.4989 -0.6042 -1.0320
 9215TIP3    H249061   6.023   4.095   1.794 -1.7845  0.1481  0.7027
 9216TIP3   OH249062   1.943   2.054   1.091  0.1113 -0.5334 -0.2632
 9216TIP3    H149063   2.007   2.108   1.138 -0.0267 -1.4903  1.1088
 9216TIP3    H249064   1.867   2.112   1.079  1.1086  0.5343 -1.6954
 9217TIP3   OH249065   0.229   4.556   1.087 -0.2503 -0.4612  0.4668
 9217TIP3    H149066   0.249   4.589   1.000 -0.6579  0.2239  0.6246
 9217TIP3    H249067   0.143   4.593   1.108 -0.3511 -0.9690  0.9846
 9218TIP3   OH249068   1.158   5.060  12.220  0.1103  0.0012 -0.5688
 9218TIP3    H149069   1.164   4.969  12.246  1.0910 -0.3633 -1.9390
 9218TIP3    H249070   1.093   5.060  12.149  1.2757  0.0787 -1.6613
 9219TIP3   OH249071   4.524   3.372   5.542  0.4331 -0.2352 -0.0688
 9219TIP3    H149072   4.467   3.371   5.619  3.8629 -1.1494  2.7456
 9219TIP3    H249073   4.580   3.295   5.552  0.5521 -0.8770 -4.0377
 9220TIP3   OH249074   5.167   2.882   3.161 -0.0233 -0.0468 -0.4226
 9220TIP3    H149075   5.111   2.955   3.187  0.2053  0.0503 -0.1997
 9220TIP3    H249076   5.245   2.891   3.215 -1.0148 -1.9028  1.4530
 9221TIP3   OH249077   3.061   3.851   4.497 -0.3046  0.2230 -0.5020
 9221TIP3    H149078   3.085   3.796   4.572 -0.2547  0.0465 -0.6473
 9221TIP3    H249079   3.060   3.940   4.532  0.8927  0.2772 -0.5787
 9222TIP3   OH249080   3.689   1.820   5.872 -0.4479 -0.0413 -0.0114
 9222TIP3    H149081   3.758   1.773   5.825  0.6612 -0.3382  1.8050
 9222TIP3    H249082   3.608   1.792   5.831  0.4323 -0.5602 -1.4761
 9223TIP3   OH249083   3.422   4.438   4.164 -0.6741 -0.2733  0.5886
 9223TIP3    H149084   3.498   4.434   4.221  1.3217  1.1057 -1.7836
 9223TIP3    H249085   3.372   4.514   4.194  0.3127  0.3869  0.5946
 9224TIP3   OH249086   5.635   5.860  13.199  0.1307 -0.2204 -0.1199
 9224TIP3    H149087   5.615   5.825  13.286 -2.5108 -0.5131 -0.7556
 9224TIP3    H249088   5.682   5.790  13.154 -0.5874 -0.9836  0.3047
 9225TIP3   OH249089   4.402   5.305  13.644 -0.3130 -0.5398 -0.1026
 9225TIP3    H149090   4.314   5.299  13.607 -0.6167 -1.9754  0.7661
 9225TIP3    H249091   4.428   5.214  13.658  1.2925 -0.1395 -0.2773
 9226TIP3   OH249092   2.603   1.103  13.296  0.4562 -0.0921  0.0575
 9226TIP3    H149093   2.654   1.022  13.289 -0.9314 -0.8715 -2.5568
 9226TIP3    H249094   2.663   1.172  13.267  0.2440 -0.9598 -2.7345
 9227TIP3   OH249095   6.493   2.276  17.219  0.4555  0.2676 -0.2527
 9227TIP3    H149096   6.407   2.296  17.256 -0.4674 -1.7896 -1.0956
 9227TIP3    H249097   6.520   2.196  17.263 -0.2733 -1.7571 -3.1466
 9228TIP3   OH249098   0.065   6.165  14.555  0.1624  0.1983 -0.3020
 9228TIP3    H149099   0.125   6.222  14.603  0.7542 -1.0696  0.5057
 9228TIP3    H249100   0.122   6.118  14.493 -0.4081  0.9014 -1.3916
 9229TIP3   OH249101   3.937   4.972  12.591 -0.0340 -0.7084 -0.3656
 9229TIP3    H149102   3.946   5.020  12.508  0.0918 -2.0411 -1.1599
 9229TIP3    H249103   4.027   4.958  12.621 -0.0177 -1.3007 -0.6679
 9230TIP3   OH249104   1.809   3.530  11.245  0.3677 -0.1210  0.2011
 9230TIP3    H149105   1.772   3.579  11.172 -2.1687 -1.0313  0.7827
 9230TIP3    H249106   1.846   3.597  11.303  2.2085  0.6346 -1.6912
 9231TIP3   OH249107   2.363   2.587   0.889  0.0138  0.0013 -0.1765
 9231TIP3    H149108   2.423   2.643   0.841 -0.5847  2.0287  1.3050
 9231TIP3    H249109   2.289   2.644   0.910 -0.4248 -1.2094  1.7912
 9232TIP3   OH249110   1.621   0.685   0.148  0.0826  0.0146 -0.2529
 9232TIP3    H149111   1.672   0.715   0.223  0.1046  0.9414 -0.6288
 9232TIP3    H249112   1.546   0.745   0.143 -0.8336 -1.0618  0.0310
 9233TIP3   OH249113   1.407   2.113   4.847 -0.3000 -0.3981  0.2960
 9233TIP3    H149114   1.328   2.065   4.826 -0.0329 -0.2541 -1.1234
 9233TIP3    H249115   1.376   2.198   4.879 -0.7122 -0.4051 -0.0869
 9234TIP3   OH249116   1.178   4.022   0.452  0.1985 -0.3404 -0.0797
 9234TIP3    H149117   1.140   4.034   0.364  1.0327  0.4778 -0.3423
 9234TIP3    H249118   1.131   3.947   0.488  0.3883 -1.1975 -1.5382
 9235TIP3   OH249119   2.290   4.480  15.214 -0.1745  0.1706 -0.4163
 9235TIP3    H149120   2.350   4.410  15.188  0.4294  0.5657 -0.1187
 9235TIP3    H249121   2.344   4.539  15.268 -0.2174  1.7237 -1.9732
 9236TIP3   OH249122   4.163   0.759  13.773  0.1631  0.8253  0.1820
 9236TIP3    H149123   4.204   0.770  13.859  1.2796 -2.3199  0.1674
 9236TIP3    H249124   4.203   0.829  13.720  1.7378  0.9841  1.4722
 9237TIP3   OH249125   4.262   2.028  17.228 -0.1419 -0.3205 -0.2617
 9237TIP3    H149126   4.239   2.034  17.321 -0.4082 -0.7338 -0.2982
 9237TIP3    H249127   4.345   1.982  17.227  0.7828  1.2543 -0.1232
 9238TIP3   OH249128   1.839   0.771   5.344 -0.3257  0.0141  0.4675
 9238TIP3    H149129   1.908   0.837   5.334 -0.8805  0.3698 -1.3038
 9238TIP3    H249130   1.809   0.781   5.435  2.1059 -0.3482  1.3718
 9239TIP3   OH249131   1.822   2.726   3.017 -0.3289 -0.4150 -0.1875
 9239TIP3    H149132   1.789   2.810   3.049  0.1911  0.0304 -0.7844
 9239TIP3    H249133   1.909   2.747   2.982 -0.0037 -1.2879  0.0621
 9240TIP3   OH249134   1.931   5.266  16.929  0.3362 -0.3148 -0.4701
 9240TIP3    H149135   1.939   5.240  17.021  1.1170 -2.4071 -1.0674
 9240TIP3    H249136   1.943   5.185  16.880  0.0262  0.7611 -2.4410
 9241TIP3   OH249137   6.365   0.892   5.136  0.1474  0.3947  0.7102
 9241TIP3    H149138   6.449   0.858   5.169  0.5544 -0.8612 -1.4191
 9241TIP3    H249139   6.305   0.884   5.211  1.2251 -1.3837  1.4652
 9242TIP3   OH249140   5.430   2.528   3.794 -0.5191  0.2592 -0.0741
 9242TIP3    H149141   5.500   2.530   3.860  0.2716 -0.7673 -0.8572
 9242TIP3    H249142   5.364   2.471   3.832 -0.6917  0.7699  0.4180
 9243TIP3   OH249143   2.073   4.113   5.190  0.4848 -0.1053 -0.1710
 9243TIP3    H149144   2.144   4.140   5.132 -1.8324  2.5401 -2.0591
 9243TIP3    H249145   2.056   4.191   5.244 -2.3693  0.2021 -1.3645
 9244TIP3   OH249146   5.404   2.422   0.694 -0.5808  0.8503  0.4088
 9244TIP3    H149147   5.456   2.377   0.760  0.0304  0.2886 -0.4362
 9244TIP3    H249148   5.440   2.392   0.610 -3.5478 -1.2483 -0.3081
 9245TIP3   OH249149   3.620   3.496  13.051 -0.2445  0.0897  0.2346
 9245TIP3    H149150   3.590   3.578  13.090 -1.1635 -0.5176  0.8443
 9245TIP3    H249151   3.543   3.461  13.006  0.1411 -0.4407 -0.0269
 9246TIP3   OH249152   1.350   2.460   0.426 -0.8131 -0.1382  0.3024
 9246TIP3    H149153   1.416   2.391   0.419  0.2247  0.6985  1.3825
 9246TIP3    H249154   1.284   2.424   0.485 -0.2745 -0.2245  0.8681
 9247TIP3   OH249155   3.132   4.819   4.505  0.1850 -0.0829 -0.0284
 9247TIP3    H149156   3.207   4.870   4.475  0.1231 -0.2758 -0.5167
 9247TIP3    H249157   3.096   4.870   4.578 -0.8571  1.4336 -1.5206
 9248TIP3   OH249158   5.715   6.682  17.094  0.4577 -0.1350 -0.1228
 9248TIP3    H149159   5.673   6.768  17.086 -0.8408 -0.7788 -0.5412
 9248TIP3    H249160   5.751   6.681  17.182 -0.4583  0.4394  0.2771
 9249TIP3   OH249161   1.816   3.546   1.581 -0.3743  0.5562  0.4420
 9249TIP3    H149162   1.723   3.537   1.601 -0.2656 -1.2167  0.3447
 9249TIP3    H249163   1.832   3.640   1.582 -2.7122  1.0940 -2.0503
 9250TIP3   OH249164   2.423   3.600  11.201  0.1417 -0.7031  0.3513
 9250TIP3    H149165   2.421   3.653  11.281 -2.0885 -1.0265  0.5899
 9250TIP3    H249166   2.462   3.657  11.135  1.1018 -0.0694  1.4309
 9251TIP3   OH249167   2.979   1.142  15.925  0.2310 -0.2472 -0.0467
 9251TIP3    H149168   2.959   1.064  15.976  2.1507  0.2521  1.5882
 9251TIP3    H249169   2.968   1.114  15.834  1.6990 -2.7234  0.4284
 9252TIP3   OH249170   1.701   2.460   5.627 -0.1583  0.0127 -0.4903
 9252TIP3    H149171   1.688   2.551   5.599 -0.3965  1.3372  3.3129
 9252TIP3    H249172   1.612   2.426   5.642 -0.0204 -0.2961 -0.3619
 9253TIP3   OH249173   5.507   2.570   5.452  0.0793  0.3370 -0.1869
 9253TIP3    H149174   5.496   2.665   5.455  1.4522  0.4926  1.3091
 9253TIP3    H249175   5.462   2.543   5.372 -1.4196  2.0828  0.0068
 9254TIP3   OH249176   1.826   5.139   4.351  1.0084 -0.1623  0.4973
 9254TIP3    H149177   1.881   5.065   4.325  0.8139 -0.0797 -0.1581
 9254TIP3    H249178   1.871   5.176   4.427  1.0373 -1.0273  0.9113
 9255TIP3   OH249179   3.156   2.812   3.337  0.3102  0.5040  0.0081
 9255TIP3    H149180   3.105   2.813   3.256  0.9587  1.2778 -0.4093
 9255TIP3    H249181   3.109   2.753   3.395 -0.8755  0.9411 -0.4824
 9256TIP3   OH249182   2.589   2.172  14.035 -0.0174 -0.1015 -0.7643
 9256TIP3    H149183   2.636   2.141  13.957  1.1689  0.0322 -0.1102
 9256TIP3    H249184   2.564   2.092  14.081  2.1208 -0.1525  0.3753
 9257TIP3   OH249185   3.299   3.389   6.103  0.0495  0.2710  0.3260
 9257TIP3    H149186   3.297   3.410   6.196 -2.1554  1.2698  0.1258
 9257TIP3    H249187   3.331   3.469   6.061  1.0467 -0.1791  0.1983
 9258TIP3   OH249188   4.232   5.175  14.498  0.3806  0.0595 -0.2865
 9258TIP3    H149189   4.316   5.140  14.528 -0.6900 -0.6953  2.0765
 9258TIP3    H249190   4.187   5.100  14.459  0.5708  0.3391 -1.0628
 9259TIP3   OH249191   1.039   6.232  13.641  0.1900  0.1076  0.5554
 9259TIP3    H149192   0.956   6.278  13.632 -0.1922 -0.3580  1.5691
 9259TIP3    H249193   1.073   6.261  13.726  1.3928  0.8003 -0.1394
 9260TIP3   OH249194   0.598   6.547   0.918  0.1929  0.6809  0.0534
 9260TIP3    H149195   0.691   6.565   0.910  1.0304 -1.9038  2.2604
 9260TIP3    H249196   0.567   6.609   0.984  0.3780  1.3887 -0.5165
 9261TIP3   OH249197   4.465   2.983  13.472  0.6775  0.0408 -0.1401
 9261TIP3    H149198   4.557   2.961  13.487  0.9427  0.4947 -1.0844
 9261TIP3    H249199   4.461   3.007  13.380 -0.1757  1.1331  0.1736
 9262TIP3   OH249200   0.810   5.676   4.616 -0.2868  0.1589  0.7222
 9262TIP3    H149201   0.801   5.610   4.547 -0.8683  1.3504 -0.3825
 9262TIP3    H249202   0.785   5.631   4.696  1.3415 -1.5415  0.3368
 9263TIP3   OH249203   3.415   2.502   2.751  0.0196  0.1585  0.0443
 9263TIP3    H149204   3.359   2.452   2.810  0.2038  1.0387  0.9876
 9263TIP3    H249205   3.369   2.585   2.737  1.4652  1.2744  1.5662
 9264TIP3   OH249206   6.358   2.511   4.359 -0.3585 -0.2304  0.0517
 9264TIP3    H149207   6.389   2.438   4.413 -0.6672 -1.3591 -1.2489
 9264TIP3    H249208   6.410   2.506   4.279  1.3671  2.5001  0.8447
 9265TIP3   OH249209   2.280   3.569   2.923  0.2021 -0.3185  0.8138
 9265TIP3    H149210   2.328   3.641   2.882 -2.1192  0.0948 -1.4830
 9265TIP3    H249211   2.341   3.495   2.921  1.2697  0.5429 -0.5845
 9266TIP3   OH249212   2.627   5.019  12.569  0.2150  0.3105 -0.6194
 9266TIP3    H149213   2.706   5.073  12.568  0.5966 -0.2436 -1.1458
 9266TIP3    H249214   2.574   5.054  12.498 -0.2862  1.0659  0.1124
 9267TIP3   OH249215   0.076   6.288   4.398  0.0161  0.7728  0.3998
 9267TIP3    H149216  -0.017   6.297   4.418 -0.0895  1.9637 -0.4958
 9267TIP3    H249217   0.084   6.322   4.308  1.5518  2.2384  1.0354
 9268TIP3   OH249218   1.224   0.186  17.105  0.3738 -0.2799  0.6104
 9268TIP3    H149219   1.186   0.273  17.087  0.0221 -0.2445  1.5047
 9268TIP3    H249220   1.153   0.125  17.087  1.2900 -0.6249 -2.3760
 9269TIP3   OH249221   6.472   0.139   0.902  0.4405  0.4698 -0.3055
 9269TIP3    H149222   6.466   0.070   0.836  0.2292  1.1114 -0.9674
 9269TIP3    H249223   6.393   0.192   0.890  0.4884  0.7012  0.3406
 9270TIP3   OH249224   4.450   3.912  12.575  0.7322  0.1687  0.4087
 9270TIP3    H149225   4.391   3.976  12.614 -0.4688 -0.0540 -0.9255
 9270TIP3    H249226   4.415   3.827  12.601  1.6342  0.0277  1.2124
 9271TIP3   OH249227   2.920   1.713   0.543  0.1280  0.7944  0.4776
 9271TIP3    H149228   2.854   1.729   0.610 -1.5414 -1.2035 -0.5780
 9271TIP3    H249229   2.995   1.767   0.570 -1.4963  2.2905  2.3228
 9272TIP3   OH249230   6.161   0.289  17.089 -0.3830  0.6184 -0.2314
 9272TIP3    H149231   6.157   0.281  16.994 -1.6129  1.1240 -0.2466
 9272TIP3    H249232   6.078   0.253  17.120 -0.3725  1.2479  0.5857
 9273TIP3   OH249233   5.324   2.193  15.450  0.0385  0.4922  0.3591
 9273TIP3    H149234   5.244   2.207  15.500  1.2479  0.2360  2.4850
 9273TIP3    H249235   5.356   2.281  15.430  0.1171  0.6117  1.0076
 9274TIP3   OH249236   0.723   0.957   5.710  0.4410  0.3144  0.3798
 9274TIP3    H149237   0.776   0.955   5.790 -0.3262 -0.2605  0.8818
 9274TIP3    H249238   0.659   1.026   5.725 -2.0190 -2.0715  1.8180
 9275TIP3   OH249239   2.696   4.755   4.456  0.1079  0.4251  0.1463
 9275TIP3    H149240   2.659   4.794   4.535 -0.4337  0.3653 -0.0799
 9275TIP3    H249241   2.743   4.827   4.414  0.0468  0.5583  0.3025
 9276TIP3   OH249242   6.577   1.934  15.710 -0.2607  0.3425 -0.0819
 9276TIP3    H149243   6.525   1.877  15.767  2.1200 -0.5533  1.3581
 9276TIP3    H249244   6.599   1.879  15.635  1.8610 -0.7236  1.2111
 9277TIP3   OH249245   5.239   2.937   4.453  0.5647  0.3676 -0.2212
 9277TIP3    H149246   5.146   2.955   4.472  0.6487 -1.2297  2.1919
 9277TIP3    H249247   5.237   2.864   4.391  0.1055 -1.0012  1.3174
 9278TIP3   OH249248   3.304   1.371  14.082 -0.1746 -1.1296 -0.2837
 9278TIP3    H149249   3.385   1.383  14.031  0.2988 -1.5060  0.3655
 9278TIP3    H249250   3.277   1.460  14.105 -0.4161 -0.9495 -1.2115
 9279TIP3   OH249251   0.598   1.331   0.859 -0.4173 -0.3281  0.5963
 9279TIP3    H149252   0.607   1.258   0.921 -0.7169 -0.1443  0.8528
 9279TIP3    H249253   0.505   1.352   0.859 -0.4479 -0.4494 -0.0576
 9280TIP3   OH249254   4.140   0.134   3.753  0.1464  0.8419  0.6811
 9280TIP3    H149255   4.138   0.230   3.753 -2.8206  0.8717 -0.4423
 9280TIP3    H249256   4.138   0.110   3.845  2.1898  1.7892  1.0319
 9281TIP3   OH249257   1.308   1.030  11.657 -0.1671 -0.0521 -0.0097
 9281TIP3    H149258   1.264   1.114  11.671 -0.2156 -0.0663 -0.0765
 9281TIP3    H249259   1.362   1.043  11.580  0.8412  0.3178  0.7446
 9282TIP3   OH249260   5.579   2.788  15.763  0.0449 -0.5466 -0.4132
 9282TIP3    H149261   5.661   2.778  15.714  0.0612  0.6450 -0.6791
 9282TIP3    H249262   5.516   2.818  15.698 -0.2543 -0.1627  0.0409
 9283TIP3   OH249263   5.675   5.595  15.270  0.4647 -0.6053  0.3086
 9283TIP3    H149264   5.729   5.534  15.319  1.1866  1.2681  1.9769
 9283TIP3    H249265   5.728   5.675  15.263 -1.1127  0.4593 -0.1882
 9284TIP3   OH249266   0.250   2.013   1.536  0.3735  0.0687  0.2264
 9284TIP3    H149267   0.277   2.103   1.549  0.0201  0.1735  0.2471
 9284TIP3    H249268   0.158   2.011   1.561  0.2059 -0.1548 -0.3915
 9285TIP3   OH249269   6.170   6.773   6.273 -0.4421  0.3907  0.3713
 9285TIP3    H149270   6.204   6.684   6.288  0.5221  0.5310 -0.8438
 9285TIP3    H249271   6.189   6.819   6.354  0.2844 -0.1517  0.5222
 9286TIP3   OH249272   0.259   4.747   2.387  0.0014  0.3791 -0.6900
 9286TIP3    H149273   0.225   4.830   2.420  0.4268  0.1605  0.3353
 9286TIP3    H249274   0.187   4.710   2.335 -0.0358  1.5779 -1.5186
 9287TIP3   OH249275   3.931   3.852  12.339  0.1878 -0.5146 -0.1810
 9287TIP3    H149276   3.931   3.818  12.249  1.6429  0.3627 -0.5564
 9287TIP3    H249277   3.846   3.827  12.374  0.8372 -3.7968 -0.6614
 9288TIP3   OH249278   3.907   2.048  12.203  0.3672  0.6414  0.2272
 9288TIP3    H149279   3.919   2.049  12.108 -0.0932 -0.6586  0.1347
 9288TIP3    H249280   3.946   2.130  12.233 -0.0811  1.3922 -1.1521
 9289TIP3   OH249281   1.334   3.964  16.792  0.3054 -0.3539 -0.0791
 9289TIP3    H149282   1.320   3.883  16.743  1.3610 -0.6576  0.0979
 9289TIP3    H249283   1.327   4.033  16.726  2.0866 -0.7856 -0.7810
 9290TIP3   OH249284   0.246   1.526  16.298 -0.1053 -0.2202 -0.0893
 9290TIP3    H149285   0.332   1.523  16.257 -0.0047  1.0842 -0.0256
 9290TIP3    H249286   0.263   1.520  16.392 -0.2570 -2.0634 -0.1433
 9291TIP3   OH249287   1.571   3.239   4.243 -0.1019  0.2627  0.0128
 9291TIP3    H149288   1.558   3.332   4.222  1.0143  0.5168  0.3909
 9291TIP3    H249289   1.584   3.239   4.338  0.4052 -0.2198 -0.0561
 9292TIP3   OH249290   5.776   5.914   3.233  0.5203 -0.1739  0.1611
 9292TIP3    H149291   5.733   5.968   3.300  2.3166 -0.7047  1.7975
 9292TIP3    H249292   5.839   5.974   3.192 -0.5652  0.1483 -1.1316
 9293TIP3   OH249293   1.771   3.246   4.849  0.8501 -0.3525 -0.1411
 9293TIP3    H149294   1.845   3.240   4.788 -0.7910  0.6273 -2.3572
 9293TIP3    H249295   1.714   3.173   4.825  0.3417 -0.1702  0.4786
 9294TIP3   OH249296   1.238   4.689   5.483 -0.0290  0.0833  0.2294
 9294TIP3    H149297   1.152   4.712   5.519 -0.5852 -0.2320 -0.8338
 9294TIP3    H249298   1.258   4.604   5.522  1.1625  1.3882  2.7019
 9295TIP3   OH249299   4.197   6.745  12.070  0.4218  0.8286  0.1057
 9295TIP3    H149300   4.104   6.762  12.085  0.5689  2.2419 -0.4200
 9295TIP3    H249301   4.199   6.657  12.033 -0.5920  0.3220  1.1748
 9296TIP3   OH249302   2.258   1.553  11.826  0.4407 -0.4026  0.0086
 9296TIP3    H149303   2.219   1.572  11.911 -0.2160 -0.2161 -0.3333
 9296TIP3    H249304   2.352   1.561  11.842  0.3004  0.3978  0.5337
 9297TIP3   OH249305   2.521   2.714   5.934  0.0102  0.9831 -0.3094
 9297TIP3    H149306   2.460   2.781   5.964  0.8793  1.6419  0.0397
 9297TIP3    H249307   2.500   2.700   5.842 -0.4027  1.4914 -0.2906
 9298TIP3   OH249308   1.168   1.482   2.176  0.2148 -0.2016  0.7256
 9298TIP3    H149309   1.166   1.558   2.118  0.3594  1.1831  2.4139
 9298TIP3    H249310   1.255   1.445   2.165  0.5158  0.5212  0.6159
 9299TIP3   OH249311   2.932   0.534   3.596  0.3493 -0.0326 -0.4002
 9299TIP3    H149312   2.888   0.545   3.681  0.1687 -0.5646 -0.4195
 9299TIP3    H249313   2.906   0.610   3.545  0.3626  0.2283 -0.0156
 9300TIP3   OH249314   2.499   0.420   0.240 -0.1699 -0.4268  0.2705
 9300TIP3    H149315   2.551   0.350   0.280 -1.0879 -1.3530 -0.1239
 9300TIP3    H249316   2.465   0.381   0.159 -1.4674  0.1515  0.5140
 9301TIP3   OH249317   0.353   0.802  12.767  0.1544  0.4787  0.2326
 9301TIP3    H149318   0.276   0.855  12.748  0.5521  0.7587 -0.6731
 9301TIP3    H249319   0.318   0.718  12.796 -0.5114  1.4889  2.6760
 9302TIP3   OH249320   4.967   3.278   4.356  0.1201 -0.3292  0.0321
 9302TIP3    H149321   5.033   3.316   4.414  0.8265 -1.6754  0.1592
 9302TIP3    H249322   4.945   3.348   4.295  0.6460  0.5725  0.8615
 9303TIP3   OH249323   6.788   3.683  11.813  0.1042  0.1020  0.3164
 9303TIP3    H149324   6.706   3.719  11.780 -0.2211  0.5325  1.5407
 9303TIP3    H249325   6.762   3.624  11.883  0.8104 -0.2984  0.2533
 9304TIP3   OH249326   2.927   2.056   4.599 -0.3962 -0.3017 -0.3962
 9304TIP3    H149327   2.848   2.040   4.650 -1.4848  0.5480 -1.7383
 9304TIP3    H249328   2.945   2.150   4.611  0.2657 -0.4349 -0.2966
 9305TIP3   OH249329   4.549   4.855  12.449 -0.1843 -0.7789 -0.6451
 9305TIP3    H149330   4.457   4.880  12.435 -0.1626 -0.5715 -0.4162
 9305TIP3    H249331   4.598   4.910  12.388 -0.1455 -0.3223 -0.2134
 9306TIP3   OH249332   2.798   1.071  14.121  0.0032  0.1055 -0.4991
 9306TIP3    H149333   2.851   1.130  14.174  0.2613 -0.8280  0.3177
 9306TIP3    H249334   2.748   1.019  14.185 -0.0237 -0.7315 -1.1806
 9307TIP3   OH249335   1.676   0.992  14.453 -0.3207 -0.4272 -0.3251
 9307TIP3    H149336   1.685   0.969  14.360  0.3538 -0.1147 -0.3405
 9307TIP3    H249337   1.686   1.087  14.455 -0.6613 -0.3972  0.0305
 9308TIP3   OH249338   6.771   6.543   1.175  0.0897 -0.2768 -0.1838
 9308TIP3    H149339   6.677   6.557   1.172 -0.2163 -2.1738 -0.2854
 9308TIP3    H249340   6.806   6.624   1.213 -1.4160  1.0241 -1.4327
 9309TIP3   OH249341   2.893   4.676   1.570 -0.1242 -0.6144 -0.4398
 9309TIP3    H149342   2.938   4.743   1.622 -0.7453 -0.1154 -0.5316
 9309TIP3    H249343   2.861   4.722   1.493 -1.1671 -0.8501 -0.1675
 9310TIP3   OH249344   3.663   2.641   2.815  0.3167 -0.4282 -0.2143
 9310TIP3    H149345   3.690   2.648   2.724  0.9514 -1.5601 -0.1395
 9310TIP3    H249346   3.596   2.572   2.815 -0.3653  0.2260  0.0425
 9311TIP3   OH249347   1.350   1.475   3.263 -0.0106 -0.1537  0.3447
 9311TIP3    H149348   1.363   1.401   3.203 -1.4490 -1.1363  1.1687
 9311TIP3    H249349   1.397   1.548   3.223 -0.1406 -1.0295 -1.4753
 9312TIP3   OH249350   3.166   0.237   2.003  0.4631  0.2028  0.1278
 9312TIP3    H149351   3.127   0.248   1.917  0.8193 -0.1919 -0.0885
 9312TIP3    H249352   3.125   0.158   2.038  1.1899 -0.3127 -0.1736
 9313TIP3   OH249353   2.407   3.922   1.703 -0.0105 -0.4277  0.1118
 9313TIP3    H149354   2.474   3.976   1.659 -0.2511  1.7144  2.1696
 9313TIP3    H249355   2.335   3.983   1.719 -0.9043 -1.7522  1.3065
 9314TIP3   OH249356   3.587   6.473   3.425 -0.4423  0.1741  0.5057
 9314TIP3    H149357   3.657   6.482   3.490  0.3658 -0.5749 -0.2348
 9314TIP3    H249358   3.529   6.406   3.462  1.4845 -2.3227 -0.7367
 9315TIP3   OH249359   2.985   3.171  16.571  0.3906 -0.2720 -0.0682
 9315TIP3    H149360   2.949   3.118  16.500  0.2131  0.1573 -0.3046
 9315TIP3    H249361   3.077   3.184  16.546  0.8557 -1.7550  0.7648
 9316TIP3   OH249362   2.646   3.527   4.559  0.6205  0.1239 -0.3337
 9316TIP3    H149363   2.615   3.460   4.620  3.2719 -0.6036  0.3325
 9316TIP3    H249364   2.599   3.509   4.478 -0.4226 -1.0804  0.5046
 9317TIP3   OH249365   1.280   0.956  13.078  0.3086 -0.1852  0.1807
 9317TIP3    H149366   1.353   0.895  13.079  1.5687  1.2261 -0.6753
 9317TIP3    H249367   1.289   1.002  12.994 -1.9319 -0.3915 -0.2273
 9318TIP3   OH249368   3.758   0.203   6.246 -0.0599  0.3349 -0.5716
 9318TIP3    H149369   3.787   0.247   6.326  0.6342 -1.5241  0.2551
 9318TIP3    H249370   3.665   0.224   6.240 -0.0938  0.6240  0.6567
 9319TIP3   OH249371   1.546   1.883   1.960 -0.7042  0.6672 -0.2847
 9319TIP3    H149372   1.496   1.963   1.941  2.0153  2.4020 -0.6803
 9319TIP3    H249373   1.603   1.907   2.032  1.8074 -0.1262 -1.8970
 9320TIP3   OH249374   4.671   2.441  11.420 -0.6944  0.1476 -0.2957
 9320TIP3    H149375   4.593   2.463  11.471  0.5451  0.4574  1.5434
 9320TIP3    H249376   4.721   2.522  11.415 -0.5476 -0.0022 -1.6163
 9321TIP3   OH249377   2.197   5.072  11.964 -0.4689  0.3309  0.3924
 9321TIP3    H149378   2.173   4.987  12.000 -0.4668  0.4656  0.7118
 9321TIP3    H249379   2.243   5.052  11.882  0.8684 -0.0374  1.2021
 9322TIP3   OH249380   0.017   6.470   0.682 -0.5771 -0.1646  0.2903
 9322TIP3    H149381  -0.001   6.520   0.761  0.6699  0.0691  0.4582
 9322TIP3    H249382   0.111   6.452   0.686 -0.6202 -0.7486 -0.7903
 9323TIP3   OH249383   2.766   3.456  14.355  0.1525  0.1854  0.0236
 9323TIP3    H149384   2.711   3.412  14.420 -0.4777 -0.4134 -0.9044
 9323TIP3    H249385   2.773   3.393  14.283  0.5162  0.9985 -0.6611
 9324TIP3   OH249386   5.040   3.422   4.042  0.2444  0.2372 -0.5653
 9324TIP3    H149387   5.095   3.500   4.048  1.4336 -0.4956 -1.6812
 9324TIP3    H249388   4.969   3.439   4.104  0.8924  1.8637 -0.2158
 9325TIP3   OH249389   1.857   3.765  13.496  0.1325  0.2964  0.2091
 9325TIP3    H149390   1.767   3.797  13.499 -0.4289 -1.0590 -0.9875
 9325TIP3    H249391   1.874   3.735  13.585 -0.6430  0.4676  0.4232
 9326TIP3   OH249392   2.293   6.329  14.576  0.1566  0.5189  1.0211
 9326TIP3    H149393   2.314   6.246  14.619  0.1919  0.1490  0.3131
 9326TIP3    H249394   2.371   6.383  14.589  0.8225 -0.1627  0.0658
 9327TIP3   OH249395   4.809   3.973  14.356 -0.2850  0.2073  0.1258
 9327TIP3    H149396   4.825   3.935  14.270 -0.6925 -1.6774  0.8350
 9327TIP3    H249397   4.736   4.034  14.343  0.0776  0.4160 -0.9692
 9328TIP3   OH249398   4.596   4.296   0.496 -0.2100  0.4659 -0.1430
 9328TIP3    H149399   4.663   4.288   0.563 -0.5378  0.5754  0.1967
 9328TIP3    H249400   4.641   4.274   0.414  0.8843  2.9314 -0.2727
 9329TIP3   OH249401   3.392   4.700   4.668  0.6582 -0.4214 -0.2051
 9329TIP3    H149402   3.417   4.698   4.576  0.6702 -0.0711 -0.2134
 9329TIP3    H249403   3.309   4.748   4.669  1.1563  0.4741  0.0656
 9330TIP3   OH249404   0.928   5.342  14.096 -0.0645  0.4130  0.3431
 9330TIP3    H149405   0.953   5.390  14.017  0.5520  0.2447  0.4315
 9330TIP3    H249406   0.867   5.275  14.065 -0.1972  0.6515  0.0818
 9331TIP3   OH249407   4.085   2.972  13.585 -0.2330  0.3577  0.0186
 9331TIP3    H149408   4.166   3.017  13.607 -0.7186  1.0777  0.3491
 9331TIP3    H249409   4.027   3.040  13.553 -1.1837  0.0921  1.0912
 9332TIP3   OH249410   0.814   5.462   6.128 -0.0023  0.3296  0.2219
 9332TIP3    H149411   0.779   5.489   6.043  0.0128  1.1487  0.4606
 9332TIP3    H249412   0.766   5.516   6.191 -0.0674 -0.3241  0.7402
 9333TIP3   OH249413   5.015   0.754  14.280 -0.2624 -0.1273  0.0225
 9333TIP3    H149414   5.035   0.709  14.198  2.4346  3.3815 -1.5464
 9333TIP3    H249415   4.924   0.781  14.271  0.3595  1.5173 -2.7187
 9334TIP3   OH249416   6.353   2.283  12.055  0.8768 -0.5330 -0.4130
 9334TIP3    H149417   6.443   2.277  12.022  0.5930 -3.0073 -0.9270
 9334TIP3    H249418   6.354   2.230  12.134  0.7165  2.5883  1.8674
 9335TIP3   OH249419   1.334   2.025  13.497  0.8133  0.1221 -0.1204
 9335TIP3    H149420   1.273   1.967  13.450 -0.5179  0.6595  0.9143
 9335TIP3    H249421   1.382   1.966  13.556  0.1463 -0.0646  0.2364
 9336TIP3   OH249422   0.636   2.339  15.269  0.6749 -0.2208  0.1870
 9336TIP3    H149423   0.684   2.417  15.240  1.5530 -0.2873  1.3858
 9336TIP3    H249424   0.699   2.268  15.263  0.2505 -0.6077  0.2611
 9337TIP3   OH249425   1.186   3.478   0.049 -0.5463 -0.1900  0.1648
 9337TIP3    H149426   1.118   3.443  -0.007 -0.8404 -0.6621  0.8036
 9337TIP3    H249427   1.153   3.563   0.078  0.1169  0.6044 -1.2914
 9338TIP3   OH249428   0.885   6.086  11.266 -0.4256  0.0703  0.2187
 9338TIP3    H149429   0.823   6.159  11.264 -0.9290 -0.3622 -1.8936
 9338TIP3    H249430   0.857   6.029  11.195  0.3287 -1.9020  1.4328
 9339TIP3   OH249431   4.802   4.938  11.631 -0.8550  0.4252 -0.2530
 9339TIP3    H149432   4.853   4.904  11.705  0.3643  2.6874  0.0254
 9339TIP3    H249433   4.727   4.879  11.624 -1.9431  1.0626  3.8718
 9340TIP3   OH249434   0.963   0.080  14.240 -0.2938 -0.3359 -0.0866
 9340TIP3    H149435   1.015   0.062  14.318 -0.9545  0.3033  0.5155
 9340TIP3    H249436   1.022   0.061  14.167  0.6613  0.0016  0.5734
 9341TIP3   OH249437   0.338   6.176   4.922 -0.3555  0.5579  0.0671
 9341TIP3    H149438   0.326   6.088   4.886 -0.6024  0.2290  0.9139
 9341TIP3    H249439   0.249   6.203   4.946 -0.3727  1.3260 -0.8137
 9342TIP3   OH249440   3.742   6.478  12.558  0.2444  0.0712  0.1407
 9342TIP3    H149441   3.826   6.476  12.605  0.0768 -0.7218  0.4356
 9342TIP3    H249442   3.732   6.568  12.529  1.1237  0.2122  0.2489
 9343TIP3   OH249443   5.154   4.731   1.166 -0.3938 -0.1425  0.5265
 9343TIP3    H149444   5.192   4.759   1.249 -0.9116  1.6620  0.1923
 9343TIP3    H249445   5.225   4.739   1.103 -0.9212  2.1463  0.1203
 9344TIP3   OH249446   2.495   6.083  16.671 -0.1903 -0.3682 -0.3689
 9344TIP3    H149447   2.494   6.146  16.744 -0.8339  1.7359 -2.0822
 9344TIP3    H249448   2.427   6.019  16.694  1.1074 -1.0553  1.8561
 9345TIP3   OH249449   3.793   0.327  11.844  0.3075  0.0438 -0.0797
 9345TIP3    H149450   3.795   0.356  11.935  0.6641 -1.5157  0.4489
 9345TIP3    H249451   3.699   0.322  11.822  0.1078 -1.5250  0.9169
 9346TIP3   OH249452   1.740   6.529  14.414 -0.4067  0.2472  0.2822
 9346TIP3    H149453   1.714   6.536  14.322 -2.1341  0.1095  0.7318
 9346TIP3    H249454   1.664   6.491  14.458  0.4939  0.0533  1.7277
 9347TIP3   OH249455   4.271   3.412   4.481 -0.0324  0.2221 -0.3265
 9347TIP3    H149456   4.307   3.401   4.569 -1.1993  2.5364  0.5160
 9347TIP3    H249457   4.183   3.373   4.486  0.7503 -1.8116 -1.2300
 9348TIP3   OH249458   1.304   4.156  11.620  0.1686 -0.5646 -0.4944
 9348TIP3    H149459   1.299   4.165  11.715 -1.4405  0.5949 -0.6438
 9348TIP3    H249460   1.245   4.083  11.600  0.0602 -0.4394 -0.6375
 9349TIP3   OH249461   3.089   1.050  17.195  0.2133 -0.1627 -0.1723
 9349TIP3    H149462   3.027   1.074  17.127 -0.9010  0.1705  0.9172
 9349TIP3    H249463   3.171   1.091  17.169 -0.2658  0.1948 -1.1585
 9350TIP3   OH249464   0.939   4.954   6.160 -0.0133 -0.3166  0.0366
 9350TIP3    H149465   1.017   4.900   6.150 -0.7598 -1.5233  0.4224
 9350TIP3    H249466   0.881   4.902   6.216 -0.7213  0.9540  0.5361
 9351TIP3   OH249467   6.509   3.509  15.098 -0.4812 -0.1587 -0.5290
 9351TIP3    H149468   6.426   3.476  15.063 -1.1113  0.4112  0.4101
 9351TIP3    H249469   6.569   3.434  15.089 -1.2445 -0.7704 -0.6687
 9352TIP3   OH249470   0.037   2.717   0.809  0.1457  0.6403 -0.3103
 9352TIP3    H149471   0.124   2.743   0.840 -0.6793  2.3514  0.7637
 9352TIP3    H249472  -0.023   2.778   0.853 -1.6364 -0.7189 -0.7343
 9353TIP3   OH249473   0.330   3.993  15.573  0.0182 -0.2690 -0.6081
 9353TIP3    H149474   0.393   4.033  15.632 -0.4186  0.3135 -0.5283
 9353TIP3    H249475   0.296   4.066  15.521 -3.3005  0.1308  1.8106
 9354TIP3   OH249476   2.037   5.460   4.911 -0.1141 -0.0553 -0.4047
 9354TIP3    H149477   1.961   5.445   4.856 -0.8569  1.6276  0.0958
 9354TIP3    H249478   2.056   5.553   4.901 -0.1168  0.2691  1.9326
 9355TIP3   OH249479   0.667   0.705   3.603  0.1131 -0.0136  0.0420
 9355TIP3    H149480   0.734   0.681   3.668 -0.9869  2.3461  2.2110
 9355TIP3    H249481   0.584   0.694   3.649 -0.9246 -0.8506 -1.9134
 9356TIP3   OH249482   1.646   2.057   4.342 -0.2495 -0.0312 -0.2688
 9356TIP3    H149483   1.710   2.012   4.397 -0.9803 -0.9766 -0.1609
 9356TIP3    H249484   1.561   2.022   4.370 -0.7984  0.9219 -0.6577
 9357TIP3   OH249485   0.440   5.735   4.279  0.2307 -0.4849 -0.0042
 9357TIP3    H149486   0.389   5.795   4.224 -2.5180 -0.5140  2.2573
 9357TIP3    H249487   0.456   5.659   4.223 -1.1630  0.0717 -1.2430
 9358TIP3   OH249488   6.383   1.249  11.698  0.2709  0.0837 -0.0374
 9358TIP3    H149489   6.382   1.223  11.606  2.1738  1.2872 -0.4486
 9358TIP3    H249490   6.428   1.177  11.742  1.4522  0.5457 -0.4483
 9359TIP3   OH249491   4.080   1.517  13.640  0.2195 -0.5126 -0.5009
 9359TIP3    H149492   4.005   1.542  13.694  0.8802  0.4914 -0.0221
 9359TIP3    H249493   4.041   1.489  13.557 -0.6335  1.2168 -0.7306
 9360TIP3   OH249494   3.974   1.438   4.587  0.0448  0.0736 -0.1175
 9360TIP3    H149495   4.041   1.379   4.553 -1.3464 -1.3050 -0.5949
 9360TIP3    H249496   3.982   1.517   4.533  0.9375 -0.2577 -0.5002
 9361TIP3   OH249497   0.828   4.331  16.796 -0.2601 -0.0770 -0.0799
 9361TIP3    H149498   0.800   4.356  16.709  0.9759 -0.0118 -0.4782
 9361TIP3    H249499   0.875   4.249  16.784 -1.1967 -0.7599  0.7188
 9362TIP3   OH249500   5.989   3.052   5.801  0.3730  0.0665 -0.2621
 9362TIP3    H149501   6.073   3.059   5.847 -0.9041 -1.5396  2.5801
 9362TIP3    H249502   5.998   2.973   5.748  0.8035  0.1504 -0.3200
 9363TIP3   OH249503   6.723   1.788   1.539  0.8896  0.1297  0.3562
 9363TIP3    H149504   6.694   1.715   1.594  1.2181 -1.5845 -1.6145
 9363TIP3    H249505   6.642   1.828   1.508  0.5610 -1.7375 -1.4240
 9364TIP3   OH249506   3.383   1.290   5.484 -0.0342  0.2655 -0.2361
 9364TIP3    H149507   3.410   1.221   5.544 -1.4570  0.5862  0.8097
 9364TIP3    H249508   3.392   1.251   5.397 -0.0786 -0.9690  0.2948
 9365TIP3   OH249509   3.554   4.040  17.024 -0.1251 -0.0711 -0.2119
 9365TIP3    H149510   3.495   3.969  17.053  0.4271 -0.8033 -0.8266
 9365TIP3    H249511   3.636   3.995  17.004  0.1742  0.7315 -0.8036
 9366TIP3   OH249512   3.532   0.764   5.165  0.2824 -0.3474  0.5298
 9366TIP3    H149513   3.501   0.674   5.154  2.6610 -1.4748  2.2030
 9366TIP3    H249514   3.559   0.769   5.257  0.4882  1.9883  0.3901
 9367TIP3   OH249515   3.795   1.498   0.500  0.2470 -0.3631 -0.5289
 9367TIP3    H149516   3.803   1.575   0.555 -1.0780 -0.2029 -0.5511
 9367TIP3    H249517   3.701   1.481   0.493  0.4063 -0.7963 -2.1646
 9368TIP3   OH249518   1.355   3.410  11.433 -0.3317  0.0912 -0.3900
 9368TIP3    H149519   1.328   3.502  11.433 -1.8414 -0.3328 -0.5572
 9368TIP3    H249520   1.435   3.408  11.380 -1.4524  0.9930 -2.1872
 9369TIP3   OH249521   2.158   2.586   5.863  0.1208  0.0214  0.6652
 9369TIP3    H149522   2.088   2.571   5.800 -0.4022  1.2715  0.9180
 9369TIP3    H249523   2.212   2.507   5.858  0.7868  0.5469 -2.1873
 9370TIP3   OH249524   0.906   1.595   5.743 -0.0880 -0.5901 -0.9289
 9370TIP3    H149525   1.001   1.586   5.751 -0.0323  0.5954  0.0969
 9370TIP3    H249526   0.885   1.552   5.660  1.6025  0.7343 -2.1279
 9371TIP3   OH249527   5.126   0.009   4.261  0.3179 -0.3677  0.0339
 9371TIP3    H149528   5.140  -0.072   4.211  0.3963 -0.1203 -0.3558
 9371TIP3    H249529   5.152  -0.012   4.350 -0.6680 -1.0780  0.1665
 9372TIP3   OH249530   4.301   3.854  14.637  0.0110 -0.0773 -0.0444
 9372TIP3    H149531   4.254   3.931  14.667  0.7537  0.5324 -0.4171
 9372TIP3    H249532   4.319   3.804  14.717  0.2052  0.5250  0.2909
 9373TIP3   OH249533   0.168   6.204   5.308 -0.1245 -0.3093 -0.4189
 9373TIP3    H149534   0.241   6.263   5.292  0.1976 -0.4409  0.5293
 9373TIP3    H249535   0.207   6.118   5.318 -0.2078 -0.1559  1.6396
 9374TIP3   OH249536   0.421   1.444  15.516 -0.3529  0.2093  0.0810
 9374TIP3    H149537   0.369   1.516  15.553 -0.5839  0.5282 -0.8410
 9374TIP3    H249538   0.510   1.462  15.546 -0.9478 -1.3823  3.2970
 9375TIP3   OH249539   6.397   5.153  14.428 -0.0228 -0.1582 -0.0042
 9375TIP3    H149540   6.326   5.091  14.447  2.5765 -2.3237  4.6758
 9375TIP3    H249541   6.375   5.231  14.478 -0.1544  0.0543 -0.3926
 9376TIP3   OH249542   6.729   2.781   3.512  0.2579  0.6219 -0.2296
 9376TIP3    H149543   6.786   2.758   3.586 -0.1700  2.1133  0.6058
 9376TIP3    H249544   6.754   2.871   3.489  0.1342  0.3085 -1.6751
 9377TIP3   OH249545   1.827   5.967   6.283 -0.1224 -0.1234 -0.2813
 9377TIP3    H149546   1.769   5.917   6.226  0.2678 -0.0395 -0.7582
 9377TIP3    H249547   1.839   5.912   6.361 -0.7544 -0.1845 -0.2253
 9378TIP3   OH249548   0.665   2.557  13.042  0.2106  0.2775 -0.3278
 9378TIP3    H149549   0.673   2.595  12.954  0.5136  1.5063  0.2130
 9378TIP3    H249550   0.656   2.632  13.100  0.1353 -0.5177  0.7206
 9379TIP3   OH249551   6.494   2.406  14.826  0.5645  0.2986  0.2398
 9379TIP3    H149552   6.507   2.497  14.801 -2.2919  1.3489  2.0370
 9379TIP3    H249553   6.473   2.361  14.745 -1.1761  1.9797 -0.3143
 9380TIP3   OH249554   0.262   2.437   1.336  0.0840 -0.1119  0.3092
 9380TIP3    H149555   0.204   2.397   1.271 -1.2408  0.6398  0.9841
 9380TIP3    H249556   0.203   2.482   1.396  1.3085 -0.3210  1.7292
 9381TIP3   OH249557   3.287   0.584  15.457  0.5175 -0.1301  0.0876
 9381TIP3    H149558   3.373   0.563  15.421  0.1859 -0.3084 -0.6103
 9381TIP3    H249559   3.301   0.588  15.552  0.7701 -2.7663  0.2170
 9382TIP3   OH249560   3.567   1.473   5.603  0.1918 -0.1853  0.5182
 9382TIP3    H149561   3.509   1.413   5.557 -1.7546  1.2837  0.9244
 9382TIP3    H249562   3.543   1.464   5.695 -0.3091  1.3336  0.5640
 9383TIP3   OH249563   2.688   3.841  12.702  0.4004  0.0338 -0.2832
 9383TIP3    H149564   2.675   3.798  12.786  2.3400 -0.7533 -0.3409
 9383TIP3    H249565   2.606   3.889  12.687  0.0621  0.3244  2.0883
 9384TIP3   OH249566   5.671   1.468  12.657 -0.3000 -0.1754 -0.3097
 9384TIP3    H149567   5.766   1.459  12.649 -0.3794 -0.1243 -1.4961
 9384TIP3    H249568   5.644   1.504  12.573 -1.1676  1.5062  0.6409
 9385TIP3   OH249569   3.160   0.495  11.187  0.0161  0.0800 -0.1137
 9385TIP3    H149570   3.197   0.561  11.128 -0.0015 -0.3989 -0.6627
 9385TIP3    H249571   3.187   0.411  11.150 -0.3590 -0.2390  0.3225
 9386TIP3   OH249572   2.893   4.722   4.673  0.1853  0.0662  0.3194
 9386TIP3    H149573   2.864   4.767   4.753  0.6316  1.5197 -0.3084
 9386TIP3    H249574   2.844   4.764   4.602  1.1181  0.0432 -0.3581
 9387TIP3   OH249575   1.940   6.523  12.957  0.4244  0.6031  0.3928
 9387TIP3    H149576   1.849   6.493  12.947  1.6483 -2.7379 -3.1831
 9387TIP3    H249577   1.945   6.604  12.907 -0.3210  0.1049 -0.5108
 9388TIP3   OH249578   1.944   6.304  11.540 -0.0147  0.0685  0.1652
 9388TIP3    H149579   1.918   6.285  11.630  1.3538 -0.5096  0.4592
 9388TIP3    H249580   1.981   6.222  11.508  0.7904  0.6612 -0.4614
 9389TIP3   OH249581   0.344   2.978  17.168 -0.2211  0.6903 -0.0268
 9389TIP3    H149582   0.381   2.972  17.256  0.3415  1.8251 -0.1647
 9389TIP3    H249583   0.366   2.894  17.128 -0.9324 -0.0475  1.0622
 9390TIP3   OH249584   4.774   1.564   6.063  0.2850  0.7196 -0.5491
 9390TIP3    H149585   4.682   1.579   6.086  0.4363  0.0557  0.5254
 9390TIP3    H249586   4.818   1.547   6.147  0.8400 -1.8953 -1.2745
 9391TIP3   OH249587   1.700   5.237   2.285  0.2825  0.0793 -0.4190
 9391TIP3    H149588   1.646   5.250   2.206  2.3912 -1.0798 -2.1582
 9391TIP3    H249589   1.647   5.179   2.340 -0.1117 -1.4306 -2.2741
 9392TIP3   OH249590   5.616   1.847  12.695 -0.2534 -0.3950  0.4877
 9392TIP3    H149591   5.527   1.855  12.659 -0.2455  1.3437  0.7332
 9392TIP3    H249592   5.606   1.790  12.771 -1.4275  0.7388  1.2376
 9393TIP3   OH249593   4.772   1.332   1.365  0.2196 -0.6020  0.3058
 9393TIP3    H149594   4.738   1.384   1.437 -0.1467 -0.8966  0.3492
 9393TIP3    H249595   4.866   1.352   1.363 -0.2553  1.7157 -1.0749
 9394TIP3   OH249596   4.451   2.209  10.741 -0.0683 -0.1437  0.4012
 9394TIP3    H149597   4.469   2.130  10.792  0.2311  1.1342  2.3496
 9394TIP3    H249598   4.537   2.238  10.710 -0.3123 -1.2760 -1.4733
 9395TIP3   OH249599   6.008   1.140  14.322  0.6428  0.1210 -0.2290
 9395TIP3    H149600   5.982   1.227  14.293 -0.9638 -0.6566 -1.2225
 9395TIP3    H249601   6.070   1.110  14.255  0.2343  0.0046 -0.5538
 9396TIP3   OH249602   3.437   6.144  13.211  0.6299 -0.5765  0.4360
 9396TIP3    H149603   3.355   6.193  13.214  1.2920  0.5115  1.4352
 9396TIP3    H249604   3.453   6.118  13.302  2.3641  0.9367  0.6230
 9397TIP3   OH249605   0.093   2.702   5.086  0.0823  0.2124 -0.4179
 9397TIP3    H149606   0.050   2.703   5.000 -2.1278  0.7017  0.6041
 9397TIP3    H249607   0.049   2.773   5.135 -1.2224 -2.2011  2.1892
 9398TIP3   OH249608   1.367   3.081   2.710  0.0454  0.2853  0.3082
 9398TIP3    H149609   1.315   3.048   2.784  0.5159 -2.1435 -0.3494
 9398TIP3    H249610   1.362   3.011   2.644  1.4904  1.3952 -1.0600
 9399TIP3   OH249611   3.818   2.103   5.526  0.4317 -0.4674 -0.2421
 9399TIP3    H149612   3.757   2.070   5.592 -1.7311 -2.0933 -2.8295
 9399TIP3    H249613   3.794   2.195   5.515  0.4900 -0.3108  0.8635
 9400TIP3   OH249614   3.501   5.515  15.008 -0.1814  0.2303 -0.1225
 9400TIP3    H149615   3.532   5.496  14.919 -0.2403  0.6115 -0.2282
 9400TIP3    H249616   3.486   5.610  15.008 -1.5941  0.0284 -0.1554
 9401TIP3   OH249617   4.744   6.632  11.864  0.2352  0.1740  0.6991
 9401TIP3    H149618   4.793   6.636  11.782  1.0574 -3.3201  0.8756
 9401TIP3    H249619   4.795   6.685  11.925  2.1704 -0.8844  0.0829
 9402TIP3   OH249620   1.105   3.736   2.169  0.0574 -0.3320  0.1693
 9402TIP3    H149621   1.097   3.760   2.076 -0.1731 -1.0723 -0.0065
 9402TIP3    H249622   1.016   3.715   2.196  0.2150 -0.7165  0.3940
 9403TIP3   OH249623   3.832   1.924   4.264  0.4171 -0.0825 -0.0840
 9403TIP3    H149624   3.767   1.994   4.255  0.5812  0.1863  0.7123
 9403TIP3    H249625   3.856   1.926   4.357  2.6621  0.8338 -0.6275
 9404TIP3   OH249626   4.642   1.857  13.217 -0.6002  0.0860 -0.0652
 9404TIP3    H149627   4.655   1.935  13.163  0.1594 -0.9731 -1.4427
 9404TIP3    H249628   4.612   1.790  13.156  1.2845 -1.4359  0.6034
 9405TIP3   OH249629   2.872   1.670   5.636  0.6309 -0.2549 -0.2012
 9405TIP3    H149630   2.810   1.597   5.646  1.8249 -1.3238 -0.2665
 9405TIP3    H249631   2.901   1.664   5.545 -1.5917  2.3090 -1.2102
 9406TIP3   OH249632   6.255   4.391   3.256 -0.1372  0.1299 -0.5799
 9406TIP3    H149633   6.282   4.342   3.178  0.1485 -0.0072 -0.3928
 9406TIP3    H249634   6.200   4.462   3.221  0.0513  0.1139 -0.9123
 9407TIP3   OH249635   5.451   0.264  11.341 -0.5670 -0.4304 -0.1996
 9407TIP3    H149636   5.406   0.304  11.416 -1.0569 -0.7698 -0.3040
 9407TIP3    H249637   5.421   0.315  11.266 -1.7041 -1.3757 -0.4164
 9408TIP3   OH249638   5.649   2.128  13.033 -0.1904  0.1469  0.7901
 9408TIP3    H149639   5.714   2.090  12.974  0.6940  0.8392  1.3041
 9408TIP3    H249640   5.616   2.053  13.082 -0.8989 -0.4345 -0.5071
 9409TIP3   OH249641   0.488   3.182   0.089 -0.0889 -0.5636 -0.3977
 9409TIP3    H149642   0.495   3.103   0.142  1.7273  0.2411  0.6620
 9409TIP3    H249643   0.415   3.230   0.128  0.2111 -0.7112  0.3628
 9410TIP3   OH249644   5.042   3.315  15.939 -0.1197  0.4709 -0.2576
 9410TIP3    H149645   5.059   3.405  15.910  1.8913  0.3526  0.3386
 9410TIP3    H249646   5.046   3.320  16.035  0.3892 -0.3033 -0.2270
 9411TIP3   OH249647   4.266   4.039  12.748 -0.7194 -0.1111  0.4225
 9411TIP3    H149648   4.229   4.020  12.834 -1.5681 -0.3475  0.0161
 9411TIP3    H249649   4.204   4.100  12.708  0.2878  0.9655  0.4302
 9412TIP3   OH249650   6.555   5.027  13.935 -0.9906 -0.5115 -0.0395
 9412TIP3    H149651   6.604   4.996  14.012 -1.1049  0.1782  0.3140
 9412TIP3    H249652   6.511   5.106  13.965 -1.4860 -0.5495 -0.6619
 9413TIP3   OH249653   2.298   3.450  13.195  0.2968 -0.0535  0.7608
 9413TIP3    H149654   2.259   3.419  13.277  2.0151 -0.2350  1.5742
 9413TIP3    H249655   2.244   3.411  13.126 -1.0713 -0.0709  1.7980
 9414TIP3   OH249656   2.242   0.063   1.305 -0.1970 -0.5901 -0.1132
 9414TIP3    H149657   2.177  -0.008   1.310 -0.1210 -0.8189 -1.9476
 9414TIP3    H249658   2.288   0.048   1.223 -0.8161  2.1161 -1.0490
 9415TIP3   OH249659   0.291   5.139   5.479  0.1649  0.1665  0.0999
 9415TIP3    H149660   0.197   5.140   5.460  0.4672  1.2238 -1.5280
 9415TIP3    H249661   0.302   5.065   5.538 -1.5448 -0.6296 -0.4916
 9416TIP3   OH249662   0.904   2.536   3.764  0.1707  0.0077 -0.5704
 9416TIP3    H149663   0.903   2.592   3.686 -0.1313  1.3586  0.3900
 9416TIP3    H249664   0.816   2.542   3.799 -0.0550 -1.5859 -0.7765
 9417TIP3   OH249665   5.709   5.882  12.287 -0.5108  0.3735 -0.4914
 9417TIP3    H149666   5.752   5.821  12.347 -0.1262 -1.3432 -2.4162
 9417TIP3    H249667   5.756   5.965  12.300 -1.0195  0.3301  2.1530
 9418TIP3   OH249668   0.956   5.885  16.998  0.0606  0.5646 -0.5404
 9418TIP3    H149669   0.921   5.973  16.987 -1.3155 -0.1882 -2.6899
 9418TIP3    H249670   0.920   5.855  17.081  0.7362  2.0621  0.3389
 9419TIP3   OH249671   2.464   5.502   0.303 -0.6785 -0.5535 -0.2143
 9419TIP3    H149672   2.434   5.570   0.363 -1.1067 -0.6469 -0.3233
 9419TIP3    H249673   2.411   5.426   0.323  1.7667 -1.8357  1.9519
 9420TIP3   OH249674   6.669   2.281  14.255 -0.1389  0.4768  0.3465
 9420TIP3    H149675   6.765   2.286  14.256  0.0160 -0.9035 -1.5598
 9420TIP3    H249676   6.650   2.196  14.294 -0.4432 -0.1094 -1.0279
 9421TIP3   OH249677   0.568   5.590   3.920  0.3264  0.7768  0.2677
 9421TIP3    H149678   0.597   5.593   3.829 -0.2531  2.0608  0.0980
 9421TIP3    H249679   0.473   5.583   3.915  0.4304 -1.8566  0.8172
 9422TIP3   OH249680   5.487   0.520  12.891  0.0856 -0.2664 -0.2118
 9422TIP3    H149681   5.517   0.491  12.805  0.5085 -1.1194  0.2119
 9422TIP3    H249682   5.566   0.555  12.933 -0.2000  0.5176 -0.3051
 9423TIP3   OH249683   0.658   6.720   0.496 -0.4571 -0.3426  0.2247
 9423TIP3    H149684   0.700   6.806   0.496 -0.3066 -0.4132  0.7016
 9423TIP3    H249685   0.593   6.725   0.566  0.2731 -0.9562  0.9686
 9424TIP3   OH249686   1.768   1.237  16.859  0.2340 -0.2851 -0.1358
 9424TIP3    H149687   1.718   1.158  16.840 -0.8319  0.3957 -0.2662
 9424TIP3    H249688   1.859   1.210  16.853 -0.0920 -1.1850 -1.5352
 9425TIP3   OH249689   0.336   1.135   0.900  0.2844 -0.1238 -0.4291
 9425TIP3    H149690   0.318   1.108   0.990 -0.3164 -1.3134 -0.8855
 9425TIP3    H249691   0.430   1.120   0.889  0.0331 -1.7436 -0.5587
 9426TIP3   OH249692   6.626   1.105   0.933  0.6665 -0.4967 -0.2699
 9426TIP3    H149693   6.643   1.128   0.841  2.1607 -0.4450  0.0068
 9426TIP3    H249694   6.701   1.054   0.960  1.0088  0.7781  1.3761
 9427TIP3   OH249695   1.827   5.719   5.254  0.4653  0.0323 -0.2318
 9427TIP3    H149696   1.811   5.688   5.343  2.5338  2.5080  1.1581
 9427TIP3    H249697   1.908   5.676   5.228  2.4141  2.6337  1.0441
 9428TIP3   OH249698   1.841   6.268  14.341 -0.1711 -0.0662  0.2800
 9428TIP3    H149699   1.843   6.352  14.387 -2.2896  0.1708  0.0369
 9428TIP3    H249700   1.790   6.210  14.397  1.0509 -1.1494  0.3233
 9429TIP3   OH249701   0.900   2.681  15.837  0.5835  0.1856 -0.0964
 9429TIP3    H149702   0.870   2.767  15.809 -1.9357 -0.1937  1.1301
 9429TIP3    H249703   0.906   2.630  15.756  0.0898  0.9409 -0.6215
 9430TIP3   OH249704   2.390   2.765  13.435  0.0771 -0.4918 -0.1107
 9430TIP3    H149705   2.428   2.801  13.355  0.4377 -0.4692  0.0670
 9430TIP3    H249706   2.295   2.772  13.422  0.1287  0.8721  0.0662
 9431TIP3   OH249707   1.454   1.681  12.486 -0.2234 -0.3754 -0.5775
 9431TIP3    H149708   1.422   1.767  12.458  1.4113  1.2704  2.1797
 9431TIP3    H249709   1.549   1.686  12.476 -0.0284 -1.5018  0.5037
 9432TIP3   OH249710   3.030   6.153  11.863 -0.3293 -0.3646 -0.4237
 9432TIP3    H149711   2.986   6.220  11.811  0.1018  0.1546 -0.1296
 9432TIP3    H249712   2.960   6.095  11.893 -0.7771  0.2997 -0.1841
 9433TIP3   OH249713   2.110   6.548  11.788 -0.2213 -0.1959 -0.3946
 9433TIP3    H149714   2.161   6.518  11.712 -2.3530 -0.6361 -1.7417
 9433TIP3    H249715   2.080   6.635  11.763 -3.2010 -1.3549 -1.3961
 9434TIP3   OH249716   0.658   2.472   5.997  0.3363 -0.1711 -0.3417
 9434TIP3    H149717   0.626   2.508   6.080  1.9084  0.8373 -0.1223
 9434TIP3    H249718   0.701   2.391   6.022 -0.2684 -0.5077 -0.3642
 9435TIP3   OH249719   5.510   2.597   1.584  0.7318  0.8337  0.1883
 9435TIP3    H149720   5.582   2.643   1.629  0.2075  2.1381 -0.2657
 9435TIP3    H249721   5.435   2.655   1.594 -0.1587 -0.3028  0.2499
 9436TIP3   OH249722   0.387   3.625  16.247 -0.5200 -0.0280  0.1604
 9436TIP3    H149723   0.393   3.693  16.181 -0.1360 -1.9416 -1.9041
 9436TIP3    H249724   0.302   3.583  16.230  0.3114 -1.6034 -0.2343
 9437TIP3   OH249725   1.440   6.737   2.346  0.0084 -0.2802 -0.1398
 9437TIP3    H149726   1.458   6.816   2.295  1.2954  0.4824  1.3964
 9437TIP3    H249727   1.417   6.671   2.281 -0.5854  1.2029 -1.5165
 9438TIP3   OH249728   0.873   5.371   4.585 -0.0560  0.0722 -0.2169
 9438TIP3    H149729   0.806   5.315   4.546 -0.2761 -0.2264  0.5771
 9438TIP3    H249730   0.948   5.363   4.527  0.0774 -1.4164  0.1194
 9439TIP3   OH249731   6.261   1.975   2.149  0.7377  0.2947 -0.3078
 9439TIP3    H149732   6.298   2.058   2.181  1.7893 -0.4795  0.5715
 9439TIP3    H249733   6.255   1.986   2.054  1.1087  1.2720 -0.2305
 9440TIP3   OH249734   1.648   4.676   0.751  0.7577  0.4429  0.0111
 9440TIP3    H149735   1.578   4.652   0.691  0.7367 -0.0773  0.2371
 9440TIP3    H249736   1.603   4.698   0.833  0.8683 -0.1979  0.2535
 9441TIP3   OH249737   3.502   2.179   2.809  0.2062  0.0495  0.4187
 9441TIP3    H149738   3.471   2.106   2.756  2.1510 -1.6274  1.4490
 9441TIP3    H249739   3.546   2.237   2.747 -2.7660  1.3309 -0.6864
 9442TIP3   OH249740   5.230   3.971  16.879 -0.0079  0.0737 -0.8721
 9442TIP3    H149741   5.220   3.947  16.971  1.5545 -1.0276 -0.9609
 9442TIP3    H249742   5.154   4.028  16.861 -1.8682 -1.8748  0.3386
 9443TIP3   OH249743   5.962   1.364   4.486  0.5169 -0.5607  0.2481
 9443TIP3    H149744   5.884   1.326   4.445 -0.0567 -1.3670  1.9392
 9443TIP3    H249745   6.010   1.405   4.415 -0.8759 -1.0547 -1.0314
 9444TIP3   OH249746   4.777   0.707   3.581 -0.2857  0.1524  0.0287
 9444TIP3    H149747   4.856   0.761   3.579  0.8655 -1.4561  0.2400
 9444TIP3    H249748   4.807   0.622   3.611 -2.5473  0.2070  2.9348
 9445TIP3   OH249749   5.047   0.832  17.021 -0.5159  0.2721 -0.2921
 9445TIP3    H149750   5.130   0.856  17.062 -0.8850  0.0567  0.6071
 9445TIP3    H249751   5.072   0.783  16.942  0.2144 -0.2611  0.2561
 9446TIP3   OH249752   1.553   3.593   5.891 -0.0406 -0.1598 -0.2017
 9446TIP3    H149753   1.572   3.525   5.955  0.5859  1.0375  0.9036
 9446TIP3    H249754   1.578   3.554   5.807  0.0840 -1.3673  0.3768
 9447TIP3   OH249755   0.862   1.081   0.326 -0.2025 -0.1777  0.6535
 9447TIP3    H149756   0.803   1.142   0.282  0.1615 -0.6908 -0.6020
 9447TIP3    H249757   0.809   1.042   0.395 -1.3307 -0.5724 -0.3935
 9448TIP3   OH249758   6.260   4.355   1.791  0.0431  0.2991 -0.5719
 9448TIP3    H149759   6.190   4.295   1.764 -0.5313 -0.1928  1.7252
 9448TIP3    H249760   6.337   4.299   1.803 -0.5155 -0.0912  1.6576
 9449TIP3   OH249761   4.336   3.180   3.577  0.1439  0.1380 -0.5553
 9449TIP3    H149762   4.287   3.168   3.658  1.3232  2.8688  0.6912
 9449TIP3    H249763   4.269   3.189   3.509 -0.8807 -1.3111  0.2211
 9450TIP3   OH249764   5.391   6.235  16.140 -0.7081  0.0583  0.0661
 9450TIP3    H149765   5.360   6.303  16.199 -2.4990  0.6687 -1.4456
 9450TIP3    H249766   5.323   6.229  16.073  0.3371 -1.8709 -0.9307
 9451TIP3   OH249767   5.933   1.835   0.571 -0.2195  0.1013  0.3087
 9451TIP3    H149768   5.901   1.747   0.589 -0.2626 -0.2101 -1.2162
 9451TIP3    H249769   5.873   1.892   0.620 -0.9194 -0.6533  0.3592
 9452TIP3   OH249770   5.316   3.961   0.496  0.8193  0.1049 -0.1475
 9452TIP3    H149771   5.397   3.973   0.446  0.7991  0.3982 -0.1086
 9452TIP3    H249772   5.310   4.039   0.550  0.1313  0.4269 -0.6732
 9453TIP3   OH249773   5.741   5.399  13.203 -0.2079 -0.8046 -0.1251
 9453TIP3    H149774   5.825   5.433  13.235 -0.8163  0.3454  0.3143
 9453TIP3    H249775   5.758   5.379  13.111  0.5546 -0.5923 -0.0456
 9454TIP3   OH249776   6.061   5.483   1.204 -0.0214  0.0980  0.7178
 9454TIP3    H149777   6.099   5.416   1.261 -1.6556 -0.6072  1.0486
 9454TIP3    H249778   6.004   5.533   1.262 -0.5771  0.3075  0.0055
 9455TIP3   OH249779   0.807   4.643   1.042  0.1038  0.4837  0.4164
 9455TIP3    H149780   0.860   4.723   1.038 -0.2938  0.7207 -0.3319
 9455TIP3    H249781   0.726   4.670   1.084 -0.6640  0.8633 -1.2316
 9456TIP3   OH249782   1.637   1.360  12.295  0.3707 -0.2101 -0.1845
 9456TIP3    H149783   1.727   1.342  12.270  0.1187 -0.4718 -0.9327
 9456TIP3    H249784   1.638   1.358  12.391  0.9289 -1.4180 -0.1985
 9457TIP3   OH249785   6.509   3.711  11.675 -0.4538  0.0056  0.4887
 9457TIP3    H149786   6.552   3.759  11.604  0.2891 -0.0047  0.9290
 9457TIP3    H249787   6.487   3.626  11.637  2.4831 -1.1086  1.0293
 9458TIP3   OH249788   6.022   1.546   3.275 -0.5448 -0.0213  0.1300
 9458TIP3    H149789   6.025   1.531   3.369  0.0717 -1.5718 -0.1024
 9458TIP3    H249790   6.067   1.629   3.262  1.3005 -0.8396  1.0203
 9459TIP3   OH249791   0.223   3.548  11.822 -0.6265  0.8709 -0.7069
 9459TIP3    H149792   0.184   3.509  11.900 -0.9768 -0.2245 -1.4105
 9459TIP3    H249793   0.169   3.625  11.805  0.5035  2.1301  1.0950
 9460TIP3   OH249794   2.395   6.578  12.462 -0.0853 -0.3063  0.9332
 9460TIP3    H149795   2.332   6.606  12.395  1.0350  0.2647  0.0907
 9460TIP3    H249796   2.393   6.649  12.527 -0.4275 -0.3674  0.9911
 9461TIP3   OH249797   0.554   4.788  11.272  0.2408 -0.4258  0.8161
 9461TIP3    H149798   0.592   4.766  11.187 -0.8180  2.3842 -0.5037
 9461TIP3    H249799   0.629   4.800  11.330  1.1167 -0.1716 -0.3389
 9462TIP3   OH249800   0.235   1.104   1.931  0.1993 -0.5198 -0.4087
 9462TIP3    H149801   0.144   1.079   1.915  0.0655 -0.8052  0.6751
 9462TIP3    H249802   0.238   1.123   2.025  1.6474 -2.2319 -0.0522
 9463TIP3   OH249803   2.273   6.389   3.364 -0.5170 -0.0022 -0.7295
 9463TIP3    H149804   2.320   6.352   3.439 -2.1029  0.8522  0.7590
 9463TIP3    H249805   2.341   6.425   3.308  0.7720 -1.3850 -0.1158
 9464TIP3   OH249806   5.706   5.899   4.296  0.3647 -0.3960  0.2618
 9464TIP3    H149807   5.677   5.932   4.210  0.6508  3.4595  1.4247
 9464TIP3    H249808   5.790   5.859   4.279 -0.1952 -0.9412 -1.4417
 9465TIP3   OH249809   5.264   1.306  12.018  0.2974  0.3856  0.3794
 9465TIP3    H149810   5.353   1.295  12.050 -0.2758 -0.2048  1.8729
 9465TIP3    H249811   5.248   1.401  12.023  0.2327  0.3182  1.9137
 9466TIP3   OH249812   3.061   6.123   5.857 -0.0976 -1.1887 -0.3396
 9466TIP3    H149813   3.068   6.110   5.952 -0.4879 -0.6402 -0.2348
 9466TIP3    H249814   3.120   6.196   5.838 -1.4482 -0.0286 -0.2256
 9467TIP3   OH249815   1.111   5.428  16.743  0.4594  0.0836 -0.3226
 9467TIP3    H149816   1.200   5.438  16.777  0.0064 -0.3971  1.0465
 9467TIP3    H249817   1.105   5.336  16.717 -0.3297 -0.4941  1.7277
 9468TIP3   OH249818   4.840   0.465  11.666 -0.1451 -0.0085 -0.0596
 9468TIP3    H149819   4.870   0.478  11.756  0.0741 -0.6167 -0.0401
 9468TIP3    H249820   4.805   0.550  11.640 -1.1500 -0.0896  0.9573
 9469TIP3   OH249821   6.512   4.611  12.652 -0.3441 -0.5733 -0.0097
 9469TIP3    H149822   6.418   4.600  12.641 -0.7464  0.1697  2.2990
 9469TIP3    H249823   6.523   4.699  12.686  1.1612 -0.7976  0.1840
 9470TIP3   OH249824   5.605   0.359   1.936  0.3726 -0.2812 -0.2592
 9470TIP3    H149825   5.525   0.315   1.909  1.2840 -1.6245 -0.9076
 9470TIP3    H249826   5.602   0.444   1.892 -0.9818 -0.0311  0.2658
 9471TIP3   OH249827   5.928   6.493   3.560  1.3170 -0.7621 -1.2473
 9471TIP3    H149828   5.990   6.557   3.525  1.0146 -0.2488 -0.8555
 9471TIP3    H249829   5.982   6.435   3.614  1.3952 -0.0271 -0.5104
 9472TIP3   OH249830   4.194   4.813   2.809 -0.0973  0.2407  0.1519
 9472TIP3    H149831   4.106   4.778   2.796 -0.4920  1.6442 -1.2981
 9472TIP3    H249832   4.237   4.749   2.866 -1.5123 -1.3322 -0.4577
 9473TIP3   OH249833   2.549   0.143   5.752  0.1985  0.0573  0.0642
 9473TIP3    H149834   2.486   0.215   5.740  2.1569  1.7996 -0.3701
 9473TIP3    H249835   2.580   0.153   5.842  0.3190 -0.4046  0.0753
 9474TIP3   OH249836   3.821   2.626   6.210 -0.1043 -0.0196  0.1578
 9474TIP3    H149837   3.914   2.643   6.220 -0.2176  0.4050  0.5377
 9474TIP3    H249838   3.802   2.557   6.274 -0.2378  0.5910  0.7949
 9475TIP3   OH249839   0.969   6.149  12.661  0.2207 -0.2376  0.3329
 9475TIP3    H149840   0.886   6.103  12.672 -0.7842  1.3442 -0.3691
 9475TIP3    H249841   0.968   6.216  12.729  0.1075  0.9004 -0.7547
 9476TIP3   OH249842   3.842   6.650  15.987  0.5620 -0.3013 -0.4946
 9476TIP3    H149843   3.875   6.560  15.988 -0.6174 -0.7608  0.4839
 9476TIP3    H249844   3.853   6.680  16.078 -2.4915 -0.8423  0.1809
 9477TIP3   OH249845   1.550   3.412   3.014  0.5056  0.4377  0.0956
 9477TIP3    H149846   1.545   3.505   3.038 -0.8854  1.2692 -3.0170
 9477TIP3    H249847   1.604   3.411   2.935  0.2081 -1.3662 -0.1152
 9478TIP3   OH249848   2.783   2.938   3.047  0.0744  0.2803 -0.0731
 9478TIP3    H149849   2.806   2.861   3.099 -0.8378 -1.0090 -1.4729
 9478TIP3    H249850   2.692   2.957   3.071  0.4342  1.2342  0.5968
 9479TIP3   OH249851   0.178   6.424  14.413 -0.1879 -0.2161 -0.5893
 9479TIP3    H149852   0.207   6.351  14.468 -0.0168 -0.2259 -0.6908
 9479TIP3    H249853   0.242   6.427  14.342  0.4702  0.7512  0.0176
 9480TIP3   OH249854   3.049   4.029   5.935  1.0061  0.4975  0.0214
 9480TIP3    H149855   3.140   4.011   5.910  0.0409 -0.0070 -3.7526
 9480TIP3    H249856   3.004   3.946   5.922 -0.1456  0.8426  1.4893
 9481TIP3   OH249857   0.717   2.299  14.563 -0.1147  0.6496 -0.1575
 9481TIP3    H149858   0.780   2.347  14.509 -1.1894  2.0762 -0.1956
 9481TIP3    H249859   0.633   2.314  14.520 -0.5780 -0.6967  0.2535
 9482TIP3   OH249860   0.358   1.515   0.503  0.1531  0.3567  0.3953
 9482TIP3    H149861   0.400   1.430   0.495  0.4337  0.5438 -0.1642
 9482TIP3    H249862   0.271   1.496   0.540  0.3415 -0.1313  0.5942
 9483TIP3   OH249863   0.365   3.075   1.258  0.4189  0.1146  0.2049
 9483TIP3    H149864   0.361   3.015   1.333 -1.0257 -0.0841  0.0053
 9483TIP3    H249865   0.346   3.161   1.295  0.9230  0.2069  0.2503
 9484TIP3   OH249866   0.512   3.344  13.306  0.5890 -0.3554  0.0730
 9484TIP3    H149867   0.601   3.361  13.276  0.3445  0.9589  0.0297
 9484TIP3    H249868   0.466   3.312  13.229 -0.2887  3.8992 -1.4292
 9485TIP3   OH249869   5.971   6.585  15.737 -0.5294  0.2270  0.6732
 9485TIP3    H149870   5.980   6.522  15.665 -0.3783 -0.8371  1.6008
 9485TIP3    H249871   6.048   6.641  15.730  1.3856 -2.0351  2.0327
 9486TIP3   OH249872   1.751   0.689   1.699 -0.2256  0.0767  0.2827
 9486TIP3    H149873   1.751   0.609   1.647  1.7120 -1.5441  2.5346
 9486TIP3    H249874   1.826   0.739   1.666 -0.2548  0.0397  0.1601
 9487TIP3   OH249875   0.197   5.009   0.210 -0.1473 -0.1114 -0.2181
 9487TIP3    H149876   0.254   4.959   0.269 -0.9543 -0.5579  0.2121
 9487TIP3    H249877   0.113   5.014   0.257  0.3088  3.0176  0.4706
 9488TIP3   OH249878   2.089   0.110  15.718 -0.5023  0.3318 -0.4879
 9488TIP3    H149879   2.056   0.186  15.764 -0.5653 -0.9336  1.6656
 9488TIP3    H249880   2.179   0.133  15.693 -0.7160  1.2953 -0.3898
 9489TIP3   OH249881   1.810   6.769   4.673 -0.1599 -0.3389 -0.3462
 9489TIP3    H149882   1.749   6.788   4.601 -0.0701  1.4584  0.0142
 9489TIP3    H249883   1.878   6.715   4.632 -1.4440 -1.5350 -0.9874
 9490TIP3   OH249884   1.686   4.160  15.790  1.0472 -0.0972  0.0668
 9490TIP3    H149885   1.597   4.154  15.756  0.2146  0.8469  1.9042
 9490TIP3    H249886   1.714   4.249  15.768  0.1662  0.8450  2.4047
 9491TIP3   OH249887   0.915   4.977  12.791  0.2965  0.4418  0.9338
 9491TIP3    H149888   0.822   4.969  12.812  0.3941 -3.0534  0.6850
 9491TIP3    H249889   0.960   4.940  12.866  1.5707  2.2081  1.1013
 9492TIP3   OH249890   0.439   3.024  16.022 -0.1991 -0.9773 -0.0782
 9492TIP3    H149891   0.440   2.983  16.108  0.5592 -0.8942 -0.0433
 9492TIP3    H249892   0.350   3.010  15.990 -0.5254 -0.9021  0.7667
 9493TIP3   OH249893   0.350   4.232   3.544  0.5516  0.0818  0.5621
 9493TIP3    H149894   0.399   4.249   3.625  1.1534 -0.6490  0.3679
 9493TIP3    H249895   0.403   4.272   3.475 -0.1396  1.0136  0.5536
 9494TIP3   OH249896   5.761   1.668  16.724  0.7754 -0.1251  0.2998
 9494TIP3    H149897   5.755   1.589  16.778  1.9398  1.6470  3.2282
 9494TIP3    H249898   5.784   1.635  16.637  0.6651 -3.0266  1.2487
 9495TIP3   OH249899   1.848   2.175  14.090 -0.6250  0.1744  0.6321
 9495TIP3    H149900   1.767   2.196  14.045 -0.4468 -1.7863 -0.7699
 9495TIP3    H249901   1.836   2.084  14.119  0.1636  0.6348  2.5740
 9496TIP3   OH249902   3.995   4.895  15.629 -0.3080 -0.3022 -0.8170
 9496TIP3    H149903   3.960   4.969  15.580  1.1608 -1.2791 -3.5679
 9496TIP3    H249904   3.965   4.818  15.581 -1.7901 -1.5956  1.9482
 9497TIP3   OH249905   6.592   2.610   0.426 -0.5727 -0.0936 -0.0044
 9497TIP3    H149906   6.681   2.602   0.394 -0.4895 -1.9585  0.5959
 9497TIP3    H249907   6.540   2.558   0.365 -0.7944 -1.4648  1.3033
 9498TIP3   OH249908   0.985   0.843  16.156  0.4145  0.1216 -0.6688
 9498TIP3    H149909   0.992   0.934  16.128  1.0550  0.1788 -0.3442
 9498TIP3    H249910   0.895   0.817  16.133 -0.1862  1.2123  0.3460
 9499TIP3   OH249911   5.457   2.337  16.196  0.9944  0.5355 -0.0983
 9499TIP3    H149912   5.405   2.383  16.263  0.2248  1.3854 -1.2256
 9499TIP3    H249913   5.528   2.398  16.176  1.5467  0.0379  0.3467
 9500TIP3   OH249914   0.269   4.260  15.444 -1.0886 -0.3158  0.1273
 9500TIP3    H149915   0.363   4.273  15.434 -0.7182 -2.0364  1.0903
 9500TIP3    H249916   0.237   4.344  15.478  0.4617 -0.3953  1.9337
 9501TIP3   OH249917   0.095   4.619   1.465  0.2387 -0.2829 -0.7064
 9501TIP3    H149918   0.093   4.613   1.560 -0.6891 -1.6205 -0.7841
 9501TIP3    H249919   0.188   4.631   1.444  0.2400  2.3759  0.4312
 9502TIP3   OH249920   1.130   1.584  12.562  0.3318  0.4000  0.0664
 9502TIP3    H149921   1.048   1.536  12.570 -0.7242  2.4136  3.5355
 9502TIP3    H249922   1.197   1.521  12.591 -0.4184 -0.3250  0.2834
 9503TIP3   OH249923   0.170   4.924  13.756  0.0726  0.1066  0.8093
 9503TIP3    H149924   0.092   4.911  13.702  0.3787  1.4013  0.0247
 9503TIP3    H249925   0.222   4.845  13.740 -0.6232 -0.3285  0.5842
 9504TIP3   OH249926   0.848   1.571  13.152 -0.1971  0.3610 -0.0638
 9504TIP3    H149927   0.823   1.528  13.234 -1.3549  2.8010  0.9620
 9504TIP3    H249928   0.777   1.549  13.092  1.5629 -3.0025 -1.1494
 9505TIP3   OH249929   5.500   1.796   6.554  0.1351  0.0942 -0.1521
 9505TIP3    H149930   5.485   1.889   6.572 -1.5342 -0.4352  1.5607
 9505TIP3    H249931   5.510   1.791   6.459 -0.5439  1.9331 -0.3514
 9506TIP3   OH249932   5.085   4.624   1.530  0.3663  0.2127  0.4712
 9506TIP3    H149933   5.086   4.707   1.483  1.5696  0.3134  0.6482
 9506TIP3    H249934   5.167   4.581   1.505  0.0103 -0.6929  0.7999
 9507TIP3   OH249935   4.843   4.151  13.183  0.8238 -0.3976 -0.2064
 9507TIP3    H149936   4.904   4.225  13.193  0.6956  0.2351 -3.2853
 9507TIP3    H249937   4.756   4.190  13.197  0.7780  0.0198 -1.5172
 9508TIP3   OH249938   0.448   0.795  11.484  0.0879 -0.8558 -0.0612
 9508TIP3    H149939   0.363   0.811  11.524 -0.1776  0.7309 -1.1381
 9508TIP3    H249940   0.432   0.800  11.390  1.5188  0.5391 -0.2856
 9509TIP3   OH249941   0.924   5.997   1.660  0.8691  0.2298  0.4498
 9509TIP3    H149942   0.923   6.091   1.645 -0.3541  0.3655  1.2211
 9509TIP3    H249943   0.862   5.983   1.732  0.7265 -1.1996  0.0882
 9510TIP3   OH249944   6.781   0.199  12.857  0.2711 -0.1461  0.3800
 9510TIP3    H149945   6.754   0.232  12.943  0.6144  0.7705  0.1559
 9510TIP3    H249946   6.818   0.276  12.813 -1.8415 -0.0558 -1.3930
 9511TIP3   OH249947   1.616   5.417  16.681 -0.0368  0.2280  0.0178
 9511TIP3    H149948   1.662   5.338  16.654  0.3394  0.4577 -0.0230
 9511TIP3    H249949   1.645   5.433  16.771  0.1822  0.5285 -0.1030
 9512TIP3   OH249950   3.394   5.721  12.122 -0.6443  0.1242  0.0005
 9512TIP3    H149951   3.398   5.674  12.206 -0.8385 -0.2814 -0.2135
 9512TIP3    H249952   3.485   5.744  12.104 -0.4081 -1.0321 -0.3684
 9513TIP3   OH249953   6.300   0.654  12.191 -0.0352 -0.2556 -0.5396
 9513TIP3    H149954   6.296   0.724  12.256  0.2836 -1.3358  0.6872
 9513TIP3    H249955   6.277   0.696  12.109 -0.0344  1.2435  0.1995
 9514TIP3   OH249956   5.011   1.984   2.944 -0.2240 -0.2944 -0.2839
 9514TIP3    H149957   4.937   1.993   3.004 -1.9194 -2.6418 -1.8415
 9514TIP3    H249958   5.080   1.943   2.996 -1.2360 -1.1848  0.3841
 9515TIP3   OH249959   1.856   2.320   1.180 -0.1938  0.2167  0.6339
 9515TIP3    H149960   1.896   2.390   1.128  2.0428 -0.3990  1.3751
 9515TIP3    H249961   1.889   2.335   1.269 -1.5605 -0.4487  1.2892
 9516TIP3   OH249962   2.360   2.579   4.586  0.2474 -0.4558  0.0960
 9516TIP3    H149963   2.289   2.549   4.529 -0.0722  3.2465 -1.7897
 9516TIP3    H249964   2.439   2.570   4.532  0.2394  1.1348 -0.2457
 9517TIP3   OH249965   1.563   5.588   2.561 -0.1380  0.2198 -0.5853
 9517TIP3    H149966   1.506   5.515   2.537 -0.7628  0.7143 -0.6441
 9517TIP3    H249967   1.604   5.615   2.479 -0.8580  0.7222 -0.7926
 9518TIP3   OH249968   5.742   6.092  17.267  0.3430  0.1810  0.0222
 9518TIP3    H149969   5.754   6.174  17.314  0.5548 -1.4923  3.1587
 9518TIP3    H249970   5.665   6.106  17.213  1.0396  2.7495 -0.4451
 9519TIP3   OH249971   6.188   3.662  15.224  0.4313  0.2944 -0.5723
 9519TIP3    H149972   6.186   3.700  15.136  0.2519 -0.3427 -0.8490
 9519TIP3    H249973   6.162   3.571  15.211  0.0352  0.2913  0.1943
 9520TIP3   OH249974   4.796   3.288  12.111 -0.2437  0.3988 -0.1607
 9520TIP3    H149975   4.791   3.362  12.171  2.4146  1.2299 -0.8122
 9520TIP3    H249976   4.795   3.211  12.168 -0.8349  1.0284  0.7027
 9521TIP3   OH249977   0.228   4.583  12.355 -0.7830  0.0607 -0.7864
 9521TIP3    H149978   0.155   4.551  12.303  0.1811 -0.3784 -1.9027
 9521TIP3    H249979   0.250   4.668  12.316  0.8265 -0.8857 -2.0207
 9522TIP3   OH249980   1.021   1.896  16.134 -0.0920  0.1456 -0.2245
 9522TIP3    H149981   0.988   1.824  16.080 -0.1873 -0.0006  0.0292
 9522TIP3    H249982   1.066   1.953  16.072 -1.3289  0.6607 -0.6931
 9523TIP3   OH249983   6.521   2.784   0.797 -0.0445 -0.2718 -0.0442
 9523TIP3    H149984   6.474   2.833   0.730 -1.2591 -1.6122 -0.2167
 9523TIP3    H249985   6.586   2.732   0.748 -1.6884 -2.1306 -0.4019
 9524TIP3   OH249986   2.829   0.812   1.536  0.1376  0.1730  0.4384
 9524TIP3    H149987   2.758   0.864   1.573  0.8044  1.3386  0.1636
 9524TIP3    H249988   2.805   0.799   1.445  0.1500  0.3693  0.4050
 9525TIP3   OH249989   2.405   2.606  16.636 -0.2128  0.1783 -0.5553
 9525TIP3    H149990   2.468   2.555  16.686 -0.0197 -0.6385 -1.5841
 9525TIP3    H249991   2.378   2.676  16.695  1.3833  0.3353  0.0352
 9526TIP3   OH249992   0.336   2.098  10.777 -0.5097  0.0823 -0.2879
 9526TIP3    H149993   0.292   2.163  10.831 -0.4130 -0.5649  0.5893
 9526TIP3    H249994   0.321   2.015  10.822  0.5424 -0.3140 -0.6352
 9527TIP3   OH249995   4.476   6.323   1.392  0.7413  0.2451 -0.0512
 9527TIP3    H149996   4.383   6.334   1.409  0.6756 -1.3779  0.8703
 9527TIP3    H249997   4.500   6.398   1.339 -1.0840  0.7079 -0.2792
 9528TIP3   OH249998   2.715   0.204  15.842  0.5715 -0.4573 -0.1312
 9528TIP3    H149999   2.674   0.280  15.801  0.2535 -1.4384 -1.6883
 9528TIP3    H250000   2.659   0.185  15.918  0.1591  0.3159 -0.2305
 9529TIP3   OH250001   3.050   3.561  15.937 -0.0083 -0.5264  0.2318
 9529TIP3    H150002   3.020   3.540  16.025  0.1915 -0.3338  0.3458
 9529TIP3    H250003   3.086   3.479  15.904 -0.4891 -0.7156  0.1586
 9530TIP3   OH250004   5.479   1.722   0.085  0.0414 -0.3539 -0.0385
 9530TIP3    H150005   5.409   1.753   0.142 -0.1938  1.1426 -1.0882
 9530TIP3    H250006   5.557   1.767   0.117  0.6983 -2.4283  1.4755
 9531TIP3   OH250007   4.741   2.006  12.080  0.7256  0.1075  0.4323
 9531TIP3    H150008   4.725   1.938  12.015  2.0825 -1.0773  1.2809
 9531TIP3    H250009   4.746   1.959  12.163  2.4098  1.1242  0.9556
 9532TIP3   OH250010   1.282   0.661   3.483 -0.2578  0.2854  0.0782
 9532TIP3    H150011   1.247   0.735   3.432 -0.8364 -0.8163 -1.2047
 9532TIP3    H250012   1.214   0.642   3.548 -0.5277  0.3007 -0.1975
 9533TIP3   OH250013   0.514   5.374   4.647 -0.7523  0.1390 -0.3234
 9533TIP3    H150014   0.464   5.451   4.673 -0.9155 -0.1773  0.3281
 9533TIP3    H250015   0.511   5.374   4.552 -1.6057  0.3876 -0.3037
 9534TIP3   OH250016   3.209   4.559  13.582 -0.0767  0.3628 -0.9177
 9534TIP3    H150017   3.270   4.628  13.606 -0.9436  1.2740 -1.2585
 9534TIP3    H250018   3.140   4.604  13.532 -2.8110  0.0398  2.2240
 9535TIP3   OH250019   3.475   3.058   1.742 -1.0943 -0.0844  0.1245
 9535TIP3    H150020   3.447   2.967   1.733  0.0996 -0.5442  0.8240
 9535TIP3    H250021   3.434   3.089   1.823 -1.5852  0.0423 -0.1686
 9536TIP3   OH250022   4.453   3.271   0.511  0.0022 -0.7525  0.7036
 9536TIP3    H150023   4.499   3.201   0.467  0.0721 -0.9120  1.0299
 9536TIP3    H250024   4.421   3.328   0.440 -0.0674 -1.1185  0.4416
 9537TIP3   OH250025   3.827   3.873   4.055  0.3512  0.2979  0.4392
 9537TIP3    H150026   3.809   3.783   4.029  0.5545  0.4890 -0.4118
 9537TIP3    H250027   3.813   3.874   4.150 -0.9617 -0.2990  0.2718
 9538TIP3   OH250028   6.599   0.303   4.203 -0.0113  0.4489 -0.5174
 9538TIP3    H150029   6.541   0.378   4.189  0.6349  1.1638  0.5018
 9538TIP3    H250030   6.607   0.262   4.117 -1.5755  0.6503 -0.7842
 9539TIP3   OH250031   1.263   2.941  11.947 -0.4222 -0.3664  0.3742
 9539TIP3    H150032   1.271   2.938  11.852  0.6642  0.8136  0.4027
 9539TIP3    H250033   1.191   3.002  11.964 -0.1319 -0.0025  0.3097
 9540TIP3   OH250034   6.301   3.045   2.983 -0.3991  0.3429  0.0476
 9540TIP3    H150035   6.281   2.990   2.907 -1.2025  0.2866  0.2983
 9540TIP3    H250036   6.216   3.071   3.017 -0.0322  0.8548  0.5818
 9541TIP3   OH250037   2.828   1.667  13.824 -0.0160 -0.1237  0.0811
 9541TIP3    H150038   2.792   1.684  13.737 -0.2294 -1.3497 -0.0848
 9541TIP3    H250039   2.872   1.749  13.847 -0.8309  0.5756 -0.7343
 9542TIP3   OH250040   1.274   5.665   2.062  0.1821 -0.3495  0.3551
 9542TIP3    H150041   1.349   5.613   2.034  0.1583 -0.1572 -0.0749
 9542TIP3    H250042   1.210   5.653   1.992 -0.0850 -0.2931  0.5888
 9543TIP3   OH250043   0.633   4.991  12.632 -0.1653 -0.0596  0.0690
 9543TIP3    H150044   0.587   4.945  12.562 -0.2474 -0.5487  0.4427
 9543TIP3    H250045   0.688   5.054  12.586 -0.7046  0.0749 -0.4098
 9544TIP3   OH250046   4.278   0.657  16.075 -0.1946  0.2636 -0.4200
 9544TIP3    H150047   4.318   0.647  16.161  0.9993  0.8744 -0.8807
 9544TIP3    H250048   4.320   0.735  16.037 -1.0700  0.3178 -1.3499
 9545TIP3   OH250049   2.797   0.065  11.767  0.6251  0.0842  0.4727
 9545TIP3    H150050   2.852   0.051  11.844 -0.9103  1.4965  1.9130
 9545TIP3    H250051   2.724   0.004  11.778  1.2221 -0.8804 -0.7601
 9546TIP3   OH250052   3.774   5.956   2.464 -0.0847  0.2496 -0.4351
 9546TIP3    H150053   3.729   5.872   2.467 -0.1087  0.2819  2.3869
 9546TIP3    H250054   3.708   6.020   2.490  1.0859  0.4509  2.4583
 9547TIP3   OH250055   2.398   5.007   0.362  0.4917 -0.4552 -0.0354
 9547TIP3    H150056   2.312   4.968   0.347  0.0486  0.5145 -0.0627
 9547TIP3    H250057   2.437   4.953   0.432 -1.1071  0.5019  1.6856
 9548TIP3   OH250058   6.201   3.408  16.629 -0.5782  0.3937  0.2168
 9548TIP3    H150059   6.216   3.480  16.689 -2.7651  0.1664  1.1596
 9548TIP3    H250060   6.255   3.336  16.662 -0.9541  0.6021  1.3205
 9549TIP3   OH250061   0.385   2.231   1.692 -0.2258 -0.3090  0.8911
 9549TIP3    H150062   0.402   2.306   1.635  1.8454 -0.1907  1.5704
 9549TIP3    H250063   0.465   2.179   1.686 -0.4055 -0.8739  2.8194
 9550TIP3   OH250064   5.362   6.253   3.205  0.1416  0.2356 -0.0371
 9550TIP3    H150065   5.356   6.277   3.297  0.6215 -0.5469  0.2077
 9550TIP3    H250066   5.433   6.189   3.202 -1.2938 -1.3921 -0.6127
 9551TIP3   OH250067   2.623   1.618  14.012  0.0358  0.2560  0.2410
 9551TIP3    H150068   2.687   1.639  13.944  0.2808 -2.1458 -0.3776
 9551TIP3    H250069   2.599   1.527  13.994 -1.6022  0.2792  2.0379
 9552TIP3   OH250070   2.244   5.798  11.627 -0.1326 -0.4960 -0.1291
 9552TIP3    H150071   2.338   5.801  11.609 -0.3349 -0.7530 -1.3461
 9552TIP3    H250072   2.236   5.744  11.706  0.7338 -0.5134 -0.0437
 9553TIP3   OH250073   2.062   4.499   2.274  0.3442  0.5398 -0.1359
 9553TIP3    H150074   2.100   4.580   2.309  2.0517  0.8436 -2.4752
 9553TIP3    H250075   2.125   4.431   2.299  1.0632  0.6133 -1.6408
 9554TIP3   OH250076   0.732   5.532  13.043  0.2344  0.1812  1.0114
 9554TIP3    H150077   0.711   5.620  13.074  0.3592  0.2266  0.9678
 9554TIP3    H250078   0.647   5.494  13.019  0.3228  0.8891 -0.5681
 9555TIP3   OH250079   0.793   1.755  10.810 -0.7010  0.0300 -0.0809
 9555TIP3    H150080   0.860   1.705  10.857  0.3041 -0.8728 -2.3055
 9555TIP3    H250081   0.714   1.700  10.816 -0.2878 -0.6103 -0.3677
 9556TIP3   OH250082   2.103   4.596  14.735 -0.6699 -0.0597 -0.2267
 9556TIP3    H150083   2.046   4.584  14.810  0.0959 -1.7933  0.1186
 9556TIP3    H250084   2.066   4.539  14.667  0.2844 -0.7430 -0.1925
 9557TIP3   OH250085   5.897   3.109   4.826 -0.0407  0.0686 -0.0917
 9557TIP3    H150086   5.837   3.153   4.886 -0.2143 -1.3358  0.8289
 9557TIP3    H250087   5.970   3.082   4.881 -0.0253 -0.9289 -0.5720
 9558TIP3   OH250088   5.434   0.535   5.442 -0.3555  0.2037 -0.0061
 9558TIP3    H150089   5.483   0.598   5.494 -0.8606  0.5153  0.0961
 9558TIP3    H250090   5.355   0.518   5.493  0.3860 -1.5661  0.6549
 9559TIP3   OH250091   5.219   1.219  16.180 -0.3167 -0.4550 -0.5505
 9559TIP3    H150092   5.199   1.304  16.220  1.7194  0.2522 -0.9019
 9559TIP3    H250093   5.230   1.159  16.253 -1.0398 -0.2356 -0.2608
 9560TIP3   OH250094   4.895   4.832  16.365 -0.1736 -0.8565 -0.1711
 9560TIP3    H150095   4.820   4.881  16.330 -0.6399  0.0104  1.9315
 9560TIP3    H250096   4.873   4.817  16.457  2.1166 -0.8604  0.4227
 9561TIP3   OH250097   4.815   6.143   3.177 -0.3445 -0.1837  0.1497
 9561TIP3    H150098   4.760   6.066   3.191 -0.8629  0.2272  0.4060
 9561TIP3    H250099   4.779   6.209   3.236 -1.6816  1.1346 -2.0084
 9562TIP3   OH250100   6.687   5.145  14.701 -0.2909  0.0273 -0.7478
 9562TIP3    H150101   6.764   5.102  14.663 -0.6810 -0.8188 -0.5941
 9562TIP3    H250102   6.723   5.215  14.755  0.4115 -0.7467 -0.1924
 9563TIP3   OH250103   2.017   1.279  11.332 -0.7811  0.9742 -0.3930
 9563TIP3    H150104   2.096   1.280  11.278 -0.4779  0.7943  0.0480
 9563TIP3    H250105   1.966   1.353  11.300 -0.4241  1.1090 -0.6617
 9564TIP3   OH250106   0.754   6.147   0.430 -0.1076 -0.6297 -0.0939
 9564TIP3    H150107   0.717   6.139   0.342  2.4069  2.4655 -1.6737
 9564TIP3    H250108   0.679   6.165   0.487 -1.7502 -2.2135 -1.6328
 9565TIP3   OH250109   0.679   4.350  13.108 -0.0137 -0.1858  0.1457
 9565TIP3    H150110   0.744   4.285  13.134  1.0986  0.4841 -0.8517
 9565TIP3    H250111   0.662   4.400  13.188  0.5555 -0.5021  0.4756
 9566TIP3   OH250112   3.856   4.237   2.864 -0.2512 -0.0320  0.1117
 9566TIP3    H150113   3.770   4.277   2.854 -0.2418 -0.1108 -0.2861
 9566TIP3    H250114   3.839   4.155   2.911 -0.3600  0.0829  0.2711
 9567TIP3   OH250115   0.031   5.481  11.396 -0.0370  0.0062  0.1155
 9567TIP3    H150116   0.002   5.550  11.337  1.0969  0.1635 -0.2941
 9567TIP3    H250117  -0.003   5.400  11.358  0.0062  0.1845 -0.3016
 9568TIP3   OH250118   3.897   6.186   2.626 -0.1184  0.4267  0.1721
 9568TIP3    H150119   3.870   6.097   2.602 -0.8788  0.3735  1.1506
 9568TIP3    H250120   3.900   6.184   2.722  1.8021  0.9085  0.1671
 9569TIP3   OH250121   0.443   3.974  14.965  0.3471 -0.8950 -0.3182
 9569TIP3    H150122   0.389   3.994  15.042 -0.6108 -2.7415 -0.4568
 9569TIP3    H250123   0.379   3.952  14.897  1.2318 -2.3065 -0.7256
 9570TIP3   OH250124   3.769   3.251  12.011 -0.1526  0.0153  0.2431
 9570TIP3    H150125   3.675   3.233  12.008 -0.2172  0.2764 -2.5643
 9570TIP3    H250126   3.775   3.346  12.000  0.4230 -0.0728 -0.2815
 9571TIP3   OH250127   1.159   1.581   1.919 -0.5236  0.1974  0.0785
 9571TIP3    H150128   1.161   1.500   1.867  0.6154 -0.5761  1.2572
 9571TIP3    H250129   1.250   1.609   1.923 -0.7134  0.7208  0.9380
 9572TIP3   OH250130   3.093   5.500  16.325  0.1100  0.0328  0.0200
 9572TIP3    H150131   2.998   5.491  16.340 -0.6262  3.3023 -1.7482
 9572TIP3    H250132   3.126   5.541  16.405  0.2113 -1.6112  0.8658
 9573TIP3   OH250133   0.725   5.100   1.748  0.2482  0.2188 -0.6990
 9573TIP3    H150134   0.647   5.052   1.774  1.6104 -1.7156  0.0622
 9573TIP3    H250135   0.744   5.070   1.659  0.9185 -0.4462 -0.3444
 9574TIP3   OH250136   5.620   4.019  13.630 -0.6634 -0.7241 -0.0644
 9574TIP3    H150137   5.606   4.094  13.573 -1.1462 -0.5755  0.2451
 9574TIP3    H250138   5.660   3.953  13.573 -1.3745 -0.6715 -0.6415
 9575TIP3   OH250139   6.087   6.325   5.832  0.1138  0.4696 -0.2896
 9575TIP3    H150140   6.014   6.270   5.861  0.7231 -0.6076 -0.7179
 9575TIP3    H250141   6.152   6.317   5.902  0.7223 -0.4248 -0.9212
 9576TIP3   OH250142   4.865   1.687  11.808  0.5864 -0.2112  0.0045
 9576TIP3    H150143   4.809   1.688  11.886  1.1198 -0.8454  0.4162
 9576TIP3    H250144   4.820   1.627  11.748  0.7897 -0.6708  0.3083
 9577TIP3   OH250145   4.442   2.497   1.807 -0.4565  0.2574  0.5915
 9577TIP3    H150146   4.525   2.451   1.797 -1.5836 -1.8416  0.3167
 9577TIP3    H250147   4.401   2.456   1.883 -1.4490  0.9532  0.4568
 9578TIP3   OH250148   4.390   1.797   1.915  0.1274  0.4369 -0.0512
 9578TIP3    H150149   4.402   1.705   1.939 -0.7012  0.5153  0.6873
 9578TIP3    H250150   4.479   1.828   1.895  0.4855 -0.3633  0.2649
 9579TIP3   OH250151   5.894   3.984   5.070  0.1416  0.0562 -0.7511
 9579TIP3    H150152   5.946   3.936   5.006  1.2003  1.3931 -0.9350
 9579TIP3    H250153   5.859   4.058   5.021  1.3033  1.3329  0.2711
 9580TIP3   OH250154   6.566   2.682  13.397  0.3990  0.2563 -0.2484
 9580TIP3    H150155   6.640   2.632  13.431  0.1055 -1.7290 -2.3032
 9580TIP3    H250156   6.606   2.746  13.338  0.6739  1.7238  1.4288
 9581TIP3   OH250157   1.352   1.298  11.367  0.0865 -0.3634 -0.4872
 9581TIP3    H150158   1.335   1.315  11.275  1.4324 -0.8442 -0.8467
 9581TIP3    H250159   1.309   1.370  11.413 -0.5719 -0.1021 -1.4805
 9582TIP3   OH250160   3.477   1.200  15.819  0.0451 -0.1067 -0.0320
 9582TIP3    H150161   3.406   1.145  15.787  0.8015 -0.8312 -0.4921
 9582TIP3    H250162   3.484   1.270  15.754  1.1403 -1.2117 -1.1664
 9583TIP3   OH250163   3.507   1.605  14.156  0.2255  0.5431  0.3434
 9583TIP3    H150164   3.522   1.548  14.080  1.7502 -1.6497  2.1152
 9583TIP3    H250165   3.414   1.626  14.153  0.0122 -0.4531 -1.4683
 9584TIP3   OH250166   5.278   0.848   3.393  0.4993 -0.3451  0.2666
 9584TIP3    H150167   5.312   0.934   3.371 -1.0356  0.1253 -0.4608
 9584TIP3    H250168   5.355   0.794   3.410  1.5060  0.9732 -0.0083
 9585TIP3   OH250169   5.878   4.906  13.775  0.4950 -0.0112  0.0748
 9585TIP3    H150170   5.794   4.908  13.822 -0.2350  1.3286 -1.1840
 9585TIP3    H250171   5.868   4.834  13.712  0.1155  0.3910 -0.3354
 9586TIP3   OH250172   0.788   3.566  15.779 -0.3008  0.0043 -0.0266
 9586TIP3    H150173   0.695   3.550  15.797 -0.3821  1.2317  0.7975
 9586TIP3    H250174   0.834   3.514  15.844 -0.3934 -0.9258 -0.6965
 9587TIP3   OH250175   5.150   0.309  17.236  0.1291 -0.1407  0.6034
 9587TIP3    H150176   5.150   0.398  17.271 -0.8353  0.2643 -0.3709
 9587TIP3    H250177   5.058   0.280  17.244  0.4353 -1.0650  0.9402
 9588TIP3   OH250178   3.232   4.581   1.855 -0.3940 -0.3253 -0.2008
 9588TIP3    H150179   3.226   4.641   1.930  1.1688 -0.6484  0.2184
 9588TIP3    H250180   3.154   4.527   1.861  0.4585 -1.4484  2.1956
 9589TIP3   OH250181   1.993   0.935   1.940  0.8663  0.2415  0.5626
 9589TIP3    H150182   1.991   1.021   1.982  0.0662  0.1223  0.7808
 9589TIP3    H250183   2.073   0.894   1.974  0.6349  0.4473  1.3704
 9590TIP3   OH250184   0.746   1.540   0.746 -0.1242  0.6603  0.3936
 9590TIP3    H150185   0.692   1.464   0.768 -2.0070  1.3886 -1.3377
 9590TIP3    H250186   0.740   1.597   0.823 -1.3514  0.4414  0.4806
 9591TIP3   OH250187   4.215   1.250   0.540  0.3001 -0.2106  0.2204
 9591TIP3    H150188   4.191   1.342   0.527  2.0668  0.0529 -2.0198
 9591TIP3    H250189   4.191   1.207   0.457 -1.9332 -2.2058  1.7643
 9592TIP3   OH250190   0.527   0.658   4.305  0.0271  0.6695  0.4642
 9592TIP3    H150191   0.440   0.688   4.330 -0.1280 -0.2937  1.1005
 9592TIP3    H250192   0.566   0.625   4.387  0.2421 -0.7366 -0.1903
 9593TIP3   OH250193   5.559   2.859   5.409  0.0508 -0.2249 -0.8438
 9593TIP3    H150194   5.554   2.891   5.499 -2.6012  0.6178 -1.1960
 9593TIP3    H250195   5.487   2.903   5.364  1.5277 -0.3059 -3.5087
 9594TIP3   OH250196   6.148   2.538   5.534  0.5338 -0.5485 -0.0432
 9594TIP3    H150197   6.205   2.519   5.459 -0.9233 -1.7726 -0.8853
 9594TIP3    H250198   6.177   2.478   5.602  1.9959  0.7024  0.4957
 9595TIP3   OH250199   1.099   4.011  12.143 -0.2669  0.2706 -0.1043
 9595TIP3    H150200   1.033   4.062  12.097 -1.1048 -0.8982 -0.2298
 9595TIP3    H250201   1.170   4.074  12.160 -0.4543  1.0265 -1.8840
 9596TIP3   OH250202   1.464   3.891  14.300 -0.1543 -0.5662 -0.1606
 9596TIP3    H150203   1.375   3.888  14.266 -0.3102 -2.2956  0.3028
 9596TIP3    H250204   1.484   3.984  14.307 -1.6350 -0.1533 -0.9963
 9597TIP3   OH250205   1.621   5.883   0.844  0.5453 -0.6063 -0.2430
 9597TIP3    H150206   1.651   5.827   0.916  1.3024  0.8778  0.6443
 9597TIP3    H250207   1.527   5.889   0.856  0.7685  0.4982  1.3393
 9598TIP3   OH250208   6.320   2.105  13.289  0.3778 -0.2826  0.3437
 9598TIP3    H150209   6.303   2.199  13.296 -0.2238 -0.0482 -2.8872
 9598TIP3    H250210   6.407   2.099  13.250 -0.8955 -0.8616 -2.6646
 9599TIP3   OH250211   5.363   0.853   0.971  0.2922  0.2394  0.1287
 9599TIP3    H150212   5.426   0.782   0.958  0.8414  0.4090  1.6596
 9599TIP3    H250213   5.369   0.905   0.891 -0.4614 -1.6540 -1.2375
 9600TIP3   OH250214   2.975   0.046  12.023  0.0007 -0.0847  0.1094
 9600TIP3    H150215   3.039  -0.021  12.045  0.1183 -0.8307 -2.2252
 9600TIP3    H250216   2.904   0.033  12.086  1.2352 -0.5259  1.4789
 9601TIP3   OH250217   4.160   3.276   3.391  0.4036  0.3314  0.2386
 9601TIP3    H150218   4.157   3.363   3.432  1.6380  0.4337  0.1585
 9601TIP3    H250219   4.162   3.294   3.297  1.0233  0.2520  0.2278
 9602TIP3   OH250220   5.842   4.732  17.029  0.2969 -0.0673  0.1148
 9602TIP3    H150221   5.826   4.825  17.013  0.8560 -0.3511 -2.5426
 9602TIP3    H250222   5.936   4.721  17.013 -0.0462 -1.3276 -1.2748
 9603TIP3   OH250223   6.218   2.557   1.824  0.3476  0.4727  0.1495
 9603TIP3    H150224   6.306   2.588   1.804  0.5303 -0.4014 -0.4670
 9603TIP3    H250225   6.230   2.494   1.895  0.1440  0.7760  0.4586
 9604TIP3   OH250226   2.470   3.211  15.915 -0.4928 -0.8564  0.2783
 9604TIP3    H150227   2.423   3.146  15.863  0.6330 -0.2175 -1.6789
 9604TIP3    H250228   2.471   3.289  15.859  0.7785 -0.1238  1.2790
 9605TIP3   OH250229   0.747   3.636   3.977  0.2490 -0.4308  0.1530
 9605TIP3    H150230   0.698   3.637   3.895 -0.5945  0.2291  0.6568
 9605TIP3    H250231   0.686   3.669   4.043  1.4578  0.7408  0.7470
 9606TIP3   OH250232   5.981   2.058  15.367  0.5537  0.7057  0.3098
 9606TIP3    H150233   5.966   2.152  15.375 -2.2458  0.6789 -2.5237
 9606TIP3    H250234   5.937   2.020  15.444  1.0591  1.6404  1.0789
 9607TIP3   OH250235   5.105   5.576   5.085  0.7286  0.0641  0.6825
 9607TIP3    H150236   5.065   5.636   5.147 -0.6434  0.1375 -0.2260
 9607TIP3    H250237   5.171   5.628   5.040 -0.7366  1.0772 -0.4026
 9608TIP3   OH250238   5.012   1.440   1.404 -0.0246  0.2759 -0.2367
 9608TIP3    H150239   4.993   1.521   1.451  1.2383  0.9047 -0.7752
 9608TIP3    H250240   5.094   1.457   1.359  0.7426 -1.6054  0.3497
 9609TIP3   OH250241   6.055   2.045   3.690 -0.0540  0.1466  0.5970
 9609TIP3    H150242   6.061   2.096   3.771  0.1489 -0.9533  1.3038
 9609TIP3    H250243   5.966   2.009   3.692  0.6147 -1.6208  1.4646
 9610TIP3   OH250244   6.189   0.618   6.671  0.1852  0.3612 -0.2467
 9610TIP3    H150245   6.248   0.687   6.642  0.3009  0.0595 -0.7442
 9610TIP3    H250246   6.154   0.581   6.590  0.2989 -0.3155  0.0093
 9611TIP3   OH250247   2.007   6.409   3.495 -0.1071 -0.3760 -0.0429
 9611TIP3    H150248   2.092   6.379   3.463  0.0221 -0.4406  0.3574
 9611TIP3    H250249   1.955   6.330   3.504 -0.3416 -0.2969 -0.6661
 9612TIP3   OH250250   5.407   4.488  15.223  0.7253 -0.0992 -0.2827
 9612TIP3    H150251   5.352   4.520  15.295 -0.8822 -4.1988  0.5723
 9612TIP3    H250252   5.495   4.483  15.261  0.5912  1.0810  0.2228
 9613TIP3   OH250253   0.490   0.826  12.233 -0.2742 -0.4661  0.1664
 9613TIP3    H150254   0.451   0.797  12.316  2.2203  1.2695  2.0933
 9613TIP3    H250255   0.513   0.744  12.187 -1.1792 -1.4723  1.4470
 9614TIP3   OH250256   1.881   0.701  13.565  0.2588 -0.0481 -0.4049
 9614TIP3    H150257   1.912   0.788  13.590  0.4837  0.2686 -1.7016
 9614TIP3    H250258   1.789   0.700  13.590  0.1820  0.6640 -0.6399
 9615TIP3   OH250259   0.191   1.017   0.577  0.5958 -0.0862  0.1386
 9615TIP3    H150260   0.126   1.055   0.517  0.4949  1.1085  0.9700
 9615TIP3    H250261   0.186   1.072   0.655  0.3504 -1.9171  1.4739
 9616TIP3   OH250262   2.286   2.755  14.689  0.2547  0.4349  0.0920
 9616TIP3    H150263   2.284   2.660  14.673 -0.5612  0.2286  1.3035
 9616TIP3    H250264   2.274   2.794  14.603  0.1236 -0.5641 -0.3588
 9617TIP3   OH250265   3.475   2.449   3.986 -0.0033  0.0530  0.2919
 9617TIP3    H150266   3.465   2.435   3.892  0.0334 -2.3338  0.5804
 9617TIP3    H250267   3.386   2.452   4.020 -0.0351 -1.5993  0.4439
 9618TIP3   OH250268   6.522   3.363  17.205 -0.2542 -0.0947 -0.1041
 9618TIP3    H150269   6.592   3.416  17.242 -0.2217  0.2737 -0.6807
 9618TIP3    H250270   6.500   3.301  17.274  1.6512 -1.2111 -0.4152
 9619TIP3   OH250271   2.676   6.658   2.283  0.4421  0.3909 -0.6192
 9619TIP3    H150272   2.748   6.600   2.259  0.3383 -0.1165  0.2556
 9619TIP3    H250273   2.677   6.660   2.379 -0.5963  0.5178 -0.5965
 9620TIP3   OH250274   4.359   0.692   3.021  0.2546 -0.3049  0.0807
 9620TIP3    H150275   4.346   0.659   2.932 -2.4337  0.7435 -0.0164
 9620TIP3    H250276   4.334   0.784   3.016  0.5397 -0.1007  1.8230
 9621TIP3   OH250277   4.521   2.258  12.657  0.3575  0.5249 -0.2468
 9621TIP3    H150278   4.444   2.262  12.600  0.3438  1.3548 -0.1740
 9621TIP3    H250279   4.518   2.169  12.693 -0.0648  0.2480 -0.9324
 9622TIP3   OH250280   4.479   1.330  15.815 -0.5197  0.1903  0.0024
 9622TIP3    H150281   4.495   1.330  15.910 -1.0393 -1.0134  0.1063
 9622TIP3    H250282   4.499   1.240  15.788  1.5420  0.9850 -1.3955
 9623TIP3   OH250283   1.716   2.979  15.019  0.2086  0.2096  0.0135
 9623TIP3    H150284   1.726   2.890  15.050  0.5706  0.1934 -0.1437
 9623TIP3    H250285   1.785   3.029  15.064 -0.8168  0.6826  1.1155
 9624TIP3   OH250286   4.329   4.015   4.789  0.2399 -0.2536  0.3910
 9624TIP3    H150287   4.380   4.016   4.708 -0.2704  0.0503  0.0642
 9624TIP3    H250288   4.274   3.936   4.782 -0.6834  0.4066 -0.1371
 9625TIP3   OH250289   1.088   6.411  14.607 -0.6717  0.1261  0.7492
 9625TIP3    H150290   1.018   6.383  14.548  0.1283 -0.2308 -0.0568
 9625TIP3    H250291   1.129   6.330  14.637 -0.6957  0.3269  1.3478
 9626TIP3   OH250292   6.008   6.172  17.067  0.1485  0.5907  0.3628
 9626TIP3    H150293   6.092   6.142  17.102 -1.1167 -0.7515  2.4799
 9626TIP3    H250294   5.983   6.246  17.122 -0.7599 -0.0295  0.8215
 9627TIP3   OH250295   5.234   0.319   5.376 -0.4164  0.3877  0.2732
 9627TIP3    H150296   5.219   0.231   5.409  1.1673 -0.0255 -0.0511
 9627TIP3    H250297   5.319   0.315   5.333 -0.6114  1.9137 -0.3305
 9628TIP3   OH250298   2.140   0.406   0.735 -0.5828  0.1845 -0.1375
 9628TIP3    H150299   2.127   0.391   0.641 -0.4100  0.0550 -0.1415
 9628TIP3    H250300   2.151   0.501   0.743 -0.1261  0.1457 -0.3058
 9629TIP3   OH250301   0.481   1.114  13.284  0.3564 -1.0385  0.0338
 9629TIP3    H150302   0.462   1.034  13.333  1.3175 -1.5350 -0.3659
 9629TIP3    H250303   0.435   1.102  13.200  0.3006 -1.0631  0.0681
 9630TIP3   OH250304   6.427   6.050   1.600  0.5118  0.0991  0.1276
 9630TIP3    H150305   6.449   6.031   1.509 -0.1279 -1.8541  0.3184
 9630TIP3    H250306   6.337   6.019   1.610  0.0895  1.5300  1.1021
 9631TIP3   OH250307   6.134   1.628   1.682 -0.0522 -0.0333  0.6054
 9631TIP3    H150308   6.155   1.659   1.770  0.8607 -1.2863  0.8652
 9631TIP3    H250309   6.044   1.597   1.688  0.1068 -0.4004  1.1922
 9632TIP3   OH250310   4.425   5.329   1.778  0.4008 -0.2759  0.2443
 9632TIP3    H150311   4.479   5.250   1.777  0.2309 -0.4007  0.6806
 9632TIP3    H250312   4.355   5.311   1.714  0.7975 -0.1653 -0.2261
 9633TIP3   OH250313   4.424   0.288   4.940  0.9765  1.0460  0.1708
 9633TIP3    H150314   4.353   0.306   5.003  1.1311  1.2813  0.2817
 9633TIP3    H250315   4.487   0.358   4.955  2.3788 -0.4722  1.7288
 9634TIP3   OH250316   2.925   0.513  16.234  0.5089 -0.0597  0.4034
 9634TIP3    H150317   2.852   0.529  16.294 -0.5187 -0.7660 -0.6251
 9634TIP3    H250318   2.903   0.431  16.191  2.5698 -0.9891  0.9905
 9635TIP3   OH250319   3.871   1.658   1.385 -0.3165  0.0173  0.1364
 9635TIP3    H150320   3.838   1.747   1.369 -1.6311 -0.8287 -2.5245
 9635TIP3    H250321   3.897   1.626   1.298  1.2461 -1.8059  1.1996
 9636TIP3   OH250322   5.610   5.642   5.383  0.1799  0.0200 -0.1393
 9636TIP3    H150323   5.589   5.549   5.376 -0.8863  0.2329  0.0265
 9636TIP3    H250324   5.706   5.645   5.389  0.2973 -0.9916 -1.1578
 9637TIP3   OH250325   5.439   1.437   0.841 -0.5650 -0.1919 -0.2670
 9637TIP3    H150326   5.406   1.526   0.855 -2.6683 -1.1139  1.1185
 9637TIP3    H250327   5.516   1.432   0.897  0.6482  1.2423 -1.6861
 9638TIP3   OH250328   6.424   5.630   2.833  0.2128 -0.0703 -0.0356
 9638TIP3    H150329   6.384   5.690   2.770 -2.4629 -0.8869  0.7208
 9638TIP3    H250330   6.498   5.679   2.870 -1.1392  2.3239 -0.2770
 9639TIP3   OH250331   3.098   3.154  17.030  0.3231 -0.0671 -0.5248
 9639TIP3    H150332   3.118   3.101  16.952 -1.3294  0.4895 -1.3907
 9639TIP3    H250333   3.029   3.214  17.000 -0.6890 -0.1406  1.4913
 9640TIP3   OH250334   1.486   4.309   3.161 -0.3523  0.3096 -0.2057
 9640TIP3    H150335   1.490   4.404   3.148 -1.9562  0.3961 -0.2519
 9640TIP3    H250336   1.393   4.290   3.170 -0.0125 -1.1930  0.4213
 9641TIP3   OH250337   3.253   0.729  11.341 -0.0131 -0.2725 -0.2997
 9641TIP3    H150338   3.293   0.758  11.259 -0.1662  0.4424 -0.1298
 9641TIP3    H250339   3.171   0.687  11.314  1.0503 -2.2232 -0.6949
 9642TIP3   OH250340   5.830   0.717   2.475  0.0070  0.8283 -0.6359
 9642TIP3    H150341   5.794   0.697   2.562 -2.2318 -0.5785 -1.7735
 9642TIP3    H250342   5.852   0.810   2.479  1.6999  0.4107  1.9596
 9643TIP3   OH250343   4.503   2.805  14.192  0.2658 -0.3711  0.2930
 9643TIP3    H150344   4.597   2.795  14.210  0.8658  0.8623 -1.8589
 9643TIP3    H250345   4.479   2.724  14.147  0.5870 -0.2105 -0.1761
 9644TIP3   OH250346   3.164   0.382  14.087 -0.3845 -0.1681 -0.2942
 9644TIP3    H150347   3.121   0.460  14.053 -2.9408 -1.6556 -0.6465
 9644TIP3    H250348   3.113   0.357  14.164  0.8811 -1.0634  0.3108
 9645TIP3   OH250349   1.936   1.606   5.821  0.5334 -0.0306 -0.2193
 9645TIP3    H150350   1.929   1.673   5.754 -1.0717 -1.0801 -1.1819
 9645TIP3    H250351   1.892   1.644   5.898 -1.4696 -0.3556 -1.1350
 9646TIP3   OH250352   5.957   1.674  14.635  0.0308  0.0099 -0.1024
 9646TIP3    H150353   5.913   1.609  14.691  1.5061 -0.1442  0.9506
 9646TIP3    H250354   5.892   1.697  14.569 -2.3239  1.2346  2.4529
 9647TIP3   OH250355   5.251   0.724  16.141  0.6109  0.0599  0.0865
 9647TIP3    H150356   5.345   0.725  16.123  0.5476 -1.2728 -0.4590
 9647TIP3    H250357   5.210   0.704  16.056 -0.0692 -0.6445  0.5631
 9648TIP3   OH250358   5.166   1.939  15.954 -0.2970  0.3728  0.0136
 9648TIP3    H150359   5.212   1.985  16.024  0.3077 -0.3179  0.0775
 9648TIP3    H250360   5.232   1.923  15.887 -0.7672  0.6089 -0.5214
 9649TIP3   OH250361   5.057   6.673  12.814  0.2221 -0.3202  0.1086
 9649TIP3    H150362   4.972   6.670  12.856  0.8852  0.9325  1.6397
 9649TIP3    H250363   5.038   6.666  12.720 -1.3331 -2.6129  0.5188
 9650TIP3   OH250364   4.444   1.479   2.041  0.1018 -0.5184  0.3398
 9650TIP3    H150365   4.469   1.388   2.057 -1.0340 -0.9155 -0.0652
 9650TIP3    H250366   4.405   1.479   1.954  0.0745  0.3548  0.3386
 9651TIP3   OH250367   1.190   0.626   0.404 -0.5211 -0.5127 -0.0552
 9651TIP3    H150368   1.279   0.662   0.401 -0.4302 -0.7988 -1.3742
 9651TIP3    H250369   1.200   0.536   0.373 -1.2479 -0.6119 -0.0100
 9652TIP3   OH250370   2.546   2.580  14.663  0.0629 -0.4605 -0.3396
 9652TIP3    H150371   2.520   2.634  14.588  2.5179 -0.2408 -1.1132
 9652TIP3    H250372   2.641   2.573  14.655  0.1923 -1.8459  1.8379
 9653TIP3   OH250373   1.612   5.233  17.239 -0.0416  0.3928 -0.0820
 9653TIP3    H150374   1.557   5.266  17.169  0.7979  1.5494 -0.2186
 9653TIP3    H250375   1.667   5.307  17.264  1.8495 -0.8566 -0.3335
 9654TIP3   OH250376   5.774   4.528  14.299  0.2223 -0.2343 -0.3696
 9654TIP3    H150377   5.723   4.458  14.257 -0.1795  0.2799 -0.7624
 9654TIP3    H250378   5.835   4.483  14.357  0.0620 -0.9133 -0.7251
 9655TIP3   OH250379   5.811   4.331   1.781 -0.0857  0.3175  0.1591
 9655TIP3    H150380   5.780   4.307   1.693  3.3325 -0.8052 -0.9206
 9655TIP3    H250381   5.782   4.259   1.837 -1.2576  0.4376 -0.2589
 9656TIP3   OH250382   6.460   2.430   1.250 -0.3029  0.3943 -0.4585
 9656TIP3    H150383   6.470   2.340   1.221  0.3395  0.5022 -0.5823
 9656TIP3    H250384   6.468   2.483   1.171 -1.1505  0.5359 -0.4570
 9657TIP3   OH250385   6.261   1.930  13.676 -0.1513 -0.0660 -0.5957
 9657TIP3    H150386   6.293   2.020  13.681  1.3797 -0.6274  0.8810
 9657TIP3    H250387   6.240   1.916  13.584  1.9286  1.0469 -1.2976
 9658TIP3   OH250388   1.500   5.318   5.155  0.1218 -0.3479  0.3774
 9658TIP3    H150389   1.544   5.402   5.160  0.5220 -0.5448  0.2674
 9658TIP3    H250390   1.549   5.262   5.217  0.2773 -0.6757 -0.0361
 9659TIP3   OH250391   0.518   5.325   2.784 -0.0411 -0.2032  0.0770
 9659TIP3    H150392   0.580   5.333   2.710  0.1575 -0.7654  0.1774
 9659TIP3    H250393   0.488   5.415   2.800  1.5927  0.2596  0.7418
 9660TIP3   OH250394   0.325   6.643   1.797 -0.2177 -0.5201  0.0387
 9660TIP3    H150395   0.389   6.671   1.862  0.8689 -0.3487 -1.0898
 9660TIP3    H250396   0.261   6.714   1.794  1.1213  0.6788 -0.9282
 9661TIP3   OH250397   5.966   3.350   0.823  0.1591  0.5883  0.3224
 9661TIP3    H150398   6.033   3.412   0.852 -0.0691  1.3519 -0.7221
 9661TIP3    H250399   5.966   3.357   0.728 -0.8108 -0.0307  0.2600
 9662TIP3   OH250400   3.165   3.081  11.376  0.6366  0.0389 -0.2144
 9662TIP3    H150401   3.245   3.099  11.425  1.1656 -0.8078 -0.7404
 9662TIP3    H250402   3.188   3.096  11.285  0.0162  0.3886 -0.3209
 9663TIP3   OH250403   3.005   4.181   3.923 -1.1125 -0.4084  0.0052
 9663TIP3    H150404   3.015   4.088   3.943  0.8261 -0.0958  0.7171
 9663TIP3    H250405   3.094   4.211   3.901 -1.4574  1.5166  0.9927
 9664TIP3   OH250406   3.795   6.261  16.904  0.2322  0.4529 -0.5184
 9664TIP3    H150407   3.840   6.257  16.988  0.2132 -0.2342 -0.5326
 9664TIP3    H250408   3.864   6.281  16.841  0.4159 -0.0016 -0.4624
 9665TIP3   OH250409   3.388   5.837  13.204  0.4990  0.4541 -0.3365
 9665TIP3    H150410   3.329   5.842  13.279  1.7590 -0.3678  0.7456
 9665TIP3    H250411   3.422   5.926  13.195 -0.8125  0.9186 -0.9268
 9666TIP3   OH250412   0.977   3.772   4.137  0.0032  0.5420 -0.4422
 9666TIP3    H150413   0.909   3.835   4.163  1.4687  1.0743  2.4366
 9666TIP3    H250414   0.978   3.707   4.207  2.4229  0.5372 -0.4094
 9667TIP3   OH250415   0.361   4.775  15.706  0.1214 -1.0270  0.5139
 9667TIP3    H150416   0.403   4.795  15.622  0.1654  0.5849  0.8883
 9667TIP3    H250417   0.268   4.794  15.691  0.0910 -0.9854  0.7563
 9668TIP3   OH250418   3.732   4.526   0.654 -0.1781 -0.7815 -0.4013
 9668TIP3    H150419   3.659   4.465   0.660 -1.4749  0.8095  1.8603
 9668TIP3    H250420   3.786   4.506   0.730  0.3795 -0.3269 -0.6679
 9669TIP3   OH250421   2.748   1.730  12.504 -0.4103  0.2273  0.3083
 9669TIP3    H150422   2.706   1.796  12.449 -1.2259 -0.9890 -0.5906
 9669TIP3    H250423   2.675   1.682  12.544  0.1393 -0.5247  0.4415
 9670TIP3   OH250424   5.191   2.505   5.058 -0.2295  0.1616  0.2116
 9670TIP3    H150425   5.173   2.464   4.973 -0.0433 -0.3937  0.4384
 9670TIP3    H250426   5.229   2.436   5.111 -1.7571  0.0727  1.2576
 9671TIP3   OH250427   4.451   1.844   0.498 -0.3152 -0.1458  0.2248
 9671TIP3    H150428   4.513   1.813   0.564 -0.3151 -0.0621  0.2641
 9671TIP3    H250429   4.498   1.911   0.449 -0.5836  0.3881  0.6753
 9672TIP3   OH250430   5.178   2.907  17.083 -0.3513 -0.9975  0.3663
 9672TIP3    H150431   5.126   2.961  17.142  0.0371 -1.4609  1.1534
 9672TIP3    H250432   5.168   2.948  16.997 -0.8839 -0.2799  0.7619
 9673TIP3   OH250433   4.706   3.601   4.440  0.1439 -0.3103  0.2146
 9673TIP3    H150434   4.654   3.644   4.372  0.9400  0.9484  0.3750
 9673TIP3    H250435   4.655   3.612   4.520 -1.1408 -2.4049 -0.2260
 9674TIP3   OH250436   2.537   0.163   1.559 -0.5878  0.4168 -0.4978
 9674TIP3    H150437   2.549   0.102   1.486 -0.3971  3.0248 -2.7765
 9674TIP3    H250438   2.625   0.177   1.593 -0.4768  0.3910 -0.7747
 9675TIP3   OH250439   6.601   0.997  13.247  0.7459  0.0842  0.3266
 9675TIP3    H150440   6.544   1.072  13.232 -0.7536 -0.7227  1.7191
 9675TIP3    H250441   6.615   0.996  13.342  2.9916  0.1452  0.0617
 9676TIP3   OH250442   4.546   0.589   0.103 -0.7255  0.1185 -0.1126
 9676TIP3    H150443   4.511   0.589   0.192 -1.2680 -0.9774 -0.3054
 9676TIP3    H250444   4.630   0.545   0.110 -0.3839  0.7815 -0.0100
 9677TIP3   OH250445   3.679   3.391   6.219  0.6817 -0.5502  0.0629
 9677TIP3    H150446   3.653   3.451   6.289 -2.4687  1.1653 -2.2973
 9677TIP3    H250447   3.612   3.323   6.220  1.0749 -0.9655 -0.7254
 9678TIP3   OH250448   0.784   5.236  15.046 -0.0598 -0.2039  0.0554
 9678TIP3    H150449   0.831   5.164  15.004  0.3301 -0.1001  0.3069
 9678TIP3    H250450   0.692   5.215  15.034  0.0309 -0.0527 -1.0725
 9679TIP3   OH250451   2.403   4.698   3.961  0.2886 -0.4547 -0.2800
 9679TIP3    H150452   2.463   4.675   3.890  0.2723 -1.5217  0.0472
 9679TIP3    H250453   2.453   4.683   4.041  0.2140  0.4919 -0.0406
 9680TIP3   OH250454   1.164   4.241  13.234 -0.3962 -0.4226  0.3489
 9680TIP3    H150455   1.228   4.313  13.231  2.3112 -2.6638 -0.0728
 9680TIP3    H250456   1.156   4.220  13.327  1.0721 -1.3714  0.2905
 9681TIP3   OH250457   0.367   3.956   3.204  0.6387  0.6663 -0.0635
 9681TIP3    H150458   0.439   4.019   3.207 -0.6569  2.2724 -0.8311
 9681TIP3    H250459   0.342   3.953   3.112 -0.6575  0.6247  0.2684
 9682TIP3   OH250460   5.516   0.458  15.137  0.4857 -0.0241 -0.3614
 9682TIP3    H150461   5.463   0.412  15.201  1.6735  0.0887  0.7555
 9682TIP3    H250462   5.475   0.440  15.053 -1.0640 -0.2390  0.4212
 9683TIP3   OH250463   1.339   0.667   4.810  0.4191  0.5045  0.0319
 9683TIP3    H150464   1.397   0.595   4.833 -0.5905 -2.1851 -4.6619
 9683TIP3    H250465   1.251   0.634   4.829 -0.0683  0.3394 -2.3013
 9684TIP3   OH250466   5.611   5.845   6.185 -0.0336 -0.6425  0.0648
 9684TIP3    H150467   5.643   5.756   6.168  0.0480 -0.7908  0.9155
 9684TIP3    H250468   5.639   5.896   6.109  1.5700 -0.9299  0.4312
 9685TIP3   OH250469   6.087   5.282   4.158 -0.6812 -0.0295  0.1365
 9685TIP3    H150470   6.056   5.198   4.125  1.7461 -0.3597 -1.5575
 9685TIP3    H250471   6.089   5.271   4.253  2.3567 -3.0896 -0.1020
 9686TIP3   OH250472   6.689   4.467  11.085  0.0687  0.3166  0.6214
 9686TIP3    H150473   6.662   4.407  11.015 -0.5843  0.3818  0.8115
 9686TIP3    H250474   6.662   4.423  11.166  0.7959  0.2552  0.8332
 9687TIP3   OH250475   4.346   2.504  14.981  0.0624  0.0940 -0.0087
 9687TIP3    H150476   4.282   2.486  14.912 -0.1515 -1.4080  0.5447
 9687TIP3    H250477   4.309   2.463  15.059  0.7346  0.9932  0.8067
 9688TIP3   OH250478   0.234   5.012  12.812 -0.0344  0.3108  0.1666
 9688TIP3    H150479   0.277   5.049  12.735  0.6483 -1.7440 -0.5221
 9688TIP3    H250480   0.304   5.003  12.877  0.3807 -1.8237 -0.4965
 9689TIP3   OH250481   5.305   1.717   4.950 -0.4616 -0.0441 -0.0598
 9689TIP3    H150482   5.300   1.802   4.994  1.4002 -0.4823  1.1552
 9689TIP3    H250483   5.261   1.730   4.866 -1.6618  1.6357  0.7714
 9690TIP3   OH250484   6.467   4.163   2.763 -0.2769 -0.2547  1.0247
 9690TIP3    H150485   6.468   4.070   2.741  1.6168 -0.1338  0.4395
 9690TIP3    H250486   6.529   4.171   2.835 -1.0129  0.4451  1.5873
 9691TIP3   OH250487   2.669   5.197  16.945 -0.3530 -0.0595 -0.0964
 9691TIP3    H150488   2.646   5.109  16.917 -1.6049 -0.1989  1.2866
 9691TIP3    H250489   2.764   5.203  16.931 -0.2009 -1.7290  0.0837
 9692TIP3   OH250490   0.748   3.517  13.489 -0.1524 -0.2566 -0.3195
 9692TIP3    H150491   0.830   3.560  13.511 -1.1703  2.8444 -1.9895
 9692TIP3    H250492   0.768   3.462  13.414  0.7198 -0.9722  0.4159
 9693TIP3   OH250493   2.035   5.518   2.147 -0.3103  0.3486 -0.5524
 9693TIP3    H150494   2.010   5.609   2.156  1.1399  0.7597 -0.4217
 9693TIP3    H250495   2.106   5.506   2.210  0.8891 -0.3117 -1.9577
 9694TIP3   OH250496   2.324   4.131   2.803 -0.1412  0.3569 -0.2888
 9694TIP3    H150497   2.326   4.219   2.764 -1.6636  1.1698  1.3596
 9694TIP3    H250498   2.237   4.098   2.782  0.2083 -0.5415 -0.3695
 9695TIP3   OH250499   3.430   3.707  12.249 -0.1592 -0.3162  0.2565
 9695TIP3    H150500   3.348   3.756  12.246  0.3017  0.4789  0.1135
 9695TIP3    H250501   3.405   3.616  12.236 -0.9851 -0.0393 -0.1590
 9696TIP3   OH250502   0.227   0.551  15.718  0.7344 -0.2601  0.2879
 9696TIP3    H150503   0.257   0.589  15.635  0.4853  1.2927  0.8838
 9696TIP3    H250504   0.237   0.456  15.706  4.0987  0.0251 -0.2711
 9697TIP3   OH250505   5.699   6.166  14.607  0.0990 -0.2442 -0.1032
 9697TIP3    H150506   5.680   6.221  14.531 -0.7931  3.1539  2.3338
 9697TIP3    H250507   5.795   6.165  14.613  0.2166 -1.3127 -1.7024
 9698TIP3   OH250508   0.986   0.191  12.041 -0.4017 -0.0257 -0.0697
 9698TIP3    H150509   1.075   0.166  12.017 -1.3641 -2.5989 -1.3032
 9698TIP3    H250510   0.953   0.239  11.965 -0.3717  0.1261  0.0125
 9699TIP3   OH250511   4.460   2.588  12.927 -0.7220  0.1713  0.7477
 9699TIP3    H150512   4.403   2.511  12.923  1.5162 -1.8384  3.3364
 9699TIP3    H250513   4.525   2.573  12.859 -1.6283  1.0629 -0.3511
 9700TIP3   OH250514   6.075   3.864  12.456 -0.4904 -0.0500 -0.0591
 9700TIP3    H150515   6.033   3.792  12.503 -1.3326  2.0975  2.7103
 9700TIP3    H250516   6.037   3.860  12.368 -4.0819 -0.2582  1.3381
 9701TIP3   OH250517   3.376   4.562   1.630  0.3795 -0.6935  0.1588
 9701TIP3    H150518   3.306   4.583   1.692 -0.1220 -0.3513 -0.5128
 9701TIP3    H250519   3.357   4.472   1.603 -0.3827 -0.2768 -0.7579
 9702TIP3   OH250520   3.225   5.671   6.467  0.3197 -0.0678  0.2684
 9702TIP3    H150521   3.245   5.745   6.524 -0.3800 -0.1006  0.5756
 9702TIP3    H250522   3.168   5.708   6.399  1.9339  0.1780 -0.9955
 9703TIP3   OH250523   4.679   4.455  15.135 -0.1281  0.5063 -0.0384
 9703TIP3    H150524   4.611   4.476  15.071  0.0242  0.1954 -0.3038
 9703TIP3    H250525   4.631   4.439  15.216 -0.3257  0.8632 -0.0807
 9704TIP3   OH250526   4.403   3.684   3.084 -0.6733  0.9758  0.4767
 9704TIP3    H150527   4.439   3.651   3.166 -1.3675 -0.6420  0.1662
 9704TIP3    H250528   4.409   3.610   3.024 -0.0854  2.1625 -0.9765
 9705TIP3   OH250529   3.651   2.911  16.440 -0.7422  0.8486  0.4802
 9705TIP3    H150530   3.700   2.829  16.443 -1.8268  0.2131  1.7779
 9705TIP3    H250531   3.666   2.944  16.352  0.5985 -0.1856  0.2800
 9706TIP3   OH250532   2.003   4.312  14.203 -0.6320  0.5792 -0.1843
 9706TIP3    H150533   2.093   4.311  14.170  0.0213 -0.4784  1.4953
 9706TIP3    H250534   1.954   4.259  14.141  0.4464 -0.9503  0.2139
 9707TIP3   OH250535   2.312   5.397   4.942  0.2138 -0.0097 -0.1983
 9707TIP3    H150536   2.219   5.407   4.923  0.0918  0.7047  0.6996
 9707TIP3    H250537   2.317   5.316   4.994 -0.1083  0.6572  0.9181
 9708TIP3   OH250538   1.846   3.570   5.732  0.4469  0.0476 -0.4714
 9708TIP3    H150539   1.867   3.572   5.639 -1.5606 -0.6351 -0.9897
 9708TIP3    H250540   1.802   3.653   5.749 -1.9978 -1.0619 -0.9309
 9709TIP3   OH250541   2.478   1.126  15.230 -0.0989  0.3718  0.0248
 9709TIP3    H150542   2.453   1.123  15.322 -0.1170  0.1434  0.0132
 9709TIP3    H250543   2.395   1.125  15.182 -0.1194  1.2460  0.0157
 9710TIP3   OH250544   1.245   4.450  15.087 -0.0795  0.0498 -0.0113
 9710TIP3    H150545   1.245   4.368  15.137  3.4234  0.9396  1.7868
 9710TIP3    H250546   1.223   4.517  15.151 -3.3521  0.6341 -1.5643
 9711TIP3   OH250547   3.442   5.875   1.060 -0.2636  0.2644  0.0635
 9711TIP3    H150548   3.517   5.828   1.097  1.1673  0.5822 -2.2226
 9711TIP3    H250549   3.403   5.920   1.134  1.2618 -0.6564  1.4987
 9712TIP3   OH250550   2.093   3.538   0.231  0.1450 -0.6066 -0.7124
 9712TIP3    H150551   2.077   3.534   0.136 -0.8255 -1.0098 -0.5425
 9712TIP3    H250552   2.116   3.449   0.255  0.9959 -0.3825 -0.6542
 9713TIP3   OH250553   3.844   5.676   1.953 -0.1832  0.4090  0.5693
 9713TIP3    H150554   3.813   5.591   1.922  0.2305 -0.4134  2.2503
 9713TIP3    H250555   3.768   5.714   1.998 -0.1835  0.6344  0.3771
 9714TIP3   OH250556   4.689   3.042  12.813  0.3193 -0.5181 -0.6119
 9714TIP3    H150557   4.645   3.122  12.840  1.0695 -0.7084  1.3178
 9714TIP3    H250558   4.782   3.064  12.813  0.5337 -1.3785 -0.0702
 9715TIP3   OH250559   0.461   4.675  15.354  0.1005  0.1532  0.2488
 9715TIP3    H150560   0.533   4.624  15.390  0.5137 -0.4263 -1.3223
 9715TIP3    H250561   0.458   4.652  15.261 -2.1515  0.1094  0.2627
 9716TIP3   OH250562   2.050   1.436   1.298 -0.5468  0.0393 -0.5435
 9716TIP3    H150563   1.994   1.363   1.273  1.4336 -2.2672  1.1045
 9716TIP3    H250564   2.015   1.466   1.382 -0.8101  0.3224 -0.7565
 9717TIP3   OH250565   5.733   6.168   0.457  0.0498  0.4036  0.3939
 9717TIP3    H150566   5.804   6.105   0.439 -0.7710 -0.4636  0.1332
 9717TIP3    H250567   5.673   6.158   0.384 -1.0919  0.0587  1.3628
 9718TIP3   OH250568   5.192   5.210  12.150  0.3377 -0.5550  0.1583
 9718TIP3    H150569   5.272   5.167  12.179  0.1302 -1.5551 -0.7089
 9718TIP3    H250570   5.121   5.163  12.194  0.1753 -0.2545  0.2240
 9719TIP3   OH250571   1.752   0.717  12.711 -0.1117  1.0585 -0.3407
 9719TIP3    H150572   1.800   0.659  12.769 -0.9699 -1.6436 -2.1167
 9719TIP3    H250573   1.718   0.787  12.768  1.5996  0.2460  1.7719
 9720TIP3   OH250574   6.114   5.716  11.328  0.2304 -0.2814  0.3702
 9720TIP3    H150575   6.128   5.629  11.290  0.2143  0.2986 -1.0516
 9720TIP3    H250576   6.198   5.760  11.316 -0.1427  0.3128 -0.1162
 9721TIP3   OH250577   2.906   1.744  15.890  0.3556  0.4404 -0.2495
 9721TIP3    H150578   2.930   1.737  15.797  0.1298  0.6031 -0.3204
 9721TIP3    H250579   2.962   1.680  15.934  0.6133  0.5134 -0.4704
 9722TIP3   OH250580   1.600   0.690  11.185 -0.5540  0.7729 -0.3868
 9722TIP3    H150581   1.689   0.717  11.165  0.4005  0.1932  2.5881
 9722TIP3    H250582   1.552   0.772  11.198  0.1026  1.1009  0.0438
 9723TIP3   OH250583   2.439   0.557  11.090 -0.3145 -0.0581 -0.1948
 9723TIP3    H150584   2.367   0.495  11.076 -0.5522  0.1565  0.0629
 9723TIP3    H250585   2.401   0.642  11.071  0.1945 -0.0473 -1.2111
 9724TIP3   OH250586   1.659   5.115  12.423 -0.0770 -0.1943 -0.1804
 9724TIP3    H150587   1.649   5.037  12.368  1.3038  0.2075 -1.0255
 9724TIP3    H250588   1.727   5.092  12.486 -0.5036 -0.0708  0.3392
 9725TIP3   OH250589   4.401   4.252   0.707  0.3090  0.2375  0.4340
 9725TIP3    H150590   4.426   4.321   0.645  1.6278 -0.2458  0.4117
 9725TIP3    H250591   4.467   4.184   0.695 -0.6705 -0.8150  0.8390
 9726TIP3   OH250592   1.484   3.138  12.064  0.3781 -0.2574 -0.2821
 9726TIP3    H150593   1.511   3.077  11.996  2.2029 -1.0851  1.0843
 9726TIP3    H250594   1.417   3.092  12.113  1.4957 -1.0837  0.5249
 9727TIP3   OH250595   2.024   3.296   3.710 -0.0855 -0.9960 -0.0281
 9727TIP3    H150596   2.053   3.207   3.728 -1.7995 -1.7780 -0.8624
 9727TIP3    H250597   1.948   3.285   3.652  0.9726  1.0667 -1.9581
 9728TIP3   OH250598   4.276   6.361  17.186 -0.2050 -0.0410  0.0370
 9728TIP3    H150599   4.239   6.434  17.136 -0.1800  0.9640  1.4143
 9728TIP3    H250600   4.254   6.283  17.135 -0.6729  0.8768 -1.2235
 9729TIP3   OH250601   5.589   5.981  10.771  0.6134 -0.1235  0.1573
 9729TIP3    H150602   5.583   5.886  10.763 -0.2150 -0.4376  3.1153
 9729TIP3    H250603   5.678   5.997  10.802  0.9706  0.1629 -0.9770
 9730TIP3   OH250604   3.451   2.106   3.942 -0.2495 -0.4016 -0.1792
 9730TIP3    H150605   3.381   2.040   3.945 -1.0310  0.3602 -1.0358
 9730TIP3    H250606   3.511   2.075   3.874  0.7993 -1.5569  1.2163
 9731TIP3   OH250607   2.680   4.389   0.033  0.3978 -0.2756  0.1690
 9731TIP3    H150608   2.710   4.298   0.031 -1.6226 -1.2184  3.9720
 9731TIP3    H250609   2.757   4.438   0.063  0.7485 -1.2110  0.8579
 9732TIP3   OH250610   0.189   5.158  12.540 -0.2268 -0.0181  0.1265
 9732TIP3    H150611   0.178   5.201  12.624  0.8815  0.8978 -0.1680
 9732TIP3    H250612   0.131   5.206  12.480 -0.2097  0.0269  0.1458
 9733TIP3   OH250613   4.785   5.730   3.405  0.6533  0.2001 -0.3491
 9733TIP3    H150614   4.733   5.652   3.421  0.5316  0.4978  0.7434
 9733TIP3    H250615   4.851   5.702   3.341 -0.1566 -0.4576 -0.9170
 9734TIP3   OH250616   2.343   0.846   3.361 -0.1396 -0.7091 -0.1825
 9734TIP3    H150617   2.356   0.930   3.316 -0.1357 -0.2763  0.6046
 9734TIP3    H250618   2.425   0.798   3.347  0.2574 -0.1636  0.2209
 9735TIP3   OH250619   4.061   1.696  14.282 -0.4711 -0.1171 -0.1686
 9735TIP3    H150620   4.143   1.656  14.253  0.9726  1.5639  1.4210
 9735TIP3    H250621   4.080   1.729  14.369 -3.2095 -0.6588  0.7206
 9736TIP3   OH250622   5.829   1.674  17.025 -0.6486  0.6892 -0.9580
 9736TIP3    H150623   5.901   1.618  16.995 -1.3363 -0.6253 -0.2458
 9736TIP3    H250624   5.750   1.629  16.997 -1.2211  1.4709 -0.6275
 9737TIP3   OH250625   5.285   4.455   3.649  0.2812 -0.8667  0.8397
 9737TIP3    H150626   5.237   4.489   3.573  2.3106 -0.4136 -0.3297
 9737TIP3    H250627   5.237   4.377   3.676 -1.2536 -0.2695 -0.0471
 9738TIP3   OH250628   3.398   5.834  11.761 -0.2766  0.1264 -1.2100
 9738TIP3    H150629   3.343   5.857  11.836  0.4790 -1.5169 -0.0984
 9738TIP3    H250630   3.435   5.918  11.732  0.4438  0.6715  1.1060
 9739TIP3   OH250631   2.942   4.762  15.282 -0.1577  0.2436 -0.0006
 9739TIP3    H150632   3.030   4.798  15.273  0.0223 -0.1595  0.1363
 9739TIP3    H250633   2.897   4.824  15.339  0.2338  0.1071  0.4612
 9740TIP3   OH250634   3.691   4.073   5.222 -0.0746  0.1720  0.1229
 9740TIP3    H150635   3.644   4.102   5.143  1.0041 -0.3545 -0.7429
 9740TIP3    H250636   3.778   4.050   5.190  0.4751  0.2384  1.5408
 9741TIP3   OH250637   5.736   6.612   3.883  0.1612  0.0201 -0.3362
 9741TIP3    H150638   5.767   6.599   3.973 -1.4144  0.2898  0.2862
 9741TIP3    H250639   5.748   6.706   3.867 -1.2824  0.3546  0.3281
 9742TIP3   OH250640   4.712   5.819  16.602 -0.5739  0.2004  0.6638
 9742TIP3    H150641   4.656   5.777  16.667  0.3437 -0.5326  1.0122
 9742TIP3    H250642   4.678   5.789  16.518  0.2279 -1.5514  0.9060
 9743TIP3   OH250643   3.288   2.771  12.406  0.2337  0.1750 -0.0195
 9743TIP3    H150644   3.341   2.832  12.354 -0.1829 -0.9088 -1.8009
 9743TIP3    H250645   3.199   2.802  12.395  0.1958  0.3068  0.6058
 9744TIP3   OH250646   2.449   6.251   4.682  0.2955  0.1384 -0.0916
 9744TIP3    H150647   2.398   6.273   4.760 -0.9271  1.6972 -1.2734
 9744TIP3    H250648   2.477   6.161   4.697 -1.3865 -0.2004  1.3920
 9745TIP3   OH250649   3.277   1.010  14.445  0.8017  0.5132 -0.2958
 9745TIP3    H150650   3.245   1.047  14.527  0.8013  1.2043 -0.6009
 9745TIP3    H250651   3.302   1.086  14.392 -1.7477  0.2856 -2.0255
 9746TIP3   OH250652   5.677   6.006  12.748  0.1165 -0.1424  0.0061
 9746TIP3    H150653   5.763   5.983  12.713  0.0262 -2.2316  1.0166
 9746TIP3    H250654   5.682   6.100  12.763  2.1288 -0.1599 -0.2458
 9747TIP3   OH250655   0.508   3.465   6.588 -0.2720  0.1471  0.1973
 9747TIP3    H150656   0.575   3.503   6.645  2.9899 -1.5937 -2.1211
 9747TIP3    H250657   0.473   3.539   6.540 -1.7254  1.3897  2.9246
 9748TIP3   OH250658   1.965   2.722   1.378  0.4897  0.1693  0.5508
 9748TIP3    H150659   1.900   2.764   1.433  0.3386 -0.1404  0.6132
 9748TIP3    H250660   1.966   2.774   1.297  0.5855  0.5160  0.7752
 9749TIP3   OH250661   3.879   0.407  13.694 -0.3064 -0.1228 -0.1413
 9749TIP3    H150662   3.902   0.320  13.659 -0.6437  0.4404 -1.8725
 9749TIP3    H250663   3.792   0.396  13.732 -0.7403 -0.3583 -1.1726
 9750TIP3   OH250664   1.661   5.103   1.292 -0.3223 -0.2376 -0.0927
 9750TIP3    H150665   1.582   5.094   1.346 -0.4095 -3.2116 -0.5661
 9750TIP3    H250666   1.715   5.166   1.339 -1.9850  0.1202  1.4602
 9751TIP3   OH250667   1.847   1.226   1.265 -0.5111  0.5652  0.1557
 9751TIP3    H150668   1.755   1.209   1.285 -0.5147  1.5019  1.0050
 9751TIP3    H250669   1.854   1.209   1.171 -1.7799  1.3714 -0.1182
 9752TIP3   OH250670   2.389   5.382  16.084 -0.2250  0.1788  0.3756
 9752TIP3    H150671   2.340   5.432  16.149 -0.3699  1.3707 -0.6190
 9752TIP3    H250672   2.321   5.332  16.038 -0.1670 -0.3455  0.8423
 9753TIP3   OH250673   6.224   3.851   4.412  0.1200  0.3687  0.3756
 9753TIP3    H150674   6.230   3.826   4.319  0.9404 -1.6111  0.9178
 9753TIP3    H250675   6.240   3.945   4.412 -0.4975  0.5210 -1.5516
 9754TIP3   OH250676   2.186   3.489   3.862  0.1824 -0.6869 -0.1828
 9754TIP3    H150677   2.125   3.415   3.853 -0.8777  0.2437 -0.8980
 9754TIP3    H250678   2.236   3.489   3.781  0.7105 -1.0667  0.1380
 9755TIP3   OH250679   4.374   1.324   3.482 -0.1569  0.4203  0.4674
 9755TIP3    H150680   4.382   1.328   3.578  1.6238  0.8879  0.3376
 9755TIP3    H250681   4.313   1.252   3.466 -0.4585  0.3148  1.9518
 9756TIP3   OH250682   5.230   3.911   6.353  0.7500  0.4254 -0.3196
 9756TIP3    H150683   5.320   3.932   6.376  0.8876  1.0463 -1.3832
 9756TIP3    H250684   5.191   3.995   6.328 -0.3230  0.2763  0.7488
 9757TIP3   OH250685   2.091   0.601  12.712 -0.1720 -0.0352  0.4686
 9757TIP3    H150686   2.003   0.571  12.736 -0.0488  0.0495  1.0422
 9757TIP3    H250687   2.129   0.631  12.794  0.4755 -0.2755  0.2639
 9758TIP3   OH250688   3.369   3.743   4.772  0.0062  0.0738 -0.4864
 9758TIP3    H150689   3.304   3.675   4.752 -0.7575  0.1730  1.4457
 9758TIP3    H250690   3.412   3.711   4.851  0.4558  1.2982 -0.2276
 9759TIP3   OH250691   1.991   0.626  15.907  0.3873  0.2190  0.3404
 9759TIP3    H150692   1.991   0.673  15.824  0.0380 -0.0523  0.1844
 9759TIP3    H250693   2.049   0.677  15.963  0.0751  0.7942  0.1519
 9760TIP3   OH250694   0.713   2.566   0.761  0.6131 -0.1046  0.0057
 9760TIP3    H150695   0.703   2.650   0.718  2.1178 -0.1003 -0.3822
 9760TIP3    H250696   0.721   2.587   0.854  1.2218  0.2083 -0.1148
 9761TIP3   OH250697   3.823   5.909  11.784  0.1014 -0.3178  0.0301
 9761TIP3    H150698   3.841   5.887  11.693  1.4023 -2.2729  0.6856
 9761TIP3    H250699   3.786   5.828  11.821 -1.2124  0.7029  1.0544
 9762TIP3   OH250700   5.890   3.023   5.102  0.8284 -0.0175  0.1846
 9762TIP3    H150701   5.842   2.944   5.129  0.5213  0.0622 -0.1169
 9762TIP3    H250702   5.829   3.095   5.120  0.6123  0.0360 -0.7257
 9763TIP3   OH250703   2.834   3.693  13.378  0.3737 -0.0191 -0.4663
 9763TIP3    H150704   2.834   3.755  13.305 -0.1683 -0.5454 -0.9264
 9763TIP3    H250705   2.904   3.632  13.357  1.4069  0.8460  0.3620
 9764TIP3   OH250706   5.209   1.627   0.930 -0.1893 -0.3553 -0.4505
 9764TIP3    H150707   5.249   1.661   1.011  0.4031 -1.4797 -0.2502
 9764TIP3    H250708   5.141   1.568   0.961  1.9682 -3.1436 -0.6433
 9765TIP3   OH250709   1.212   2.688   0.761 -0.0339 -0.1189  0.0133
 9765TIP3    H150710   1.228   2.697   0.667  1.6323  1.0831  0.3846
 9765TIP3    H250711   1.117   2.700   0.770 -0.2260 -0.2971 -1.5024
 9766TIP3   OH250712   3.802   5.980   1.421 -0.3204  0.3891  0.3849
 9766TIP3    H150713   3.755   5.959   1.340  1.4743 -0.2547 -0.5280
 9766TIP3    H250714   3.828   6.071   1.410 -0.6697  0.5126  0.5567
 9767TIP3   OH250715   1.571   1.524   0.586 -0.2429 -0.1181  0.3510
 9767TIP3    H150716   1.580   1.471   0.507  1.3532  1.9495 -0.9632
 9767TIP3    H250717   1.657   1.516   0.629 -0.8244 -0.5542  1.4611
 9768TIP3   OH250718   0.826   6.530   4.315 -0.6185  0.3522  0.0950
 9768TIP3    H150719   0.787   6.508   4.231  0.8818 -0.1080 -0.5103
 9768TIP3    H250720   0.880   6.454   4.337  3.1985  2.4799 -1.1112
 9769TIP3   OH250721   5.470   3.621   4.732  0.1967 -0.2703 -0.1368
 9769TIP3    H150722   5.493   3.642   4.641 -1.7291  2.3998 -0.1221
 9769TIP3    H250723   5.384   3.660   4.744  0.4011 -0.5555  2.8693
 9770TIP3   OH250724   4.823   5.566  15.641  0.2988  0.0118  0.0678
 9770TIP3    H150725   4.755   5.634  15.645 -0.1831 -0.2502 -2.0328
 9770TIP3    H250726   4.899   5.605  15.683 -0.2884  1.4574 -0.1549
 9771TIP3   OH250727   0.124   2.894  16.258 -0.3474 -0.4538  0.0220
 9771TIP3    H150728   0.089   2.852  16.178  0.9321 -0.7603 -0.3958
 9771TIP3    H250729   0.201   2.842  16.280  0.6437  1.0261  0.1358
 9772TIP3   OH250730   0.169   5.138   5.076  0.0278 -0.0146 -0.3463
 9772TIP3    H150731   0.213   5.058   5.102 -1.9097 -1.0315  0.0510
 9772TIP3    H250732   0.083   5.109   5.045 -0.2400  1.7995 -1.4817
 9773TIP3   OH250733   1.233   0.270   3.643 -0.3583  0.1327 -0.0163
 9773TIP3    H150734   1.235   0.313   3.728  0.6636  0.6392 -0.2885
 9773TIP3    H250735   1.259   0.180   3.661 -0.5914  0.1180  0.2632
 9774TIP3   OH250736   3.219   0.658   6.185  0.2715 -0.0449  0.3875
 9774TIP3    H150737   3.163   0.694   6.253 -1.2200 -0.8291 -0.3928
 9774TIP3    H250738   3.270   0.590   6.230 -1.7853 -1.6145  0.4652
 9775TIP3   OH250739   2.926   3.704  12.298  0.0918 -0.1611 -0.0681
 9775TIP3    H150740   2.849   3.648  12.309 -1.3402  1.8802  0.9203
 9775TIP3    H250741   2.896   3.791  12.324  2.2733  1.0611 -1.3777
 9776TIP3   OH250742   3.480   4.682  13.123 -0.7929 -0.0861 -0.5326
 9776TIP3    H150743   3.553   4.704  13.181 -0.2384  1.1648 -1.6489
 9776TIP3    H250744   3.444   4.766  13.096  0.0345 -0.5116 -3.2932
 9777TIP3   OH250745   3.933   4.172   4.312 -0.0564  0.2469  0.5683
 9777TIP3    H150746   3.906   4.190   4.222  1.0262 -1.7599 -0.2200
 9777TIP3    H250747   3.941   4.259   4.353 -0.5250  1.1978 -1.2556
 9778TIP3   OH250748   5.219   0.649  15.563 -0.1946  0.0035  0.3798
 9778TIP3    H150749   5.241   0.659  15.470  0.7149 -0.3566  0.5442
 9778TIP3    H250750   5.220   0.738  15.598  0.8778  0.0273  0.3339
 9779TIP3   OH250751   0.455   6.710   2.185  0.8038  0.1745  0.1650
 9779TIP3    H150752   0.362   6.732   2.196  1.0173  1.3420 -0.1919
 9779TIP3    H250753   0.499   6.795   2.183  1.7659 -0.3258 -0.6396
 9780TIP3   OH250754   5.291   5.210  16.744 -0.5929  0.4083  0.2216
 9780TIP3    H150755   5.355   5.192  16.675 -0.4600 -1.6294  0.8136
 9780TIP3    H250756   5.233   5.277  16.707 -0.5297 -0.6203 -1.8536
 9781TIP3   OH250757   5.496   4.753   3.925  0.4766 -0.2061  1.1910
 9781TIP3    H150758   5.496   4.697   4.002  1.7812 -1.4559  0.3484
 9781TIP3    H250759   5.494   4.692   3.851 -0.1857  0.9340  0.2277
 9782TIP3   OH250760   1.948   1.395  14.019  0.4216 -0.5514 -0.0314
 9782TIP3    H150761   2.005   1.365  14.090  0.3380 -0.9418 -0.1291
 9782TIP3    H250762   1.966   1.336  13.946  1.5411  0.7157 -0.8220
 9783TIP3   OH250763   3.216   6.566  17.118 -0.1462 -0.1356 -0.4618
 9783TIP3    H150764   3.131   6.609  17.118 -0.9050 -1.5109 -2.1607
 9783TIP3    H250765   3.261   6.601  17.041  0.1685 -0.5723 -0.4832
 9784TIP3   OH250766   5.768   1.718  15.381 -0.1950  0.0915 -0.3591
 9784TIP3    H150767   5.790   1.804  15.415  0.6405  0.3021 -1.3716
 9784TIP3    H250768   5.761   1.731  15.286 -1.6951 -0.6153 -0.3854
 9785TIP3   OH250769   4.991   5.252  14.827 -0.1724  0.7561 -0.4711
 9785TIP3    H150770   5.034   5.207  14.900 -0.7903 -0.6481 -0.9333
 9785TIP3    H250771   5.032   5.215  14.749 -0.4893  1.2258 -0.8637
 9786TIP3   OH250772   1.079   5.163   4.830 -0.3512 -0.0272 -0.3603
 9786TIP3    H150773   1.118   5.099   4.770  0.4284  0.5973 -0.5387
 9786TIP3    H250774   0.987   5.168   4.803  0.0200  0.3525 -1.6068
 9787TIP3   OH250775   2.095   4.058  12.148  0.2720  0.5615  0.3404
 9787TIP3    H150776   2.096   4.090  12.238  1.8835  1.5999 -0.0107
 9787TIP3    H250777   2.002   4.055  12.125 -0.1817  0.1369  2.0601
 9788TIP3   OH250778   1.847   6.434  12.581  0.4466  0.6110 -0.2583
 9788TIP3    H150779   1.882   6.521  12.598  2.3495 -0.1533  0.0610
 9788TIP3    H250780   1.883   6.410  12.495  0.0215  0.0912 -0.2982
 9789TIP3   OH250781   2.748   5.860  10.531 -0.4002  0.5581  0.3391
 9789TIP3    H150782   2.751   5.765  10.537  0.2170  0.4684 -0.9982
 9789TIP3    H250783   2.735   5.878  10.438  2.2891  1.7688  0.0944
 9790TIP3   OH250784   0.991   2.310   2.373  0.0938 -0.9637  0.4106
 9790TIP3    H150785   1.034   2.297   2.458  3.2705  1.0329 -0.7184
 9790TIP3    H250786   1.038   2.252   2.313 -0.7199 -0.8113 -0.4096
 9791TIP3   OH250787   1.011   3.691  15.724 -0.3141 -0.3402 -0.3236
 9791TIP3    H150788   0.926   3.648  15.723 -1.4900  1.7700  1.0311
 9791TIP3    H250789   1.064   3.637  15.783 -1.0826 -1.0582 -0.2745
 9792TIP3   OH250790   6.178   3.271  12.543  0.4194 -0.1870 -0.0659
 9792TIP3    H150791   6.208   3.351  12.585  0.6678  0.8353 -2.0704
 9792TIP3    H250792   6.092   3.292  12.508  1.4943  0.1156 -2.7911
 9793TIP3   OH250793   2.532   2.441  16.812 -0.5184 -0.1830 -0.3890
 9793TIP3    H150794   2.472   2.374  16.779 -2.2162  0.7480  0.7073
 9793TIP3    H250795   2.515   2.445  16.906  0.6998  0.6935 -0.1709
 9794TIP3   OH250796   2.696   2.657  12.578 -0.5684 -0.1199  0.2528
 9794TIP3    H150797   2.670   2.568  12.601 -2.7130  0.7893  1.7043
 9794TIP3    H250798   2.756   2.684  12.647  3.0494 -1.5229 -2.0455
 9795TIP3   OH250799   5.782   1.378  12.154  0.2724 -0.4761  0.2399
 9795TIP3    H150800   5.718   1.391  12.224 -0.7733 -0.0819 -0.7594
 9795TIP3    H250801   5.744   1.311  12.097  0.8534 -0.4054 -0.2537
 9796TIP3   OH250802   0.143   1.963  13.660 -0.1464  0.3579  0.2436
 9796TIP3    H150803   0.087   1.988  13.587  0.2520 -0.2337 -0.2621
 9796TIP3    H250804   0.097   1.891  13.703 -0.1557  0.3959  0.2975
 9797TIP3   OH250805   4.540   2.966   4.320  0.5209 -0.4544 -0.3308
 9797TIP3    H150806   4.528   2.959   4.225  0.5974  1.2116 -0.5006
 9797TIP3    H250807   4.592   3.046   4.332  1.9780 -1.5427  1.0397
 9798TIP3   OH250808   2.017   0.971   0.558  0.5916 -0.2636  0.0932
 9798TIP3    H150809   2.091   0.924   0.518  0.8720  0.3650 -0.1422
 9798TIP3    H250810   2.058   1.033   0.619  0.2042 -0.6347  0.7455
 9799TIP3   OH250811   0.417   2.616   5.359  0.6149  0.1857  0.1283
 9799TIP3    H150812   0.352   2.559   5.399  0.9757  0.3677  1.0017
 9799TIP3    H250813   0.411   2.698   5.408 -1.1710  1.6184 -2.2589
 9800TIP3   OH250814   6.339   6.230  16.041 -0.4722  0.3402 -0.0713
 9800TIP3    H150815   6.287   6.167  15.991  0.7008  0.4229 -1.4719
 9800TIP3    H250816   6.349   6.190  16.127 -1.3601 -0.4906 -0.3408
 9801TIP3   OH250817   0.600   2.784   0.632  0.0203  0.5284 -0.6473
 9801TIP3    H150818   0.610   2.869   0.675  0.8485  0.4930 -0.7533
 9801TIP3    H250819   0.506   2.767   0.634 -0.0396  0.8992  0.4405
 9802TIP3   OH250820   1.626   6.506  16.491 -0.2481  0.3598  0.3740
 9802TIP3    H150821   1.544   6.487  16.535 -0.2030  1.3304  0.8954
 9802TIP3    H250822   1.600   6.548  16.409 -0.3655 -2.1732 -0.9864
 9803TIP3   OH250823   1.081   5.405   5.965  0.0550 -0.6507 -0.1234
 9803TIP3    H150824   1.019   5.445   6.026  1.1017  1.6953 -0.4419
 9803TIP3    H250825   1.136   5.349   6.020  1.2209  1.7051  1.2729
 9804TIP3   OH250826   3.363   4.941  16.004 -0.3418  0.5715  0.1536
 9804TIP3    H150827   3.340   4.876  15.938 -0.6482 -0.0430  0.8457
 9804TIP3    H250828   3.421   4.894  16.064 -0.9709  0.7803  0.9410
 9805TIP3   OH250829   5.020   5.737   5.280 -0.2819  0.8513 -0.2468
 9805TIP3    H150830   4.962   5.810   5.258 -1.8526 -0.6212 -1.2338
 9805TIP3    H250831   4.983   5.701   5.361  1.3195  1.9402  1.0367
 9806TIP3   OH250832   6.006   1.974  15.909 -0.4749  0.1721 -0.3396
 9806TIP3    H150833   5.922   1.985  15.865 -0.8824 -1.0112  0.0933
 9806TIP3    H250834   6.054   1.913  15.853 -0.8664 -1.0695  0.6143
 9807TIP3   OH250835   3.862   1.222   0.746 -0.4125 -0.7422 -0.5864
 9807TIP3    H150836   3.922   1.149   0.762  1.6500  0.8445 -0.7252
 9807TIP3    H250837   3.915   1.288   0.702 -1.9630  1.1992  0.2912
 9808TIP3   OH250838   0.022   2.082  15.867 -0.1295  0.6612 -0.4286
 9808TIP3    H150839  -0.001   2.162  15.819 -0.8204 -0.0898 -1.4080
 9808TIP3    H250840  -0.045   2.019  15.842  0.0802 -0.0683  0.7738
 9809TIP3   OH250841   5.867   2.835  13.845  0.1031 -0.1478  0.2166
 9809TIP3    H150842   5.923   2.881  13.782 -0.1555 -0.3508 -0.1613
 9809TIP3    H250843   5.838   2.904  13.905  0.4198  0.0302  0.1696
 9810TIP3   OH250844   2.255   4.771   2.312 -0.2668 -0.2453  0.2860
 9810TIP3    H150845   2.263   4.865   2.327 -2.3160  0.2804 -1.3915
 9810TIP3    H250846   2.345   4.741   2.302  0.4168  2.1312 -2.0654
 9811TIP3   OH250847   6.549   1.318   2.165 -0.5926 -0.2584 -0.2653
 9811TIP3    H150848   6.589   1.277   2.241 -1.8447 -3.1681 -1.0464
 9811TIP3    H250849   6.558   1.254   2.094 -1.6051  1.3313 -1.9541
 9812TIP3   OH250850   3.612   6.251   0.705  0.1690 -0.2474  0.0779
 9812TIP3    H150851   3.610   6.157   0.721  0.4295 -0.3239 -0.3329
 9812TIP3    H250852   3.623   6.290   0.792  2.3233 -0.6813  0.0597
 9813TIP3   OH250853   6.515   1.226   1.161 -0.0034 -0.0705 -0.2597
 9813TIP3    H150854   6.546   1.235   1.071  1.2101  0.2156  0.1777
 9813TIP3    H250855   6.593   1.208   1.213 -0.7579 -0.8414  0.6682
 9814TIP3   OH250856   3.424   3.629  15.544 -0.7825 -0.0146  0.4499
 9814TIP3    H150857   3.423   3.615  15.449 -2.8857 -0.7356  0.5326
 9814TIP3    H250858   3.428   3.540  15.580  0.8827  0.2743  1.0914
 9815TIP3   OH250859   4.300   0.759  10.489  0.3255  0.1813 -0.6498
 9815TIP3    H150860   4.286   0.846  10.526 -1.4460 -0.6053  0.6694
 9815TIP3    H250861   4.385   0.732  10.524 -0.7382 -0.0375  2.0125
 9816TIP3   OH250862   1.297   4.526  12.382 -0.3901 -0.0877 -0.5743
 9816TIP3    H150863   1.301   4.536  12.477 -1.4212  1.0670 -0.6224
 9816TIP3    H250864   1.216   4.477  12.366 -2.0935  2.6590 -0.9705
 9817TIP3   OH250865   3.509   5.750  17.025 -0.1111 -0.1996 -0.1188
 9817TIP3    H150866   3.461   5.688  16.971 -0.0518 -1.0284  0.7466
 9817TIP3    H250867   3.585   5.774  16.973 -1.1747  0.7438 -1.2998
 9818TIP3   OH250868   1.605   6.487   0.175  0.6862  0.5238  0.2565
 9818TIP3    H150869   1.620   6.393   0.167  1.3007  0.5105  1.3896
 9818TIP3    H250870   1.581   6.500   0.267 -0.6686  1.3215 -0.1707
 9819TIP3   OH250871   2.574   2.223  12.389  0.6245  0.1179 -0.1559
 9819TIP3    H150872   2.502   2.225  12.326  0.2661  0.6584  0.2600
 9819TIP3    H250873   2.603   2.132  12.391 -0.3775 -0.2000  0.0362
 9820TIP3   OH250874   1.363   5.907  15.422  0.1649 -0.1371 -0.3996
 9820TIP3    H150875   1.280   5.906  15.469 -0.2437 -0.7308 -1.0993
 9820TIP3    H250876   1.389   5.815  15.418  1.2721  0.1189  0.5009
 9821TIP3   OH250877   2.166   5.058   3.264 -0.2427 -0.1153 -0.1556
 9821TIP3    H150878   2.142   5.146   3.236  0.2238  1.3329  3.5210
 9821TIP3    H250879   2.262   5.060   3.267 -0.1902 -1.0571 -0.7641
 9822TIP3   OH250880   1.587   5.142  15.486 -0.0491 -0.3066 -0.3142
 9822TIP3    H150881   1.506   5.173  15.444  0.2919 -1.2820 -1.7732
 9822TIP3    H250882   1.566   5.054  15.516  0.5199 -0.6535 -0.9025
 9823TIP3   OH250883   1.279   6.714   3.684 -0.1034  0.3538 -0.2026
 9823TIP3    H150884   1.248   6.623   3.675 -2.1710  0.9071  0.7739
 9823TIP3    H250885   1.343   6.724   3.613  0.9521 -2.1450  0.2852
 9824TIP3   OH250886   5.735   4.562  16.052  0.5543  0.2438  0.0695
 9824TIP3    H150887   5.756   4.563  15.959  1.8358 -0.0865  0.3336
 9824TIP3    H250888   5.787   4.633  16.089  0.1312  0.3095  0.5476
 9825TIP3   OH250889   4.284   1.612   0.160 -1.0062 -0.1337  0.1083
 9825TIP3    H150890   4.220   1.562   0.109 -1.5387 -0.3523  0.9611
 9825TIP3    H250891   4.367   1.596   0.116 -1.3581 -0.7960 -0.3405
 9826TIP3   OH250892   1.146   4.328   3.933  0.4048 -0.3000  0.5284
 9826TIP3    H150893   1.102   4.281   3.862 -0.0703 -0.9785  1.2484
 9826TIP3    H250894   1.234   4.346   3.899 -0.7335  2.2018 -1.4240
 9827TIP3   OH250895   4.039   2.499  13.582 -0.3259 -0.1463 -0.2848
 9827TIP3    H150896   4.128   2.518  13.611 -0.3257  0.0889 -0.4397
 9827TIP3    H250897   4.002   2.584  13.561  0.1943 -0.3956 -2.5133
 9828TIP3   OH250898   0.294   2.936  11.349  0.3242  0.0685 -0.3901
 9828TIP3    H150899   0.252   2.984  11.277  0.3249 -0.2893 -0.6314
 9828TIP3    H250900   0.279   2.991  11.426  0.0221  0.2860 -0.5995
 9829TIP3   OH250901   0.081   5.560  14.159  0.0466 -0.2135  0.3383
 9829TIP3    H150902   0.158   5.593  14.206 -0.2263  0.3018  0.4249
 9829TIP3    H250903   0.021   5.532  14.229 -0.3656  0.5656  0.2987
 9830TIP3   OH250904   3.178   3.825  13.151 -0.3658  0.1539 -0.0917
 9830TIP3    H150905   3.086   3.813  13.131  0.0577 -0.0937 -2.0912
 9830TIP3    H250906   3.196   3.917  13.131  0.1880 -0.2322 -1.5567
 9831TIP3   OH250907   0.019   0.724  15.671  0.0920  0.2998  0.5438
 9831TIP3    H150908   0.091   0.668  15.700 -0.2938 -0.0673  0.8168
 9831TIP3    H250909  -0.058   0.688  15.715 -0.3270  0.4225 -0.0788
 9832TIP3   OH250910   1.449   1.735  13.621 -0.1867  0.0065 -0.0012
 9832TIP3    H150911   1.463   1.652  13.576  0.1771 -0.0185  0.1484
 9832TIP3    H250912   1.533   1.752  13.666 -0.4669  0.1356  0.4820
 9833TIP3   OH250913   0.148   3.180  15.403  0.0270 -0.1063 -0.4428
 9833TIP3    H150914   0.132   3.142  15.317  0.1357 -1.1787 -0.0114
 9833TIP3    H250915   0.102   3.264  15.402  3.1987  1.8232 -2.8876
 9834TIP3   OH250916   4.437   3.772  16.637 -0.3646  0.1677  0.3853
 9834TIP3    H150917   4.519   3.791  16.591 -0.1537 -0.1526  0.6232
 9834TIP3    H250918   4.392   3.857  16.642  0.2823  0.4877  0.8886
 9835TIP3   OH250919   2.802   4.283  13.802  0.1143 -0.0645 -0.2152
 9835TIP3    H150920   2.832   4.199  13.767 -1.1488 -1.1360  1.1494
 9835TIP3    H250921   2.728   4.307  13.745  1.2850  0.8571 -1.4354
 9836TIP3   OH250922   6.118   5.882  13.177 -0.1475 -0.6073  0.2169
 9836TIP3    H150923   6.118   5.943  13.102  1.0022 -0.6855  0.1441
 9836TIP3    H250924   6.210   5.858  13.188 -0.2212 -0.1448  2.0385
 9837TIP3   OH250925   5.231   3.531  13.890  0.3384  0.3937  0.3139
 9837TIP3    H150926   5.297   3.463  13.878  0.4206  0.8413 -2.5260
 9837TIP3    H250927   5.266   3.586  13.960  0.6487 -1.9313  2.1210
 9838TIP3   OH250928   5.371   3.865   3.992 -0.1032 -0.1029 -0.1371
 9838TIP3    H150929   5.398   3.851   4.083  0.0719  3.1698  0.4234
 9838TIP3    H250930   5.453   3.881   3.945 -0.4006  1.2504 -0.2167
 9839TIP3   OH250931   6.011   3.965   1.942  0.1479 -0.3596 -0.3681
 9839TIP3    H150932   5.969   3.879   1.949 -0.3360 -0.1550 -0.6741
 9839TIP3    H250933   5.996   4.006   2.027  0.5288 -0.6457 -0.1635
 9840TIP3   OH250934   1.753   0.500  16.324  0.2509 -0.2996  0.4836
 9840TIP3    H150935   1.748   0.511  16.229  1.0870 -0.3255  0.4368
 9840TIP3    H250936   1.675   0.448  16.345  1.2408 -2.2604 -0.4695
 9841TIP3   OH250937   5.496   4.713  14.132 -0.3347  0.1576  0.3650
 9841TIP3    H150938   5.578   4.713  14.084 -0.3718 -1.7168  0.2280
 9841TIP3    H250939   5.504   4.785  14.195  0.1238  2.0235 -1.7021
 9842TIP3   OH250940   3.598   1.868   2.040  0.9147  0.5471  0.3694
 9842TIP3    H150941   3.664   1.910   1.984  1.7791  0.0021  0.9632
 9842TIP3    H250942   3.539   1.940   2.065  0.4992  0.7954 -1.2319
 9843TIP3   OH250943   5.362   1.834   3.767  0.0555  0.0806  0.7160
 9843TIP3    H150944   5.372   1.929   3.755  1.7515 -0.2611 -1.1673
 9843TIP3    H250945   5.291   1.810   3.708 -2.2825  0.4577  3.1792
 9844TIP3   OH250946   2.123   1.893  13.510  0.2339  0.2596 -0.0035
 9844TIP3    H150947   2.044   1.945  13.525  0.0645  0.2889 -0.9273
 9844TIP3    H250948   2.194   1.945  13.547 -0.2906 -0.2868  1.8814
 9845TIP3   OH250949   5.158   1.541   6.057 -0.4555 -0.3881 -0.5366
 9845TIP3    H150950   5.161   1.584   6.142  0.1375 -0.7843 -0.3496
 9845TIP3    H250951   5.151   1.613   5.994 -1.4908 -0.1226 -0.1302
 9846TIP3   OH250952   1.043   2.645   2.372  0.8475 -0.2010 -0.7384
 9846TIP3    H150953   1.008   2.602   2.295  0.1342  0.6634 -0.8959
 9846TIP3    H250954   0.968   2.688   2.413  0.9665 -1.5507  1.0683
 9847TIP3   OH250955   0.607   2.924  11.073  0.2732  0.0771  0.1305
 9847TIP3    H150956   0.540   2.989  11.053 -0.7889 -0.9363  0.2914
 9847TIP3    H250957   0.602   2.861  11.001  0.4544 -0.4724  0.5923
 9848TIP3   OH250958   3.070   1.987  11.425 -0.0577  0.0615 -0.5502
 9848TIP3    H150959   2.998   2.005  11.486  1.6159  1.1721  1.2150
 9848TIP3    H250960   3.086   2.071  11.381  0.7781  0.0845 -0.2126
 9849TIP3   OH250961   2.188   2.802   4.638  0.1711  0.1738  0.1884
 9849TIP3    H150962   2.140   2.770   4.714  0.5479 -1.1349 -0.1021
 9849TIP3    H250963   2.250   2.732   4.617  0.2665  0.6271 -1.1572
 9850TIP3   OH250964   3.416   2.760   3.891  0.3235 -0.3154 -0.0237
 9850TIP3    H150965   3.485   2.702   3.859  0.9070 -2.1358  3.8844
 9850TIP3    H250966   3.429   2.842   3.844  1.6294 -2.2449 -3.3481
 9851TIP3   OH250967   2.207   5.369  16.630  0.3971 -0.0758  0.5662
 9851TIP3    H150968   2.199   5.333  16.718 -0.8562  0.0945  0.5518
 9851TIP3    H250969   2.242   5.457  16.643  0.8735 -0.2987  0.8291
 9852TIP3   OH250970   4.110   4.620   5.820 -0.2509 -0.5045 -0.1440
 9852TIP3    H150971   4.163   4.560   5.767  0.8882  1.2844 -1.1666
 9852TIP3    H250972   4.172   4.688   5.847 -1.9838  1.7351 -1.4235
 9853TIP3   OH250973   3.411   0.254  15.273  0.1369 -0.2759  0.3816
 9853TIP3    H150974   3.435   0.239  15.365 -0.1998  0.2289  0.5568
 9853TIP3    H250975   3.340   0.192  15.257  0.6400 -0.8371  0.2542
 9854TIP3   OH250976   0.997   4.549   6.248 -0.0754  0.3797 -0.1947
 9854TIP3    H150977   1.015   4.624   6.304  0.0434  1.3834 -1.5053
 9854TIP3    H250978   0.908   4.564   6.215 -0.3574 -0.4778  0.1505
 9855TIP3   OH250979   1.568   5.018   4.187 -0.2201  0.1182 -0.2665
 9855TIP3    H150980   1.643   4.965   4.161  0.3383  0.7667 -0.0057
 9855TIP3    H250981   1.559   5.004   4.281 -1.2311 -0.9487 -0.4900
 9856TIP3   OH250982   5.978   0.542   4.643 -0.0744  0.1486 -0.5410
 9856TIP3    H150983   6.036   0.498   4.581 -1.7282 -0.2007 -1.9220
 9856TIP3    H250984   5.898   0.489   4.642 -1.6767  2.4462 -1.3062
 9857TIP3   OH250985   6.218   3.579  12.154  0.2830  0.0743 -0.4869
 9857TIP3    H150986   6.219   3.491  12.191 -0.7812 -0.9220 -2.6765
 9857TIP3    H250987   6.126   3.606  12.159  0.7273  1.4958  1.0057
 9858TIP3   OH250988   2.322   1.634  16.656  0.1844  0.6764  0.5233
 9858TIP3    H150989   2.234   1.651  16.692  0.8942  1.6678  1.8886
 9858TIP3    H250990   2.370   1.715  16.671  1.3091  0.1933 -0.3289
 9859TIP3   OH250991   0.649   3.230  11.390  0.8484  0.6141  0.1209
 9859TIP3    H150992   0.700   3.260  11.466  0.9819  0.3374  0.1410
 9859TIP3    H250993   0.715   3.199  11.328  0.6885 -0.1869  0.3371
 9860TIP3   OH250994   1.199   2.268  16.792  0.3216  0.0841 -0.2304
 9860TIP3    H150995   1.110   2.266  16.827  1.2515  0.4961  2.3388
 9860TIP3    H250996   1.188   2.245  16.700 -2.2130 -2.2014  0.4864
 9861TIP3   OH250997   1.851   1.150   2.749  0.1726  0.1544 -0.5098
 9861TIP3    H150998   1.905   1.186   2.820 -0.1615 -1.1018  0.4134
 9861TIP3    H250999   1.859   1.055   2.759 -0.6816 -0.0456 -1.5625
 9862TIP3   OH251000   3.740   2.028  11.979  0.2720  0.5128 -0.1746
 9862TIP3    H151001   3.726   2.016  12.073 -0.5166 -0.0815 -0.3628
 9862TIP3    H251002   3.746   1.940  11.943  2.9828  0.6866 -0.3790
 9863TIP3   OH251003   4.237   6.440  14.088  0.0442 -0.1333 -0.0793
 9863TIP3    H151004   4.207   6.428  13.998 -0.5852 -0.0024  0.1019
 9863TIP3    H251005   4.156   6.444  14.139  0.3992 -0.4630  0.5247
 9864TIP3   OH251006   1.121   5.564   2.783  0.0143 -0.0806  0.6571
 9864TIP3    H151007   1.156   5.610   2.707  1.5979 -1.5840  0.4266
 9864TIP3    H251008   1.120   5.630   2.852  1.9173  0.4226  0.2640
 9865TIP3   OH251009   3.380   2.324   0.878 -0.1689 -0.4775  0.2851
 9865TIP3    H151010   3.449   2.260   0.896  0.1987 -0.2850 -0.3842
 9865TIP3    H251011   3.426   2.396   0.833 -0.5566  0.2914  1.1030
 9866TIP3   OH251012   2.220   2.461   6.112  0.1648 -0.5886 -0.2264
 9866TIP3    H151013   2.159   2.444   6.183 -0.2054 -1.2243 -0.6910
 9866TIP3    H251014   2.175   2.525   6.056  0.6795  0.3349  0.3825
 9867TIP3   OH251015   1.286   2.543   2.459 -0.3677 -0.4574  0.1803
 9867TIP3    H151016   1.192   2.530   2.450 -0.4247  0.0666 -0.0250
 9867TIP3    H251017   1.318   2.559   2.370 -0.3404  0.9172  0.4099
 9868TIP3   OH251018   0.079   0.025  14.528  0.1592  0.4262  0.4438
 9868TIP3    H151019  -0.010   0.025  14.494  0.0135  1.2320  0.8003
 9868TIP3    H251020   0.135   0.023  14.450 -0.1699  0.8130  0.1969
 9869TIP3   OH251021   4.549   4.301   4.277 -0.0222  0.3954 -0.9041
 9869TIP3    H151022   4.548   4.317   4.371 -0.6697 -1.0533 -0.6352
 9869TIP3    H251023   4.641   4.312   4.252  0.3491 -0.2627  0.1071
 9870TIP3   OH251024   3.436   0.780   0.478 -0.0439  0.3027  0.1942
 9870TIP3    H151025   3.514   0.745   0.522 -0.4372 -1.9413 -0.7325
 9870TIP3    H251026   3.468   0.810   0.393 -0.2486 -1.4196 -0.5396
 9871TIP3   OH251027   2.258   2.778   3.373  0.2919  0.0733 -0.4964
 9871TIP3    H151028   2.180   2.833   3.385  1.3231  1.2699  1.1401
 9871TIP3    H251029   2.223   2.689   3.369 -1.2285  0.6397 -0.6819
 9872TIP3   OH251030   2.781   6.653  10.482  0.0905  0.4515 -0.5623
 9872TIP3    H151031   2.761   6.616  10.396 -0.3373  0.9368 -0.6803
 9872TIP3    H251032   2.704   6.707  10.503 -0.4515 -0.7595  0.7470
 9873TIP3   OH251033   0.859   3.064   1.709  0.1836 -0.0300  0.1750
 9873TIP3    H151034   0.795   3.037   1.775  1.6445 -0.2289  1.5817
 9873TIP3    H251035   0.880   3.154   1.732 -1.1392  0.7831 -1.6018
 9874TIP3   OH251036   4.169   5.285   1.644  0.1326 -0.7376 -0.1840
 9874TIP3    H151037   4.145   5.326   1.728  0.4416 -0.5421 -0.1909
 9874TIP3    H251038   4.146   5.192   1.656 -0.0592 -0.6652  0.0275
 9875TIP3   OH251039   1.433   2.911  13.244 -0.2322  0.2182  0.1601
 9875TIP3    H151040   1.474   2.986  13.201 -0.7614 -0.0592 -0.8492
 9875TIP3    H251041   1.394   2.860  13.173  0.4543 -1.2374  0.7614
 9876TIP3   OH251042   3.777   4.247  15.634 -0.3662  0.2635  0.1044
 9876TIP3    H151043   3.729   4.308  15.691 -1.1800 -0.4506  0.1838
 9876TIP3    H251044   3.719   4.232  15.560 -0.5083 -1.0381  0.4702
 9877TIP3   OH251045   1.391   0.643   3.081 -0.1531 -0.2372 -0.6459
 9877TIP3    H151046   1.386   0.614   2.990  0.1934 -2.3472 -0.0563
 9877TIP3    H251047   1.378   0.563   3.132 -0.8247  0.9751  1.1771
 9878TIP3   OH251048   0.732   5.630   5.616 -0.1357 -0.2881  1.3511
 9878TIP3    H151049   0.639   5.652   5.623 -0.7663 -2.4963  0.8241
 9878TIP3    H251050   0.751   5.582   5.696  0.0510 -1.3316  0.7111
 9879TIP3   OH251051   4.714   3.682   5.167  0.2084 -0.4873  0.6133
 9879TIP3    H151052   4.803   3.684   5.202  0.3726 -0.2641  0.1923
 9879TIP3    H251053   4.685   3.773   5.170  0.9664 -0.1186 -1.6765
 9880TIP3   OH251054   0.022   1.877  16.857 -0.1948  0.0922  0.3677
 9880TIP3    H151055  -0.056   1.841  16.900  0.2248 -2.3716 -0.7548
 9880TIP3    H251056   0.095   1.837  16.904  0.2914 -0.7217 -1.0166
 9881TIP3   OH251057   0.559   4.719  10.647  0.7014  0.5041 -0.4821
 9881TIP3    H151058   0.467   4.693  10.657  0.6057  1.0683  0.1519
 9881TIP3    H251059   0.582   4.690  10.558  0.1623 -0.3719 -0.3513
 9882TIP3   OH251060   0.236   1.597  15.665  0.1239 -0.5892  0.3952
 9882TIP3    H151061   0.258   1.551  15.746 -0.6689  1.9513  2.1723
 9882TIP3    H251062   0.206   1.683  15.693  0.0598  0.5202 -2.6441
 9883TIP3   OH251063   2.588   2.677   5.166 -0.0455  0.1417 -0.3835
 9883TIP3    H151064   2.662   2.724   5.127  0.3362  0.1235  0.3091
 9883TIP3    H251065   2.591   2.590   5.126  1.3767 -0.4457  0.9044
 9884TIP3   OH251066   1.242   6.554   0.519 -1.1053  0.9152 -0.2656
 9884TIP3    H151067   1.226   6.554   0.613 -2.4179 -0.3940 -0.4553
 9884TIP3    H251068   1.241   6.462   0.494 -2.0355  1.2920 -1.7454
 9885TIP3   OH251069   2.962   1.107  13.123 -0.0340  0.5432  0.5301
 9885TIP3    H151070   3.006   1.125  13.206  0.9858  0.3106  0.0524
 9885TIP3    H251071   2.934   1.015  13.130  2.0271 -0.1823 -0.2332
 9886TIP3   OH251072   2.937   0.926   3.202  0.0686 -0.0813 -0.1837
 9886TIP3    H151073   3.026   0.954   3.181  1.1804 -0.6959  3.1644
 9886TIP3    H251074   2.888   1.008   3.210  0.5726  0.3180 -0.9713
 9887TIP3   OH251075   0.231   0.253  14.571  0.0549 -0.5275  0.2216
 9887TIP3    H151076   0.274   0.261  14.656 -0.9035 -0.3915  0.7108
 9887TIP3    H251077   0.179   0.173  14.578 -1.6548  0.5439  0.5396
 9888TIP3   OH251078   0.949   6.590   0.068  0.0928  0.1181  0.0103
 9888TIP3    H151079   0.942   6.645   0.146  0.9648  0.9293 -0.4468
 9888TIP3    H251080   0.941   6.652  -0.005 -1.2241 -0.6898 -0.5618
 9889TIP3   OH251081   1.719   2.978  16.283 -0.2066 -0.1658 -0.8216
 9889TIP3    H151082   1.736   2.953  16.192 -0.8305 -1.9138 -0.4884
 9889TIP3    H251083   1.722   3.074  16.282 -0.3727 -0.1429 -2.7193
 9890TIP3   OH251084   1.765   5.552   2.314 -0.5916 -0.3394 -0.4613
 9890TIP3    H151085   1.803   5.504   2.388 -1.5815  0.3582  0.5497
 9890TIP3    H251086   1.840   5.581   2.263  0.1845 -0.1514  0.7299
 9891TIP3   OH251087   3.240   3.221   3.938  0.0782  0.4050 -0.4580
 9891TIP3    H151088   3.227   3.153   3.871 -1.5588  2.3344 -2.2317
 9891TIP3    H251089   3.312   3.274   3.905 -0.4028  1.0763 -0.4476
 9892TIP3   OH251090   2.146   2.655   0.652  0.4373 -0.0979  0.1294
 9892TIP3    H151091   2.151   2.724   0.717  1.3348  0.9941 -1.0491
 9892TIP3    H251092   2.205   2.683   0.582 -1.2479 -0.7054 -1.6320
 9893TIP3   OH251093   6.362   0.780  13.531  0.3779  0.1164  0.3405
 9893TIP3    H151094   6.285   0.815  13.575 -0.0494  0.7634 -0.8649
 9893TIP3    H251095   6.327   0.727  13.459  1.0295  1.0462 -0.6966
 9894TIP3   OH251096   1.794   1.722  16.046 -0.0728  0.2756  0.5032
 9894TIP3    H151097   1.879   1.766  16.054  1.8020 -2.9018 -0.5666
 9894TIP3    H251098   1.801   1.645  16.102 -1.6968 -0.8863 -0.8071
 9895TIP3   OH251099   3.471   6.420  15.959  0.2270 -0.7640  0.1907
 9895TIP3    H151100   3.428   6.498  15.922  1.0233  0.0744  0.9737
 9895TIP3    H251101   3.400   6.372  16.002 -0.1027  0.1272  0.6814
 9896TIP3   OH251102   5.915   3.882  17.150 -0.5118 -0.1946 -0.3665
 9896TIP3    H151103   5.916   3.971  17.187 -1.0198  0.6153 -2.1736
 9896TIP3    H251104   5.827   3.871  17.116 -0.0814 -0.9012 -1.2907
 9897TIP3   OH251105   5.541   4.355   0.518 -0.1550 -0.4676  0.7586
 9897TIP3    H151106   5.447   4.351   0.500 -0.1155  0.1232  0.3871
 9897TIP3    H251107   5.550   4.424   0.584  0.1979  0.9144 -0.6618
 9898TIP3   OH251108   3.602   3.189  14.337  0.6402  0.1814 -0.6310
 9898TIP3    H151109   3.626   3.281  14.350  0.3936 -0.0121  1.5344
 9898TIP3    H251110   3.517   3.192  14.293  0.0437  1.0289  0.5279
 9899TIP3   OH251111   5.473   5.652  17.077 -0.3365 -1.0797 -0.0855
 9899TIP3    H151112   5.477   5.719  17.145 -0.4117 -0.9766 -0.1845
 9899TIP3    H251113   5.411   5.685  17.013  0.7050 -0.5797 -0.8538
 9900TIP3   OH251114   5.290   2.820   4.790 -0.7373 -0.0207 -0.5650
 9900TIP3    H151115   5.352   2.778   4.730 -1.3067 -1.2524 -0.3245
 9900TIP3    H251116   5.258   2.896   4.742 -0.1106 -0.1823 -1.2573
 9901TIP3   OH251117   4.516   5.058   1.770 -0.0883 -0.2342  0.5255
 9901TIP3    H151118   4.506   4.966   1.747 -0.2571  0.2445 -1.4221
 9901TIP3    H251119   4.597   5.060   1.822  2.3275 -0.9904 -2.8934
 9902TIP3   OH251120   6.708   0.545   3.936  0.0983  1.0138 -0.0606
 9902TIP3    H151121   6.638   0.510   3.991 -0.9103  1.8346 -0.7845
 9902TIP3    H251122   6.786   0.494   3.960 -0.8305 -0.1899  0.4637
 9903TIP3   OH251123   1.208   5.416  15.333 -0.1851 -0.2394  0.4973
 9903TIP3    H151124   1.178   5.504  15.309 -0.5193 -0.4480  0.1297
 9903TIP3    H251125   1.129   5.374  15.368 -0.0623 -0.4390  0.5306
 9904TIP3   OH251126   3.995   6.178  16.315 -0.1090 -0.2149 -0.0379
 9904TIP3    H151127   4.081   6.149  16.287  0.2381  1.5333 -0.8464
 9904TIP3    H251128   3.956   6.219  16.238 -1.4812 -0.5159  0.4513
 9905TIP3   OH251129   1.079   1.619   0.063 -0.4098 -0.4939 -0.0247
 9905TIP3    H151130   1.109   1.703   0.098  1.3290 -1.3532  0.6584
 9905TIP3    H251131   1.123   1.612  -0.022 -0.2276 -0.8704  0.0962
 9906TIP3   OH251132   0.597   3.365  13.650  0.4189  0.5124 -0.0996
 9906TIP3    H151133   0.503   3.379  13.642  0.5290  2.2450  0.9872
 9906TIP3    H251134   0.636   3.431  13.593  0.9840 -0.1819 -0.5279
 9907TIP3   OH251135   4.300   0.770   5.856 -0.3183 -0.4922  0.4429
 9907TIP3    H151136   4.376   0.824   5.834 -0.8907  0.5577  0.9740
 9907TIP3    H251137   4.282   0.721   5.776 -0.5318  1.0150 -0.4701
 9908TIP3   OH251138   3.024   1.595   5.398  0.5159  0.1912  0.2316
 9908TIP3    H151139   3.052   1.540   5.471  0.4609  1.8151  1.5380
 9908TIP3    H251140   3.103   1.641   5.371  0.0229  1.6871  1.1838
 9909TIP3   OH251141   5.040   0.314   0.330 -0.0337 -0.3726  0.0583
 9909TIP3    H151142   5.012   0.224   0.317  0.8927 -0.4486 -1.7037
 9909TIP3    H251143   4.962   0.360   0.362 -1.0750 -1.3608 -1.0055
 9910TIP3   OH251144   1.814   4.851  11.209 -0.6493 -0.0464  0.3248
 9910TIP3    H151145   1.835   4.944  11.199 -1.7702  0.1194 -0.8232
 9910TIP3    H251146   1.780   4.844  11.298 -1.0231  0.7544  0.2534
 9911TIP3   OH251147   5.358   0.846  10.857  0.5574 -0.0823  0.3071
 9911TIP3    H151148   5.388   0.765  10.899 -0.3143 -0.4824  0.1950
 9911TIP3    H251149   5.335   0.904  10.930  3.8042  1.1678  0.4706
 9912TIP3   OH251150   2.135   1.656   5.434  0.4172 -0.0733 -0.3912
 9912TIP3    H151151   2.223   1.692   5.448 -0.1087  1.1834 -0.1191
 9912TIP3    H251152   2.148   1.563   5.421  1.4601 -0.7254  3.8707
 9913TIP3   OH251153   5.906   4.689   1.874 -0.4969  0.6777 -0.1094
 9913TIP3    H151154   5.843   4.632   1.827 -1.4207  1.0878  0.5979
 9913TIP3    H251155   5.972   4.628   1.907 -0.7534  0.1743 -0.4931
 9914TIP3   OH251156   0.767   2.039   0.257  0.0666  0.2785 -0.5190
 9914TIP3    H151157   0.723   1.954   0.258  0.3751  0.1161 -0.6250
 9914TIP3    H251158   0.798   2.048   0.167 -0.5011  0.7844 -0.6710
 9915TIP3   OH251159   1.635   1.566  11.706 -0.6341 -0.0187  0.0142
 9915TIP3    H151160   1.644   1.483  11.658 -0.7827  1.4651 -2.8322
 9915TIP3    H251161   1.717   1.575  11.755 -0.2873 -1.4831 -0.2639
 9916TIP3   OH251162   3.358   4.159   3.609 -0.2198 -0.5557  0.0579
 9916TIP3    H151163   3.448   4.179   3.634 -0.5196 -1.5188  2.0998
 9916TIP3    H251164   3.356   4.063   3.602 -1.1294 -0.5570  0.2551
 9917TIP3   OH251165   5.163   0.192   3.842 -0.4436 -0.3696  0.9620
 9917TIP3    H151166   5.230   0.227   3.784 -1.8154  3.1542  1.1968
 9917TIP3    H251167   5.090   0.170   3.784  0.1360 -2.2253  0.8980
 9918TIP3   OH251168   3.900   6.694   4.760 -0.2754 -0.2376 -0.5322
 9918TIP3    H151169   3.942   6.754   4.697 -0.3501  0.5586  0.1603
 9918TIP3    H251170   3.973   6.657   4.809 -0.1041 -1.9040 -1.9519
 9919TIP3   OH251171   4.646   1.225  14.310 -0.4039 -0.3674 -0.0332
 9919TIP3    H151172   4.668   1.178  14.391 -0.3833  0.1002  0.2362
 9919TIP3    H251173   4.567   1.274  14.331  0.2309  0.6598  0.0789
 9920TIP3   OH251174   2.835   3.543   4.887 -0.3042  0.5362  0.0291
 9920TIP3    H151175   2.794   3.476   4.834  1.0277 -0.9439  0.7758
 9920TIP3    H251176   2.824   3.513   4.977  0.7907  1.0279  0.3475
 9921TIP3   OH251177   4.740   1.717   1.285 -0.2182  0.9268 -0.4476
 9921TIP3    H151178   4.675   1.755   1.343 -1.7912 -0.9441 -0.8578
 9921TIP3    H251179   4.810   1.782   1.281  0.4225  0.8518  4.1806
 9922TIP3   OH251180   1.651   5.296   0.434  0.7497 -0.0253  0.0357
 9922TIP3    H151181   1.589   5.355   0.477  1.4900  2.0318 -1.5644
 9922TIP3    H251182   1.696   5.252   0.506 -0.5465  0.5546  1.2624
 9923TIP3   OH251183   3.464   4.299  16.957  0.3300  0.0301 -0.2079
 9923TIP3    H151184   3.483   4.341  17.041 -0.1795 -0.9329  0.4114
 9923TIP3    H251185   3.484   4.206  16.973  0.1283 -0.1733 -1.1266
 9924TIP3   OH251186   0.229   2.041   1.227  0.3790  0.3264 -1.0100
 9924TIP3    H151187   0.157   2.004   1.279  0.7193  0.3632 -0.5145
 9924TIP3    H251188   0.299   2.055   1.289  0.9020  0.0861 -1.5371
 9925TIP3   OH251189   1.543   1.283  17.002 -0.2851 -0.4077  0.2119
 9925TIP3    H151190   1.555   1.281  17.097 -1.9534 -0.8583  0.4502
 9925TIP3    H251191   1.632   1.287  16.966  0.3500  0.2869  1.7884
 9926TIP3   OH251192   5.236   4.001   4.322  0.3976 -0.7487  0.1710
 9926TIP3    H151193   5.228   4.030   4.413  0.4190 -1.7899  0.5215
 9926TIP3    H251194   5.171   4.053   4.275 -0.0692 -0.6512  0.8931
 9927TIP3   OH251195   4.113   4.241  10.883  0.2016  0.0892 -0.2397
 9927TIP3    H151196   4.105   4.221  10.790 -1.7435 -1.7061  0.2172
 9927TIP3    H251197   4.023   4.239  10.916  0.9066 -0.2835  1.8395
 9928TIP3   OH251198   0.473   5.561   5.839  0.1966  0.0265 -0.4645
 9928TIP3    H151199   0.411   5.614   5.890  0.5332  0.3846 -0.4209
 9928TIP3    H251200   0.540   5.535   5.902  0.2337 -0.1336 -0.5693
 9929TIP3   OH251201   6.012   6.261   0.341  0.4077 -0.1700  0.4714
 9929TIP3    H151202   5.968   6.310   0.410 -1.8664  0.0186 -1.0247
 9929TIP3    H251203   6.012   6.170   0.373 -2.0813 -0.3547  0.0889
 9930TIP3   OH251204   3.796   6.312   1.923  0.6561  0.2158  0.2390
 9930TIP3    H151205   3.851   6.329   1.847  3.0465  1.9083  2.1943
 9930TIP3    H251206   3.830   6.231   1.961  0.8702  0.4952  0.6544
 9931TIP3   OH251207   1.360   4.168  16.587  0.1347  0.2567  0.4204
 9931TIP3    H151208   1.380   4.183  16.495 -0.0931  0.6875  0.4378
 9931TIP3    H251209   1.273   4.206  16.599 -0.0021 -0.1438  0.7220
 9932TIP3   OH251210   0.267   2.636   3.737 -0.0564 -0.0036 -0.6101
 9932TIP3    H151211   0.320   2.709   3.769  0.5964 -0.3346 -0.9208
 9932TIP3    H251212   0.286   2.632   3.643 -0.5786 -0.1709 -0.7109
 9933TIP3   OH251213   0.243   5.352   2.478  0.0925 -0.1887 -0.2671
 9933TIP3    H151214   0.152   5.339   2.449 -0.0446  2.7024 -1.5521
 9933TIP3    H251215   0.242   5.330   2.571 -1.2030 -2.9589 -0.8500
 9934TIP3   OH251216   0.429   0.112   0.389  0.4143  0.0251  0.1685
 9934TIP3    H151217   0.414   0.018   0.379 -4.0194  0.6419 -1.3631
 9934TIP3    H251218   0.394   0.132   0.476 -0.0828  0.4368 -0.1229
 9935TIP3   OH251219   3.578   2.102  15.319 -0.0410  0.0405  0.0552
 9935TIP3    H151220   3.573   2.049  15.240  0.2035 -0.4787  0.3869
 9935TIP3    H251221   3.529   2.053  15.385  1.0367 -0.2814  0.6409
 9936TIP3   OH251222   4.343   5.151  14.228 -0.1455 -0.4230  0.0883
 9936TIP3    H151223   4.426   5.170  14.184 -1.0683 -0.2819 -1.6689
 9936TIP3    H251224   4.321   5.233  14.272 -1.7601  1.3543 -3.5810
 9937TIP3   OH251225   5.252   5.331  10.814 -0.0177 -0.1588 -0.3864
 9937TIP3    H151226   5.332   5.283  10.836 -0.6807 -1.5050 -0.8309
 9937TIP3    H251227   5.190   5.306  10.882 -0.2546  0.4184 -0.3850
 9938TIP3   OH251228   2.048   3.541  14.868 -0.1783 -0.4916 -0.3017
 9938TIP3    H151229   1.957   3.535  14.840 -0.7033  0.4521  1.0963
 9938TIP3    H251230   2.045   3.591  14.950  1.5065 -1.1815  0.2283
 9939TIP3   OH251231   5.050   5.372   0.654  0.6310  0.3765  0.2499
 9939TIP3    H151232   5.123   5.434   0.656  0.8327  0.1271  0.5113
 9939TIP3    H251233   5.010   5.379   0.740  0.1268  0.7742 -0.0133
 9940TIP3   OH251234   0.495   5.087  17.156 -0.5208 -0.5913  0.4650
 9940TIP3    H151235   0.565   5.072  17.092 -1.2750 -0.4518 -0.4163
 9940TIP3    H251236   0.501   5.013  17.216  2.0240  0.6797  1.9706
 9941TIP3   OH251237   2.180   3.590   0.716 -0.6174 -0.1768  0.1185
 9941TIP3    H151238   2.270   3.612   0.690  0.4080 -0.6241  2.8700
 9941TIP3    H251239   2.167   3.500   0.686 -0.8027  0.4294 -1.7277
 9942TIP3   OH251240   2.697   0.036  16.166 -0.5749  0.7193  0.2359
 9942TIP3    H151241   2.616   0.019  16.118 -0.6541  1.0685  0.2480
 9942TIP3    H251242   2.705  -0.039  16.225 -1.2184  0.9880  0.6803
 9943TIP3   OH251243   3.858   1.553  13.810  0.0656  0.1857 -0.7611
 9943TIP3    H151244   3.769   1.588  13.800  0.0812 -0.0898 -2.0912
 9943TIP3    H251245   3.847   1.473  13.860 -0.1675  1.2077  0.9003
 9944TIP3   OH251246   5.055   4.704   6.009  0.5391 -0.6833 -0.4313
 9944TIP3    H151247   4.969   4.677   6.043  0.7655 -1.3007 -0.3335
 9944TIP3    H251248   5.038   4.724   5.916  0.3007 -0.8618 -0.4293
 9945TIP3   OH251249   6.594   4.992   3.453 -0.7508  0.3300  0.0324
 9945TIP3    H151250   6.593   5.082   3.419 -0.8764 -0.2793 -1.6693
 9945TIP3    H251251   6.676   4.986   3.502 -0.0943  0.9953 -0.9409
 9946TIP3   OH251252   2.465   2.149  14.628 -0.1254 -0.1824 -0.4148
 9946TIP3    H151253   2.409   2.213  14.585 -0.5863 -0.1229  0.2548
 9946TIP3    H251254   2.422   2.131  14.712 -0.3718 -1.8808 -0.8633
 9947TIP3   OH251255   3.075   2.173  11.977 -0.7996 -0.2238  0.5294
 9947TIP3    H151256   3.154   2.206  12.021  0.4727 -2.1946 -0.1038
 9947TIP3    H251257   3.052   2.242  11.914  1.1567 -0.0600 -0.0921
 9948TIP3   OH251258   1.682   5.729  15.406  0.3888  0.2464  0.3918
 9948TIP3    H151259   1.705   5.812  15.447  2.4448  0.1028 -0.3235
 9948TIP3    H251260   1.710   5.739  15.315  1.5828 -1.5167  0.5067
 9949TIP3   OH251261   4.155   3.826  12.034  0.3180  0.3172  0.3031
 9949TIP3    H151262   4.186   3.776  12.109  1.3104  1.2804  0.5610
 9949TIP3    H251263   4.207   3.795  11.961 -0.5876 -0.5579  0.0169
 9950TIP3   OH251264   1.445   0.506  11.653  0.4626  0.0085 -0.0662
 9950TIP3    H151265   1.393   0.571  11.606  2.6606  1.2825 -0.8661
 9950TIP3    H251266   1.452   0.432  11.592 -1.0361 -0.5460  0.3816
 9951TIP3   OH251267   4.895   5.992   0.675 -0.3624 -0.4684 -0.2518
 9951TIP3    H151268   4.918   5.940   0.752 -0.1506 -1.8202 -1.1797
 9951TIP3    H251269   4.871   6.078   0.710  1.2262 -0.5486  1.1777
 9952TIP3   OH251270   2.969   1.354  12.056  0.1479 -0.4985 -0.1225
 9952TIP3    H151271   3.057   1.365  12.022  1.8497  1.0055  4.0439
 9952TIP3    H251272   2.966   1.263  12.087  0.7182 -0.2383  0.7396
 9953TIP3   OH251273   0.458   0.794   3.314  0.0415 -0.2599  0.2635
 9953TIP3    H151274   0.473   0.885   3.290  0.2171  0.2822  2.2896
 9953TIP3    H251275   0.432   0.797   3.406 -0.0269 -2.2529  0.3511
 9954TIP3   OH251276   4.575   4.374  13.803  0.4151 -0.3221 -0.6197
 9954TIP3    H151277   4.599   4.287  13.769 -0.0040 -0.1510 -1.3753
 9954TIP3    H251278   4.559   4.359  13.896  0.3690 -1.0542 -0.7374
 9955TIP3   OH251279   5.683   2.203  13.394  0.1993  0.4942  0.0763
 9955TIP3    H151280   5.630   2.175  13.319 -0.1885  2.7496 -0.5513
 9955TIP3    H251281   5.762   2.149  13.388  1.2069  2.0524 -3.3343
 9956TIP3   OH251282   6.480   0.998  11.833  0.1143  0.4594  0.2822
 9956TIP3    H151283   6.541   0.979  11.761 -1.6272  0.0783 -1.1780
 9956TIP3    H251284   6.399   0.956  11.806 -1.7676  3.5729  0.5684
 9957TIP3   OH251285   4.610   1.501   2.508 -0.0898  0.0206 -0.1591
 9957TIP3    H151286   4.700   1.519   2.537 -0.9174  0.3603  2.4456
 9957TIP3    H251287   4.555   1.552   2.567 -2.0410 -0.5150 -1.4221
 9958TIP3   OH251288   3.859   3.220  13.929 -0.2074 -0.2970 -0.4023
 9958TIP3    H151289   3.927   3.196  13.992  0.3632 -3.4627 -2.0197
 9958TIP3    H251290   3.906   3.270  13.862 -0.0722 -0.0305 -0.1129
 9959TIP3   OH251291   4.285   6.384  15.437 -0.1968 -0.4070 -0.0812
 9959TIP3    H151292   4.369   6.424  15.457 -0.9371  0.9541  0.4434
 9959TIP3    H251293   4.226   6.416  15.506 -1.6032  0.3077 -1.5368
 9960TIP3   OH251294   3.220   2.051  13.129  0.5901  0.3853  0.2650
 9960TIP3    H151295   3.167   2.125  13.099  1.5107  0.7696 -0.4698
 9960TIP3    H251296   3.208   1.984  13.062 -0.9505 -0.5081  1.3742
 9961TIP3   OH251297   2.055   4.479   1.677 -0.0575  0.4117  0.5782
 9961TIP3    H151298   2.073   4.419   1.605 -3.1460  1.0004 -0.8837
 9961TIP3    H251299   2.098   4.561   1.652  0.1121  0.1918  0.1434
 9962TIP3   OH251300   1.988   5.654  14.725  0.1062 -0.4888 -0.7107
 9962TIP3    H151301   1.963   5.572  14.767 -0.9718 -0.2098 -0.7794
 9962TIP3    H251302   1.987   5.719  14.795 -0.6451 -0.2334 -0.9384
 9963TIP3   OH251303   1.938   3.711  16.636 -0.9584 -0.2182 -0.0714
 9963TIP3    H151304   1.880   3.642  16.604  0.4948 -1.5946  0.1228
 9963TIP3    H251305   1.880   3.772  16.681 -2.5053 -0.4144 -1.6826
 9964TIP3   OH251306   5.208   1.966  12.053 -0.0934 -0.3123 -0.3181
 9964TIP3    H151307   5.186   1.904  11.984  0.7898 -3.6245  2.1275
 9964TIP3    H251308   5.300   1.989  12.036  0.1864 -1.2831 -0.1820
 9965TIP3   OH251309   5.779   0.705   5.295 -0.2336  0.0081 -0.3434
 9965TIP3    H151310   5.808   0.790   5.327 -0.3069 -0.3539  0.7303
 9965TIP3    H251311   5.828   0.691   5.214  0.3918  0.7048 -0.0889
 9966TIP3   OH251312   4.243   2.251   5.585  0.2187  0.5026  0.4915
 9966TIP3    H151313   4.277   2.340   5.578  0.8274  0.2546  0.2344
 9966TIP3    H251314   4.160   2.253   5.539  1.3906  0.3375 -1.7805
 9967TIP3   OH251315   1.210   3.801  16.980  0.4179 -0.6579  0.3312
 9967TIP3    H151316   1.292   3.761  17.007  1.0928  0.1422 -0.4632
 9967TIP3    H251317   1.234   3.858  16.908 -0.8356 -0.3578  0.1272
 9968TIP3   OH251318   6.263   4.315   5.443  0.9110 -0.0797 -0.1783
 9968TIP3    H151319   6.292   4.361   5.365  0.4176  0.9030  0.2019
 9968TIP3    H251320   6.344   4.284   5.484  1.1106 -2.0582 -1.9012
 9969TIP3   OH251321   3.580   1.923  15.088  0.2379 -0.2620  0.3377
 9969TIP3    H151322   3.497   1.970  15.098 -0.2558 -0.5759 -1.8597
 9969TIP3    H251323   3.560   1.834  15.116 -0.5797 -0.6562 -1.3498
 9970TIP3   OH251324   5.610   5.675  15.570 -0.5960 -0.4224 -0.3609
 9970TIP3    H151325   5.565   5.724  15.501  0.9816 -1.1630 -1.9851
 9970TIP3    H251326   5.700   5.705  15.566  0.0635 -2.2542 -0.3192
 9971TIP3   OH251327   4.805   0.216  16.013  0.3446 -0.3360  0.1050
 9971TIP3    H151328   4.795   0.166  15.932 -0.6089 -0.9113  0.5641
 9971TIP3    H251329   4.897   0.203  16.037  0.2601 -1.4150 -0.0860
 9972TIP3   OH251330   4.709   2.783   4.642  0.2633  0.2671  0.0633
 9972TIP3    H151331   4.686   2.716   4.578 -0.1163  0.1363  0.3299
 9972TIP3    H251332   4.637   2.781   4.706  0.4707  0.6193  0.3146
 9973TIP3   OH251333   0.070   6.247   0.478 -0.5716 -0.0189 -0.2376
 9973TIP3    H151334   0.032   6.334   0.494 -0.1133 -0.0214  0.9100
 9973TIP3    H251335   0.001   6.186   0.503  0.0694 -0.0182  1.6210
 9974TIP3   OH251336   3.570   6.146  14.600  0.0345  0.3924  0.3742
 9974TIP3    H151337   3.555   6.065  14.551  0.2036  0.8443 -0.4313
 9974TIP3    H251338   3.494   6.154  14.657  0.2607 -0.5977  0.8300
 9975TIP3   OH251339   6.728   0.012  11.384 -0.2825 -0.5239  0.3435
 9975TIP3    H151340   6.736   0.062  11.303  1.0546  0.7293  1.2085
 9975TIP3    H251341   6.638  -0.022  11.382 -0.2986 -0.4842 -1.6126
 9976TIP3   OH251342   4.034   1.047  15.701  0.7898  0.0250  0.3164
 9976TIP3    H151343   4.061   1.091  15.781  0.1327  1.7867 -0.3828
 9976TIP3    H251344   3.940   1.064  15.694  0.5971 -1.1369 -0.2210
 9977TIP3   OH251345   4.810   5.278  15.523 -0.0578  0.7936  0.0783
 9977TIP3    H151346   4.863   5.199  15.535 -0.6913  0.0643 -1.6203
 9977TIP3    H251347   4.843   5.339  15.590 -0.2011 -1.1932  2.0649
 9978TIP3   OH251348   4.404   2.749   1.493 -0.1427  0.1222  0.1794
 9978TIP3    H151349   4.414   2.761   1.399  1.0377 -0.2221  0.2446
 9978TIP3    H251350   4.348   2.672   1.502 -1.1506  0.7839 -0.2252
 9979TIP3   OH251351   4.131   2.889   2.025  0.2169  0.2751 -0.1284
 9979TIP3    H151352   4.167   2.965   1.979 -0.2708  0.2939 -0.4854
 9979TIP3    H251353   4.101   2.924   2.109  0.2763  0.4156 -0.1646
 9980TIP3   OH251354   2.180   1.590  11.565  0.0206 -0.5095 -0.2180
 9980TIP3    H151355   2.251   1.569  11.627 -0.2394 -1.3692 -0.2075
 9980TIP3    H251356   2.215   1.663  11.514  0.3671  0.0183  0.7273
 9981TIP3   OH251357   1.429   4.570  14.051 -0.0034  0.3769  0.3609
 9981TIP3    H151358   1.520   4.593  14.034 -0.2737  0.2498 -1.4767
 9981TIP3    H251359   1.410   4.497  13.992 -1.9480  1.9846 -1.1994
 9982TIP3   OH251360   0.232   2.891   5.316 -0.3989 -0.2100 -0.1137
 9982TIP3    H151361   0.222   2.818   5.377  0.7048  0.9221  1.5063
 9982TIP3    H251362   0.148   2.898   5.272 -1.4458 -0.7399  1.7037
 9983TIP3   OH251363   6.469   3.312  12.745 -0.1818  0.2440  0.4853
 9983TIP3    H151364   6.520   3.346  12.671  0.8380 -1.1654  0.5002
 9983TIP3    H251365   6.496   3.366  12.819  1.4059 -0.5226  0.5065
 9984TIP3   OH251366   2.884   4.864   5.767 -0.1485  0.2936 -0.1656
 9984TIP3    H151367   2.809   4.901   5.813 -1.0171 -0.2406 -1.1213
 9984TIP3    H251368   2.847   4.819   5.692  1.2347  1.2866 -1.5059
 9985TIP3   OH251369   4.127   6.506  13.256  0.6458  0.1733  0.1835
 9985TIP3    H151370   4.186   6.435  13.280 -1.2024 -1.2828  0.6320
 9985TIP3    H251371   4.185   6.574  13.221  2.5745 -1.1093  0.7073
 9986TIP3   OH251372   2.349   2.867  14.107 -0.2982 -0.5618 -0.1118
 9986TIP3    H151373   2.353   2.865  14.202 -0.1090  0.1285 -0.1016
 9986TIP3    H251374   2.361   2.959  14.084  2.2006 -1.0164 -0.9222
 9987TIP3   OH251375   0.227   4.373   5.330  0.0972 -0.8351  0.3966
 9987TIP3    H151376   0.291   4.419   5.277  1.1215 -1.8122  0.7409
 9987TIP3    H251377   0.166   4.441   5.360  1.0258  0.1204  0.1502
 9988TIP3   OH251378   5.128   4.427   4.523  0.1164  0.3516  0.7297
 9988TIP3    H151379   5.054   4.367   4.526  0.3436  0.0970  1.5875
 9988TIP3    H251380   5.184   4.399   4.595  0.8623  0.7797  0.3295
 9989TIP3   OH251381   6.769   4.844  12.729 -0.0261  0.4358 -0.1996
 9989TIP3    H151382   6.816   4.764  12.703  0.3035  1.3189 -2.5609
 9989TIP3    H251383   6.818   4.878  12.804  0.7744 -0.7120 -0.1807
 9990TIP3   OH251384   4.915   4.817  13.872 -0.5335 -0.5435  0.2725
 9990TIP3    H151385   4.862   4.886  13.831 -0.7786 -0.9528 -0.1062
 9990TIP3    H251386   4.897   4.825  13.965  1.5751  1.7288  0.5881
 9991TIP3   OH251387   2.281   5.715  11.074  0.2673  0.0024 -0.2860
 9991TIP3    H151388   2.202   5.679  11.035 -0.6322  1.0470  0.5192
 9991TIP3    H251389   2.342   5.641  11.079 -0.3832 -0.6485 -1.5812
 9992TIP3   OH251390   6.376   6.105   3.167 -0.3173 -0.0433  0.6555
 9992TIP3    H151391   6.329   6.146   3.240 -0.5247  0.6835  0.1302
 9992TIP3    H251392   6.386   6.176   3.103 -0.1037 -0.6601  0.0013
 9993TIP3   OH251393   4.263   6.163  16.997  0.2720  0.4183  0.0446
 9993TIP3    H151394   4.186   6.130  16.952  0.3875 -0.0602  0.1899
 9993TIP3    H251395   4.326   6.182  16.928  0.6646 -0.8700  0.0269
 9994TIP3   OH251396   5.470   1.385  11.779 -0.0457 -0.4885 -0.0336
 9994TIP3    H151397   5.374   1.382  11.787 -0.0509 -0.7254 -0.1584
 9994TIP3    H251398   5.485   1.373  11.685  0.2139 -3.4569  0.3069
 9995TIP3   OH251399   3.398   5.564   3.589  0.1248  0.2384  0.1578
 9995TIP3    H151400   3.303   5.552   3.600  0.3379 -0.6235  1.3586
 9995TIP3    H251401   3.434   5.475   3.596  1.1629  0.7367  1.6033
 9996TIP3   OH251402   1.486   3.801  15.045 -0.0839  0.4435 -0.1687
 9996TIP3    H151403   1.420   3.870  15.038 -1.1055 -0.4288  0.4160
 9996TIP3    H251404   1.447   3.738  15.106  1.6782  0.3183  0.9007
 9997TIP3   OH251405   1.969   4.886   0.877  0.2951  0.0916 -0.1953
 9997TIP3    H151406   2.023   4.860   0.802 -1.5830 -1.5986 -1.0161
 9997TIP3    H251407   1.928   4.968   0.849 -0.1352 -0.3534 -0.8826
 9998TIP3   OH251408   0.469   5.926   2.048 -0.0725 -0.1386  0.3434
 9998TIP3    H151409   0.404   5.961   1.987 -1.4002 -1.7858  0.7225
 9998TIP3    H251410   0.446   5.964   2.132 -1.3580 -1.6233  0.7077
 9999TIP3   OH251411   0.385   1.516   1.362 -0.2120  0.4584  0.2981
 9999TIP3    H151412   0.461   1.540   1.415  0.3195 -1.4001  0.4604
 9999TIP3    H251413   0.405   1.549   1.275  0.9778 -0.3294  0.2499
10000TIP3   OH251414   1.140   2.705   3.028 -0.7649 -0.0565  0.4108
10000TIP3    H151415   1.184   2.666   2.952 -2.5803 -3.2227  0.7967
10000TIP3    H251416   1.049   2.715   3.000 -1.3580 -0.8053  1.9518
10001TIP3   OH251417   0.707   1.214   0.647  0.4143 -0.4427  0.0026
10001TIP3    H151418   0.694   1.120   0.659  0.6860 -0.6713 -1.3183
10001TIP3    H251419   0.677   1.253   0.728 -0.6507 -1.5924  0.1917
10002TIP3   OH251420   6.247   2.133   0.340 -0.0678 -0.2359  0.1651
10002TIP3    H151421   6.206   2.046   0.346  0.6479 -0.5949 -0.0014
10002TIP3    H251422   6.225   2.175   0.423 -2.5516  0.4066 -0.7459
10003TIP3   OH251423   0.320   1.025  17.056  0.2313 -0.0267  0.5793
10003TIP3    H151424   0.370   1.047  17.135  0.0358  0.3330  0.6055
10003TIP3    H251425   0.363   0.947  17.022 -1.4071 -1.9323  2.6278
10004TIP3   OH251426   1.065   5.302   3.156 -0.3538 -0.4005  0.4047
10004TIP3    H151427   1.108   5.366   3.099 -0.1114 -0.6217  0.3368
10004TIP3    H251428   0.973   5.330   3.158 -0.4033 -0.5046 -0.2536
10005TIP3   OH251429   0.574   0.399   6.000 -0.3087 -0.5578 -0.5277
10005TIP3    H151430   0.490   0.422   5.962 -0.2552 -1.3491 -1.1614
10005TIP3    H251431   0.565   0.306   6.024 -1.2190  0.4474  3.7931
10006TIP3   OH251432   6.745   3.714   0.799 -0.4726 -0.2977 -0.4576
10006TIP3    H151433   6.724   3.663   0.721  0.5288  1.1639 -1.7429
10006TIP3    H251434   6.668   3.769   0.814  0.1130  0.9378 -1.7341
10007TIP3   OH251435   0.529   4.731   0.674  0.1177 -0.1041  1.3820
10007TIP3    H151436   0.441   4.704   0.698  0.4433 -1.1639  1.4228
10007TIP3    H251437   0.524   4.751   0.580  0.1830 -1.7209  1.0161
10008TIP3   OH251438   3.492   0.478  12.113  0.5639  0.2754 -0.4801
10008TIP3    H151439   3.446   0.518  12.187  0.3646 -0.5606 -0.1368
10008TIP3    H251440   3.438   0.403  12.089  1.0349  0.0891 -0.9720
10009TIP3   OH251441   2.715   3.518  12.324 -0.2403  0.6121 -0.0572
10009TIP3    H151442   2.700   3.435  12.277  1.1960 -0.8121  1.8398
10009TIP3    H251443   2.639   3.526  12.382 -0.6258  0.9142 -0.5896
10010TIP3   OH251444   4.517   6.517   3.189  0.2283  0.1822  0.2341
10010TIP3    H151445   4.490   6.428   3.165  0.7938  0.1863 -0.4678
10010TIP3    H251446   4.440   6.571   3.173 -0.4330 -0.3153  1.6030
10011TIP3   OH251447   0.811   4.837   5.927 -0.2276 -0.4839  0.6183
10011TIP3    H151448   0.802   4.746   5.899 -1.6855 -0.1506 -0.0852
10011TIP3    H251449   0.789   4.835   6.020 -2.2182 -0.5993  0.1935
10012TIP3   OH251450   5.770   5.901   5.250  0.3133  0.0627 -0.5465
10012TIP3    H151451   5.743   5.898   5.342 -0.2766  1.7834 -0.6296
10012TIP3    H251452   5.817   5.984   5.242 -0.3318  0.3187 -1.9717
10013TIP3   OH251453   3.656   3.579   0.180 -0.8699 -0.3471  0.1489
10013TIP3    H151454   3.572   3.610   0.147 -0.3548  1.0459  0.1074
10013TIP3    H251455   3.720   3.606   0.114 -0.2774 -0.6849  0.5670
10014TIP3   OH251456   5.217   5.683   3.373 -0.5357  0.7787  0.3138
10014TIP3    H151457   5.177   5.696   3.459 -1.0711 -1.0818  0.4000
10014TIP3    H251458   5.295   5.630   3.390  0.1668  1.6276 -0.2038
10015TIP3   OH251459   2.394   5.081   5.927 -0.1970 -0.8922 -0.2892
10015TIP3    H151460   2.344   5.062   5.847 -1.3485  0.8412 -0.0398
10015TIP3    H251461   2.344   5.150   5.970  0.9537 -1.0821  1.4337
10016TIP3   OH251462   0.728   3.500   3.554 -0.2386 -0.4003  1.2110
10016TIP3    H151463   0.746   3.421   3.606 -0.0344 -0.5980  0.8462
10016TIP3    H251464   0.678   3.468   3.479  1.6382 -0.5364 -0.0617
10017TIP3   OH251465   3.628   3.282  12.702 -0.0229  0.0061  0.2058
10017TIP3    H151466   3.660   3.362  12.744 -2.0891 -0.1921  2.4021
10017TIP3    H251467   3.705   3.225  12.697  1.3599  1.8614 -0.8832
10018TIP3   OH251468   3.583   0.084  11.309 -0.3378 -0.2277  0.1593
10018TIP3    H151469   3.553   0.033  11.385 -2.3743  1.9418  0.9406
10018TIP3    H251470   3.640   0.151  11.346 -2.9306  2.1213  0.2402
10019TIP3   OH251471   3.249   3.095   1.279  0.3341  0.3510 -0.0818
10019TIP3    H151472   3.340   3.079   1.254  0.3892 -3.0671  1.7336
10019TIP3    H251473   3.252   3.114   1.373 -0.7337  2.0948 -0.3476
10020TIP3   OH251474   5.191   4.414  16.767 -0.1532 -0.3559  0.2774
10020TIP3    H151475   5.254   4.470  16.812  0.2018 -0.4695 -0.0703
10020TIP3    H251476   5.113   4.468  16.758 -0.2669 -0.3646  1.1116
10021TIP3   OH251477   2.380   3.768  14.620  0.6186 -0.2990 -0.1088
10021TIP3    H151478   2.415   3.790  14.706 -1.3861 -2.2614  1.3253
10021TIP3    H251479   2.385   3.850  14.571  3.7882  0.3700  1.0710
10022TIP3   OH251480   1.879   2.048   0.506  0.0383 -0.5308  0.5128
10022TIP3    H151481   1.836   2.099   0.574  3.3559 -1.4373  3.6287
10022TIP3    H251482   1.851   1.958   0.522  1.0200 -0.7801  0.9240
10023TIP3   OH251483   1.003   1.953   0.548 -0.6357  0.0526  0.8370
10023TIP3    H151484   0.912   1.928   0.566 -1.1533  0.2930 -1.2856
10023TIP3    H251485   1.053   1.906   0.615 -2.3445  0.4405  2.4722
10024TIP3   OH251486   3.997   1.773   4.077  0.6192 -0.1527  0.7779
10024TIP3    H151487   4.055   1.789   4.152  0.6826 -0.7805  0.8703
10024TIP3    H251488   3.913   1.810   4.103  0.8944  0.4807  0.7739
10025TIP3   OH251489   2.998   5.915  14.265  0.2892  0.1876 -0.2458
10025TIP3    H151490   2.922   5.863  14.241  2.1179 -2.3364 -1.0771
10025TIP3    H251491   2.987   5.933  14.358 -1.2501 -0.1909 -0.3380
10026TIP3   OH251492   5.425   6.013  13.778  0.1545  0.3562  0.2655
10026TIP3    H151493   5.515   6.011  13.747  0.5192  0.1138  1.2836
10026TIP3    H251494   5.375   5.968  13.710  0.4728  2.2004 -1.2494
10027TIP3   OH251495   4.834   2.084   6.091 -0.2348  0.0788  0.3109
10027TIP3    H151496   4.874   2.008   6.133 -1.0044  0.1494  1.2024
10027TIP3    H251497   4.854   2.157   6.149  1.1403  0.7260 -0.9144
10028TIP3   OH251498   6.066   1.079   3.941  0.3027  0.1851  0.2277
10028TIP3    H151499   6.140   1.139   3.956 -0.0539  0.9101 -0.7803
10028TIP3    H251500   5.989   1.135   3.949 -0.0615 -0.2424 -0.2863
10029TIP3   OH251501   2.580   0.930   4.269  0.0075 -0.0137  0.4294
10029TIP3    H151502   2.517   0.859   4.283 -0.4773 -0.0550 -1.6382
10029TIP3    H251503   2.646   0.892   4.210 -0.3786  1.2783 -0.8984
10030TIP3   OH251504   5.687   4.258   2.475  0.7407 -0.9046  0.1329
10030TIP3    H151505   5.715   4.220   2.559 -0.5194 -1.3128  0.3881
10030TIP3    H251506   5.686   4.184   2.415 -1.5768 -1.3086  0.5949
10031TIP3   OH251507   0.247   2.191   5.647  0.0277  0.0224  0.3426
10031TIP3    H151508   0.281   2.276   5.673 -0.7591  0.0068  1.5015
10031TIP3    H251509   0.152   2.200   5.652 -0.0734 -0.8175  0.1253
10032TIP3   OH251510   5.066   2.114  12.623  0.1101  0.4255  0.1228
10032TIP3    H151511   5.098   2.080  12.707  0.2180  1.5466  0.5419
10032TIP3    H251512   5.143   2.153  12.582 -0.5573  2.7548  0.9448
10033TIP3   OH251513   6.519   5.682  14.980 -0.0581  0.6068 -0.4897
10033TIP3    H151514   6.586   5.657  15.043  0.3011 -1.7633 -1.6814
10033TIP3    H251515   6.567   5.697  14.898 -0.9229 -1.5796 -1.4821
10034TIP3   OH251516   0.668   5.826   1.328  0.4108  0.0753 -0.2173
10034TIP3    H151517   0.576   5.843   1.351  0.1326 -0.3262 -1.0104
10034TIP3    H251518   0.670   5.829   1.233  1.3312  0.5914 -0.1967
10035TIP3   OH251519   4.374   6.418   4.925 -0.2018  0.0742  0.1724
10035TIP3    H151520   4.447   6.400   4.984 -0.3186  1.4461  0.7610
10035TIP3    H251521   4.414   6.415   4.837  0.5401  0.6812  0.4778
10036TIP3   OH251522   2.908   2.253   3.252  0.3449 -0.2371  0.0012
10036TIP3    H151523   2.862   2.299   3.181 -1.2369 -2.6515 -0.6484
10036TIP3    H251524   2.955   2.182   3.208  0.8185 -0.6830  1.2013
10037TIP3   OH251525   2.634   1.785  15.844  0.2660  0.2320 -0.1380
10037TIP3    H151526   2.729   1.772  15.849 -0.0119 -1.8196  1.5752
10037TIP3    H251527   2.612   1.831  15.925 -0.3387 -0.5491  0.1530
10038TIP3   OH251528   2.197   4.308   1.138 -0.7285  0.0098  0.9538
10038TIP3    H151529   2.174   4.246   1.069 -1.0612  0.6504  0.4654
10038TIP3    H251530   2.280   4.346   1.110 -1.5439  1.2967  0.1450
10039TIP3   OH251531   6.073   2.610   0.182 -0.0832 -0.0727 -0.7634
10039TIP3    H151532   6.064   2.694   0.137  2.2313 -0.0906 -1.3376
10039TIP3    H251533   5.982   2.582   0.198 -0.9177  1.5319 -2.3752
10040TIP3   OH251534   6.451   1.471  17.250 -0.1677  0.4526  0.2728
10040TIP3    H151535   6.368   1.497  17.209 -1.3326 -1.3245  1.3574
10040TIP3    H251536   6.474   1.389  17.207  0.3368  0.2701  0.8733
10041TIP3   OH251537   2.569   2.512  11.864 -0.3208 -0.2456 -0.0077
10041TIP3    H151538   2.520   2.593  11.848 -1.2968 -0.9794 -0.9416
10041TIP3    H251539   2.502   2.443  11.863  0.6085 -1.1735 -0.2982
10042TIP3   OH251540   4.289   4.353  11.767 -0.1661 -0.2881 -0.5347
10042TIP3    H151541   4.203   4.311  11.774 -0.7794  0.9461 -0.3560
10042TIP3    H251542   4.289   4.417  11.838 -0.4478  2.0363 -2.5004
10043TIP3   OH251543   1.150   4.279   5.346 -0.1570 -0.0661 -0.3354
10043TIP3    H151544   1.217   4.235   5.399  1.1603  0.6137 -1.3765
10043TIP3    H251545   1.191   4.292   5.261 -0.8510  2.2059 -0.4006
10044TIP3   OH251546   6.539   6.769   3.686 -0.3109  0.4604 -0.0986
10044TIP3    H151547   6.490   6.847   3.711 -1.0894 -0.4482  1.3195
10044TIP3    H251548   6.485   6.726   3.619 -0.7795  0.2073  0.4326
10045TIP3   OH251549   3.834   3.735  13.788  0.6123  0.3609 -0.3727
10045TIP3    H151550   3.749   3.694  13.806  0.3564  0.8681 -0.4037
10045TIP3    H251551   3.872   3.682  13.719  0.7176 -0.4072  0.2646
10046TIP3   OH251552   2.511   3.556  14.093 -0.8080 -0.0124 -0.2283
10046TIP3    H151553   2.422   3.563  14.058 -0.4796 -0.0855 -1.0977
10046TIP3    H251554   2.568   3.586  14.022  0.0021 -2.0557 -0.5324
10047TIP3   OH251555   4.378   4.809  11.591 -0.0192  0.3723  0.4293
10047TIP3    H151556   4.306   4.751  11.616  1.0203 -0.7604  0.9122
10047TIP3    H251557   4.337   4.876  11.536 -1.8489  1.1353  2.5777
10048TIP3   OH251558   4.615   2.686  17.022 -0.7798 -0.4340  0.2936
10048TIP3    H151559   4.676   2.755  16.995  0.2476 -1.3484  0.2111
10048TIP3    H251560   4.622   2.684  17.118  0.3026 -1.3669  0.2263
10049TIP3   OH251561   1.327   6.374  13.547 -0.4486  0.2900 -0.3423
10049TIP3    H151562   1.350   6.316  13.620 -0.6088 -0.2685 -0.7312
10049TIP3    H251563   1.411   6.401  13.510 -0.3590 -1.4362 -1.5134
10050TIP3   OH251564   4.924   4.827  14.169  0.4519  0.1355 -0.0997
10050TIP3    H151565   4.914   4.846  14.262  0.8736  2.0680 -0.4230
10050TIP3    H251566   4.963   4.739  14.167 -2.2263 -1.2011  1.4350
10051TIP3   OH251567   0.323   4.364  13.100  0.2088  0.4840 -0.6078
10051TIP3    H151568   0.388   4.321  13.046 -0.4246  1.2139 -1.9921
10051TIP3    H251569   0.374   4.408  13.169  1.2413  1.5331 -1.9935
10052TIP3   OH251570   2.379   4.800   4.524 -0.2331 -0.4519 -0.4142
10052TIP3    H151571   2.379   4.735   4.595  0.3625  1.1652  1.1285
10052TIP3    H251572   2.447   4.862   4.548 -0.1132  0.2437 -2.3623
10053TIP3   OH251573   4.209   5.711  11.363 -0.3145 -0.0490  0.0444
10053TIP3    H151574   4.250   5.702  11.277  2.2998  0.8148  1.1265
10053TIP3    H251575   4.202   5.621  11.395  0.6356 -0.2381 -0.2388
10054TIP3   OH251576   3.570   1.793  15.570  0.0873 -0.1259 -0.0281
10054TIP3    H151577   3.563   1.814  15.664  0.8234  3.0402 -0.5598
10054TIP3    H251578   3.493   1.834  15.531  0.5019 -0.2172 -0.9496
10055TIP3   OH251579   3.830   2.493   1.829 -0.2882 -0.2300  0.2790
10055TIP3    H151580   3.735   2.480   1.837 -0.6368  0.8166 -1.6218
10055TIP3    H251581   3.842   2.587   1.839  0.4529 -0.2553 -0.3034
10056TIP3   OH251582   0.961   4.247  15.167  0.3483 -0.4116  0.3326
10056TIP3    H151583   0.933   4.304  15.238 -1.2835  1.1209 -1.4425
10056TIP3    H251584   1.028   4.298  15.120 -0.6828 -0.1461 -0.9083
10057TIP3   OH251585   3.500   3.276  15.144  0.6884  0.2570 -0.6729
10057TIP3    H151586   3.592   3.267  15.168  0.6249  1.2936  0.0468
10057TIP3    H251587   3.452   3.250  15.222  0.3323 -1.2104 -1.3597
10058TIP3   OH251588   5.516   2.332   5.010 -0.1331  0.3637 -0.0173
10058TIP3    H151589   5.610   2.338   4.991  0.1421 -0.4894  0.9743
10058TIP3    H251590   5.478   2.294   4.931  0.0715  2.2549 -1.0920
10059TIP3   OH251591   0.958   1.754   5.395 -0.0733 -0.5890  0.2628
10059TIP3    H151592   0.901   1.678   5.382 -0.5674 -0.2621  0.4802
10059TIP3    H251593   0.900   1.821   5.431  0.6784 -0.6292  1.6313
10060TIP3   OH251594   6.652   3.237   0.881  0.0614  0.8691  0.6018
10060TIP3    H151595   6.701   3.318   0.886 -0.5160  1.2503  0.2659
10060TIP3    H251596   6.717   3.171   0.857  0.4269  1.3502  0.2400
10061TIP3   OH251597   2.678   3.980   1.058 -0.5218  0.3895 -0.2150
10061TIP3    H151598   2.616   4.038   1.101 -2.0236 -1.4962  0.3036
10061TIP3    H251599   2.661   3.991   0.964 -1.5874 -0.0216 -0.0796
10062TIP3   OH251600   2.297   0.743  13.206 -0.2817  0.0454  0.6054
10062TIP3    H151601   2.325   0.835  13.208 -0.2575  0.0770 -0.7005
10062TIP3    H251602   2.270   0.725  13.296  0.9622  0.9341  1.1929
10063TIP3   OH251603   4.961   5.841  16.841  0.1056 -0.7146 -0.1078
10063TIP3    H151604   4.979   5.904  16.771 -0.8381 -1.0567 -0.6795
10063TIP3    H251605   4.952   5.894  16.920 -0.6465 -0.1144 -0.5756
10064TIP3   OH251606   1.152   1.312  16.104  0.1191 -0.0371 -0.1551
10064TIP3    H151607   1.144   1.398  16.146 -1.9352 -0.7887  1.1657
10064TIP3    H251608   1.165   1.252  16.177  1.5693 -0.9056 -1.0685
10065TIP3   OH251609   2.271   4.456   3.370 -0.3350 -0.1914 -0.3783
10065TIP3    H151610   2.311   4.468   3.283 -0.3762  0.1750 -0.3485
10065TIP3    H251611   2.177   4.468   3.355 -0.3471 -0.1772 -0.2919
10066TIP3   OH251612   0.645   2.576   5.737  0.1455 -0.9910  0.3277
10066TIP3    H151613   0.663   2.541   5.825  1.0903 -0.3037  0.4292
10066TIP3    H251614   0.589   2.511   5.696  0.9521 -2.0789  0.8987
10067TIP3   OH251615   5.466   0.919  10.568 -0.2332 -0.4669  0.4024
10067TIP3    H151616   5.458   0.964  10.652  0.7752  1.0753 -0.2852
10067TIP3    H251617   5.397   0.957  10.514 -0.4050 -0.9200  0.3002
10068TIP3   OH251618   2.577   3.980  12.205 -0.0271 -0.1059 -0.2112
10068TIP3    H151619   2.532   4.062  12.189  1.1877  0.7021  0.3963
10068TIP3    H251620   2.565   3.964  12.299  2.7354  1.2985  0.5010
10069TIP3   OH251621   4.310   4.096   1.036 -0.3573  0.0830  0.0821
10069TIP3    H151622   4.222   4.117   1.067 -0.1624  1.6808 -0.3731
10069TIP3    H251623   4.297   4.055   0.950 -0.6505  0.3917 -0.0197
10070TIP3   OH251624   5.689   4.917  13.070 -0.2746  0.1041 -0.5563
10070TIP3    H151625   5.687   5.012  13.055  2.0344 -0.0927 -2.7771
10070TIP3    H251626   5.735   4.907  13.153 -1.2209  0.8935  0.0983
10071TIP3   OH251627   4.756   4.157  13.947 -0.0312  0.8710  0.2465
10071TIP3    H151628   4.701   4.220  13.993  1.1294  1.7807  0.4625
10071TIP3    H251629   4.846   4.185  13.967  0.5533  1.4521 -2.7001
10072TIP3   OH251630   1.072   2.268   1.027  0.0313  0.3877 -0.1104
10072TIP3    H151631   1.014   2.344   1.017  0.4818  1.0121  1.5946
10072TIP3    H251632   1.048   2.231   1.112  2.5148  1.0769  0.9913
10073TIP3   OH251633   0.042   4.897  13.338 -0.4319 -0.2903  0.5651
10073TIP3    H151634   0.005   4.876  13.252 -1.3249 -1.2411  1.1611
10073TIP3    H251635   0.112   4.833  13.350 -0.0613  0.0775  0.4008
10074TIP3   OH251636   2.603   1.939  16.068 -0.1715 -0.1375 -0.5023
10074TIP3    H151637   2.508   1.941  16.064 -0.1088  1.4278 -2.7700
10074TIP3    H251638   2.629   2.030  16.081  1.0180 -0.3944 -0.9215
10075TIP3   OH251639   0.938   1.663  12.795  0.5721 -0.1856 -0.1556
10075TIP3    H151640   1.023   1.625  12.772  1.6892  1.4821  0.9908
10075TIP3    H251641   0.952   1.704  12.880 -1.1999  0.7211 -0.2596
10076TIP3   OH251642   4.031   1.615  16.376  0.3242 -0.2192  0.4507
10076TIP3    H151643   3.941   1.645  16.387  0.1789 -0.3572 -0.3184
10076TIP3    H251644   4.034   1.577  16.289  1.2817  0.3389  0.2164
10077TIP3   OH251645   5.953   2.272  11.864  0.0698 -0.1959 -0.0893
10077TIP3    H151646   6.012   2.347  11.873 -0.3903  0.4041 -1.6933
10077TIP3    H251647   6.009   2.201  11.834  0.6643 -0.7808  2.2465
10078TIP3   OH251648   3.377   3.524   0.996  0.0755  0.4827 -0.4849
10078TIP3    H151649   3.377   3.529   0.900 -1.5086 -0.3029 -0.5606
10078TIP3    H251650   3.390   3.614   1.025  1.1146  0.6544 -1.4140
10079TIP3   OH251651   0.119   6.444  10.970  0.4001  0.5407 -0.1162
10079TIP3    H151652   0.048   6.476  11.026  0.6067 -1.7950  1.6191
10079TIP3    H251653   0.106   6.490  10.887 -2.9591  0.4470  0.2219
10080TIP3   OH251654   2.945   5.642  16.728  0.2212  0.2482 -0.6076
10080TIP3    H151655   2.932   5.600  16.813  0.0292 -0.9948 -1.2176
10080TIP3    H251656   2.869   5.616  16.676  0.8557  0.0727 -1.4904
10081TIP3   OH251657   2.611   6.470  15.940  0.1329  0.2582 -0.3270
10081TIP3    H151658   2.671   6.496  15.870  0.1453  0.6997 -0.1530
10081TIP3    H251659   2.641   6.518  16.017 -0.0996  0.0478 -0.1019
10082TIP3   OH251660   2.171   1.059  15.937  0.6068  0.2474 -0.2274
10082TIP3    H151661   2.076   1.064  15.930  0.5853  0.9879  0.4004
10082TIP3    H251662   2.189   1.086  16.027  1.2847 -1.8206  0.3182
10083TIP3   OH251663   4.146   5.403  15.789  0.2178 -0.1677  0.0607
10083TIP3    H151664   4.092   5.449  15.724 -1.0519 -1.8617 -0.1381
10083TIP3    H251665   4.226   5.381  15.742  1.4458  2.8610  0.5116
10084TIP3   OH251666   1.785   6.098   0.742 -0.1330  0.4244 -0.0160
10084TIP3    H151667   1.844   6.133   0.808  0.1042  1.0315 -0.5386
10084TIP3    H251668   1.728   6.038   0.790 -0.4946  1.4553  0.8952
10085TIP3   OH251669   6.242   0.210  12.874 -0.2170  0.0379 -0.2464
10085TIP3    H151670   6.167   0.158  12.845  0.8579 -1.3931 -0.5653
10085TIP3    H251671   6.261   0.268  12.800  0.4295 -1.2572 -1.1389
10086TIP3   OH251672   1.559   4.614   0.495 -0.0241  0.4001  0.0920
10086TIP3    H151673   1.490   4.631   0.431  0.7048 -2.3818 -1.6176
10086TIP3    H251674   1.583   4.523   0.481  1.6355  0.2580  3.0055
10087TIP3   OH251675   1.522   2.335  15.222  0.6664  0.2610  0.5675
10087TIP3    H151676   1.484   2.399  15.161 -0.4689 -0.0895  0.8765
10087TIP3    H251677   1.591   2.292  15.172 -0.2931 -0.0703 -0.5097
10088TIP3   OH251678   5.445   6.725  16.859  0.1093 -0.2800 -0.4414
10088TIP3    H151679   5.520   6.681  16.819  0.6472  1.3853 -1.3450
10088TIP3    H251680   5.483   6.790  16.917 -0.6415  0.4594 -0.7566
10089TIP3   OH251681   4.029   5.371   5.522 -0.2694 -0.2010 -0.3209
10089TIP3    H151682   4.084   5.443   5.553  0.8589 -0.7455 -0.9703
10089TIP3    H251683   3.960   5.362   5.588  1.6655 -0.9164  1.7096
10090TIP3   OH251684   0.731   2.005  15.547  0.0264 -0.3262 -0.4163
10090TIP3    H151685   0.812   1.966  15.516 -0.6505 -2.1870  0.0046
10090TIP3    H251686   0.747   2.024  15.639 -0.6111 -2.6662  0.2537
10091TIP3   OH251687   2.222   2.316  10.925 -0.2743 -0.2452  0.0015
10091TIP3    H151688   2.300   2.367  10.943  2.1359 -2.9323 -1.9225
10091TIP3    H251689   2.174   2.367  10.860 -0.1021  1.4012  1.1325
10092TIP3   OH251690   4.397   0.872   2.063  0.0734 -0.1015 -0.7515
10092TIP3    H151691   4.321   0.818   2.041  0.7468 -1.3611 -0.0855
10092TIP3    H251692   4.364   0.936   2.125 -0.4346 -0.7278 -0.3599
10093TIP3   OH251693   0.083   4.262   4.448  0.4154  0.1971 -0.1831
10093TIP3    H151694   0.104   4.176   4.483 -0.2640  0.0643 -0.0771
10093TIP3    H251695   0.046   4.310   4.523 -0.7529  0.0152 -0.6225
10094TIP3   OH251696   0.157   6.604  10.700 -0.2093  0.1635 -0.0405
10094TIP3    H151697   0.213   6.545  10.649  0.1714  1.1381 -0.7846
10094TIP3    H251698   0.136   6.675  10.640  0.7544  1.6706  1.3111
10095TIP3   OH251699   4.014   5.072   1.199 -0.0990 -0.9672  0.3280
10095TIP3    H151700   3.949   5.091   1.132 -0.7260 -0.6166  1.0363
10095TIP3    H251701   4.022   4.976   1.198  0.0621 -0.9554 -0.3875
10096TIP3   OH251702   6.554   6.084   2.877 -0.4968 -0.4076 -0.0542
10096TIP3    H151703   6.588   6.074   2.966 -1.0755 -1.0966  0.1033
10096TIP3    H251704   6.538   6.178   2.868  0.4024 -0.2146  0.2441
10097TIP3   OH251705   0.390   4.592   1.715 -0.2217  0.3027  0.0116
10097TIP3    H151706   0.439   4.535   1.656 -0.7687 -0.3438  0.1782
10097TIP3    H251707   0.359   4.534   1.785 -2.7883  0.3046 -1.0160
10098TIP3   OH251708   2.767   6.059  11.863  0.1516  0.4196  0.4907
10098TIP3    H151709   2.755   5.989  11.799  0.3853 -0.0696  0.9705
10098TIP3    H251710   2.678   6.081  11.891  0.1438 -0.6312  1.3319
10099TIP3   OH251711   0.196   0.482  11.367  0.3559 -0.2899  0.0565
10099TIP3    H151712   0.259   0.459  11.299 -0.4241  0.5576 -0.9841
10099TIP3    H251713   0.176   0.399  11.410  2.0751 -0.5982  0.3508
10100TIP3   OH251714   2.671   4.342  12.866  0.8806  0.6135  0.3212
10100TIP3    H151715   2.618   4.393  12.927  1.9618  1.3351  0.6910
10100TIP3    H251716   2.693   4.262  12.913 -1.0753 -0.3884 -0.3684
10101TIP3   OH251717   3.866   3.139  12.759 -0.5305  0.1359 -0.5621
10101TIP3    H151718   3.892   3.086  12.834 -0.2792 -1.6315 -1.8445
10101TIP3    H251719   3.902   3.226  12.778  2.5819 -1.0871 -0.2088
10102TIP3   OH251720   2.956   2.149  16.535  0.4582  0.5495  0.6744
10102TIP3    H151721   3.020   2.197  16.587 -1.0197 -0.3209  3.5623
10102TIP3    H251722   2.898   2.110  16.600 -0.3145 -2.4720 -1.6048
10103TIP3   OH251723   1.195   6.717  12.039  0.1685  0.1961 -0.1738
10103TIP3    H151724   1.233   6.804  12.026  1.2624 -0.4478 -1.5847
10103TIP3    H251725   1.267   6.665  12.074 -0.9379  0.2096  2.3904
10104TIP3   OH251726   4.842   6.626   5.377 -0.0503 -0.0792  0.3675
10104TIP3    H151727   4.821   6.585   5.460 -3.3305  0.1087 -0.2368
10104TIP3    H251728   4.913   6.572   5.341 -2.5819 -3.9326  0.6227
10105TIP3   OH251729   5.732   0.535   1.604 -0.7000  0.1185 -0.2476
10105TIP3    H151730   5.691   0.578   1.679  0.1340  0.2191  0.1630
10105TIP3    H251731   5.675   0.461   1.584 -1.1098  0.2925  0.2751
10106TIP3   OH251732   2.949   1.402   0.065 -0.3545  0.5064 -1.1037
10106TIP3    H151733   2.867   1.358   0.044  0.1138 -0.9705 -0.0476
10106TIP3    H251734   2.929   1.455   0.143 -0.4423  0.6169 -1.2012
10107TIP3   OH251735   6.321   0.409  14.008  0.4611  0.4259  0.6125
10107TIP3    H151736   6.302   0.494  14.047  2.3894  1.3909 -0.3793
10107TIP3    H251737   6.322   0.427  13.913 -3.0340 -1.5918  0.0371
10108TIP3   OH251738   3.251   3.961   3.364 -0.0438  0.6134  0.2582
10108TIP3    H151739   3.179   3.911   3.327  0.1128  1.2105 -0.9131
10108TIP3    H251740   3.264   3.925   3.451 -1.4177  0.1604  0.2880
10109TIP3   OH251741   1.491   6.104   2.273 -0.1455  0.2225 -0.2230
10109TIP3    H151742   1.542   6.140   2.200  0.9930  1.0413  0.9373
10109TIP3    H251743   1.430   6.043   2.231  1.8396 -0.8954 -1.6787
10110TIP3   OH251744   6.234   4.587  15.024  0.5921  0.4906 -0.3975
10110TIP3    H151745   6.267   4.625  14.943  0.3892 -0.2780 -0.8612
10110TIP3    H251746   6.281   4.632  15.094 -0.5479  2.4770 -0.8408
10111TIP3   OH251747   1.470   0.379   2.473 -0.4485  0.5903  0.5513
10111TIP3    H151748   1.511   0.458   2.509  1.6238 -0.0148 -0.3826
10111TIP3    H251749   1.519   0.307   2.512 -0.7629 -0.1676 -0.4234
10112TIP3   OH251750   3.099   3.340   2.835  0.4715  0.0390 -0.6001
10112TIP3    H151751   3.037   3.283   2.881 -1.1908  1.1162 -1.3947
10112TIP3    H251752   3.179   3.337   2.889 -1.1996  0.9102  2.1357
10113TIP3   OH251753   3.302   3.035   3.078 -0.0422  0.1167  0.0580
10113TIP3    H151754   3.357   2.983   3.019  1.5075 -2.4793  3.4338
10113TIP3    H251755   3.213   3.010   3.055  0.4931 -0.7293 -1.2187
10114TIP3   OH251756   4.611   6.394   1.062  0.2843 -0.0413  0.2822
10114TIP3    H151757   4.666   6.410   1.139  1.3525  1.0510 -0.6665
10114TIP3    H251758   4.652   6.446   0.992 -0.6915 -0.9429 -1.0075
10115TIP3   OH251759   6.380   0.863   1.192  0.6519 -0.1455  0.2644
10115TIP3    H151760   6.308   0.844   1.252  0.5544 -1.5037 -0.2359
10115TIP3    H251761   6.404   0.954   1.209 -0.4298 -0.0341  1.2281
10116TIP3   OH251762   3.186   2.710  15.445 -0.2248 -0.7655 -0.5887
10116TIP3    H151763   3.173   2.648  15.373  0.4116 -0.6069 -0.8512
10116TIP3    H251764   3.139   2.789  15.416 -0.3195 -0.8443 -0.6486
10117TIP3   OH251765   0.908   0.366  13.612  0.1379 -0.3536 -0.0451
10117TIP3    H151766   0.847   0.341  13.682 -0.5993  0.2895 -0.4443
10117TIP3    H251767   0.965   0.290  13.602  0.1925 -0.5012  1.1783
10118TIP3   OH251768   3.713   5.374  15.930  0.3565  0.1437  0.4498
10118TIP3    H151769   3.744   5.464  15.917  0.2524 -0.1332 -2.7036
10118TIP3    H251770   3.790   5.320  15.912  0.2722 -0.4303  1.7417
10119TIP3   OH251771   5.555   1.788  17.059  0.2223 -0.1423 -0.2117
10119TIP3    H151772   5.486   1.852  17.075  0.0396  0.6931 -3.6652
10119TIP3    H251773   5.629   1.819  17.111 -0.7033  1.3581  0.2754
10120TIP3   OH251774   2.042   0.594  12.426 -0.1259  0.2759  0.5368
10120TIP3    H151775   2.051   0.574  12.519  0.7145 -0.2288  0.3577
10120TIP3    H251776   1.991   0.520  12.391 -0.9315  0.7455  0.6846
10121TIP3   OH251777   6.767   0.396   3.660  0.3088 -0.1211 -0.0578
10121TIP3    H151778   6.739   0.443   3.738 -2.5420 -2.0979  0.2794
10121TIP3    H251779   6.707   0.424   3.591 -0.1075 -1.6402 -0.3621
10122TIP3   OH251780   1.698   4.260  16.394  0.3005 -0.3134 -0.3905
10122TIP3    H151781   1.629   4.249  16.328  0.6604  0.4419 -0.9087
10122TIP3    H251782   1.679   4.193  16.459 -2.7852  1.7664  1.1276
10123TIP3   OH251783   6.543   3.186   5.745 -0.2507  0.1701  0.2351
10123TIP3    H151784   6.589   3.261   5.707 -1.0290  0.1319 -0.8562
10123TIP3    H251785   6.598   3.110   5.724  0.3624  0.3810  1.0357
10124TIP3   OH251786   2.576   1.943  12.362 -0.2270  0.5696  0.3459
10124TIP3    H151787   2.524   1.915  12.287  0.0735  1.1284 -0.0806
10124TIP3    H251788   2.513   1.983  12.421 -0.0958  3.0060 -1.0095
10125TIP3   OH251789   5.690   0.110   5.959 -0.1336  0.2755 -0.2940
10125TIP3    H151790   5.768   0.059   5.940 -1.4749 -1.4936 -1.3620
10125TIP3    H251791   5.638   0.056   6.018 -1.6165  0.3283 -1.4838
10126TIP3   OH251792   6.239   4.163   0.610  0.0345 -0.2539 -0.5488
10126TIP3    H151793   6.238   4.212   0.528 -0.9499  1.7974  0.6219
10126TIP3    H251794   6.152   4.122   0.614  0.4649 -1.2471 -1.0030
10127TIP3   OH251795   5.156   0.675  13.560 -0.0526  0.4751 -0.6208
10127TIP3    H151796   5.097   0.622  13.508  1.5287 -2.8146  0.6716
10127TIP3    H251797   5.206   0.727  13.496 -0.7142 -0.6344 -2.0664
10128TIP3   OH251798   4.409   2.196   1.057 -0.3996  0.4083  0.1158
10128TIP3    H151799   4.445   2.223   1.142 -0.7311  2.0432 -0.2409
10128TIP3    H251800   4.404   2.277   1.006 -2.4578 -0.1312 -0.6273
10129TIP3   OH251801   4.704   1.310   5.463  0.0027 -0.3005 -0.2771
10129TIP3    H151802   4.783   1.363   5.478 -0.0077 -0.3502 -0.0502
10129TIP3    H251803   4.632   1.366   5.489 -0.1898  0.4778 -2.2887
10130TIP3   OH251804   6.151   5.925   5.705  0.8462  0.1263  0.1602
10130TIP3    H151805   6.245   5.905   5.697  0.8557  0.5489 -0.8617
10130TIP3    H251806   6.149   6.018   5.730  0.6849  0.3426 -0.6511
10131TIP3   OH251807   4.662   4.712   4.014 -0.3072  0.5432  0.1119
10131TIP3    H151808   4.693   4.802   4.010  0.1874  0.3606 -0.2778
10131TIP3    H251809   4.741   4.659   4.006 -0.3961  0.0678  1.9820
10132TIP3   OH251810   1.123   3.770   1.903  0.0838 -0.2587  0.3079
10132TIP3    H151811   1.034   3.765   1.869  0.1438  1.2419 -0.1427
10132TIP3    H251812   1.179   3.752   1.827  0.1661 -0.5611  0.4411
10133TIP3   OH251813   1.783   6.734   5.010 -0.2428 -0.2550 -0.0296
10133TIP3    H151814   1.871   6.734   5.047 -0.1862  1.8531 -0.0165
10133TIP3    H251815   1.796   6.747   4.916 -0.5378  0.6099  0.0409
10134TIP3   OH251816   4.474   5.896   2.633 -0.5516  0.0423 -0.1770
10134TIP3    H151817   4.452   5.804   2.649 -1.2236 -0.0222 -1.3098
10134TIP3    H251818   4.419   5.921   2.559 -0.7085  1.5012  0.3976
10135TIP3   OH251819   4.589   0.805   3.136  0.1972 -0.4109  0.2183
10135TIP3    H151820   4.528   0.772   3.070 -0.3275  0.4954  0.2440
10135TIP3    H251821   4.591   0.736   3.203 -1.7918  0.0546  0.8486
10136TIP3   OH251822   6.275   3.545   5.292 -0.8621  0.3294 -0.4164
10136TIP3    H151823   6.205   3.583   5.345  1.2024  0.0695  2.7282
10136TIP3    H251824   6.274   3.597   5.211 -3.1029  1.8966  0.5160
10137TIP3   OH251825   1.364   2.084   1.892 -0.3977 -0.7355  0.0289
10137TIP3    H151826   1.275   2.119   1.885  0.3255  0.8970 -2.0543
10137TIP3    H251827   1.415   2.156   1.931  0.4793 -0.6408 -1.2312
10138TIP3   OH251828   3.498   0.629   1.753 -0.6979 -0.5616  0.4297
10138TIP3    H151829   3.510   0.691   1.826 -1.3565 -1.4383  1.3144
10138TIP3    H251830   3.494   0.543   1.796  1.7890 -1.4330 -0.8797
10139TIP3   OH251831   2.902   5.607   0.256 -0.4424 -0.6506  0.3574
10139TIP3    H151832   2.864   5.657   0.328 -0.6187  0.6307 -0.5959
10139TIP3    H251833   2.904   5.668   0.182 -0.2319 -1.9173 -0.7239
10140TIP3   OH251834   5.490   6.020  14.743 -0.2115  0.1996 -0.5381
10140TIP3    H151835   5.468   6.074  14.819  0.1172  1.3429 -1.2341
10140TIP3    H251836   5.564   6.063  14.702  0.3557 -1.0383 -0.8796
10141TIP3   OH251837   3.251   1.003   3.725 -0.3187 -0.4579  0.2581
10141TIP3    H151838   3.228   1.093   3.701  0.1736 -1.0791 -3.0284
10141TIP3    H251839   3.209   0.948   3.659  0.8555 -2.5235  1.1162
10142TIP3   OH251840   5.466   1.743  13.263  0.6560  0.2604 -0.1068
10142TIP3    H151841   5.462   1.664  13.316 -0.6487  0.3103 -0.0840
10142TIP3    H251842   5.397   1.732  13.198  0.6628  1.2386 -0.3016
10143TIP3   OH251843   3.051   2.725   3.066 -0.0122 -0.1117  0.0442
10143TIP3    H151844   2.967   2.680   3.065  0.4073 -0.9313  0.6564
10143TIP3    H251845   3.087   2.711   2.978  0.5556 -1.8545  0.5282
10144TIP3   OH251846   2.319   1.149   0.419  0.4443 -0.1721 -0.0162
10144TIP3    H151847   2.281   1.210   0.482 -0.4610 -1.2476  0.5249
10144TIP3    H251848   2.397   1.114   0.461 -0.2171 -0.9672  0.5799
10145TIP3   OH251849   0.675   0.802  14.923 -0.0504 -0.1065  0.8714
10145TIP3    H151850   0.652   0.786  15.015 -1.5793  2.3760  1.0117
10145TIP3    H251851   0.596   0.778  14.875  0.7983 -1.5421  0.1171
10146TIP3   OH251852   4.311   6.498   1.775  0.4618 -0.2136 -0.4850
10146TIP3    H151853   4.278   6.584   1.799  1.3009  0.7692 -2.6146
10146TIP3    H251854   4.348   6.463   1.856 -2.1394  0.2916  1.0226
10147TIP3   OH251855   5.908   0.561   0.031  0.2676 -0.2508  0.1003
10147TIP3    H151856   5.878   0.604   0.111 -0.1913 -1.3027  0.5129
10147TIP3    H251857   5.898   0.627  -0.037 -0.6060  0.2327  0.6823
10148TIP3   OH251858   0.957   2.098   0.833 -0.2946 -0.2100  0.2524
10148TIP3    H151859   0.938   2.142   0.750  0.0590 -0.7750 -0.1368
10148TIP3    H251860   0.971   2.169   0.895  0.9038  0.2366 -0.5092
10149TIP3   OH251861   2.127   6.538  12.629  0.5304  0.3685 -0.1335
10149TIP3    H151862   2.096   6.615  12.580  0.5604  1.0369  0.8526
10149TIP3    H251863   2.180   6.576  12.700  1.7302 -0.6426 -0.4621
10150TIP3   OH251864   3.114   0.892   1.508  0.0414 -0.3156  0.4552
10150TIP3    H151865   3.133   0.958   1.574 -0.3716 -0.3089  0.5705
10150TIP3    H251866   3.027   0.858   1.532 -0.8121  0.7592 -0.9408
10151TIP3   OH251867   6.016   5.416  16.769 -0.2154 -0.6279 -0.2237
10151TIP3    H151868   6.108   5.432  16.750 -0.3603  4.4583  1.7805
10151TIP3    H251869   5.976   5.398  16.684  2.1484  0.1291 -1.5837
10152TIP3   OH251870   2.760   6.511  14.700  0.1460  0.0699  0.0823
10152TIP3    H151871   2.765   6.508  14.605 -1.3293 -3.3205 -0.0520
10152TIP3    H251872   2.834   6.565  14.727  0.7705  0.8777 -2.9437
10153TIP3   OH251873   6.220   3.364   3.913  0.3853 -0.4805  0.0837
10153TIP3    H151874   6.135   3.363   3.868 -0.1815  0.5428  1.0681
10153TIP3    H251875   6.203   3.414   3.993  1.6421 -1.2834  0.8724
10154TIP3   OH251876   1.754   4.903  10.504  0.7991 -0.3141 -0.0603
10154TIP3    H151877   1.794   4.986  10.528  0.1045 -0.3855  1.4707
10154TIP3    H251878   1.827   4.842  10.495  1.1539 -0.8527  4.3009
10155TIP3   OH251879   3.111   3.657  13.783 -0.5214 -0.2390  0.5572
10155TIP3    H151880   3.200   3.624  13.790  0.0901  1.1600 -0.2570
10155TIP3    H251881   3.093   3.696  13.869  0.2697  0.9016  0.2295
10156TIP3   OH251882   6.009   6.328  12.925  0.0274 -0.2090 -0.4079
10156TIP3    H151883   6.025   6.249  12.874  0.3477 -0.1029 -0.4733
10156TIP3    H251884   6.092   6.344  12.971 -0.4610 -0.6890  0.6811
10157TIP3   OH251885   4.198   4.645  15.000  0.2754 -0.2069 -0.1153
10157TIP3    H151886   4.132   4.598  14.949 -0.0516  0.7063 -0.5474
10157TIP3    H251887   4.149   4.694  15.065  0.6119 -0.4069  0.2976
10158TIP3   OH251888   6.240   3.794  11.436  0.6515 -0.2267  0.0521
10158TIP3    H151889   6.287   3.714  11.411  0.8332  0.0653 -0.5644
10158TIP3    H251890   6.155   3.763  11.469 -0.0947 -0.5829 -2.0657
10159TIP3   OH251891   1.087   5.713  16.537 -0.1935  0.1513  0.4882
10159TIP3    H151892   1.021   5.706  16.469  1.3318  1.1307 -1.1963
10159TIP3    H251893   1.050   5.775  16.600 -1.2960 -0.1122  0.1116
10160TIP3   OH251894   2.064   4.979   1.462 -0.5736  1.0604 -0.8336
10160TIP3    H151895   2.062   4.913   1.394 -0.3978  0.8706 -0.6568
10160TIP3    H251896   1.996   4.953   1.524  1.6471 -0.8811  1.0020
10161TIP3   OH251897   2.958   5.443   5.978  0.0102  0.7773  0.3748
10161TIP3    H151898   2.897   5.384   5.934  0.2659  0.5434  0.3313
10161TIP3    H251899   3.035   5.444   5.922 -0.3630  1.9321 -0.1471
10162TIP3   OH251900   5.103   5.959   4.414  0.4058  0.1736  0.4964
10162TIP3    H151901   5.087   5.869   4.385  0.3970  0.1695  0.5140
10162TIP3    H251902   5.079   5.958   4.507 -0.2582  0.3645  0.3349
10163TIP3   OH251903   6.190   0.217  14.515 -0.4921  0.3422 -0.1709
10163TIP3    H151904   6.128   0.208  14.442  0.1248  0.2871 -0.6991
10163TIP3    H251905   6.185   0.134  14.561  0.2253 -0.1965 -1.0490
10164TIP3   OH251906   6.549   1.043  14.622 -0.5684  0.1707 -0.3003
10164TIP3    H151907   6.497   1.109  14.667 -2.7433 -0.9519 -1.0087
10164TIP3    H251908   6.493   0.965  14.622  1.1993 -1.1659 -1.0034
10165TIP3   OH251909   3.479   6.576  10.595 -0.7348 -0.0443  0.4549
10165TIP3    H151910   3.547   6.642  10.606 -0.6012  0.3061 -1.9737
10165TIP3    H251911   3.397   6.626  10.590 -0.8465 -0.2216  0.5035
10166TIP3   OH251912   4.584   4.266   5.215  0.5012 -0.1794  0.1972
10166TIP3    H151913   4.596   4.181   5.172 -0.3206  0.3029 -1.0271
10166TIP3    H251914   4.495   4.263   5.249  0.3222  0.3438 -0.2193
10167TIP3   OH251915   3.423   4.426   2.615 -0.0909  0.8312  0.5783
10167TIP3    H151916   3.386   4.378   2.689 -1.1632  1.3082  0.3734
10167TIP3    H251917   3.376   4.392   2.538 -0.8855  2.1863  0.4338
10168TIP3   OH251918   1.822   4.477   5.168 -0.3017 -0.0486  0.3961
10168TIP3    H151919   1.744   4.422   5.175 -0.0152 -0.8564 -1.9329
10168TIP3    H251920   1.842   4.479   5.074  1.3907  1.6897  0.7278
10169TIP3   OH251921   1.285   5.938  12.970 -0.5668  0.4874  0.1122
10169TIP3    H151922   1.225   6.011  12.954 -2.2059 -1.0402 -1.2212
10169TIP3    H251923   1.312   5.948  13.061  1.1723  4.0350 -0.6176
10170TIP3   OH251924   6.362   1.022  16.736 -0.0989  0.0067 -0.3872
10170TIP3    H151925   6.326   1.061  16.656 -1.0377  0.5886  0.2960
10170TIP3    H251926   6.456   1.038  16.730 -0.1631  0.0564 -1.3672
10171TIP3   OH251927   5.958   3.189   2.804  0.3819 -0.6569  0.3678
10171TIP3    H151928   5.933   3.140   2.727  2.1237 -1.3003  0.1759
10171TIP3    H251929   6.001   3.267   2.770  0.7133 -0.6984  0.6862
10172TIP3   OH251930   2.189   3.682  15.677 -0.4891  0.0232  0.2229
10172TIP3    H151931   2.103   3.723  15.688 -0.5139  0.7716 -2.1713
10172TIP3    H251932   2.249   3.755  15.666  0.5931 -0.4774  2.2970
10173TIP3   OH251933   1.716   0.249  11.471  0.0463  0.0851 -0.4162
10173TIP3    H151934   1.664   0.328  11.489 -0.0707 -0.3357  1.2469
10173TIP3    H251935   1.662   0.177  11.503  0.7890 -0.5446 -0.5458
10174TIP3   OH251936   2.911   3.683   1.291  0.1516 -0.1754  0.6773
10174TIP3    H151937   2.997   3.675   1.248 -0.1601 -0.7010  0.1413
10174TIP3    H251938   2.852   3.709   1.221 -0.1491  0.0795  1.0257
10175TIP3   OH251939   4.559   3.465  11.619  0.3048 -0.5248 -0.1028
10175TIP3    H151940   4.501   3.388  11.619 -1.1600  0.5082  1.3973
10175TIP3    H251941   4.585   3.475  11.711 -0.9816  1.7724  0.0854
10176TIP3   OH251942   2.403   5.531   5.586  0.2153  0.5772  0.7044
10176TIP3    H151943   2.483   5.581   5.598 -0.1704  1.9037 -1.7504
10176TIP3    H251944   2.333   5.597   5.585 -0.6645 -0.3270  0.5398
10177TIP3   OH251945   1.626   5.574  11.288  0.6451  0.3456 -0.3663
10177TIP3    H151946   1.542   5.554  11.246 -0.2055  1.3736  0.7665
10177TIP3    H251947   1.669   5.633  11.226 -0.3085  1.3195 -0.1416
10178TIP3   OH251948   1.308   0.620  17.275  0.0024 -0.0490  0.0100
10178TIP3    H151949   1.229   0.609  17.327 -0.4242 -0.5317 -0.7316
10178TIP3    H251950   1.346   0.532  17.270  2.0391  0.5642  2.5763
10179TIP3   OH251951   4.865   4.922  13.424 -0.3103  0.6786  0.4104
10179TIP3    H151952   4.863   4.899  13.517 -0.4086  0.5613  0.3778
10179TIP3    H251953   4.781   4.966  13.409 -0.5550  0.1457  0.2293
10180TIP3   OH251954   4.884   0.834  10.892  0.2478 -0.2282 -0.4492
10180TIP3    H151955   4.846   0.919  10.912  0.7752  0.1586 -1.0355
10180TIP3    H251956   4.858   0.778  10.965  0.0403  0.4775  0.0300
10181TIP3   OH251957   4.323   6.359   5.421  0.1785  0.1450 -0.3413
10181TIP3    H151958   4.403   6.330   5.464 -0.2207 -0.2863  0.1294
10181TIP3    H251959   4.348   6.439   5.374  1.0204 -0.3183 -0.6985
10182TIP3   OH251960   5.305   0.955  13.567 -0.0993 -0.0935 -0.4338
10182TIP3    H151961   5.375   0.892  13.584  1.7923  2.0528  0.2514
10182TIP3    H251962   5.319   0.982  13.476 -1.1494 -0.9110 -0.8530
10183TIP3   OH251963   3.763   1.062  14.060  0.0361 -0.3034 -0.1427
10183TIP3    H151964   3.699   0.995  14.036 -0.3324  0.5606 -1.7272
10183TIP3    H251965   3.749   1.076  14.153 -2.8592  0.5929 -0.6137
10184TIP3   OH251966   4.819   2.800   2.603 -0.0817  0.4182  0.1914
10184TIP3    H151967   4.785   2.763   2.685 -1.1209 -0.7942 -0.7465
10184TIP3    H251968   4.785   2.742   2.535  0.8563  1.3393 -1.1027
10185TIP3   OH251969   0.959   3.839   6.345 -0.2126  0.0879 -0.1346
10185TIP3    H151970   0.936   3.906   6.409 -0.3544  2.1453 -2.2225
10185TIP3    H251971   1.054   3.845   6.337 -0.2766  0.4286 -0.6973
10186TIP3   OH251972   1.185   5.222   2.316 -0.2551  0.4791  0.2778
10186TIP3    H151973   1.229   5.146   2.278  0.5405  0.8146  0.5075
10186TIP3    H251974   1.222   5.297   2.269 -0.6028  0.7712  0.4608
10187TIP3   OH251975   6.653   4.568  14.764 -0.0646 -0.1374  0.0973
10187TIP3    H151976   6.679   4.517  14.687 -0.5191 -0.3416  0.0753
10187TIP3    H251977   6.590   4.632  14.731  1.5937  1.4220 -0.1402
10188TIP3   OH251978   2.420   0.550   3.081  0.0741 -0.0214 -0.6939
10188TIP3    H151979   2.507   0.529   3.048 -0.7978 -1.5859 -2.1357
10188TIP3    H251980   2.425   0.531   3.175  0.8897 -1.5326 -1.0116
10189TIP3   OH251981   0.726   0.657  16.181  0.5412  0.2376 -0.5188
10189TIP3    H151982   0.642   0.625  16.212  0.9386  1.0967  1.5978
10189TIP3    H251983   0.724   0.641  16.086 -2.3379  1.0612 -0.6896
10190TIP3   OH251984   5.262   0.959   4.334 -0.8794  0.4862  0.1118
10190TIP3    H151985   5.299   1.047   4.332 -2.6411  1.3057  1.2548
10190TIP3    H251986   5.270   0.932   4.426  0.4520 -0.9553 -0.3778
10191TIP3   OH251987   0.985   1.003   3.852 -0.1504 -0.0160  0.2065
10191TIP3    H151988   0.898   0.963   3.858 -0.1304 -0.5702 -2.0757
10191TIP3    H251989   1.000   1.041   3.938 -1.9535 -1.3335  1.1742
10192TIP3   OH251990   0.580   4.924   5.549 -0.3311 -0.0560  0.1943
10192TIP3    H151991   0.645   4.888   5.488  1.5028 -4.9820  4.3362
10192TIP3    H251992   0.510   4.858   5.550 -1.8832  1.5268  1.1328
10193TIP3   OH251993   2.408   3.677  15.033  0.4415 -0.1560 -0.5103
10193TIP3    H151994   2.475   3.609  15.040  0.7268 -0.0013 -1.5768
10193TIP3    H251995   2.334   3.633  14.992  0.0976 -0.1703  0.1075
10194TIP3   OH251996   2.784   6.026   3.581  0.3779  0.5869  0.1707
10194TIP3    H151997   2.871   6.059   3.603  1.8901 -2.9176  0.0980
10194TIP3    H251998   2.799   5.968   3.506 -2.0565  0.0449  0.0214
10195TIP3   OH251999   2.097   1.169  16.610 -0.3543 -0.1503 -0.4790
10195TIP3    H152000   2.047   1.229  16.554  1.0704  1.0954 -0.4665
10195TIP3    H252001   2.176   1.218  16.633  0.5332 -1.7932  0.1070
10196TIP3   OH252002   5.821   0.799   5.733 -0.2521 -0.4784 -0.5081
10196TIP3    H152003   5.895   0.749   5.697 -0.5055  0.1109 -1.8953
10196TIP3    H252004   5.822   0.778   5.827  1.5548 -0.6339 -0.5218
10197TIP3   OH252005   4.255   3.739   4.228  0.2520  0.1171 -0.7864
10197TIP3    H152006   4.253   3.831   4.202  1.0705  1.0221  1.9539
10197TIP3    H252007   4.201   3.735   4.307  0.8714 -1.5970 -0.3911
10198TIP3   OH252008   3.508   3.971   5.365  0.1028 -0.3099  0.5273
10198TIP3    H152009   3.590   4.004   5.329 -0.1943 -0.5589 -0.4062
10198TIP3    H252010   3.485   4.034   5.433 -0.5289  1.5388 -1.3000
10199TIP3   OH252011   3.881   6.414  11.271 -0.7651  0.7035 -0.1968
10199TIP3    H152012   3.940   6.410  11.195  0.0292  0.1565  0.4270
10199TIP3    H252013   3.795   6.432  11.233 -0.2239  1.4464 -1.1426
10200TIP3   OH252014   2.174   4.911   6.327  0.3665  0.4786 -0.0299
10200TIP3    H152015   2.252   4.929   6.275  0.0926  0.7152 -0.3688
10200TIP3    H252016   2.154   4.994   6.371  0.1948  0.4725 -0.0956
10201TIP3   OH252017   4.963   1.210   2.595 -0.0100  0.2585  0.2767
10201TIP3    H152018   4.966   1.157   2.675  1.5617  0.5637  0.4598
10201TIP3    H252019   4.922   1.154   2.530  0.6423 -0.7932  0.7487
10202TIP3   OH252020   5.721   2.105   2.129  0.0495  0.2202 -0.3335
10202TIP3    H152021   5.685   2.019   2.110 -2.4442  1.2778 -0.8840
10202TIP3    H252022   5.762   2.096   2.215 -1.4444 -1.1637  0.2794
10203TIP3   OH252023   5.100   4.197   4.201 -0.0615  0.1022 -0.3461
10203TIP3    H152024   5.142   4.284   4.201 -0.3730  0.2787 -1.5503
10203TIP3    H252025   5.007   4.215   4.214 -0.3259  0.0997 -2.0038
10204TIP3   OH252026   4.797   0.478   0.127  0.0729  0.2003  0.4017
10204TIP3    H152027   4.777   0.458   0.219  1.0015 -1.1931  0.3276
10204TIP3    H252028   4.890   0.502   0.128 -0.2882  1.7080  0.0279
10205TIP3   OH252029   0.105   5.834  11.728 -0.2666 -0.2147  0.0780
10205TIP3    H152030   0.182   5.806  11.679 -0.6367 -1.1101  0.0040
10205TIP3    H252031   0.106   5.930  11.720  0.9894 -0.1927  0.3215
10206TIP3   OH252032   2.941   2.640  12.100 -0.3213  0.0473  0.3100
10206TIP3    H152033   2.890   2.562  12.081 -2.2021  1.0298  1.1243
10206TIP3    H252034   2.903   2.676  12.180 -0.7486  2.7609 -0.9716
10207TIP3   OH252035   4.194   0.865  12.519  0.3153  0.3606  0.0340
10207TIP3    H152036   4.230   0.800  12.459  1.1751  1.0158 -0.1709
10207TIP3    H252037   4.125   0.909  12.469 -0.3348 -0.4267  0.2022
10208TIP3   OH252038   3.067   4.959   4.734  0.5253 -0.7229 -0.5730
10208TIP3    H152039   3.141   4.990   4.786 -0.3178 -0.4245  0.4747
10208TIP3    H252040   2.993   4.959   4.794 -0.5088 -0.2803 -1.7961
10209TIP3   OH252041   2.705   0.455   6.489  0.6701 -0.4470 -0.8389
10209TIP3    H152042   2.620   0.468   6.529  1.0967 -1.8120  0.5944
10209TIP3    H252043   2.706   0.515   6.414 -1.0705  0.4326 -0.1976
10210TIP3   OH252044   0.435   2.371   2.960  0.0762 -0.2993  0.1768
10210TIP3    H152045   0.442   2.438   2.892  3.0677  1.2690  1.8395
10210TIP3    H252046   0.516   2.320   2.951 -0.6545 -1.6639  1.0110
10211TIP3   OH252047   5.992   3.603  14.242 -0.5550 -0.1138 -0.0469
10211TIP3    H152048   6.010   3.690  14.208 -1.1841  0.1092  0.1703
10211TIP3    H252049   6.072   3.553  14.227 -1.8744 -1.2226 -5.4259
10212TIP3   OH252050   5.495   5.542   3.071  0.1069 -0.3080  0.5126
10212TIP3    H152051   5.459   5.508   2.989  1.9919 -0.5136 -0.2799
10212TIP3    H252052   5.463   5.632   3.075  0.0981 -0.2501 -0.5225
10213TIP3   OH252053   2.354   0.544  14.645 -0.6015  0.2229 -0.0764
10213TIP3    H152054   2.282   0.480  14.648  0.0629 -0.4779  1.6408
10213TIP3    H252055   2.391   0.533  14.557 -1.7506 -0.3260 -0.5208
10214TIP3   OH252056   5.172   5.163  14.153  0.1004  0.1884 -0.1276
10214TIP3    H152057   5.084   5.123  14.149  0.4859 -0.6304 -3.5383
10214TIP3    H252058   5.159   5.253  14.124  0.3510  0.2005 -0.2023
10215TIP3   OH252059   2.366   2.247  15.231 -0.8245 -0.6659 -0.2843
10215TIP3    H152060   2.429   2.175  15.228 -0.4141 -0.4690  1.8359
10215TIP3    H252061   2.393   2.300  15.306 -3.0220 -0.1292  0.2240
10216TIP3   OH252062   6.411   3.095  12.574  0.0596 -0.4066 -0.1397
10216TIP3    H152063   6.464   3.147  12.633  0.7954  0.5398 -1.5674
10216TIP3    H252064   6.329   3.144  12.565 -0.4667 -1.0774  0.8663
10217TIP3   OH252065   0.786   3.415  13.239  0.4827 -0.1583 -0.0029
10217TIP3    H152066   0.872   3.381  13.264  1.5036  3.3603  1.9073
10217TIP3    H252067   0.799   3.454  13.153  0.8178  0.2867  0.2435
10218TIP3   OH252068   5.196   4.818  16.603  0.1292 -0.0464 -0.0894
10218TIP3    H152069   5.154   4.893  16.562  0.7117 -0.7483 -2.0495
10218TIP3    H252070   5.274   4.855  16.646 -0.5284  0.7065  0.4869
10219TIP3   OH252071   5.224   1.260  12.916  0.3266  0.0311  0.5686
10219TIP3    H152072   5.280   1.237  12.990 -0.0016 -1.6402  0.3393
10219TIP3    H252073   5.135   1.262  12.952  0.2380 -0.1522  0.3689
10220TIP3   OH252074   6.448   3.436   5.515 -0.1350 -0.1154 -0.2079
10220TIP3    H152075   6.513   3.388   5.464  1.9084  2.2578 -0.0718
10220TIP3    H252076   6.386   3.470   5.451 -0.5901 -1.4149 -0.4790
10221TIP3   OH252077   5.108   3.767   4.338 -0.3480  0.4404  0.5242
10221TIP3    H152078   5.082   3.745   4.248  1.1070 -1.2810  0.4676
10221TIP3    H252079   5.172   3.837   4.328 -0.1158  0.1863  0.1919
10222TIP3   OH252080   5.855   4.946   5.052  0.2841 -0.3316 -0.0625
10222TIP3    H152081   5.933   4.995   5.080  0.2478 -0.2749 -0.0594
10222TIP3    H252082   5.875   4.855   5.071 -0.4494 -0.1361  1.7960
10223TIP3   OH252083   2.896   3.357  15.779  0.8479 -0.1707  0.0407
10223TIP3    H152084   2.888   3.447  15.811 -0.1815 -0.0959 -0.3533
10223TIP3    H252085   2.935   3.366  15.692  0.6176 -0.0822 -0.0562
10224TIP3   OH252086   6.698   0.805   2.682 -0.6162  0.2959  0.3124
10224TIP3    H152087   6.616   0.791   2.729 -0.9973 -0.0721 -0.4325
10224TIP3    H252088   6.674   0.861   2.608 -0.1965  0.1917  0.0923
10225TIP3   OH252089   1.439   0.738   2.353  0.2116 -0.6208  0.5345
10225TIP3    H152090   1.428   0.728   2.259  0.9326 -1.7337  0.5499
10225TIP3    H252091   1.353   0.714   2.390 -0.1865  0.1869  0.1614
10226TIP3   OH252092   6.407   3.986  13.414 -0.3330  0.2801 -0.2323
10226TIP3    H152093   6.450   4.057  13.366 -0.2838 -0.4311 -1.2808
10226TIP3    H252094   6.313   3.997  13.395 -0.2693 -0.2967 -0.9267
10227TIP3   OH252095   4.506   5.323  11.960  0.1305  0.7479 -0.2682
10227TIP3    H152096   4.415   5.320  11.932 -0.2600 -3.4615  0.7400
10227TIP3    H252097   4.551   5.261  11.902  1.0909 -1.3826  2.4886
10228TIP3   OH252098   5.938   6.084   3.113 -0.5190  0.7938 -1.0002
10228TIP3    H152099   6.013   6.132   3.147  1.5748 -2.4944 -0.5391
10228TIP3    H252100   5.937   6.103   3.019  0.9319  0.8670 -1.0121
10229TIP3   OH252101   5.258   0.667   2.508 -0.2700 -0.8866 -0.1031
10229TIP3    H152102   5.244   0.583   2.550 -0.1220 -0.1009  1.6016
10229TIP3    H252103   5.177   0.715   2.522  0.6948  0.3339  1.6645
10230TIP3   OH252104   6.394   2.402   2.706  0.5914 -0.2040 -0.0347
10230TIP3    H152105   6.402   2.320   2.657 -0.3637  0.1435 -0.8069
10230TIP3    H252106   6.457   2.461   2.663 -0.2631  0.1087 -0.9121
10231TIP3   OH252107   2.280   6.402  11.596 -0.1446 -0.2190 -0.2682
10231TIP3    H152108   2.276   6.310  11.570  0.8746 -0.4494  0.3094
10231TIP3    H252109   2.363   6.409  11.644 -0.5428  0.8487  0.2922
10232TIP3   OH252110   4.157   0.633  13.331 -0.2973 -0.1268 -0.0032
10232TIP3    H152111   4.079   0.658  13.380  0.7876  1.4876  1.0055
10232TIP3    H252112   4.156   0.688  13.253  0.1419  0.3946  0.3447
10233TIP3   OH252113   4.902   1.558  17.272  0.0412 -0.2582 -0.1895
10233TIP3    H152114   4.927   1.500  17.345  0.9149  0.1496 -0.1560
10233TIP3    H252115   4.824   1.603  17.304  0.7680  0.3730  0.7515
10234TIP3   OH252116   0.864   1.704   3.034 -0.0021  0.0220 -0.0562
10234TIP3    H152117   0.928   1.775   3.043 -1.0634  1.0123 -0.0590
10234TIP3    H252118   0.849   1.673   3.123 -0.8261  1.0095  0.1712
10235TIP3   OH252119   1.564   1.257   0.684 -0.2587  0.0328  0.1407
10235TIP3    H152120   1.481   1.225   0.721 -0.0090 -0.7784  0.0098
10235TIP3    H252121   1.583   1.197   0.612  0.3961  0.2763  0.1042
10236TIP3   OH252122   4.231   1.170   0.057 -0.0247 -0.2124 -0.4892
10236TIP3    H152123   4.325   1.183   0.040  0.0691 -0.7137 -0.3642
10236TIP3    H252124   4.188   1.202  -0.022  0.3014 -0.7551 -0.8895
10237TIP3   OH252125   1.591   5.609   3.347  0.0320 -0.0939 -0.0190
10237TIP3    H152126   1.535   5.618   3.424  0.1377 -0.7906  0.1543
10237TIP3    H252127   1.544   5.652   3.277 -0.9506 -1.0747  0.0140
10238TIP3   OH252128   2.142   0.711  16.135  0.1305  0.5813 -0.0352
10238TIP3    H152129   2.071   0.775  16.145 -1.0860 -0.7353  0.0506
10238TIP3    H252130   2.221   0.758  16.164 -0.8876  1.7081  1.0382
10239TIP3   OH252131   3.910   5.787  11.183 -0.3468  0.1427 -0.1358
10239TIP3    H152132   3.964   5.708  11.176 -1.2432 -0.4531 -0.5555
10239TIP3    H252133   3.955   5.841  11.249 -0.0853 -1.0277  0.6827
10240TIP3   OH252134   1.521   2.262   0.853  0.6283  0.6251 -0.3652
10240TIP3    H152135   1.506   2.187   0.796 -0.2846  2.0745 -2.1200
10240TIP3    H252136   1.558   2.224   0.933  2.3346 -1.4640 -2.0198
10241TIP3   OH252137   4.068   1.855   6.660 -0.1560 -0.6532 -0.3582
10241TIP3    H152138   4.035   1.789   6.721  2.0072 -1.3844  0.0696
10241TIP3    H252139   4.010   1.848   6.585 -0.9654 -1.9016  0.3407
10242TIP3   OH252140   6.142   0.370   5.304  0.0772  0.5197  0.3476
10242TIP3    H152141   6.110   0.280   5.312  3.1681 -0.6737  0.7297
10242TIP3    H252142   6.063   0.424   5.309 -2.2225 -2.2064 -2.5000
10243TIP3   OH252143   5.143   3.322  16.209  0.4967 -0.4708  0.5023
10243TIP3    H152144   5.224   3.373  16.203  0.0239  0.1778 -0.5072
10243TIP3    H252145   5.083   3.379  16.258 -0.3539  0.4069 -1.4776
10244TIP3   OH252146   4.045   0.282   3.100 -0.1435 -0.2969  0.0590
10244TIP3    H152147   3.975   0.326   3.148  0.7324 -1.0374  2.1316
10244TIP3    H252148   4.111   0.349   3.085 -0.6015  0.0352 -0.5275
10245TIP3   OH252149   1.337   3.338  11.048  0.3689  0.1955 -0.2228
10245TIP3    H152150   1.276   3.329  10.974  0.6556 -1.3379 -0.3146
10245TIP3    H252151   1.423   3.328  11.009  0.5483 -0.1541  0.2577
10246TIP3   OH252152   2.691   4.381   5.423  0.4864 -0.3559  0.4839
10246TIP3    H152153   2.776   4.404   5.387  0.2724  2.3526  1.4733
10246TIP3    H252154   2.640   4.462   5.419 -2.1880 -1.9392 -0.3240
10247TIP3   OH252155   2.246   2.740   1.873  0.5480  0.3700 -0.4859
10247TIP3    H152156   2.160   2.781   1.881  0.4556 -0.1559  2.1005
10247TIP3    H252157   2.228   2.647   1.860  0.7781  0.5382 -2.3086
10248TIP3   OH252158   2.959   2.020  16.936  0.2054 -0.4385 -0.5061
10248TIP3    H152159   2.920   2.081  16.998 -1.1471 -1.7272 -0.0216
10248TIP3    H252160   2.898   2.018  16.862  0.3340 -1.0442 -0.6051
10249TIP3   OH252161   2.189   4.899  15.027  0.1794  0.3048  0.1912
10249TIP3    H152162   2.225   4.814  15.003  1.6723  1.1760 -0.8057
10249TIP3    H252163   2.189   4.899  15.123  0.2631 -0.7691  0.1984
10250TIP3   OH252164   1.190   0.681  10.715  0.1992 -0.1785  0.0485
10250TIP3    H152165   1.106   0.675  10.670  0.3859  0.8052 -0.4533
10250TIP3    H252166   1.216   0.590  10.729 -1.7209 -0.5584  1.7067
10251TIP3   OH252167   3.680   4.203  15.367  0.4260 -0.4906 -0.4025
10251TIP3    H152168   3.719   4.116  15.359  0.2985 -0.5085 -0.8391
10251TIP3    H252169   3.603   4.200  15.309  0.2442 -0.1894 -0.1803
10252TIP3   OH252170   1.538   5.193   6.369 -0.0445 -0.2900  0.6286
10252TIP3    H152171   1.475   5.203   6.298  1.3415 -1.3145 -0.8110
10252TIP3    H252172   1.556   5.099   6.371  0.0591 -0.2577  2.2632
10253TIP3   OH252173   5.950   0.694   6.819  0.7924 -0.0612 -0.3136
10253TIP3    H152174   5.954   0.789   6.811 -1.1361 -0.0772 -2.4395
10253TIP3    H252175   6.031   0.664   6.778  2.4616  0.6277  2.2426
10254TIP3   OH252176   0.256   3.057  12.582  0.0494  0.3986  0.5246
10254TIP3    H152177   0.336   3.080  12.536  1.3029 -0.4994  2.1323
10254TIP3    H252178   0.245   2.963  12.567  1.5551 -0.3641  3.4311
10255TIP3   OH252179   4.646   1.430  11.699 -0.3660  0.8080  0.1314
10255TIP3    H152180   4.596   1.348  11.707  0.0106  0.7080  1.6638
10255TIP3    H252181   4.725   1.415  11.750  1.0632  1.1403 -1.8833
10256TIP3   OH252182   2.783   6.141  14.262 -0.0627  0.2081 -0.4877
10256TIP3    H152183   2.821   6.069  14.211 -1.6513 -1.5954  0.7010
10256TIP3    H252184   2.696   6.109  14.286 -0.4511  2.1601  0.9367
10257TIP3   OH252185   0.436   1.224   5.234 -0.0574 -0.0437  0.7570
10257TIP3    H152186   0.344   1.237   5.210  0.3736  1.4080 -0.2423
10257TIP3    H252187   0.432   1.188   5.323 -1.5686  0.6979  1.0285
10258TIP3   OH252188   5.335   5.098  14.516 -0.2790  0.4244 -0.0726
10258TIP3    H152189   5.364   5.181  14.479 -0.4220  1.7286  2.4711
10258TIP3    H252190   5.407   5.071  14.574 -1.5782  0.6193  1.7439
10259TIP3   OH252191   5.019   2.392   2.105 -0.0189 -0.2865  0.4037
10259TIP3    H152192   4.991   2.435   2.186  0.7978 -1.4440  1.3366
10259TIP3    H252193   5.110   2.367   2.121  0.4933  0.3739 -1.2812
10260TIP3   OH252194   0.381   1.256  15.076  0.3616 -0.4908  0.5615
10260TIP3    H152195   0.315   1.311  15.033  1.3545  0.2819 -0.0125
10260TIP3    H252196   0.461   1.270  15.025  1.1735 -0.7891  1.7234
10261TIP3   OH252197   5.238   6.744  15.910 -0.0431 -0.0623 -0.0792
10261TIP3    H152198   5.318   6.767  15.862 -0.0621 -0.7335 -0.4560
10261TIP3    H252199   5.195   6.678  15.854 -1.2502  0.8361 -0.2596
10262TIP3   OH252200   5.862   5.864  17.123  0.3430  0.4103  0.2918
10262TIP3    H152201   5.799   5.925  17.162 -0.5005 -0.2480 -0.0115
10262TIP3    H252202   5.852   5.876  17.029  1.7554  1.3657  0.2219
10263TIP3   OH252203   5.307   2.770   1.542  0.1449 -0.6362  0.3876
10263TIP3    H152204   5.222   2.769   1.587 -0.0046  1.1536  0.1994
10263TIP3    H252205   5.285   2.781   1.450  0.5847  2.1798  0.5466
10264TIP3   OH252206   3.247   0.556  12.273  0.4749 -0.1953 -0.3923
10264TIP3    H152207   3.297   0.557  12.355  0.5888 -1.0857 -0.4407
10264TIP3    H252208   3.176   0.618  12.287 -1.7555 -2.9971  1.8167
10265TIP3   OH252209   4.423   6.577   0.313 -0.4639  0.4148  0.1772
10265TIP3    H152210   4.341   6.579   0.364 -0.5027  0.3890  0.1158
10265TIP3    H252211   4.401   6.621   0.231 -0.9704 -1.2769 -0.6547
10266TIP3   OH252212   6.037   0.451   0.364 -0.4355 -0.1597  0.2553
10266TIP3    H152213   6.006   0.445   0.454  0.4676 -1.2840  0.5077
10266TIP3    H252214   6.094   0.528   0.364  0.9769 -1.1655  1.1058
10267TIP3   OH252215   6.742   1.156   3.655 -0.1124  0.0229 -0.2495
10267TIP3    H152216   6.766   1.063   3.651 -1.2719 -0.3385  0.4225
10267TIP3    H252217   6.822   1.201   3.679  0.6315 -0.7210 -1.2370
10268TIP3   OH252218   3.577   0.761   1.974  0.0144  0.6302 -0.0553
10268TIP3    H152219   3.530   0.774   2.057  0.0284 -2.0822  0.4694
10268TIP3    H252220   3.652   0.820   1.981 -0.6081  1.3407  1.3139
10269TIP3   OH252221   0.117   3.497  16.473 -0.3611 -0.4347 -0.5202
10269TIP3    H152222   0.063   3.575  16.472 -0.3344 -0.3804  1.0269
10269TIP3    H252223   0.055   3.424  16.481 -0.2268 -0.3425  1.8205
10270TIP3   OH252224   5.568   2.896   5.784  0.1450 -0.1236  0.7474
10270TIP3    H152225   5.499   2.846   5.827  0.2009 -0.9127 -0.0584
10270TIP3    H252226   5.622   2.830   5.740  0.0757  0.6436 -0.5443
10271TIP3   OH252227   2.322   0.098   5.484  0.2279  0.1207 -0.6869
10271TIP3    H152228   2.302   0.004   5.480 -3.5054  0.8185 -2.8862
10271TIP3    H252229   2.361   0.111   5.570 -0.6716 -3.1900  0.3588
10272TIP3   OH252230   1.204   1.560  12.910 -0.5254 -0.4146  0.1240
10272TIP3    H152231   1.139   1.490  12.911 -1.9504  0.8188  2.5118
10272TIP3    H252232   1.283   1.518  12.875 -1.7806 -2.7351 -0.1655
10273TIP3   OH252233   3.768   0.102   3.089  0.2969  0.0249 -0.7453
10273TIP3    H152234   3.720   0.039   3.143  0.6339  0.8590  0.5758
10273TIP3    H252235   3.783   0.176   3.147  2.1039  0.2920 -1.4972
10274TIP3   OH252236   5.138   2.080   5.627 -0.1798  0.4064 -0.5448
10274TIP3    H152237   5.194   2.061   5.553  0.4815  1.3831 -0.3149
10274TIP3    H252238   5.052   2.046   5.602  0.1723  0.1981 -1.4994
10275TIP3   OH252239   0.235   3.484   0.798 -0.1777  0.2064  0.0110
10275TIP3    H152240   0.326   3.481   0.826 -0.5346 -1.9743  1.1262
10275TIP3    H252241   0.236   3.451   0.708  0.1938  0.8090 -0.2099
10276TIP3   OH252242   0.913   0.636  16.701 -0.3881  0.4722 -0.2692
10276TIP3    H152243   0.852   0.709  16.694 -1.3026 -0.3755 -1.7357
10276TIP3    H252244   0.900   0.602  16.789 -3.4782 -0.8056 -1.0670
10277TIP3   OH252245   4.208   0.729   6.448  0.2685 -0.4176 -0.0661
10277TIP3    H152246   4.283   0.698   6.397  1.1908  0.4494  0.7340
10277TIP3    H252247   4.246   0.784   6.516 -1.2433  2.3463 -1.2633
10278TIP3   OH252248   5.814   3.169  15.521  0.5870 -0.2752 -0.4741
10278TIP3    H152249   5.846   3.116  15.593 -0.1193  0.3808  0.3364
10278TIP3    H252250   5.863   3.252  15.527 -0.0893  0.1133 -0.2096
10279TIP3   OH252251   4.494   4.116  13.182 -0.1067 -0.3766 -0.1581
10279TIP3    H152252   4.513   4.025  13.207 -1.2210 -1.3499 -2.5632
10279TIP3    H252253   4.456   4.154  13.261 -1.6962 -2.6905  0.3189
10280TIP3   OH252254   5.956   4.043  14.812  0.1583 -0.1106  0.4696
10280TIP3    H152255   6.044   4.020  14.783 -0.6793 -1.8735 -0.9103
10280TIP3    H252256   5.898   4.001  14.748 -1.7073  0.3430  1.7711
10281TIP3   OH252257   2.877   6.386  13.147 -0.4818 -0.3617 -0.0121
10281TIP3    H152258   2.790   6.394  13.108 -0.3020  2.9058 -0.0502
10281TIP3    H252259   2.867   6.418  13.236  0.5242 -0.8230  0.2839
10282TIP3   OH252260   5.548   2.900   1.535  0.0524 -0.2830  0.2828
10282TIP3    H152261   5.477   2.835   1.541 -0.8609  0.5918 -0.5291
10282TIP3    H252262   5.628   2.848   1.529 -0.6572 -1.3426 -0.3923
10283TIP3   OH252263   2.441   2.390  11.287  0.6526 -0.1013 -0.3292
10283TIP3    H152264   2.413   2.465  11.235  1.7208 -0.9663 -2.2509
10283TIP3    H252265   2.526   2.366  11.251  0.6976 -1.7382  0.7598
10284TIP3   OH252266   2.311   0.995   0.167  0.1107  0.0603  0.2577
10284TIP3    H152267   2.388   1.041   0.133 -0.1076  0.0338 -0.2843
10284TIP3    H252268   2.294   1.035   0.252  2.7418 -2.1745  2.0063
10285TIP3   OH252269   4.710   0.140   2.206  0.0560 -0.2443 -0.3670
10285TIP3    H152270   4.795   0.099   2.188  0.1617 -0.4062  0.4500
10285TIP3    H252271   4.713   0.162   2.300 -0.8726 -0.4274 -0.2790
10286TIP3   OH252272   5.713   0.191  13.687 -0.4130  0.4776  0.0996
10286TIP3    H152273   5.630   0.164  13.727 -0.3660 -0.1543 -0.2173
10286TIP3    H252274   5.772   0.203  13.762 -1.4526  3.5274  0.5779
10287TIP3   OH252275   3.540   6.079   4.881  0.3334  0.0423 -0.2613
10287TIP3    H152276   3.529   6.116   4.969  1.4415  0.0268 -0.0921
10287TIP3    H252277   3.463   6.024   4.868  0.4840 -0.4985  0.9941
10288TIP3   OH252278   5.117   4.756   5.255  0.0149 -0.8422 -0.2415
10288TIP3    H152279   5.023   4.736   5.265  0.2112 -1.9625 -0.4329
10288TIP3    H252280   5.120   4.825   5.189 -0.6875 -0.5944 -0.0304
10289TIP3   OH252281   6.325   1.415   3.069 -0.4647  0.1043  0.6708
10289TIP3    H152282   6.325   1.433   3.163  0.3259  0.5243  0.6000
10289TIP3    H252283   6.340   1.500   3.029 -1.1308 -0.0234  0.1460
10290TIP3   OH252284   0.239   4.619   0.813  0.0076  0.1105 -0.2636
10290TIP3    H152285   0.239   4.523   0.815  1.8546  0.0371 -1.2962
10290TIP3    H252286   0.163   4.641   0.759 -0.8966 -0.7210  0.6259
10291TIP3   OH252287   2.264   4.723  14.436  0.1326 -0.1457  0.7455
10291TIP3    H152288   2.295   4.704  14.524  2.0186  0.9277  0.3626
10291TIP3    H252289   2.271   4.639  14.390  3.3428  0.1359  0.4913
10292TIP3   OH252290   4.911   1.187  13.128  0.2907  0.6467  0.0695
10292TIP3    H152291   4.952   1.120  13.073 -1.5588 -1.3355  0.9613
10292TIP3    H252292   4.984   1.227  13.174  1.5004 -0.6844 -0.5838
10293TIP3   OH252293   6.354   3.914  17.267  0.2273  0.1187  0.1190
10293TIP3    H152294   6.414   3.938  17.196  0.6888  0.0252  0.4747
10293TIP3    H252295   6.290   3.856  17.225  1.4150 -1.2472  0.0897
10294TIP3   OH252296   6.562   4.479  16.930 -0.2456  0.0254 -0.9025
10294TIP3    H152297   6.515   4.459  16.850  0.3622  0.6012 -1.4203
10294TIP3    H252298   6.576   4.574  16.927 -0.2555  0.0625 -0.0944
10295TIP3   OH252299   6.343   1.756   3.562 -0.0690  0.3222  0.2724
10295TIP3    H152300   6.253   1.751   3.528  0.2209  2.4310 -1.0318
10295TIP3    H252301   6.359   1.850   3.573  2.1368  0.0456 -0.0222
10296TIP3   OH252302   6.128   2.341  10.992  0.0759 -0.1085  0.2387
10296TIP3    H152303   6.149   2.419  10.941  1.1494 -1.3512 -1.3078
10296TIP3    H252304   6.210   2.318  11.035 -1.1882  1.9609  4.2099
10297TIP3   OH252305   5.504   0.720   3.478 -0.5114 -0.1364  0.6946
10297TIP3    H152306   5.453   0.642   3.455  0.9427 -1.4658  1.7265
10297TIP3    H252307   5.564   0.689   3.546 -0.7418  2.2058  2.0502
10298TIP3   OH252308   2.132   6.016  15.172  0.5389  0.1437  0.0554
10298TIP3    H152309   2.038   6.028  15.185  0.4972 -0.4505  0.2972
10298TIP3    H252310   2.170   6.103  15.190  0.1705  0.0857  1.1994
10299TIP3   OH252311   4.550   4.060   6.053  0.5158  0.5912 -0.5663
10299TIP3    H152312   4.555   3.985   6.112 -1.4983 -0.6671 -1.8717
10299TIP3    H252313   4.538   4.136   6.110 -0.3023 -0.4383  0.6721
10300TIP3   OH252314   3.084   5.154   5.770 -0.2961  0.3726 -0.8409
10300TIP3    H152315   2.993   5.173   5.749 -1.1189 -1.3984  0.7593
10300TIP3    H252316   3.125   5.239   5.785 -2.0143  1.1558 -0.4309
10301TIP3   OH252317   3.842   5.008  15.205 -0.8944  0.0480 -0.4199
10301TIP3    H152318   3.775   5.026  15.139  0.6990  2.0499 -1.6148
10301TIP3    H252319   3.833   5.078  15.269  0.4262  0.7333 -0.9448
10302TIP3   OH252320   0.567   2.792   1.231 -0.7218 -0.4313  0.2410
10302TIP3    H152321   0.473   2.775   1.227 -0.9457  0.8386 -0.1285
10302TIP3    H252322   0.579   2.878   1.191  0.8715 -1.4527 -1.6774
10303TIP3   OH252323   0.593   5.320   6.289  0.0333  0.4490  0.1539
10303TIP3    H152324   0.516   5.264   6.295 -0.7969  1.2403 -2.2290
10303TIP3    H252325   0.578   5.389   6.354 -0.4929 -0.2266  0.7796
10304TIP3   OH252326   3.498   6.398   5.920  0.4432  0.6835 -0.2896
10304TIP3    H152327   3.550   6.436   5.849  0.4304  0.4676 -0.4166
10304TIP3    H252328   3.544   6.424   6.000 -0.7489  2.8058 -0.2384
10305TIP3   OH252329   0.149   1.566   2.214  0.0530 -0.0883  0.3088
10305TIP3    H152330   0.203   1.613   2.151 -1.0189 -0.8154 -1.2354
10305TIP3    H252331   0.062   1.562   2.173 -0.5292 -1.1193  1.5649
10306TIP3   OH252332   5.942   6.484  16.636 -0.4254 -0.0170  0.1150
10306TIP3    H152333   5.855   6.461  16.602 -1.0633  0.2167  1.5174
10306TIP3    H252334   5.958   6.421  16.706  0.8988 -0.5414 -0.6348
10307TIP3   OH252335   1.691   4.412   3.978 -0.0196  0.1342  1.0862
10307TIP3    H152336   1.605   4.447   3.997 -0.1899  0.7862 -0.7013
10307TIP3    H252337   1.748   4.450   4.044 -0.8790  0.7126  1.5068
10308TIP3   OH252338   2.895   2.309  13.912 -0.6280  0.2775 -0.0886
10308TIP3    H152339   2.974   2.325  13.860 -0.4446 -1.2682 -0.3586
10308TIP3    H252340   2.921   2.242  13.975 -1.5301  0.2834  0.3102
10309TIP3   OH252341   2.864   0.573   1.216  0.2185  0.0396  0.5125
10309TIP3    H152342   2.869   0.478   1.226  2.2251 -0.1399 -1.4551
10309TIP3    H252343   2.954   0.603   1.219  0.4526  1.0093 -4.8999
10310TIP3   OH252344   6.666   0.695  14.531  0.1645  0.1692  0.5259
10310TIP3    H152345   6.696   0.770  14.581 -1.9895  0.6759  1.1651
10310TIP3    H252346   6.599   0.655  14.586  1.2139 -2.2315  0.1908
10311TIP3   OH252347   1.747   4.056   2.028  0.4246  0.4580  0.0659
10311TIP3    H152348   1.756   3.963   2.007  1.8030  0.6845 -0.4762
10311TIP3    H252349   1.743   4.100   1.942 -0.5438  0.8848  0.3129
10312TIP3   OH252350   4.689   6.278  16.073 -0.0801 -0.0333 -0.1422
10312TIP3    H152351   4.635   6.233  16.008 -0.3690  0.7498 -0.4619
10312TIP3    H252352   4.703   6.365  16.036  0.0365  0.3143  0.6959
10313TIP3   OH252353   0.114   4.396   3.501  0.3507  0.2397 -0.2994
10313TIP3    H152354   0.180   4.456   3.464  1.4967 -0.4368  0.5727
10313TIP3    H252355   0.164   4.318   3.526 -0.8298 -0.3817  0.1953
10314TIP3   OH252356   0.387   3.002  15.413 -0.1911  0.5319 -0.0913
10314TIP3    H152357   0.303   3.041  15.387  0.6181  0.8808 -2.3743
10314TIP3    H252358   0.363   2.917  15.452 -1.6218  0.9099 -0.0980
10315TIP3   OH252359   6.721   2.810   6.459 -0.2983 -0.0344 -0.5115
10315TIP3    H152360   6.767   2.860   6.392 -1.8593  1.6778 -0.3789
10315TIP3    H252361   6.790   2.762   6.505  1.8058  4.0711  1.1000
10316TIP3   OH252362   5.556   1.524   2.514 -0.0586  0.2210 -0.3064
10316TIP3    H152363   5.475   1.575   2.515  0.1375  0.5232  0.6452
10316TIP3    H252364   5.613   1.570   2.453  0.3367  1.5099  0.9881
10317TIP3   OH252365   2.414   1.728  13.634 -0.2552  0.0028 -0.4648
10317TIP3    H152366   2.489   1.787  13.627  0.3518 -0.8499 -1.4715
10317TIP3    H252367   2.376   1.748  13.720  0.8620  0.7482 -0.1133
10318TIP3   OH252368   6.133   0.158  13.758 -0.2711 -0.4575  0.4598
10318TIP3    H152369   6.152   0.163  13.664 -1.9921 -1.8734 -0.0130
10318TIP3    H252370   6.047   0.117  13.763 -0.4567  0.0851  2.6641
10319TIP3   OH252371   3.974   3.479   2.907 -0.3345 -0.4878 -0.1654
10319TIP3    H152372   3.960   3.523   2.991  0.1814 -1.3410  0.3831
10319TIP3    H252373   3.907   3.516   2.849  0.7659  1.8608 -0.0756
10320TIP3   OH252374   4.929   1.928   4.380 -1.0084 -0.0650 -0.1384
10320TIP3    H152375   4.998   1.993   4.382 -0.2585 -0.7658 -1.6712
10320TIP3    H252376   4.848   1.978   4.391 -0.3085  0.8289  1.0629
10321TIP3   OH252377   1.855   3.653  13.246 -0.2921  0.1712  0.2336
10321TIP3    H152378   1.874   3.560  13.259  3.5101  0.6179 -0.8912
10321TIP3    H252379   1.868   3.692  13.332 -1.2326 -0.2223  0.5643
10322TIP3   OH252380   1.827   1.694  15.262  0.3224  0.4945  0.0469
10322TIP3    H152381   1.756   1.653  15.214 -1.0445  1.7860  0.8677
10322TIP3    H252382   1.818   1.663  15.352  1.4370 -0.1136 -0.0308
10323TIP3   OH252383   1.117   1.640  14.664 -0.0580 -0.0466 -0.4045
10323TIP3    H152384   1.148   1.551  14.679 -1.0446 -0.2111  0.8987
10323TIP3    H252385   1.024   1.636  14.687 -0.5624  0.8860 -2.1723
10324TIP3   OH252386   6.144   4.655   6.385 -0.4854  0.2542  0.4429
10324TIP3    H152387   6.072   4.614   6.433 -0.4986  0.9314  1.0167
10324TIP3    H252388   6.209   4.585   6.377 -0.8021 -0.0884  0.7715
10325TIP3   OH252389   3.492   6.189   2.152  0.8476  0.0290  0.9145
10325TIP3    H152390   3.441   6.251   2.101 -0.9303 -2.2078 -0.2363
10325TIP3    H252391   3.468   6.205   2.243 -0.4414  0.2876  0.5373
10326TIP3   OH252392   0.980   0.584   3.406  0.5369 -0.1471  0.0453
10326TIP3    H152393   0.979   0.529   3.328 -1.0661 -2.3644  1.5045
10326TIP3    H252394   0.917   0.654   3.386  1.2104  0.1471 -1.1517
10327TIP3   OH252395   3.916   5.133   1.441 -0.4254  0.2715 -0.6604
10327TIP3    H152396   3.909   5.226   1.419  0.2610  0.1951 -1.2227
10327TIP3    H252397   3.943   5.091   1.360  4.2980  0.2341  0.6375
10328TIP3   OH252398   3.903   5.568   3.231 -0.0749 -0.1839  0.0256
10328TIP3    H152399   3.889   5.589   3.323  1.1203  2.0605 -0.2171
10328TIP3    H252400   3.818   5.539   3.199 -1.3882  2.1510  1.1138
10329TIP3   OH252401   1.284   0.505  15.161  0.2195 -0.4089  0.0588
10329TIP3    H152402   1.368   0.462  15.180  0.3057 -1.0666 -1.6255
10329TIP3    H252403   1.308   0.580  15.108 -0.2285 -0.2958  0.0200
10330TIP3   OH252404   4.397   5.078   4.001  0.2297 -0.4214  0.3521
10330TIP3    H152405   4.456   5.153   3.992  1.7342 -1.7968 -2.7061
10330TIP3    H252406   4.435   5.025   4.071  1.1288 -0.0318  0.1645
10331TIP3   OH252407   6.653   4.653   4.822  0.1967 -0.4251 -0.1911
10331TIP3    H152408   6.741   4.628   4.851  0.9452  1.1490 -1.0373
10331TIP3    H252409   6.661   4.667   4.728 -0.5687  1.2681 -0.0365
10332TIP3   OH252410   3.325   1.575   0.756 -0.0748 -1.1287 -0.1747
10332TIP3    H152411   3.289   1.647   0.704 -1.6827  0.6052  3.0247
10332TIP3    H252412   3.273   1.499   0.732  0.1328 -0.7354 -1.9954
10333TIP3   OH252413   0.750   4.055  15.089  0.1849  0.0787  0.4932
10333TIP3    H152414   0.730   4.086  15.001  0.2575  0.3774  0.5805
10333TIP3    H252415   0.821   4.112  15.119  0.4014 -0.2544  0.6078
10334TIP3   OH252416   0.277   1.679   5.650 -0.3352  0.0969 -0.6263
10334TIP3    H152417   0.265   1.586   5.666 -2.6581  0.1639 -1.6691
10334TIP3    H252418   0.322   1.683   5.566 -2.0630 -0.1206 -1.6087
10335TIP3   OH252419   0.787   3.851  14.414  0.3561  0.5795 -0.2590
10335TIP3    H152420   0.716   3.907  14.381  0.7232 -0.5207 -3.1459
10335TIP3    H252421   0.750   3.763  14.411  2.1945 -0.2300 -3.3415
10336TIP3   OH252422   0.044   6.757   5.490  0.1179 -0.0726  0.0234
10336TIP3    H152423  -0.033   6.711   5.524  0.3403 -2.2563 -2.1312
10336TIP3    H252424   0.057   6.720   5.403  4.1694 -0.5691  0.6118
10337TIP3   OH252425   1.326   2.602  14.319 -0.3431  0.0236  0.2346
10337TIP3    H152426   1.396   2.539  14.337  2.9777  2.6619 -2.1775
10337TIP3    H252427   1.324   2.660  14.395  0.3669  0.1275  0.1795
10338TIP3   OH252428   4.283   5.988   2.446 -0.2969 -0.3702  0.3858
10338TIP3    H152429   4.204   5.943   2.416  0.1088 -2.2223  1.8792
10338TIP3    H252430   4.255   6.077   2.466 -1.5012 -0.3756 -1.1427
10339TIP3   OH252431   2.572   4.956  12.860  0.4817 -0.2069 -0.7428
10339TIP3    H152432   2.537   4.925  12.776 -0.0259 -0.0354 -0.6045
10339TIP3    H252433   2.537   5.045  12.868  0.9944 -0.0170 -0.6132
10340TIP3   OH252434   1.097   3.542   0.762  0.4881  0.1699 -0.1932
10340TIP3    H152435   1.017   3.544   0.814  0.4884  0.3987 -0.2036
10340TIP3    H252436   1.146   3.468   0.798  0.2967  0.0631 -0.1518
10341TIP3   OH252437   5.468   0.009  16.368  0.3467  0.1320  0.2939
10341TIP3    H152438   5.464   0.098  16.331  0.1332 -0.1270 -0.3319
10341TIP3    H252439   5.561  -0.013  16.368  0.3378  0.0648 -0.2895
10342TIP3   OH252440   4.791   4.848   5.937 -0.3318  0.0149 -0.0917
10342TIP3    H152441   4.698   4.866   5.943 -0.3507  0.0533 -0.5243
10342TIP3    H252442   4.800   4.758   5.971 -0.7173 -0.5261 -1.3598
10343TIP3   OH252443   6.017   2.086  13.160 -0.2557 -0.2033 -0.4047
10343TIP3    H152444   5.995   2.089  13.253  0.4492  1.5695 -0.2596
10343TIP3    H252445   6.112   2.079  13.157 -0.3560 -1.6786 -1.0229
10344TIP3   OH252446   0.089   5.822   2.294  0.3832 -0.3915  0.2629
10344TIP3    H152447   0.098   5.782   2.207 -1.3295 -0.0261 -0.1190
10344TIP3    H252448   0.004   5.790   2.325 -0.4010  1.8371  0.5272
10345TIP3   OH252449   2.872   4.195   5.180  0.4443  0.7086  0.0307
10345TIP3    H152450   2.906   4.142   5.108  0.3235  1.7816 -0.8550
10345TIP3    H252451   2.950   4.227   5.225  0.5616  1.0296 -0.3888
10346TIP3   OH252452   1.162   4.773  12.361 -0.1770 -0.0453  0.1094
10346TIP3    H152453   1.214   4.694  12.375  0.0830  0.0621 -0.2484
10346TIP3    H252454   1.105   4.778  12.438 -2.0289 -2.0043 -1.0324
10347TIP3   OH252455   2.532   1.720   1.276  0.1082 -0.2543  0.1741
10347TIP3    H152456   2.470   1.659   1.317 -0.0590 -1.7647 -2.1329
10347TIP3    H252457   2.618   1.688   1.304 -0.0431 -0.1637  0.7604
10348TIP3   OH252458   3.748   4.267   0.778  0.2137 -0.9014 -0.2436
10348TIP3    H152459   3.836   4.235   0.796 -0.8064 -2.1577  3.4947
10348TIP3    H252460   3.730   4.330   0.849 -1.5249  0.1757 -1.5512
10349TIP3   OH252461   1.010   2.584  14.083 -0.1789 -0.2261 -0.6217
10349TIP3    H152462   1.092   2.629  14.063 -0.2370 -0.1743 -0.7444
10349TIP3    H252463   1.030   2.491  14.075 -0.4421 -0.1872 -1.8522
10350TIP3   OH252464   0.096   1.573   4.078 -0.0794  0.7359  0.7210
10350TIP3    H152465   0.015   1.615   4.050 -1.1742 -1.2918  0.6481
10350TIP3    H252466   0.072   1.525   4.158  0.0816 -2.6003 -1.0557
10351TIP3   OH252467   5.428   5.500   5.061  0.2059 -0.4654  0.0874
10351TIP3    H152468   5.448   5.587   5.095 -0.0810 -0.5156  0.3862
10351TIP3    H252469   5.392   5.516   4.974 -1.3676 -0.1625  0.7535
10352TIP3   OH252470   3.535   3.189  13.758  0.4589  0.1996  0.0079
10352TIP3    H152471   3.604   3.145  13.709 -0.2727 -0.2091 -0.6919
10352TIP3    H252472   3.581   3.242  13.823  1.4087 -0.2881 -0.2502
10353TIP3   OH252473   3.241   0.811   5.714 -0.0790 -0.2864  0.9336
10353TIP3    H152474   3.234   0.725   5.757  1.4955 -0.0438  1.7660
10353TIP3    H252475   3.240   0.791   5.621 -2.2632 -0.9512  1.0332
10354TIP3   OH252476   1.384   1.724   4.642 -0.5082  0.4359 -0.0160
10354TIP3    H152477   1.365   1.635   4.670 -1.6875  0.1664 -1.5452
10354TIP3    H252478   1.472   1.742   4.675 -0.3305 -1.2135  0.4603
10355TIP3   OH252479   2.592   5.717  16.572  0.3241 -0.4639  0.3888
10355TIP3    H152480   2.523   5.762  16.621  0.4420 -1.8526  1.9016
10355TIP3    H252481   2.557   5.630  16.554  1.2695 -0.8424  0.2809
10356TIP3   OH252482   2.875   4.744  16.818  0.6863 -0.1508 -0.1542
10356TIP3    H152483   2.838   4.827  16.788  1.0078 -0.1843 -0.6685
10356TIP3    H252484   2.823   4.720  16.894  1.2842  1.0624  0.6589
10357TIP3   OH252485   5.961   1.008  16.378 -0.1718 -0.8064  0.3996
10357TIP3    H152486   6.054   1.010  16.354 -0.5509 -1.4862 -1.2532
10357TIP3    H252487   5.915   1.001  16.294 -1.7574  0.1129  1.1505
10358TIP3   OH252488   3.342   1.565   2.666  0.3691  0.2929 -0.5470
10358TIP3    H152489   3.411   1.627   2.691  1.1813 -0.2727 -1.2856
10358TIP3    H252490   3.386   1.504   2.606 -0.6947 -0.3024 -0.7481
10359TIP3   OH252491   3.377   1.485  13.356 -0.0862  0.2725  0.5781
10359TIP3    H152492   3.356   1.424  13.285  0.8599  2.0435 -1.3604
10359TIP3    H252493   3.314   1.557  13.345  0.3483  0.7714  1.2667
10360TIP3   OH252494   5.911   2.714   2.661  0.4552  0.6449  0.8532
10360TIP3    H152495   5.934   2.773   2.733 -0.4517  0.2744  1.4611
10360TIP3    H252496   5.824   2.681   2.683 -0.0250  0.8449 -0.6296
10361TIP3   OH252497   4.027   4.131   3.408 -0.1834 -0.3811  0.1044
10361TIP3    H152498   4.090   4.060   3.420  1.0188  0.7063  0.5178
10361TIP3    H252499   4.056   4.199   3.468 -2.3623 -0.1874  1.0498
10362TIP3   OH252500   2.960   2.435   4.209 -0.0692 -0.4764  1.0314
10362TIP3    H152501   2.920   2.493   4.143 -0.7248 -2.9268 -0.8680
10362TIP3    H252502   2.887   2.383   4.242  0.6646 -0.9827  1.8978
10363TIP3   OH252503   5.946   0.688  12.776 -0.0872 -0.1861  0.2719
10363TIP3    H152504   5.956   0.713  12.867  2.3228  0.5694 -0.1363
10363TIP3    H252505   6.020   0.629  12.759 -1.6466 -1.9962 -0.6878
10364TIP3   OH252506   3.113   1.897  12.931 -0.4520 -0.1191 -0.1943
10364TIP3    H152507   3.121   1.904  12.835  0.9752 -2.9901 -0.3860
10364TIP3    H252508   3.023   1.925  12.949 -0.5806  1.0797 -2.2734
10365TIP3   OH252509   4.958   4.169  11.089  0.1031  0.3924  0.1714
10365TIP3    H152510   4.874   4.127  11.104  0.3466 -0.1415  0.0629
10365TIP3    H252511   4.950   4.208  11.002 -0.0810  0.4676  0.2217
10366TIP3   OH252512   1.341   2.416   4.106 -0.6037  0.8422  0.0395
10366TIP3    H152513   1.305   2.346   4.160  1.4278 -0.4523 -0.1619
10366TIP3    H252514   1.284   2.420   4.029 -0.5363 -0.8966 -0.1345
10367TIP3   OH252515   0.699   4.155  16.036  0.5034 -0.2771 -0.8624
10367TIP3    H152516   0.786   4.178  16.002  0.4513  0.4312 -0.5175
10367TIP3    H252517   0.669   4.234  16.081 -0.1877 -0.6264 -0.7062
10368TIP3   OH252518   5.281   3.177   1.047 -0.6178 -0.2871 -0.0293
10368TIP3    H152519   5.207   3.148   1.100 -1.1932  1.9377  0.4917
10368TIP3    H252520   5.241   3.209   0.966 -0.0734 -0.4246 -0.3576
10369TIP3   OH252521   2.494   2.468   6.087  0.1967 -0.1921 -0.3148
10369TIP3    H152522   2.504   2.555   6.047 -0.4096 -0.4669 -1.0799
10369TIP3    H252523   2.400   2.449   6.082  0.1842 -0.4846  0.7372
10370TIP3   OH252524   5.115   6.397  13.944  0.6138 -0.0559  0.5857
10370TIP3    H152525   5.055   6.323  13.936  1.5400 -0.9805  1.7489
10370TIP3    H252526   5.202   6.359  13.934  1.0588  1.1447 -0.3744
10371TIP3   OH252527   6.316   2.876  13.558 -0.9642  0.2350  0.3493
10371TIP3    H152528   6.286   2.791  13.525  0.3028  0.2021 -0.7589
10371TIP3    H252529   6.238   2.913  13.601 -1.9077 -0.9013 -0.3144
10372TIP3   OH252530   3.408   5.520  15.321  0.3453  0.1555 -0.0452
10372TIP3    H152531   3.460   5.445  15.350  2.4626  1.0099 -1.3833
10372TIP3    H252532   3.418   5.521  15.226 -1.0792  1.1299 -0.2105
10373TIP3   OH252533   4.058   0.818  16.937  0.0534  0.2164 -0.3302
10373TIP3    H152534   4.079   0.730  16.966  1.2185  1.2531  2.3499
10373TIP3    H252535   3.982   0.843  16.990 -1.8121  0.0697 -2.7604
10374TIP3   OH252536   6.669   5.780  15.928  0.2600 -0.3758  0.3847
10374TIP3    H152537   6.624   5.863  15.947  1.9972  0.4369  1.1964
10374TIP3    H252538   6.651   5.725  16.004 -0.1054 -0.3863  0.2906
10375TIP3   OH252539   5.466   4.859   2.518  0.0596  0.2103  0.2512
10375TIP3    H152540   5.528   4.860   2.591  1.5112  0.4232 -0.9298
10375TIP3    H252541   5.486   4.779   2.470  0.6180  1.1052 -1.0937
10376TIP3   OH252542   4.007   4.284  15.847 -0.1211  0.6338  0.0094
10376TIP3    H152543   3.973   4.249  15.929 -0.4432  0.8481 -0.0306
10376TIP3    H252544   3.929   4.302  15.794  0.1337 -0.7439 -0.8634
10377TIP3   OH252545   1.744   6.722   0.163  0.5148  0.0972 -0.3260
10377TIP3    H152546   1.677   6.653   0.165 -0.3738  0.9627  0.4658
10377TIP3    H252547   1.771   6.731   0.255  0.7810  0.6618 -0.4598
10378TIP3   OH252548   4.682   6.634  15.414 -0.4255 -0.2219 -0.3220
10378TIP3    H152549   4.661   6.710  15.359 -0.7184  0.0785  0.2040
10378TIP3    H252550   4.601   6.616  15.461  0.0823  0.0824  0.6811
10379TIP3   OH252551   5.032   4.581   4.946  0.0067  0.3807 -0.7177
10379TIP3    H152552   4.992   4.668   4.953 -2.7537 -0.9103  2.3277
10379TIP3    H252553   4.976   4.532   4.887 -3.4013 -1.3981  3.4674
10380TIP3   OH252554   1.026   2.495  14.585  0.0517  0.0669 -0.0027
10380TIP3    H152555   0.989   2.452  14.508  0.5119  1.3685 -0.9863
10380TIP3    H252556   0.949   2.517  14.638 -0.2405 -1.2624  0.1750
10381TIP3   OH252557   6.784   0.765   4.761  0.0320 -0.5901  0.1359
10381TIP3    H152558   6.811   0.688   4.812  0.2551 -0.7279 -0.1816
10381TIP3    H252559   6.707   0.735   4.712 -0.9472 -0.0861  1.3198
10382TIP3   OH252560   6.298   0.012   0.727  0.7487 -0.1153 -0.2901
10382TIP3    H152561   6.205   0.032   0.740  0.6862 -0.6132  0.0878
10382TIP3    H252562   6.307  -0.003   0.633 -0.2780 -3.3409 -0.0189
10383TIP3   OH252563   6.242   1.089   6.064 -0.0038  0.1166 -0.0305
10383TIP3    H152564   6.320   1.084   6.010 -0.0938 -5.8893 -0.3213
10383TIP3    H252565   6.169   1.094   6.002  0.0558 -0.2633 -0.1348
10384TIP3   OH252566   0.179   5.252  13.172 -0.1891  0.2585 -0.3569
10384TIP3    H152567   0.248   5.292  13.225  0.3170 -0.9938 -0.0374
10384TIP3    H252568   0.173   5.162  13.203 -1.6490  0.2015 -0.7160
10385TIP3   OH252569   2.457   2.444   3.658 -0.0199 -0.3841  0.2522
10385TIP3    H152570   2.398   2.474   3.727  0.0958 -0.3364  0.3316
10385TIP3    H252571   2.447   2.507   3.587  0.4874  0.0508  0.5580
10386TIP3   OH252572   1.266   4.927   3.436  0.3597  0.0169  0.3554
10386TIP3    H152573   1.211   4.871   3.491 -0.3680  0.5581  0.1951
10386TIP3    H252574   1.229   5.014   3.446 -0.8564 -0.0972 -2.2272
10387TIP3   OH252575   0.503   4.831  14.690 -0.1812 -0.3710 -0.3101
10387TIP3    H152576   0.420   4.866  14.721 -0.5590 -1.8004  0.3562
10387TIP3    H252577   0.557   4.908  14.672 -1.5431  0.5626 -0.4836
10388TIP3   OH252578   1.530   2.012   2.833  0.1236 -0.4633 -0.7742
10388TIP3    H152579   1.580   1.933   2.813 -0.8421 -1.4532  0.4711
10388TIP3    H252580   1.466   1.983   2.898  0.2189  1.5101  0.2926
10389TIP3   OH252581   5.711   4.838  14.703  0.1925  0.9379  0.2565
10389TIP3    H152582   5.646   4.781  14.745 -0.1660 -0.2797 -1.8225
10389TIP3    H252583   5.786   4.781  14.687  0.3766  1.3984 -0.5743
10390TIP3   OH252584   5.243   3.867   1.917 -0.1950 -0.2605  0.2992
10390TIP3    H152585   5.286   3.785   1.943 -0.1574 -0.0981  0.7468
10390TIP3    H252586   5.172   3.838   1.860 -1.5400 -0.8038  2.1523
10391TIP3   OH252587   5.158   3.481   5.370 -0.1191  0.1024  0.4905
10391TIP3    H152588   5.208   3.535   5.430 -2.1024 -0.0688  2.4223
10391TIP3    H252589   5.124   3.409   5.424 -0.4650 -1.1061 -1.2414
10392TIP3   OH252590   1.517   6.068  13.486 -0.6757  0.4132 -0.2616
10392TIP3    H152591   1.499   6.038  13.397 -1.2298  1.0104 -0.3558
10392TIP3    H252592   1.434   6.060  13.532 -0.8301  1.7205 -0.2728
10393TIP3   OH252593   2.424   4.342   0.056  0.2655 -0.2373 -0.3477
10393TIP3    H152594   2.369   4.406   0.012 -0.0509  0.0127  0.3949
10393TIP3    H252595   2.512   4.379   0.052  0.2285 -0.1841 -0.6979
10394TIP3   OH252596   4.458   3.532  13.970 -0.4288 -0.3024  0.6492
10394TIP3    H152597   4.500   3.617  13.981 -1.0286 -0.1069  1.4806
10394TIP3    H252598   4.521   3.481  13.919  0.1715  0.4600  0.6087
10395TIP3   OH252599   5.112   0.932   1.792 -0.4654  0.1254 -0.3179
10395TIP3    H152600   5.115   0.915   1.698  0.2291  1.7011 -0.5998
10395TIP3    H252601   5.104   0.845   1.831  0.2523 -0.6346 -1.7833
10396TIP3   OH252602   5.328   6.266   0.201  0.1477 -0.5978  0.0705
10396TIP3    H152603   5.249   6.218   0.175 -1.1004  0.4775  1.6802
10396TIP3    H252604   5.332   6.341   0.143  0.8698 -1.4145 -0.9895
10397TIP3   OH252605   2.612   2.364   2.585 -0.4020 -0.3307  0.2543
10397TIP3    H152606   2.562   2.419   2.645 -1.2862 -0.5249 -0.2865
10397TIP3    H252607   2.683   2.328   2.639 -0.6193  0.2498  0.9408
10398TIP3   OH252608   2.229   3.199   4.197  0.5929 -0.1883  0.2668
10398TIP3    H152609   2.201   3.233   4.283  1.4193  2.0205 -0.2634
10398TIP3    H252610   2.153   3.149   4.166 -0.4253  0.5051  1.4943
10399TIP3   OH252611   6.466   2.197   1.084 -0.2324 -0.5281  0.3692
10399TIP3    H152612   6.511   2.217   1.001 -0.5558  0.1097  0.3437
10399TIP3    H252613   6.430   2.109   1.071 -1.9245  0.2919 -0.9037
10400TIP3   OH252614   0.322   4.303  13.708  0.6055  0.2964  0.4389
10400TIP3    H152615   0.352   4.372  13.766  1.8316  0.4782 -0.3578
10400TIP3    H252616   0.318   4.225  13.763  1.6362  0.4839  0.8040
10401TIP3   OH252617   3.407   0.391   1.866  0.1623  0.0811  0.4067
10401TIP3    H152618   3.460   0.371   1.943 -1.1131  0.2053  1.3495
10401TIP3    H252619   3.321   0.355   1.886 -0.5788  1.3473 -0.3587
10402TIP3   OH252620   1.966   1.219   1.995 -0.6170  0.5194  0.2528
10402TIP3    H152621   2.061   1.235   1.997 -0.2739 -1.2530 -0.0982
10402TIP3    H252622   1.939   1.246   1.907  0.0523 -1.1602 -0.5310
10403TIP3   OH252623   1.573   1.337  13.894 -0.0544  0.3267 -0.1235
10403TIP3    H152624   1.544   1.410  13.839 -0.6156 -0.2628 -0.6396
10403TIP3    H252625   1.643   1.373  13.948  0.8318  0.8212 -1.5559
10404TIP3   OH252626   3.836   5.125   0.203 -0.5703 -0.3286  0.5749
10404TIP3    H152627   3.842   5.113   0.298 -0.3889  0.1733  0.6302
10404TIP3    H252628   3.758   5.075   0.178  0.3391 -1.8914  0.7328
10405TIP3   OH252629   6.254   6.378  13.031 -0.4404 -0.6819 -0.1567
10405TIP3    H152630   6.260   6.398  13.125  2.0169 -2.3168  0.1150
10405TIP3    H252631   6.274   6.462  12.988 -0.3740 -0.1918  0.7848
10406TIP3   OH252632   6.602   2.862  15.388  0.0381 -0.5235 -0.0840
10406TIP3    H152633   6.586   2.957  15.388 -0.2669 -0.5699 -0.5500
10406TIP3    H252634   6.523   2.825  15.348  1.4398 -0.7310 -2.9212
10407TIP3   OH252635   3.266   3.302   5.419  0.3365  0.3123  0.2180
10407TIP3    H152636   3.262   3.208   5.401  2.4451  0.3712 -0.7563
10407TIP3    H252637   3.244   3.309   5.512  1.9682 -1.3792  0.7900
10408TIP3   OH252638   1.523   4.761   5.286  0.0983 -0.4683  0.2329
10408TIP3    H152639   1.511   4.666   5.287 -0.7983 -0.3616  1.2420
10408TIP3    H252640   1.617   4.773   5.295  0.1098 -1.2589  1.3912
10409TIP3   OH252641   2.344   3.759   1.449 -0.5332 -0.0562  0.0632
10409TIP3    H152642   2.309   3.673   1.425 -1.5381  0.0927  0.9209
10409TIP3    H252643   2.328   3.766   1.543  1.9879 -0.0133  0.5343
10410TIP3   OH252644   3.454   4.722   2.127 -0.3252  0.2742 -0.7973
10410TIP3    H152645   3.475   4.813   2.109  0.6600  0.1688 -0.2697
10410TIP3    H252646   3.521   4.672   2.080  0.6933 -0.0833  0.9405
10411TIP3   OH252647   6.045   1.806  13.848  0.1149  0.5111  0.0355
10411TIP3    H152648   6.109   1.870  13.817  0.8151 -0.2744 -0.1771
10411TIP3    H252649   6.044   1.818  13.943  1.1401  0.0382  0.1220
10412TIP3   OH252650   3.968   0.344   2.714  0.6567  0.5988  0.0268
10412TIP3    H152651   3.910   0.338   2.790 -0.2867  0.2828 -0.6977
10412TIP3    H252652   3.984   0.254   2.688 -0.0896  0.7135 -0.9117
10413TIP3   OH252653   0.642   2.889   3.765 -0.3310 -0.5536 -0.2275
10413TIP3    H152654   0.691   2.835   3.827  1.2054 -0.4586 -1.2972
10413TIP3    H252655   0.550   2.868   3.781  0.0176 -0.5676  2.0144
10414TIP3   OH252656   3.648   0.180   1.951 -0.2990 -1.1710  0.3864
10414TIP3    H152657   3.647   0.085   1.961  1.3518 -1.2973 -0.2390
10414TIP3    H252658   3.602   0.213   2.028 -0.9933 -2.4663  0.5653
10415TIP3   OH252659   2.847   4.104   0.531  0.1222  0.2623 -0.3304
10415TIP3    H152660   2.796   4.025   0.514  1.2236 -0.4318 -0.4177
10415TIP3    H252661   2.800   4.173   0.482  0.5371 -0.7943 -2.3100
10416TIP3   OH252662   3.126   2.594   4.872  0.1898 -0.4300 -0.1985
10416TIP3    H152663   3.193   2.641   4.923 -0.1201  1.6188 -1.5601
10416TIP3    H252664   3.151   2.609   4.781 -1.0988 -1.2346 -0.7059
10417TIP3   OH252665   0.937   1.721  13.456  0.5666  0.1644  0.1501
10417TIP3    H152666   0.913   1.657  13.389  1.7871 -1.3690  1.1157
10417TIP3    H252667   0.868   1.714  13.522 -0.0764  0.9279 -0.4181
10418TIP3   OH252668   1.479   0.081   3.813  0.1209  0.0992 -0.4880
10418TIP3    H152669   1.398   0.029   3.809  0.5877 -0.5923 -2.5000
10418TIP3    H252670   1.500   0.086   3.906 -1.7593 -0.4632  0.0080
10419TIP3   OH252671   3.346   6.211  14.739  0.3156  0.2479 -0.3754
10419TIP3    H152672   3.284   6.153  14.783  0.0127  0.7611 -0.1162
10419TIP3    H252673   3.308   6.225  14.652  0.3690  0.0905 -0.4242
10420TIP3   OH252674   0.337   5.136  11.641 -0.3740 -0.0860 -0.5112
10420TIP3    H152675   0.375   5.051  11.660  0.8498  0.2168 -1.4463
10420TIP3    H252676   0.313   5.132  11.548 -1.6384  0.1160 -0.2155
10421TIP3   OH252677   2.568   6.120  15.075 -0.0035 -0.0007  0.8535
10421TIP3    H152678   2.511   6.044  15.086 -1.1361  0.6629 -0.1533
10421TIP3    H252679   2.565   6.139  14.981  1.0072  0.7308  0.9474
10422TIP3   OH252680   3.792   4.007   3.533 -0.8494  0.3417 -0.4132
10422TIP3    H152681   3.875   4.043   3.503  0.5860 -1.1569  1.4565
10422TIP3    H252682   3.755   4.077   3.588  0.5295  0.1171  0.8995
10423TIP3   OH252683   3.369   3.979   0.935 -0.4894 -0.3449 -0.5310
10423TIP3    H152684   3.438   3.915   0.917 -0.9166 -1.1087  0.4594
10423TIP3    H252685   3.405   4.062   0.907  0.6568 -0.8022 -0.4559
10424TIP3   OH252686   1.013   2.827   1.880 -0.8603 -0.3767 -0.6644
10424TIP3    H152687   1.074   2.882   1.928  0.4848 -0.6758 -1.9664
10424TIP3    H252688   1.059   2.804   1.799 -3.8219  2.0306 -3.2994
10425TIP3   OH252689   2.875   0.494  12.697  0.1609  0.7186 -0.1000
10425TIP3    H152690   2.940   0.428  12.720 -1.3493 -0.1660  1.8672
10425TIP3    H252691   2.820   0.452  12.631  0.8136  1.0422 -0.8748
10426TIP3   OH252692   3.954   3.754   3.531  0.1568 -0.3633  0.5912
10426TIP3    H152693   3.899   3.733   3.606 -0.6481 -0.1260  0.0742
10426TIP3    H252694   3.934   3.845   3.511 -1.3108 -1.0451 -1.2715
10427TIP3   OH252695   5.150   2.505   0.754 -0.3799  0.5371 -0.2094
10427TIP3    H152696   5.148   2.492   0.849 -0.3077 -0.5740 -0.3483
10427TIP3    H252697   5.243   2.499   0.732 -0.2872  1.8521 -0.2240
10428TIP3   OH252698   2.504   0.438   4.909 -0.1052  0.0614  0.0328
10428TIP3    H152699   2.541   0.507   4.964 -1.2961  2.2020 -1.6929
10428TIP3    H252700   2.413   0.432   4.937 -0.5790  0.7855 -1.3081
10429TIP3   OH252701   6.222   1.252   2.336 -0.0765 -0.6508 -0.2659
10429TIP3    H152702   6.256   1.341   2.345  0.1531 -0.8109  0.5134
10429TIP3    H252703   6.131   1.257   2.366 -0.9659 -0.1221 -2.7956
10430TIP3   OH252704   1.789   0.199   5.464 -0.3455  0.6343 -0.0402
10430TIP3    H152705   1.848   0.202   5.539  0.2965  1.4411 -0.5577
10430TIP3    H252706   1.833   0.251   5.396 -0.2334 -1.1967 -1.4618
10431TIP3   OH252707   5.685   2.911  10.466  0.4711 -0.0254  0.6098
10431TIP3    H152708   5.775   2.913  10.498  0.3971 -0.6995  0.8653
10431TIP3    H252709   5.647   2.995  10.495  1.2162  0.5749 -0.1159
10432TIP3   OH252710   3.060   3.271   6.694 -0.1027  0.2092 -0.3385
10432TIP3    H152711   3.124   3.201   6.681  0.3852  0.0272  2.4685
10432TIP3    H252712   3.002   3.265   6.618  0.6201 -2.4965 -0.7828
10433TIP3   OH252713   0.341   2.393  15.813 -0.0431 -0.2485  0.7362
10433TIP3    H152714   0.400   2.322  15.789  0.0320  0.0008  0.1682
10433TIP3    H252715   0.300   2.364  15.895  0.8216 -0.4459  1.1124
10434TIP3   OH252716   6.232   3.618  16.816  0.1666 -0.0805 -0.5175
10434TIP3    H152717   6.293   3.640  16.886 -0.4551 -0.6607  0.2286
10434TIP3    H252718   6.167   3.688  16.819 -0.1416 -0.3768 -0.1633
10435TIP3   OH252719   1.917   0.836  12.509  0.2975 -0.0030  0.0725
10435TIP3    H152720   1.950   0.761  12.459  2.2063  0.8454 -0.0282
10435TIP3    H252721   1.855   0.798  12.571 -1.1680 -1.2486 -2.0350
10436TIP3   OH252722   0.989   6.061  14.444  0.0948  0.1498  0.1777
10436TIP3    H152723   0.960   5.976  14.477  1.6798  0.0379  1.4281
10436TIP3    H252724   0.961   6.063  14.353 -0.9159 -1.2513  0.4277
10437TIP3   OH252725   1.915   6.404  16.274 -0.3840  0.0355 -0.7558
10437TIP3    H152726   1.858   6.480  16.268  0.4325  0.6163 -1.3926
10437TIP3    H252727   1.904   6.373  16.364 -1.2164  0.5061 -0.6839
10438TIP3   OH252728   0.423   3.668   0.235  0.0831 -0.3081 -0.4681
10438TIP3    H152729   0.455   3.742   0.183  1.5918  1.3209  2.5523
10438TIP3    H252730   0.489   3.600   0.223  0.9986  0.4571  0.1349
10439TIP3   OH252731   4.807   6.315  14.719  0.1186  0.2264  0.5116
10439TIP3    H152732   4.812   6.409  14.697 -0.4209  0.1692  0.1147
10439TIP3    H252733   4.887   6.278  14.682  0.1258  0.4584  0.2874
10440TIP3   OH252734   4.803   2.773   0.764 -0.0322 -0.6220  0.3545
10440TIP3    H152735   4.736   2.802   0.702  0.3772  1.9150  0.9950
10440TIP3    H252736   4.873   2.737   0.709 -0.3128  0.2220 -0.5906
10441TIP3   OH252737   4.745   2.191  11.454 -0.4431  0.0824  0.5939
10441TIP3    H152738   4.719   2.283  11.448  0.8691  0.3990 -1.2074
10441TIP3    H252739   4.669   2.143  11.422 -0.3608  0.7179 -0.6373
10442TIP3   OH252740   6.592   4.844  11.708  0.0475  0.1330  1.0709
10442TIP3    H152741   6.580   4.918  11.768  0.2040 -1.1922  2.8169
10442TIP3    H252742   6.525   4.781  11.734 -0.8796  0.0720 -1.1680
10443TIP3   OH252743   1.889   0.125  12.540 -0.4258 -0.0458 -0.6958
10443TIP3    H152744   1.841   0.043  12.550  1.6936 -1.2981 -0.2230
10443TIP3    H252745   1.846   0.186  12.600 -0.5388 -1.5411  0.8098
10444TIP3   OH252746   1.656   3.631   0.645 -0.9565 -0.0193  0.2173
10444TIP3    H152747   1.650   3.554   0.589 -1.1783  1.4884 -1.9111
10444TIP3    H252748   1.749   3.634   0.670 -0.6047 -0.0752 -1.0270
10445TIP3   OH252749   5.728   4.220  17.169 -0.0936 -0.3516 -0.6144
10445TIP3    H152750   5.652   4.162  17.162 -0.3418  0.1461 -2.6585
10445TIP3    H252751   5.772   4.192  17.249 -1.4950 -1.7806 -0.2910
10446TIP3   OH252752   1.032   1.950  17.231  0.2733 -0.2138 -0.7022
10446TIP3    H152753   1.118   1.977  17.202 -0.4816  0.9294 -1.9408
10446TIP3    H252754   1.028   1.856  17.211  1.9262 -0.7895  1.2376
10447TIP3   OH252755   4.578   2.829  15.944  0.5344 -0.3279  0.1649
10447TIP3    H152756   4.512   2.879  15.896  0.4899 -0.2122  0.3419
10447TIP3    H252757   4.542   2.741  15.951  0.5867 -0.3710 -0.0995
10448TIP3   OH252758   2.689   0.615   5.037  0.2482  0.0625  0.3114
10448TIP3    H152759   2.737   0.622   5.120  0.2675  0.6692  0.2504
10448TIP3    H252760   2.635   0.694   5.034  1.1179  0.6326 -0.8141
10449TIP3   OH252761   4.859   1.805  16.145 -0.0835 -0.2316 -0.3172
10449TIP3    H152762   4.915   1.864  16.194 -1.6345  1.2782 -0.2562
10449TIP3    H252763   4.771   1.842  16.154 -1.3060 -3.0567  0.4528
10450TIP3   OH252764   1.322   5.599   6.018  0.8692  0.3434 -0.0545
10450TIP3    H152765   1.351   5.513   5.986  1.5995  0.2551  0.8339
10450TIP3    H252766   1.279   5.580   6.101 -0.6631  0.6311 -0.7352
10451TIP3   OH252767   4.683   0.533   1.707 -0.0018 -0.0784 -0.4568
10451TIP3    H152768   4.722   0.542   1.620  3.2907 -1.0796  0.7610
10451TIP3    H252769   4.613   0.598   1.709 -0.1150  0.0552 -3.7738
10452TIP3   OH252770   2.158   6.081   2.044  0.3409  0.3239 -0.2540
10452TIP3    H152771   2.178   6.079   2.137  2.2132  0.1169 -0.6148
10452TIP3    H252772   2.240   6.107   2.002 -0.5934  0.9215 -1.8154
10453TIP3   OH252773   2.420   4.445   6.403 -0.0996 -0.0036 -0.4205
10453TIP3    H152774   2.353   4.480   6.344 -0.4318 -0.9650 -0.6243
10453TIP3    H252775   2.371   4.397   6.469  0.3989 -0.9516 -0.7312
10454TIP3   OH252776   0.512   2.366   5.121 -0.3491 -0.1649  0.4864
10454TIP3    H152777   0.431   2.403   5.087  0.8189  3.1297  0.9219
10454TIP3    H252778   0.490   2.335   5.209 -1.0340  1.3240  0.8736
10455TIP3   OH252779   5.348   4.875  15.340 -0.2382 -0.2956 -0.2830
10455TIP3    H152780   5.256   4.862  15.361 -0.2897  0.1739 -0.2179
10455TIP3    H252781   5.355   4.854  15.247 -0.5228  0.2217 -0.4264
10456TIP3   OH252782   0.738   4.106  12.937 -0.3763 -0.1306 -0.0755
10456TIP3    H152783   0.797   4.122  13.011  0.2797 -0.5143 -0.5142
10456TIP3    H252784   0.791   4.122  12.859 -0.3182 -2.1312 -0.5127
10457TIP3   OH252785   4.239   1.362  11.703 -0.2827 -0.0744 -0.5970
10457TIP3    H152786   4.161   1.411  11.727 -1.3685 -1.3142 -1.3995
10457TIP3    H252787   4.298   1.427  11.666 -0.1180  1.2139  1.7375
10458TIP3   OH252788   5.604   4.572  12.575 -0.1837  0.1703  0.6471
10458TIP3    H152789   5.591   4.532  12.661  1.2292 -0.3317  0.6462
10458TIP3    H252790   5.581   4.664  12.588 -2.0167 -0.3002  1.0162
10459TIP3   OH252791   2.610   0.678  15.173  0.2494 -0.3095  0.8283
10459TIP3    H152792   2.547   0.681  15.245  0.6973 -1.2121  1.2697
10459TIP3    H252793   2.638   0.587  15.169 -0.6610 -0.5659 -1.2813
10460TIP3   OH252794   1.006   6.472   5.082  0.5186 -0.2948  0.2547
10460TIP3    H152795   1.079   6.412   5.091  0.5319 -0.2240  0.6429
10460TIP3    H252796   0.956   6.461   5.163 -0.0024 -0.4803 -0.0851
10461TIP3   OH252797   2.212   0.384   2.664 -0.5345  0.5738 -0.3644
10461TIP3    H152798   2.235   0.391   2.757  2.7017  0.4702 -1.0487
10461TIP3    H252799   2.245   0.464   2.624 -2.1519  0.7575 -1.4210
10462TIP3   OH252800   6.099   6.112   1.218  0.1889 -0.8897 -0.0939
10462TIP3    H152801   6.071   6.045   1.156  1.5636  1.1722 -3.2182
10462TIP3    H252802   6.194   6.101   1.224  0.1479 -0.7094  1.3239
10463TIP3   OH252803   5.009   4.076   5.729 -0.1350 -0.3296 -0.0804
10463TIP3    H152804   4.918   4.073   5.761 -0.3470 -1.3154 -0.7303
10463TIP3    H252805   5.001   4.076   5.633  0.5341  0.8949 -0.1642
10464TIP3   OH252806   6.432   5.086  15.634  0.3296 -0.0281 -0.6083
10464TIP3    H152807   6.409   5.135  15.714  0.9219 -1.1131  0.2508
10464TIP3    H252808   6.497   5.141  15.590  0.0549  0.5488 -0.3019
10465TIP3   OH252809   0.737   1.149   3.414  0.1195 -0.4864  0.3819
10465TIP3    H152810   0.740   1.146   3.510 -1.2260  2.3346  0.6132
10465TIP3    H252811   0.710   1.238   3.394 -1.4015 -1.4902 -2.6120
10466TIP3   OH252812   5.218   6.079  14.113 -0.8058  0.0500 -0.0959
10466TIP3    H152813   5.165   6.021  14.058 -1.5458  0.2844  0.3546
10466TIP3    H252814   5.217   6.163  14.068  1.6204 -0.6269 -1.6158
10467TIP3   OH252815   0.617   0.549  15.057  0.2143  0.5464 -0.1545
10467TIP3    H152816   0.665   0.608  15.115  1.4860  0.3114 -0.9550
10467TIP3    H252817   0.682   0.516  14.996 -0.8964 -0.0672 -1.0406
10468TIP3   OH252818   1.397   2.322  11.242  0.5835  0.1243  0.2710
10468TIP3    H152819   1.421   2.342  11.333  1.2191 -3.5967  1.0970
10468TIP3    H252820   1.481   2.317  11.196  0.2351  2.5216 -0.7593
10469TIP3   OH252821   6.216   1.866  11.328  0.4595 -0.4998  0.0860
10469TIP3    H152822   6.232   1.784  11.281 -1.4200 -0.3802 -0.8339
10469TIP3    H252823   6.167   1.841  11.406  1.2340 -0.3949  0.6228
10470TIP3   OH252824   4.185   0.381  11.406  0.1161  0.4733 -0.0749
10470TIP3    H152825   4.246   0.439  11.451 -0.4956 -0.2833  1.8026
10470TIP3    H252826   4.187   0.299  11.456 -1.6389  0.0699 -0.5931
10471TIP3   OH252827   3.250   6.060  16.271  0.4050 -0.1351 -0.6870
10471TIP3    H152828   3.174   6.011  16.301 -1.0491  2.6917  0.6258
10471TIP3    H252829   3.323   5.998  16.278 -1.4712 -2.4629 -0.4832
10472TIP3   OH252830   5.746   3.876   3.437 -0.1324 -0.9057 -0.0622
10472TIP3    H152831   5.710   3.802   3.486 -0.2120 -0.3018  0.8257
10472TIP3    H252832   5.702   3.872   3.352  0.2989 -2.2099 -0.2476
10473TIP3   OH252833   1.901   3.519   0.863  0.6152  0.5151 -0.5382
10473TIP3    H152834   1.955   3.528   0.785 -0.0690  0.6099 -1.0112
10473TIP3    H252835   1.882   3.425   0.869  0.0584  0.5991 -0.9132
10474TIP3   OH252836   4.751   4.202   0.805  0.1869  0.0226  0.2746
10474TIP3    H152837   4.683   4.154   0.758  0.1348  1.1399 -0.8491
10474TIP3    H252838   4.707   4.237   0.882 -0.2137 -0.2189  0.1565
10475TIP3   OH252839   5.104   5.122  11.335 -0.4699 -0.5220  0.3667
10475TIP3    H152840   5.197   5.100  11.344 -0.2197  0.4965  0.4175
10475TIP3    H252841   5.077   5.079  11.254 -0.0940 -1.2661  0.6287
10476TIP3   OH252842   1.975   0.390  15.764  0.5347  0.0688  0.6851
10476TIP3    H152843   2.000   0.472  15.806 -1.0673  1.6289 -1.1760
10476TIP3    H252844   1.894   0.364  15.808 -0.4966  1.0701 -0.5258
10477TIP3   OH252845   4.695   5.085  16.526 -0.3986  0.2484  0.5483
10477TIP3    H152846   4.645   5.022  16.579 -0.5340  0.1638  0.3185
10477TIP3    H252847   4.733   5.032  16.456  1.0504  0.0758  1.4200
10478TIP3   OH252848   1.903   2.264   4.579 -0.6324 -0.4564 -0.0764
10478TIP3    H152849   1.973   2.211   4.617 -0.6487  0.7802  1.7784
10478TIP3    H252850   1.881   2.220   4.497  2.4909 -0.7502 -0.8618
10479TIP3   OH252851   5.418   6.522  16.417 -0.2210 -0.6423 -0.0849
10479TIP3    H152852   5.364   6.458  16.369 -1.8765  1.2082 -0.8377
10479TIP3    H252853   5.409   6.603  16.367 -0.1225  0.7861  2.0786
10480TIP3   OH252854   4.256   1.075   3.701 -0.4275  0.2885 -0.1048
10480TIP3    H152855   4.171   1.097   3.662 -0.2318  0.4910 -0.4154
10480TIP3    H252856   4.292   1.158   3.730 -0.4256  0.1764  0.2183
10481TIP3   OH252857   2.560   1.791   5.686  0.0372 -0.3701 -0.2831
10481TIP3    H152858   2.582   1.709   5.730  0.2319  1.3777  3.1672
10481TIP3    H252859   2.644   1.837   5.679  0.0928 -0.6825 -3.0394
10482TIP3   OH252860   0.888   0.632  17.135  0.4470  0.0803  0.3650
10482TIP3    H152861   0.861   0.651  17.225  2.4986  1.6015  0.7026
10482TIP3    H252862   0.902   0.717  17.095  0.3748 -0.5974 -1.1784
10483TIP3   OH252863   4.107   5.971   4.562 -0.4683 -0.2628 -0.2462
10483TIP3    H152864   4.115   6.016   4.646  1.0003 -1.5747  0.3663
10483TIP3    H252865   4.196   5.943   4.541 -1.1769 -2.2078 -0.9381
10484TIP3   OH252866   6.192   0.010  14.269 -0.8715 -0.1220  0.1231
10484TIP3    H152867   6.216  -0.054  14.336 -1.1703 -0.3770 -0.0101
10484TIP3    H252868   6.276   0.039  14.233 -0.7369 -0.6138  0.0261
10485TIP3   OH252869   4.416   2.516  14.179 -0.1486 -0.3346  0.2148
10485TIP3    H152870   4.489   2.516  14.117 -0.0357 -0.5836  0.3427
10485TIP3    H252871   4.342   2.552  14.130  0.9116  3.6069  1.1316
10486TIP3   OH252872   3.667   0.249  15.153  0.3410  0.5460 -0.2874
10486TIP3    H152873   3.681   0.323  15.094 -2.7632  1.8744  0.4510
10486TIP3    H252874   3.572   0.243  15.162  0.4726 -3.3440  0.0227
10487TIP3   OH252875   4.090   0.435   4.478  0.2757 -0.6890 -0.0695
10487TIP3    H152876   4.138   0.438   4.395 -2.2972  3.9502 -1.7854
10487TIP3    H252877   4.004   0.399   4.455 -0.1176 -0.3634  0.8255
10488TIP3   OH252878   4.296   6.716  16.521 -0.3911  0.1421 -0.0270
10488TIP3    H152879   4.342   6.750  16.598 -0.7720 -0.1276  0.3243
10488TIP3    H252880   4.203   6.725  16.543 -0.5336  1.4904 -1.0900
10489TIP3   OH252881   4.283   3.216   4.059 -0.3795  0.0559  0.5591
10489TIP3    H152882   4.237   3.232   3.977 -0.1046 -0.1319  0.3657
10489TIP3    H252883   4.283   3.300   4.104  1.9919  0.9403 -0.9014
10490TIP3   OH252884   1.977   1.693  11.234 -0.5675 -0.2898  0.0641
10490TIP3    H152885   1.955   1.636  11.308  0.4215 -1.3738 -0.4412
10490TIP3    H252886   1.970   1.636  11.157  0.4846  0.2349 -0.4460
10491TIP3   OH252887   6.104   3.883  13.766 -0.1747 -0.3242  0.7703
10491TIP3    H152888   6.184   3.842  13.731 -0.3640 -0.5408  0.5881
10491TIP3    H252889   6.033   3.842  13.717 -0.4418 -0.5914  1.3783
10492TIP3   OH252890   3.990   3.573  15.844  0.0251 -0.0284  0.4713
10492TIP3    H152891   3.956   3.486  15.861 -0.4377  0.0938  0.1908
10492TIP3    H252892   4.058   3.560  15.777 -1.6023  0.0695 -1.2977
10493TIP3   OH252893   0.343   0.946   6.129 -0.3552 -0.4160  0.1007
10493TIP3    H152894   0.324   1.022   6.184  0.4082 -0.7250  0.8017
10493TIP3    H252895   0.422   0.908   6.167 -0.6630 -1.4946 -0.3108
10494TIP3   OH252896   1.730   2.901   0.930 -0.1349 -0.1336 -0.3110
10494TIP3    H152897   1.811   2.913   0.979 -1.0994 -0.5810  1.4605
10494TIP3    H252898   1.687   2.987   0.933 -0.3249 -0.2344 -0.1194
10495TIP3   OH252899   4.943   4.940  17.085 -0.1214 -0.2428 -0.0150
10495TIP3    H152900   5.031   4.921  17.118  0.2883 -0.6798 -1.2847
10495TIP3    H252901   4.953   5.022  17.036 -0.6373  0.2107  0.6248
10496TIP3   OH252902   4.360   4.513   0.802  0.3195  0.2035  0.5985
10496TIP3    H152903   4.368   4.421   0.778  2.1504  0.4585  0.1075
10496TIP3    H252904   4.322   4.554   0.724  0.6277  0.0559  0.3687
10497TIP3   OH252905   0.770   3.656   4.763  0.4388 -0.1853  0.5811
10497TIP3    H152906   0.813   3.585   4.716  0.9958  0.2889  0.3572
10497TIP3    H252907   0.778   3.632   4.855  1.9275  0.2735  0.6078
10498TIP3   OH252908   0.889   2.609  14.819  0.2597  0.1619 -0.1503
10498TIP3    H152909   0.892   2.690  14.871  0.7465  0.6960 -0.9907
10498TIP3    H252910   0.908   2.540  14.883  0.3272  0.7522  0.4873
10499TIP3   OH252911   5.812   0.206   0.490 -0.7797 -0.3163  0.3936
10499TIP3    H152912   5.742   0.242   0.545  0.7053  1.2925  1.3285
10499TIP3    H252913   5.892   0.222   0.540  0.5745  0.5428 -1.9165
10500TIP3   OH252914   5.789   0.557   0.784  0.5821 -0.7767 -0.5489
10500TIP3    H152915   5.722   0.624   0.769  1.5165 -0.0349 -1.4962
10500TIP3    H252916   5.808   0.563   0.878 -1.1019 -1.4444 -0.1064
10501TIP3   OH252917   4.080   0.989  10.947  0.3227  0.4105 -0.2471
10501TIP3    H152918   4.148   1.036  10.994 -0.1495  1.2158 -0.3477
10501TIP3    H252919   4.090   0.897  10.975 -0.8716  1.0359  2.6207
10502TIP3   OH252920   5.483   4.302   4.175 -0.2391  0.3378  0.2656
10502TIP3    H152921   5.435   4.384   4.188 -1.1918 -0.2289  0.3726
10502TIP3    H252922   5.467   4.279   4.084 -0.7378 -0.2014  0.4835
10503TIP3   OH252923   1.916   3.872   4.175  0.3832  0.3836  0.4521
10503TIP3    H152924   1.967   3.795   4.200 -0.0279  0.4092  1.4169
10503TIP3    H252925   1.836   3.866   4.228 -0.5067  0.4853 -0.8235
10504TIP3   OH252926   0.168   5.787  12.466  0.5631  0.0672  0.1536
10504TIP3    H152927   0.164   5.876  12.500  1.3359  0.4749 -0.7746
10504TIP3    H252928   0.230   5.741  12.523 -0.9334 -0.3316  1.5512
10505TIP3   OH252929   0.182   5.685   0.232  0.0786 -0.3984  0.0588
10505TIP3    H152930   0.177   5.711   0.324 -2.2335 -0.0320 -0.1232
10505TIP3    H252931   0.162   5.766   0.184  2.1360 -0.3596 -0.8462
10506TIP3   OH252932   2.991   2.663   5.771 -0.3173 -0.0660 -0.3704
10506TIP3    H152933   2.933   2.692   5.841 -0.0632 -0.2439 -0.0818
10506TIP3    H252934   2.962   2.711   5.693  1.6672  2.9609  0.5862
10507TIP3   OH252935   4.190   4.760   4.237 -0.5761  0.1574  0.0414
10507TIP3    H152936   4.233   4.715   4.310 -0.9096 -0.6039 -0.2235
10507TIP3    H252937   4.099   4.769   4.265 -0.5262  0.6239  0.0656
10508TIP3   OH252938   6.754   6.448  14.975  0.6642 -0.6021 -0.1387
10508TIP3    H152939   6.770   6.477  15.065  2.1843 -1.2957 -0.1568
10508TIP3    H252940   6.758   6.528  14.923  1.6499 -0.4094  0.2009
10509TIP3   OH252941   2.667   2.413   3.145  0.1011 -0.6143  0.1681
10509TIP3    H152942   2.612   2.381   3.074 -1.4102 -0.9340  1.4175
10509TIP3    H252943   2.610   2.411   3.222  1.8300 -0.8222  1.5110
10510TIP3   OH252944   4.132   2.697  15.061  0.2336 -0.5672  0.5381
10510TIP3    H152945   4.173   2.612  15.079 -0.0667 -0.3727  2.2656
10510TIP3    H252946   4.050   2.695  15.110 -2.1969 -1.1176 -3.1308
10511TIP3   OH252947   6.113   0.774  11.236  0.2680  0.3425  0.1796
10511TIP3    H152948   6.168   0.729  11.300  1.3353 -0.4737 -1.2581
10511TIP3    H252949   6.027   0.781  11.278  0.7682 -0.7633  1.4315
10512TIP3   OH252950   1.082   2.303  17.210  0.2302 -0.8870 -0.2806
10512TIP3    H152951   1.089   2.328  17.302  0.2332  1.7445 -0.9147
10512TIP3    H252952   1.152   2.239  17.197  0.7215 -0.7171  1.3717
10513TIP3   OH252953   1.851   3.939  13.769  0.3927 -0.5367  0.0826
10513TIP3    H152954   1.863   3.848  13.798 -1.4763 -1.2312 -1.1490
10513TIP3    H252955   1.782   3.973  13.825  1.4900  0.3617  0.9354
10514TIP3   OH252956   2.533   5.376  15.596 -0.3496  0.5898 -0.2188
10514TIP3    H152957   2.488   5.460  15.583 -1.0363  0.5384  1.5222
10514TIP3    H252958   2.482   5.333  15.665  0.2890 -1.0525 -0.7404
10515TIP3   OH252959   4.991   3.233  16.728 -0.7455 -0.3678 -0.2788
10515TIP3    H152960   4.927   3.163  16.712 -0.8134 -0.5719  0.8162
10515TIP3    H252961   4.943   3.298  16.778 -0.1876 -0.3684  0.2667
10516TIP3   OH252962   2.187   4.524   6.286  0.0384 -0.2082  0.2318
10516TIP3    H152963   2.114   4.559   6.337  1.1761 -1.2623  2.7287
10516TIP3    H252964   2.171   4.556   6.197 -3.8972 -1.0702  0.4348
10517TIP3   OH252965   6.617   2.537   3.898 -0.4505 -0.1620 -0.0632
10517TIP3    H152966   6.710   2.558   3.907 -0.0415 -0.6802 -2.5532
10517TIP3    H252967   6.575   2.591   3.965  1.6247  0.0462  1.1650
10518TIP3   OH252968   6.387   2.579  13.564 -0.8594 -0.0757  0.3113
10518TIP3    H152969   6.451   2.596  13.494 -0.3858 -2.9212 -0.0995
10518TIP3    H252970   6.440   2.566  13.642 -1.1869  0.6118  0.6464
10519TIP3   OH252971   0.603   4.328  12.613  0.3144 -0.1666 -0.3800
10519TIP3    H152972   0.662   4.255  12.593  0.9135  0.5452 -1.3636
10519TIP3    H252973   0.523   4.309  12.564  0.1925 -0.5221 -0.0437
10520TIP3   OH252974   2.620   5.668   4.680  0.2174 -0.4344  0.0163
10520TIP3    H152975   2.577   5.601   4.627  0.4978 -1.3898  0.9666
10520TIP3    H252976   2.704   5.683   4.636 -0.9923  1.4717 -1.8725
10521TIP3   OH252977   1.037   2.982  15.965 -0.1393 -0.2236  0.6257
10521TIP3    H152978   0.958   3.029  15.991 -0.0501  0.0030  0.4896
10521TIP3    H252979   1.073   3.034  15.894 -1.5129 -1.9339 -1.4548
10522TIP3   OH252980   4.548   4.000   6.438  0.2037 -0.5368  0.1985
10522TIP3    H152981   4.471   4.056   6.424  1.8757  1.9732  0.3587
10522TIP3    H252982   4.552   3.944   6.361 -1.4540 -0.3446 -0.0604
10523TIP3   OH252983   5.371   1.891  15.783  0.5780  0.2397  0.0851
10523TIP3    H152984   5.434   1.883  15.712 -0.1114 -3.0771 -0.3384
10523TIP3    H252985   5.381   1.809  15.833 -0.9812  1.1681  2.0801
10524TIP3   OH252986   5.336   1.281  14.063 -0.2865 -0.1887  0.0478
10524TIP3    H152987   5.275   1.243  14.126 -0.1097  0.1743  0.4387
10524TIP3    H252988   5.380   1.205  14.024  0.8896 -0.3754  1.6334
10525TIP3   OH252989   5.162   6.083  16.028  0.2367  0.6640 -0.4861
10525TIP3    H152990   5.143   6.012  15.966  0.5588  1.4996 -1.5857
10525TIP3    H252991   5.214   6.042  16.096 -2.0325 -0.8001  0.4800
10526TIP3   OH252992   6.488   4.424  11.672  0.3384  0.3878 -0.5168
10526TIP3    H152993   6.453   4.419  11.761  1.7845 -1.6005  0.0244
10526TIP3    H252994   6.580   4.400  11.681  0.7558  1.0530 -2.4479
10527TIP3   OH252995   0.287   1.271   4.093 -0.0360  0.2086  0.5694
10527TIP3    H152996   0.286   1.333   4.166  2.1323 -0.7458  1.4966
10527TIP3    H252997   0.293   1.326   4.015 -2.2895  1.2440  1.0472
10528TIP3   OH252998   5.754   3.674  16.826 -0.0340 -0.6955  0.2791
10528TIP3    H152999   5.671   3.627  16.811 -0.5052 -0.0850  0.9006
10528TIP3    H253000   5.740   3.720  16.908  0.8150 -0.3203  0.2169
10529TIP3   OH253001   0.702   5.057  14.377  0.3201 -0.1934  0.2389
10529TIP3    H153002   0.780   5.028  14.330 -0.6023  0.6712 -1.9799
10529TIP3    H253003   0.645   4.980  14.380  0.0336 -0.0481 -0.9101
10530TIP3   OH253004   5.521   6.304   1.846  0.0753 -0.6042  0.1742
10530TIP3    H153005   5.580   6.329   1.918  0.4537 -4.0626  1.2740
10530TIP3    H253006   5.437   6.288   1.888 -0.4154 -0.1790 -0.6203
10531TIP3   OH253007   3.640   3.756   3.510 -0.0775 -0.3555 -0.2577
10531TIP3    H153008   3.680   3.837   3.479  0.7110 -0.5052  0.3219
10531TIP3    H253009   3.696   3.728   3.583 -0.4143 -1.3428 -0.3553
10532TIP3   OH253010   6.211   2.367   3.554  0.5784  0.1539 -0.1259
10532TIP3    H153011   6.123   2.392   3.525 -0.4067 -1.2001  1.4965
10532TIP3    H253012   6.263   2.366   3.474 -0.8664  1.0113 -1.1310
10533TIP3   OH253013   2.760   6.020   0.646  0.3164  0.1245  0.3167
10533TIP3    H153014   2.734   6.074   0.720  1.4142  2.8520 -1.1437
10533TIP3    H253015   2.854   6.010   0.655  0.2506 -0.7940  0.0608
10534TIP3   OH253016   1.568   2.759   5.792  0.4616 -0.5760 -0.4071
10534TIP3    H153017   1.513   2.737   5.716 -0.6125  0.0686  0.1564
10534TIP3    H253018   1.643   2.700   5.785 -1.6167 -3.5673  0.3050
10535TIP3   OH253019   6.254   4.524  12.610  0.1441 -0.1963  0.0647
10535TIP3    H153020   6.171   4.550  12.650  0.3925 -0.2491  0.6243
10535TIP3    H253021   6.239   4.437  12.575 -0.2050  0.0270 -0.3457
10536TIP3   OH253022   6.360   0.183  13.108 -0.3657  0.0254 -0.0268
10536TIP3    H153023   6.306   0.185  13.030 -0.6088 -0.9154  0.1083
10536TIP3    H253024   6.324   0.112  13.161  0.5532 -0.1524  0.3897
10537TIP3   OH253025   4.398   4.704   1.315 -0.3081 -0.1437  0.5322
10537TIP3    H153026   4.348   4.676   1.392  0.4248  1.2845  1.5680
10537TIP3    H253027   4.487   4.674   1.332 -0.1748  0.0493  0.1791
10538TIP3   OH253028   1.598   3.295  13.323  0.1333 -0.2658 -0.2076
10538TIP3    H153029   1.639   3.276  13.407  0.6804 -0.6474 -0.5548
10538TIP3    H253030   1.669   3.329  13.269 -0.2288  0.0332 -0.5033
10539TIP3   OH253031   2.019   0.757  15.669 -0.3292  0.0907  0.1576
10539TIP3    H153032   1.930   0.756  15.634  0.4856 -0.8402 -2.0508
10539TIP3    H253033   2.032   0.848  15.697 -1.5305  0.5707 -0.7475
10540TIP3   OH253034   2.906   4.418   3.795 -0.2562  0.2585  0.1461
10540TIP3    H153035   2.959   4.366   3.855 -1.0133  1.3719  1.8855
10540TIP3    H253036   2.932   4.389   3.708 -0.4856 -2.8509  0.9915
10541TIP3   OH253037   6.015   5.667   0.106  0.1353 -0.2104  0.1047
10541TIP3    H153038   6.110   5.672   0.108  0.1389  0.1587 -0.6771
10541TIP3    H253039   5.995   5.574   0.116  0.5946 -0.3417 -0.1721
10542TIP3   OH253040   4.007   2.285   2.199  0.3755  1.0009 -0.2507
10542TIP3    H153041   3.962   2.367   2.181 -0.3957  0.3471 -1.4157
10542TIP3    H253042   4.005   2.238   2.116  1.7870  0.2614  0.1041
10543TIP3   OH253043   0.489   5.087   0.592 -0.3095 -0.4807 -0.2022
10543TIP3    H153044   0.416   5.067   0.650 -0.8618 -1.9005 -1.3159
10543TIP3    H253045   0.558   5.026   0.617 -0.3647 -0.7446 -0.6703
10544TIP3   OH253046   4.670   0.612   3.331 -0.4020 -0.7107 -0.2435
10544TIP3    H153047   4.706   0.667   3.401 -0.4431 -0.3110 -0.5375
10544TIP3    H253048   4.588   0.578   3.367 -0.5461 -0.3081 -0.1843
10545TIP3   OH253049   6.277   1.386  12.838  0.3509 -0.0693 -0.2547
10545TIP3    H153050   6.224   1.465  12.853  0.6997  0.0868  0.1906
10545TIP3    H253051   6.345   1.415  12.778  1.9260  0.6444  1.7316
10546TIP3   OH253052   2.769   3.486  12.729 -0.0929  0.3241 -0.0093
10546TIP3    H153053   2.836   3.530  12.676  1.8657 -1.0477  1.2291
10546TIP3    H253054   2.750   3.405  12.682 -1.4208  0.9582 -0.6611
10547TIP3   OH253055   4.917   3.767   4.119 -0.5866 -0.5080  0.0185
10547TIP3    H153056   4.938   3.792   4.029 -0.1261 -0.5825  0.1029
10547TIP3    H253057   4.844   3.824   4.143 -0.0227  0.2705 -0.0473
10548TIP3   OH253058   5.716   6.711   1.511  0.0865 -0.1026 -0.1683
10548TIP3    H153059   5.765   6.654   1.452  0.0088 -1.2562  0.8533
10548TIP3    H253060   5.719   6.667   1.596 -2.2716  0.0304  0.0555
10549TIP3   OH253061   4.291   0.236  17.177  0.4379  0.2182 -0.0664
10549TIP3    H153062   4.238   0.221  17.255  1.9526  0.1961  0.9948
10549TIP3    H253063   4.343   0.156  17.168  2.2350  1.2688  0.5255
10550TIP3   OH253064   6.003   6.569  13.454 -0.3764 -0.0966  0.6404
10550TIP3    H153065   6.071   6.568  13.522  2.0348 -1.5476 -1.6040
10550TIP3    H253066   5.967   6.480  13.455 -1.4319  0.3214  0.9938
10551TIP3   OH253067   0.907   0.782   1.444  0.1231  0.6324  0.2675
10551TIP3    H153068   0.890   0.728   1.367 -0.7692  0.5205  0.5264
10551TIP3    H253069   0.983   0.742   1.486 -1.0327 -0.9946  0.9297
10552TIP3   OH253070   1.101   5.558  14.636  0.1659  0.0487  0.1707
10552TIP3    H153071   1.157   5.598  14.568  0.6551 -0.1534  0.4468
10552TIP3    H253072   1.034   5.624  14.652 -0.1630 -0.0414 -0.7576
10553TIP3   OH253073   1.557   1.927   5.927 -0.3635 -0.4213 -0.6844
10553TIP3    H153074   1.534   1.903   6.017 -1.3674 -0.5729 -0.9680
10553TIP3    H253075   1.652   1.942   5.929 -0.4200 -0.1592  0.4539
10554TIP3   OH253076   3.578   1.399  16.505  0.2679  0.5661  0.3405
10554TIP3    H153077   3.544   1.479  16.544 -0.6696  0.0604  0.6180
10554TIP3    H253078   3.507   1.335  16.517  0.0540  0.2906 -1.8851
10555TIP3   OH253079   6.214   0.855   1.667  0.0733 -0.3909 -0.5482
10555TIP3    H153080   6.142   0.916   1.652  1.2563  1.0425 -0.7289
10555TIP3    H253081   6.250   0.881   1.752 -0.1139 -1.6215 -0.0788
10556TIP3   OH253082   2.800   6.125   2.529 -0.1150  0.2060  0.2357
10556TIP3    H153083   2.822   6.107   2.620  1.1847 -0.3661 -0.1618
10556TIP3    H253084   2.814   6.041   2.484  0.2845  0.7301 -0.6619
10557TIP3   OH253085   1.539   3.684  14.814  0.6438 -0.2547 -0.0641
10557TIP3    H153086   1.509   3.720  14.897 -1.3216  0.4157 -0.9984
10557TIP3    H253087   1.595   3.753  14.777  2.1572 -0.8711  1.0073
10558TIP3   OH253088   5.205   6.253  13.647  0.5217  0.2419 -0.2759
10558TIP3    H153089   5.180   6.341  13.617  1.0261  1.0014  1.3924
10558TIP3    H253090   5.251   6.269  13.730 -1.9415 -1.7714  1.6481
10559TIP3   OH253091   2.615   2.576   3.906 -0.2681 -0.0477 -0.5896
10559TIP3    H153092   2.542   2.517   3.925  0.2707 -0.7152 -0.5348
10559TIP3    H253093   2.628   2.567   3.811 -1.2143  1.2255 -0.8750
10560TIP3   OH253094   1.394   4.805   6.417  0.2177 -0.7594  0.2915
10560TIP3    H153095   1.471   4.857   6.395 -1.3277  0.7023 -2.1214
10560TIP3    H253096   1.412   4.719   6.379  0.5748 -0.3440 -0.5083
10561TIP3   OH253097   4.214   5.360   6.282  0.1979 -1.0168 -0.0127
10561TIP3    H153098   4.148   5.333   6.218 -0.4163  0.6643 -0.1497
10561TIP3    H253099   4.297   5.334   6.242 -0.1405  0.3443 -1.7426
10562TIP3   OH253100   0.648   6.448   3.110  1.1008 -0.1798  0.1621
10562TIP3    H153101   0.669   6.428   3.019  3.5793  1.9728  0.1600
10562TIP3    H253102   0.611   6.366   3.144 -1.6122 -0.5537 -3.1357
10563TIP3   OH253103   5.408   4.832  12.401  0.2191 -0.4914  0.1133
10563TIP3    H153104   5.402   4.740  12.375  1.6565 -0.3260 -0.9100
10563TIP3    H253105   5.453   4.875  12.329  0.0688  0.9278  0.8198
10564TIP3   OH253106   6.124   2.785  16.906  0.5693  0.4794  0.0550
10564TIP3    H153107   6.186   2.719  16.936 -0.3005  0.1069  1.1341
10564TIP3    H253108   6.076   2.811  16.985 -0.1355  1.3047 -0.6086
10565TIP3   OH253109   0.995   0.985   0.015 -0.0707  0.3132  0.5441
10565TIP3    H153110   1.030   0.903   0.049  1.5717  1.0943  0.8651
10565TIP3    H253111   1.011   1.049   0.084  0.0175  1.1973 -0.2668
10566TIP3   OH253112   2.399   6.598   2.284  0.1905 -0.5750 -0.0373
10566TIP3    H153113   2.387   6.657   2.209 -1.0335  1.4762  1.6440
10566TIP3    H253114   2.492   6.606   2.306  0.3765 -0.5409 -0.7983
10567TIP3   OH253115   1.126   4.384  11.826  0.3268  0.1120 -0.4582
10567TIP3    H153116   1.213   4.394  11.786 -0.0665  0.2982 -1.2936
10567TIP3    H253117   1.135   4.310  11.885  0.8561 -0.3589 -1.1166
10568TIP3   OH253118   0.383   4.848   0.325 -0.4394 -0.3535  0.0742
10568TIP3    H153119   0.477   4.865   0.330 -0.5621  0.0101  1.8213
10568TIP3    H253120   0.370   4.768   0.376 -0.9763 -0.9590 -0.9721
10569TIP3   OH253121   4.048   1.208  15.924 -0.3653 -0.5479 -0.4344
10569TIP3    H153122   4.089   1.233  16.007 -0.2886 -2.8330  0.2887
10569TIP3    H253123   3.967   1.260  15.921  0.8322  1.4343 -0.2140
10570TIP3   OH253124   4.858   0.473  14.238 -0.0814 -0.2032  0.1768
10570TIP3    H153125   4.875   0.385  14.204  1.0903  0.9639 -2.5498
10570TIP3    H253126   4.799   0.513  14.174  1.0193  1.6463  0.2319
10571TIP3   OH253127   6.101   2.235   5.874  0.1415  0.3331  0.4481
10571TIP3    H153128   6.057   2.189   5.802  0.5413  0.2838  0.2270
10571TIP3    H253129   6.136   2.165   5.929  0.8242  0.3581  0.0658
10572TIP3   OH253130   3.184   1.954  15.975  0.3734  0.2160  0.2989
10572TIP3    H153131   3.096   1.971  16.008  0.7577  2.0886  0.4596
10572TIP3    H253132   3.242   1.974  16.049  0.9441 -1.6647  0.4283
10573TIP3   OH253133   3.107   2.134  15.248 -0.0237 -0.2413 -0.3783
10573TIP3    H153134   3.068   2.131  15.161  0.2358  0.6480 -0.5432
10573TIP3    H253135   3.048   2.083  15.303 -1.3178  0.8911 -0.6630
10574TIP3   OH253136   0.571   0.127   6.096  0.2491 -0.0930 -0.3873
10574TIP3    H153137   0.554   0.050   6.042 -1.3979  0.4365 -0.6681
10574TIP3    H253138   0.516   0.116   6.173  0.1431  0.7089 -0.3386
10575TIP3   OH253139   5.466   5.440   1.077  0.2517 -0.0848 -0.1644
10575TIP3    H153140   5.383   5.445   1.030  0.7804 -1.1078 -1.2597
10575TIP3    H253141   5.459   5.361   1.130  0.4079  0.0061 -0.0058
10576TIP3   OH253142   6.214   5.577   2.077  0.4148  0.0938 -0.4960
10576TIP3    H153143   6.177   5.574   1.989  0.8328  0.2894 -0.6822
10576TIP3    H253144   6.169   5.507   2.124 -1.5548  1.5074 -0.1676
10577TIP3   OH253145   1.177   4.043   1.570 -0.2408 -0.5600  0.2832
10577TIP3    H153146   1.171   4.025   1.664 -0.4421  0.0983  0.4020
10577TIP3    H253147   1.116   4.116   1.556 -0.0798 -0.5412 -0.3273
10578TIP3   OH253148   2.445   2.320  11.543  0.0368 -0.5735  0.5257
10578TIP3    H153149   2.410   2.403  11.575  1.8011 -0.5023  2.5052
10578TIP3    H253150   2.464   2.335  11.451 -1.6449  0.5072  0.3229
10579TIP3   OH253151   2.089   4.145  15.593  0.3024  0.1607 -0.0746
10579TIP3    H153152   2.112   4.237  15.582 -1.2068  0.8225  1.6726
10579TIP3    H253153   2.164   4.097  15.557  1.0046  2.0430 -1.2824
10580TIP3   OH253154   6.436   6.714  11.690 -0.1032 -0.2098  0.2259
10580TIP3    H153155   6.499   6.673  11.750 -0.1515  0.3294  0.6457
10580TIP3    H253156   6.489   6.773  11.637  0.6184 -3.1586 -2.7192
10581TIP3   OH253157   3.333   2.190   1.145  0.3583 -0.6636 -1.0813
10581TIP3    H153158   3.310   2.177   1.053 -1.9828 -1.6018 -0.4444
10581TIP3    H253159   3.270   2.136   1.193  2.6186 -1.6265  1.0421
10582TIP3   OH253160   1.094   6.049  12.142  0.2586  0.0992  0.3571
10582TIP3    H153161   1.015   6.098  12.121  0.9307  1.3419  0.6027
10582TIP3    H253162   1.070   5.995  12.218 -0.7965 -0.7989 -0.5740
10583TIP3   OH253163   6.717   0.264   0.164  0.2554 -0.3668  0.3615
10583TIP3    H153164   6.650   0.322   0.200  0.0035 -0.4850  0.0887
10583TIP3    H253165   6.796   0.282   0.216  0.4780  0.9791 -0.4086
10584TIP3   OH253166   1.179   3.872   3.729 -0.1470 -0.0719  0.1877
10584TIP3    H153167   1.183   3.777   3.743 -0.0204 -0.4618 -2.0165
10584TIP3    H253168   1.169   3.881   3.634 -1.1811  2.1199  0.4526
10585TIP3   OH253169   5.147   6.140  15.676 -0.3645 -0.4753 -0.1293
10585TIP3    H153170   5.098   6.213  15.715  1.0774  0.6143 -0.2316
10585TIP3    H253171   5.120   6.063  15.726 -1.4426  0.2374  0.4342
10586TIP3   OH253172   0.504   1.398  13.352 -0.1844 -0.1229 -0.4229
10586TIP3    H153173   0.477   1.319  13.306 -1.1346 -0.7784  1.1858
10586TIP3    H253174   0.450   1.467  13.315 -1.0702 -0.6725 -0.1798
10587TIP3   OH253175   0.826   2.822  16.785  0.0026  0.2359  0.0829
10587TIP3    H153176   0.894   2.828  16.717 -0.4910 -0.1615 -0.4580
10587TIP3    H253177   0.874   2.798  16.864  0.4949 -0.0485 -0.2935
10588TIP3   OH253178   6.645   6.581  16.760 -0.0132  0.4346 -0.5510
10588TIP3    H153179   6.564   6.575  16.811 -0.5086 -0.8421 -1.4283
10588TIP3    H253180   6.666   6.675  16.759 -0.5421  0.5949  1.0941
10589TIP3   OH253181   5.164   0.421   2.205 -0.0503  0.3117 -0.0662
10589TIP3    H153182   5.128   0.399   2.118  1.8450  0.4456 -0.9349
10589TIP3    H253183   5.169   0.516   2.205 -2.9710  0.5953  1.4997
10590TIP3   OH253184   4.988   3.484  16.528 -0.1089  0.5990 -0.5941
10590TIP3    H153185   5.041   3.406  16.510 -0.6266  0.1552 -0.2193
10590TIP3    H253186   4.900   3.461  16.498 -0.3384  0.9126 -0.1760
10591TIP3   OH253187   1.629   2.194  14.631 -0.1959 -0.0048 -0.3402
10591TIP3    H153188   1.709   2.167  14.586 -0.0427 -0.2086  0.0469
10591TIP3    H253189   1.558   2.153  14.582  0.0121 -0.8312  0.0369
10592TIP3   OH253190   0.579   2.626   4.871 -0.0367 -0.0727 -1.0939
10592TIP3    H153191   0.519   2.620   4.797 -0.1355  0.9287 -1.1052
10592TIP3    H253192   0.527   2.662   4.942  0.0835 -0.9387 -0.5507
10593TIP3   OH253193   0.358   1.104  12.526 -0.2962  0.1888 -0.1363
10593TIP3    H153194   0.319   1.187  12.497 -0.6312 -0.7363 -2.6354
10593TIP3    H253195   0.301   1.037  12.488  0.4193 -1.1953  1.1475
10594TIP3   OH253196   5.820   2.332   6.172 -0.7698  0.6411  0.0325
10594TIP3    H153197   5.800   2.292   6.087 -3.0933  0.9426  0.3585
10594TIP3    H253198   5.809   2.426   6.156  1.9803  1.0341 -0.0607
10595TIP3   OH253199   0.833   6.424   3.665 -0.0260 -0.4685  0.1677
10595TIP3    H153200   0.784   6.350   3.702 -1.3107  0.7798  1.0978
10595TIP3    H253201   0.794   6.437   3.578  0.5603 -1.1961 -0.2095
10596TIP3   OH253202   6.150   5.552   0.429 -0.4035  0.1914  0.1246
10596TIP3    H153203   6.162   5.514   0.516  0.8894  2.0807  0.8217
10596TIP3    H253204   6.056   5.568   0.422 -0.4097  0.8859  1.5619
10597TIP3   OH253205   1.554   4.205  13.301 -0.5153  0.4175  0.4490
10597TIP3    H153206   1.585   4.179  13.214 -0.7405  0.1333  0.4532
10597TIP3    H253207   1.486   4.270  13.284 -0.4208  0.5076  0.4180
10598TIP3   OH253208   3.456   2.288  13.890  0.8632  0.1453  1.2172
10598TIP3    H153209   3.443   2.221  13.957  0.3450 -0.1126  0.8602
10598TIP3    H253210   3.545   2.272  13.858  0.6931 -0.4625  1.0320
10599TIP3   OH253211   4.629   4.661  16.076  0.2059  0.1122  0.1154
10599TIP3    H153212   4.698   4.602  16.108 -1.6473 -2.0265  0.3940
10599TIP3    H253213   4.580   4.607  16.014 -0.4867  1.9934 -1.0392
10600TIP3   OH253214   4.830   4.523  14.123 -0.2360  0.0977 -0.2326
10600TIP3    H153215   4.921   4.543  14.143 -0.4823  1.6637 -0.5512
10600TIP3    H253216   4.831   4.497  14.031  0.2284 -2.5507  0.4324
10601TIP3   OH253217   5.755   1.955  15.526 -0.5629 -0.0950  0.4984
10601TIP3    H153218   5.794   1.965  15.612 -1.3454 -1.1153  0.9886
10601TIP3    H253219   5.663   1.933  15.543 -0.9507  0.5277 -0.6039
10602TIP3   OH253220   5.301   6.571  12.940 -0.2924 -0.2865 -0.2843
10602TIP3    H153221   5.321   6.607  13.027 -0.7819 -1.7754  0.4818
10602TIP3    H253222   5.233   6.629  12.905  2.1097  2.2728 -1.1052
10603TIP3   OH253223   6.430   6.378  16.339  0.8786 -0.1060 -0.7559
10603TIP3    H153224   6.466   6.456  16.380  2.0717 -0.0646 -1.8230
10603TIP3    H253225   6.371   6.411  16.272  0.6217 -0.1386 -0.5471
10604TIP3   OH253226   1.463   2.227  14.233 -0.1437  0.0501  0.6449
10604TIP3    H153227   1.426   2.257  14.316 -1.1098 -1.2709  0.7187
10604TIP3    H253228   1.403   2.260  14.166 -1.5790 -2.1395  0.7674
10605TIP3   OH253229   3.488   6.055  16.089  0.3727 -0.0650  0.2201
10605TIP3    H153230   3.476   6.058  16.184 -0.7650  0.2901  0.0799
10605TIP3    H253231   3.428   6.121  16.055  1.9437  0.9950 -0.6591
10606TIP3   OH253232   1.096   3.158  11.954  0.1645 -0.1620  0.6308
10606TIP3    H153233   1.115   3.235  11.901 -1.2516 -0.5423 -0.4664
10606TIP3    H253234   1.060   3.194  12.036 -1.0908  0.3539 -0.1204
10607TIP3   OH253235   3.356   0.349  16.587  0.1846  0.7126  0.4185
10607TIP3    H153236   3.363   0.364  16.493 -0.3619  2.8334  0.6618
10607TIP3    H253237   3.407   0.270  16.603 -0.5164 -0.2487 -1.7767
10608TIP3   OH253238   4.962   3.560   4.479  0.6257 -0.0171  0.0108
10608TIP3    H153239   4.870   3.585   4.470  0.1071 -2.4219 -2.5069
10608TIP3    H253240   5.010   3.624   4.426  0.1541 -0.0797 -0.4960
10609TIP3   OH253241   4.417   4.707  14.828  0.2164  0.4079  0.1593
10609TIP3    H153242   4.342   4.692  14.886 -1.9512 -0.6180 -2.7055
10609TIP3    H253243   4.483   4.645  14.858 -0.0072  1.2406  2.6716
10610TIP3   OH253244   4.158   1.952   4.218  0.0850  0.3536  0.2424
10610TIP3    H153245   4.087   1.959   4.282 -2.0286  0.1503 -1.9007
10610TIP3    H253246   4.196   2.040   4.214 -1.5056  1.0595 -0.0637
10611TIP3   OH253247   6.240   3.749  16.336  0.3481  0.1225  0.2145
10611TIP3    H153248   6.199   3.810  16.397  1.0091 -1.0676  1.9187
10611TIP3    H253249   6.240   3.665  16.382 -0.6820 -1.2563 -2.1112
10612TIP3   OH253250   5.351   3.247  17.078 -0.2151  0.3877 -0.6784
10612TIP3    H153251   5.281   3.207  17.130 -0.1753  0.8243 -0.2771
10612TIP3    H253252   5.351   3.338  17.106  0.0412  0.5503 -1.2032
10613TIP3   OH253253   5.232   4.195   3.017  0.0446 -0.5982 -0.3018
10613TIP3    H153254   5.142   4.168   3.036  0.4434 -0.9808  1.1841
10613TIP3    H253255   5.281   4.170   3.095  0.9952  1.8376 -0.0256
10614TIP3   OH253256   5.437   4.904  16.923 -0.2506  0.3594  0.7559
10614TIP3    H153257   5.403   4.948  16.845  0.4286 -1.1081 -0.4260
10614TIP3    H253258   5.492   4.969  16.966  0.9404  0.6299 -1.0727
10615TIP3   OH253259   5.486   1.905   0.759 -0.3117 -0.1746  0.2126
10615TIP3    H153260   5.399   1.906   0.720  0.0800 -1.2268 -0.7397
10615TIP3    H253261   5.473   1.937   0.848 -1.5503  0.3681 -0.1482
10616TIP3   OH253262   2.037   2.550   0.386  0.4226 -0.0659 -0.7604
10616TIP3    H153263   2.072   2.555   0.474  0.4123 -1.3571 -0.6525
10616TIP3    H253264   1.998   2.462   0.381 -2.5923  1.1402 -0.9271
10617TIP3   OH253265   0.380   3.467  15.151 -0.2252  0.5179  0.2701
10617TIP3    H153266   0.395   3.383  15.194 -1.7011 -0.0551 -0.2680
10617TIP3    H253267   0.286   3.470  15.136 -0.1876  2.2288  0.1573
10618TIP3   OH253268   5.778   5.887   3.767  0.6311  0.2248  0.0077
10618TIP3    H153269   5.751   5.852   3.683  0.7396  0.4037 -0.1021
10618TIP3    H253270   5.873   5.877   3.768  0.6872  0.7080 -0.1147
10619TIP3   OH253271   3.849   3.673   0.402 -0.1881 -0.4573  0.6689
10619TIP3    H153272   3.807   3.699   0.484  0.3018  0.3888  0.6646
10619TIP3    H253273   3.780   3.628   0.353 -0.2578 -1.7072  1.8713
10620TIP3   OH253274   4.516   0.780  14.636  0.1967  0.3805  0.7446
10620TIP3    H153275   4.445   0.752  14.578 -0.5816  0.9362  1.4161
10620TIP3    H253276   4.595   0.771  14.582 -0.6796  2.6722 -1.1038
10621TIP3   OH253277   0.698   4.941   0.704  0.1968 -0.1366 -0.3966
10621TIP3    H153278   0.781   4.946   0.657  0.4334  1.7249  0.1552
10621TIP3    H253279   0.665   4.853   0.684  2.0973 -0.7855 -0.9308
10622TIP3   OH253280   0.545   6.004   2.696  0.1545  0.4059  0.2841
10622TIP3    H153281   0.597   6.080   2.670  0.5992  0.0668  0.1897
10622TIP3    H253282   0.551   5.944   2.622  0.6924 -0.1827  0.7947
10623TIP3   OH253283   0.982   0.307  15.326  0.2049  0.1888 -0.6344
10623TIP3    H153284   0.981   0.398  15.357 -1.4822 -0.2103  0.6264
10623TIP3    H253285   0.902   0.269  15.362  0.8830 -1.8050 -1.1447
10624TIP3   OH253286   2.858   1.031   0.156  0.3973  0.3232 -0.3005
10624TIP3    H153287   2.914   1.022   0.080 -1.4466  0.8922 -1.8124
10624TIP3    H253288   2.775   1.063   0.121 -0.2440  1.4986  2.0593
10625TIP3   OH253289   4.523   1.794  13.456 -0.6848  0.3310 -0.0664
10625TIP3    H153290   4.564   1.838  13.382 -1.4000 -1.0138 -1.3162
10625TIP3    H253291   4.471   1.862  13.498 -0.0443  1.1846 -0.6232
10626TIP3   OH253292   2.701   1.569   6.811  0.3424 -0.1217 -0.3608
10626TIP3    H153293   2.731   1.480   6.830  0.5046 -0.0464 -0.2699
10626TIP3    H253294   2.613   1.556   6.774 -0.4936 -0.2299  1.5062
10627TIP3   OH253295   4.096   3.816  11.300 -0.1813  0.5457 -0.4382
10627TIP3    H153296   4.080   3.797  11.208  1.8573 -1.1986 -0.5225
10627TIP3    H253297   4.119   3.731  11.338  1.8700  1.6571  0.9972
10628TIP3   OH253298   3.974   0.866  12.734 -0.3814  0.7406 -0.3060
10628TIP3    H153299   3.951   0.931  12.668  0.5571  2.8288  1.2930
10628TIP3    H253300   3.892   0.847  12.779 -0.5580  1.3424 -0.3711
10629TIP3   OH253301   3.928   6.614  15.730  0.0803 -0.1571  0.1351
10629TIP3    H153302   3.857   6.619  15.666 -0.2913 -2.6618  0.2555
10629TIP3    H253303   3.887   6.635  15.814 -0.5383 -1.5053  0.1898
10630TIP3   OH253304   5.161   3.462  11.703  0.0280 -0.6093  0.0035
10630TIP3    H153305   5.190   3.546  11.666 -3.3142  0.1955 -1.1130
10630TIP3    H253306   5.139   3.482  11.794  2.4577 -1.1890  0.8080
10631TIP3   OH253307   2.067   5.836   3.872 -0.4196  0.1418  0.0303
10631TIP3    H153308   1.995   5.863   3.815 -1.0919  0.5091  1.0236
10631TIP3    H253309   2.077   5.742   3.856 -0.0661  0.3764 -1.2560
10632TIP3   OH253310   5.135   4.760  15.731 -0.4934 -0.3558  0.1222
10632TIP3    H153311   5.156   4.850  15.706 -0.2639 -0.0328  1.4051
10632TIP3    H253312   5.057   4.769  15.786 -0.3824 -0.9185  0.3724
10633TIP3   OH253313   1.248   4.149  11.102 -0.2245 -0.1654  0.0060
10633TIP3    H153314   1.242   4.191  11.017 -0.4202  0.3566  0.2690
10633TIP3    H253315   1.339   4.121  11.109 -0.6653 -2.1029 -1.2332
10634TIP3   OH253316   3.219   0.154  16.765 -0.2228  0.3231 -0.0018
10634TIP3    H153317   3.214   0.222  16.698  0.6987  0.2516 -0.1678
10634TIP3    H253318   3.299   0.175  16.814  0.3494 -0.8964 -0.3571
10635TIP3   OH253319   0.023   1.921  16.080  0.4295  0.1928 -0.3136
10635TIP3    H153320   0.057   1.836  16.051 -0.8108 -0.1906 -0.6734
10635TIP3    H253321   0.044   1.980  16.007  1.1370  0.1743 -0.1377
10636TIP3   OH253322   4.672   0.266   1.654  0.2347  0.3306  0.6472
10636TIP3    H153323   4.715   0.220   1.726 -0.5516 -2.1509 -0.3805
10636TIP3    H253324   4.679   0.359   1.678  3.7272 -0.0874  1.8049
10637TIP3   OH253325   3.614   0.976   1.077 -0.0009 -0.2885 -0.2995
10637TIP3    H153326   3.586   1.065   1.099  0.3769 -0.5272  1.3220
10637TIP3    H253327   3.617   0.975   0.982 -1.5720  0.9479 -0.4226
10638TIP3   OH253328   0.950   4.002  17.101 -0.2526 -0.0956 -0.1698
10638TIP3    H153329   0.986   4.015  17.013  2.9734 -0.3533  0.9839
10638TIP3    H253330   0.903   3.918  17.095 -0.5339  0.1373 -1.7334
10639TIP3   OH253331   0.970   2.203   4.463 -0.0914  0.1442  0.2169
10639TIP3    H153332   0.950   2.288   4.503 -0.1623 -1.0633  2.9643
10639TIP3    H253333   0.888   2.153   4.469  0.6015 -0.9459  0.9798
10640TIP3   OH253334   5.802   2.325  14.496 -0.1027 -0.0718  0.0136
10640TIP3    H153335   5.836   2.236  14.504  0.1713 -0.0421 -0.7241
10640TIP3    H253336   5.871   2.373  14.449  0.5547  0.9965  1.9537
10641TIP3   OH253337   6.517   4.816   1.562 -0.1007 -0.4537  0.1127
10641TIP3    H153338   6.450   4.758   1.525 -0.8485 -0.0148  0.7642
10641TIP3    H253339   6.512   4.895   1.509 -0.6208 -0.1317  0.6373
10642TIP3   OH253340   5.828   2.532   1.489  0.2318 -0.1830 -0.1873
10642TIP3    H153341   5.917   2.501   1.507  0.4030  0.2463 -0.2952
10642TIP3    H253342   5.837   2.626   1.473 -0.0892 -0.3007 -1.1773
10643TIP3   OH253343   1.026   4.767   4.368 -0.1040 -0.1591 -0.1313
10643TIP3    H153344   0.999   4.819   4.292 -1.4853 -0.4467  0.1336
10643TIP3    H253345   1.114   4.735   4.345 -0.6844 -0.6532 -1.8277
10644TIP3   OH253346   6.718   3.014   3.762  0.2159 -0.1156 -0.4258
10644TIP3    H153347   6.626   2.997   3.746  0.0355 -1.1341  1.4308
10644TIP3    H253348   6.750   3.053   3.680 -1.1595 -2.4832 -2.2115
10645TIP3   OH253349   1.593   2.713   2.667 -0.0474 -0.1798 -0.2858
10645TIP3    H153350   1.523   2.664   2.624  0.5401 -0.0211 -1.4625
10645TIP3    H253351   1.581   2.695   2.760 -0.9413 -1.0906 -0.5570
10646TIP3   OH253352   6.540   6.388   0.276  0.3723  0.6893  0.2587
10646TIP3    H153353   6.451   6.356   0.256  1.0376 -0.2355 -1.4488
10646TIP3    H253354   6.529   6.442   0.354 -1.9524  1.8313 -0.7661
10647TIP3   OH253355   0.452   4.209   0.962 -0.0451 -0.3296 -0.5843
10647TIP3    H153356   0.406   4.240   1.040 -0.6907  1.5103 -1.6222
10647TIP3    H253357   0.535   4.175   0.995 -0.1727  0.6821  0.8828
10648TIP3   OH253358   2.474   1.477  12.258  0.4536  0.4494 -0.1645
10648TIP3    H153359   2.448   1.388  12.232  0.0756  0.7751 -0.9355
10648TIP3    H253360   2.535   1.464  12.331  0.3339 -0.4391 -0.2118
10649TIP3   OH253361   1.638   1.914  13.449 -0.4469  0.5382  0.1517
10649TIP3    H153362   1.646   1.828  13.407 -1.6909  0.5464 -0.1378
10649TIP3    H253363   1.656   1.896  13.541  2.9252  0.6326 -0.3864
10650TIP3   OH253364   0.193   1.983   5.880  0.1048 -0.5598 -0.9011
10650TIP3    H153365   0.152   2.046   5.821  0.7169 -0.0589 -0.8076
10650TIP3    H253366   0.208   2.033   5.961  1.0067 -0.6901 -0.9781
10651TIP3   OH253367   1.423   5.544   4.809 -0.3474 -0.1257  0.1234
10651TIP3    H153368   1.406   5.457   4.845 -0.7855  0.0977  0.4715
10651TIP3    H253369   1.336   5.579   4.790 -0.2031  0.4433  0.4898
10652TIP3   OH253370   4.233   1.342  16.657  0.4753 -0.2737 -0.2619
10652TIP3    H153371   4.149   1.297  16.655  0.5366 -0.3767 -0.5660
10652TIP3    H253372   4.230   1.394  16.737  0.2474 -0.5164 -0.1096
10653TIP3   OH253373   1.085   3.632  14.648 -0.1282 -0.6581 -0.0732
10653TIP3    H153374   1.016   3.568  14.629 -2.6707  2.2888 -1.5711
10653TIP3    H253375   1.078   3.647  14.742 -1.5346 -0.4793 -0.1811
10654TIP3   OH253376   0.793   3.506   5.657  0.1092  0.4289  0.3081
10654TIP3    H153377   0.861   3.501   5.590  0.4504  0.5916  0.6368
10654TIP3    H253378   0.837   3.479   5.738 -1.0136 -2.7815 -0.0008
10655TIP3   OH253379   4.065   6.106   4.191  0.3816  0.1170 -0.4301
10655TIP3    H153380   3.972   6.113   4.168 -0.1226 -0.3128  1.3609
10655TIP3    H253381   4.088   6.192   4.224 -0.2634 -0.5909  2.0583
10656TIP3   OH253382   3.777   4.580   4.008  0.1436  0.0179  0.2034
10656TIP3    H153383   3.789   4.656   3.951 -0.4192  0.6062  0.8535
10656TIP3    H253384   3.767   4.617   4.096  1.5255 -0.8935  0.7897
10657TIP3   OH253385   1.824   4.300   2.863 -0.2823 -0.3018  0.2100
10657TIP3    H153386   1.858   4.310   2.774  1.0939  0.2766  0.7659
10657TIP3    H253387   1.819   4.389   2.898 -1.0380 -0.5008  0.6405
10658TIP3   OH253388   2.323   2.221   4.410  0.2615  0.3226 -0.4230
10658TIP3    H153389   2.251   2.269   4.370 -0.2849  0.8786  1.1603
10658TIP3    H253390   2.386   2.288   4.436  1.4791 -0.1714 -1.9799
10659TIP3   OH253391   1.213   4.627   3.275 -0.2298 -0.1790  0.4445
10659TIP3    H153392   1.196   4.549   3.327  0.4138 -0.4696  0.2314
10659TIP3    H253393   1.204   4.598   3.184  2.1226 -0.5602  0.2800
10660TIP3   OH253394   3.862   5.074  13.161  0.0341 -0.0542  0.1420
10660TIP3    H153395   3.776   5.109  13.135  0.2176 -0.4789 -1.0899
10660TIP3    H253396   3.923   5.112  13.098  0.5875 -0.6659  0.3072
10661TIP3   OH253397   5.943   3.300  14.534  0.0105  0.4607  0.1090
10661TIP3    H153398   5.849   3.316  14.546  0.2422  0.9343  1.5680
10661TIP3    H253399   5.949   3.242  14.459 -1.5883 -1.1023  1.1202
10662TIP3   OH253400   2.394   5.264  13.855 -0.0888 -0.4777  0.3587
10662TIP3    H153401   2.300   5.283  13.851 -0.0639 -0.3793  0.2524
10662TIP3    H253402   2.407   5.195  13.790  0.3681  1.3357 -1.5888
10663TIP3   OH253403   5.059   4.690   2.633 -0.1657 -0.3878 -0.1072
10663TIP3    H153404   5.007   4.723   2.707 -1.4373 -1.1840 -0.6109
10663TIP3    H253405   5.012   4.719   2.556 -0.7597 -2.4021 -0.5742
10664TIP3   OH253406   0.589   4.857   4.880  0.2139  0.4614  0.1171
10664TIP3    H153407   0.627   4.794   4.819 -0.3809  0.3773 -0.1759
10664TIP3    H253408   0.603   4.942   4.839  1.4269  0.5840  0.7270
10665TIP3   OH253409   1.761   0.686  14.674 -0.1507 -0.0092  0.0854
10665TIP3    H153410   1.718   0.702  14.757 -1.0071 -1.7625  0.0366
10665TIP3    H253411   1.692   0.694  14.608  0.0552 -0.6519 -0.2272
10666TIP3   OH253412   3.900   3.800  14.427  0.0172 -0.1492  0.3902
10666TIP3    H153413   3.816   3.845  14.431 -0.1373  0.0861 -2.7204
10666TIP3    H253414   3.897   3.736  14.499 -2.7210 -0.0019  0.5143
10667TIP3   OH253415   0.133   3.949  11.819  0.2483  0.3326  0.0808
10667TIP3    H153416   0.083   3.888  11.764 -0.4531  2.1441 -1.4133
10667TIP3    H253417   0.223   3.917  11.815 -0.2591 -1.2038  0.2473
10668TIP3   OH253418   6.059   6.050   3.492 -0.3068 -0.7468 -0.1881
10668TIP3    H153419   6.129   6.038   3.557 -0.2630  0.2620 -0.0270
10668TIP3    H253420   6.047   5.963   3.454  1.5949 -0.7902 -0.8026
10669TIP3   OH253421   3.964   1.134  16.287  0.2072  0.3997 -0.3949
10669TIP3    H153422   3.923   1.220  16.300  2.0284  1.1863  0.4552
10669TIP3    H253423   4.048   1.153  16.247  0.9089 -0.9429  0.3698
10670TIP3   OH253424   3.784   2.903   4.929  0.0951 -0.1617  0.2483
10670TIP3    H153425   3.756   2.833   4.988 -0.0540 -0.3194 -0.0033
10670TIP3    H253426   3.822   2.969   4.986 -1.1545  0.2320  0.6491
10671TIP3   OH253427   4.051   0.865   2.596  0.5171 -0.0827  0.5295
10671TIP3    H153428   4.071   0.953   2.563 -1.4154  0.0388 -0.4273
10671TIP3    H253429   4.095   0.806   2.534  1.9223  0.1705  1.2441
10672TIP3   OH253430   3.578   6.724  15.357  0.0181 -0.2978 -0.3590
10672TIP3    H153431   3.529   6.804  15.341 -0.8491 -0.8880 -0.7333
10672TIP3    H253432   3.582   6.681  15.272 -0.5020 -1.1777  0.0466
10673TIP3   OH253433   4.720   1.667   4.612 -0.0545  0.0263  0.0080
10673TIP3    H153434   4.687   1.749   4.648 -0.7283 -0.6453  0.9811
10673TIP3    H253435   4.668   1.652   4.533 -1.1904 -0.3480  0.7991
10674TIP3   OH253436   2.027   6.200   5.416 -0.4267 -0.0417  0.1599
10674TIP3    H153437   2.087   6.181   5.488 -0.5686 -1.8405 -0.1362
10674TIP3    H253438   2.065   6.276   5.372  0.5115  0.1123  1.1962
10675TIP3   OH253439   4.476   1.267   2.618  0.5284  0.5146 -0.2682
10675TIP3    H153440   4.393   1.312   2.632 -0.1329 -0.5153 -0.6653
10675TIP3    H253441   4.542   1.336   2.616  0.1116  1.1529  2.9494
10676TIP3   OH253442   0.327   2.739  12.234 -0.2130  0.0834  0.6201
10676TIP3    H153443   0.281   2.778  12.160  2.8404  0.6122 -1.1641
10676TIP3    H253444   0.321   2.645  12.220  0.6823  0.1832 -0.5974
10677TIP3   OH253445   2.652   2.443  14.130  0.3513  0.2745  0.3175
10677TIP3    H153446   2.647   2.348  14.120  0.6336  0.1889  0.9556
10677TIP3    H253447   2.570   2.467  14.173 -0.0915  0.4324 -0.5773
10678TIP3   OH253448   3.057   3.175   0.046  0.2427 -0.1749  0.2998
10678TIP3    H153449   2.965   3.169   0.072  0.3422 -1.2684  0.4770
10678TIP3    H253450   3.054   3.197  -0.047 -0.2106 -0.4365  0.2475
10679TIP3   OH253451   4.846   5.358   0.108 -0.7368  0.5064  0.2890
10679TIP3    H153452   4.811   5.298   0.174  1.3143  0.6923  1.6481
10679TIP3    H253453   4.896   5.301   0.049  1.5270  0.8068  1.7956
10680TIP3   OH253454   0.121   6.402  16.389 -0.6015  0.5641  0.0675
10680TIP3    H153455   0.209   6.363  16.395  0.2102  1.9946 -1.6094
10680TIP3    H253456   0.106   6.439  16.476  0.6208  0.6077  0.2833
10681TIP3   OH253457   2.118   3.286   1.316  0.0631  0.0572 -0.4453
10681TIP3    H153458   2.048   3.272   1.252  2.2472 -1.3326 -2.7459
10681TIP3    H253459   2.120   3.205   1.368 -1.0415  0.7665  0.7475
10682TIP3   OH253460   6.424   2.703   5.148 -0.2495  0.2898  0.8704
10682TIP3    H153461   6.508   2.683   5.190  0.5164 -0.8700 -1.0747
10682TIP3    H253462   6.364   2.718   5.221  0.8920 -2.0257  2.4151
10683TIP3   OH253463   4.449   1.469   0.488 -0.3255 -0.4218  0.1510
10683TIP3    H153464   4.460   1.438   0.578 -0.9878  1.5658  0.9640
10683TIP3    H253465   4.356   1.489   0.481 -0.0042  0.9639 -0.4430
10684TIP3   OH253466   3.439   4.416   3.879  0.2279 -0.3571 -0.1327
10684TIP3    H153467   3.445   4.436   3.973  0.2730  1.1637 -0.4369
10684TIP3    H253468   3.402   4.494   3.840 -2.7779 -2.0937 -1.0366
10685TIP3   OH253469   6.180   2.166   4.214  0.0040 -0.0222 -0.0554
10685TIP3    H153470   6.225   2.211   4.286  0.2037  1.8864 -1.3007
10685TIP3    H253471   6.103   2.220   4.196  0.4832  0.1146 -1.9092
10686TIP3   OH253472   3.307   4.978   3.073 -0.1272 -0.8420  0.2620
10686TIP3    H153473   3.234   5.040   3.079  1.9216  1.9239 -1.2099
10686TIP3    H253474   3.265   4.894   3.056 -3.0134  0.4074  0.5698
10687TIP3   OH253475   3.725   4.621   4.810 -0.3791 -0.5400  0.2052
10687TIP3    H153476   3.706   4.543   4.757 -1.7185 -0.5114  0.6146
10687TIP3    H253477   3.640   4.663   4.823  0.3225  1.0177 -0.0129
10688TIP3   OH253478   4.227   6.681   4.617 -0.0065 -0.0874  0.1071
10688TIP3    H153479   4.314   6.720   4.626 -0.3976  0.6603  0.7652
10688TIP3    H253480   4.171   6.754   4.590 -0.3047 -0.7146 -1.0532
10689TIP3   OH253481   5.088   0.561  12.664 -0.1843  0.5213 -0.0524
10689TIP3    H153482   5.108   0.580  12.573 -0.5794  1.5058  0.0519
10689TIP3    H253483   4.992   0.562  12.668 -0.2559 -1.5889 -0.0352
10690TIP3   OH253484   6.721   4.029   1.918  0.3700 -0.1384  0.0610
10690TIP3    H153485   6.798   4.040   1.861  0.5696 -0.9840  0.1505
10690TIP3    H253486   6.749   4.062   2.003  0.5798 -0.2843  0.0494
10691TIP3   OH253487   2.366   3.085   0.842 -0.8740 -0.2653 -0.6899
10691TIP3    H153488   2.381   3.068   0.749  2.9232 -0.4054 -0.2251
10691TIP3    H253489   2.391   3.177   0.853  2.3220 -1.1413  0.6135
10692TIP3   OH253490   0.740   4.202   1.725  0.5976 -0.3331  0.2420
10692TIP3    H153491   0.678   4.236   1.789 -2.4417  0.2745 -2.7089
10692TIP3    H253492   0.783   4.280   1.689 -1.2473 -0.0858 -1.6436
10693TIP3   OH253493   4.186   5.400   3.156 -0.0099  0.5092  0.1348
10693TIP3    H153494   4.166   5.384   3.248  3.1328 -2.1415  0.5356
10693TIP3    H253495   4.107   5.370   3.110 -0.6794 -0.5990  1.8689
10694TIP3   OH253496   0.257   2.868  11.871  0.2276 -0.1824 -0.0887
10694TIP3    H153497   0.319   2.802  11.901  2.3286  1.4420 -0.5345
10694TIP3    H253498   0.239   2.844  11.780 -0.8965 -1.4130  0.4372
10695TIP3   OH253499   4.710   2.132  16.551 -0.3926 -0.0491  0.2751
10695TIP3    H153500   4.635   2.164  16.501 -0.5221  0.1706  0.6081
10695TIP3    H253501   4.766   2.208  16.563 -0.4212 -0.0723  0.5697
10696TIP3   OH253502   0.280   0.263  12.986 -0.5411  0.1920  0.0260
10696TIP3    H153503   0.328   0.335  13.026  0.0685 -0.1176 -0.1395
10696TIP3    H253504   0.277   0.195  13.052  1.8909 -0.9612 -0.9379
10697TIP3   OH253505   3.578   6.446   4.048  0.4407  0.3017 -0.1404
10697TIP3    H153506   3.546   6.377   4.106 -0.3316  1.9799  1.5555
10697TIP3    H253507   3.671   6.452   4.067  0.4085  0.0819  0.0890
10698TIP3   OH253508   6.745   1.708   3.506 -0.0997  0.1061 -0.2566
10698TIP3    H153509   6.700   1.792   3.504  0.3862  0.3714 -0.3292
10698TIP3    H253510   6.811   1.718   3.574  0.6280  0.1438 -0.9522
10699TIP3   OH253511   5.297   5.386  11.481  0.0264 -0.0993 -0.2235
10699TIP3    H153512   5.295   5.370  11.575  0.5037 -0.6550 -0.3028
10699TIP3    H253513   5.208   5.414  11.459  0.0329  0.4990  0.4669
10700TIP3   OH253514   5.998   1.185  13.186 -0.3374 -0.2624  0.2008
10700TIP3    H153515   6.003   1.190  13.090 -0.6534  3.2356  0.2583
10700TIP3    H253516   6.088   1.199  13.216 -0.1996 -1.5828  0.4535
10701TIP3   OH253517   5.720   2.457  16.649 -0.0004 -0.1496  0.0928
10701TIP3    H153518   5.774   2.387  16.687  0.9738  0.7707  0.4730
10701TIP3    H253519   5.741   2.534  16.703 -2.9370 -0.0825  1.3297
10702TIP3   OH253520   3.244   5.419   5.221  0.5828 -0.1390  0.2509
10702TIP3    H153521   3.323   5.382   5.260 -0.2403 -0.9159  1.2204
10702TIP3    H253522   3.179   5.417   5.291  0.3544  2.8169  0.2688
10703TIP3   OH253523   3.767   1.928  13.690  0.0743  0.2499 -0.1699
10703TIP3    H153524   3.860   1.909  13.677  0.5474  0.7804  1.9954
10703TIP3    H253525   3.742   1.979  13.613  1.2513 -0.9003 -1.3638
10704TIP3   OH253526   5.478   5.980   1.097 -0.0068 -0.3262 -0.3592
10704TIP3    H153527   5.535   6.019   1.031 -0.7921 -0.5183 -1.1703
10704TIP3    H253528   5.516   5.893   1.113 -0.8595 -1.0419 -1.9812
10705TIP3   OH253529   4.921   3.867   2.028 -0.3688  0.0532  0.4119
10705TIP3    H153530   4.928   3.847   2.122  0.8887  0.6349  0.4643
10705TIP3    H253531   4.962   3.793   1.985 -0.2806  0.1286  0.3655
10706TIP3   OH253532   5.152   1.543   2.124  0.1188 -0.5003  0.0279
10706TIP3    H153533   5.138   1.558   2.218 -0.4564 -0.0524 -0.1202
10706TIP3    H253534   5.123   1.625   2.083  1.7987 -0.0994 -0.4318
10707TIP3   OH253535   4.736   4.450  16.211 -0.1680 -0.1560  0.2579
10707TIP3    H153536   4.676   4.475  16.282  0.6164 -0.0671  0.9022
10707TIP3    H253537   4.823   4.460  16.249  0.2935  0.4261 -0.8968
10708TIP3   OH253538   4.529   2.164   6.570 -0.1416 -0.1753 -0.7266
10708TIP3    H153539   4.516   2.254   6.600  2.1088  0.0261 -0.1486
10708TIP3    H253540   4.469   2.112   6.624  1.5454  0.5537  2.0529
10709TIP3   OH253541   2.529   2.301  17.117  0.0184  0.1818  0.2174
10709TIP3    H153542   2.445   2.264  17.093  0.5070  0.2393 -1.7710
10709TIP3    H253543   2.574   2.232  17.165 -1.1112  0.1419  1.2618
10710TIP3   OH253544   3.742   2.925   4.618  0.0203  0.0353  0.1048
10710TIP3    H153545   3.673   2.871   4.578  1.8098 -2.8722  0.6354
10710TIP3    H253546   3.739   2.903   4.711  1.8090 -0.4414  0.0968
10711TIP3   OH253547   5.713   6.527   4.441 -0.2811 -0.2505 -0.5036
10711TIP3    H153548   5.788   6.498   4.493 -1.0938 -0.9505  0.2988
10711TIP3    H253549   5.636   6.504   4.493 -1.1396 -1.1864 -2.0903
10712TIP3   OH253550   3.680   1.021  15.573 -0.0278  0.0118  0.1180
10712TIP3    H153551   3.627   0.942  15.562 -1.3109  0.7861  0.5560
10712TIP3    H253552   3.677   1.040  15.667 -0.1524  0.8569 -0.0435
10713TIP3   OH253553   4.778   6.221  17.008  0.7262  0.3305 -0.4547
10713TIP3    H153554   4.780   6.293  17.071  0.8014 -0.4352  0.4435
10713TIP3    H253555   4.800   6.262  16.924  0.2229  1.4385 -0.0602
10714TIP3   OH253556   5.362   0.391   2.387  0.3572 -0.0583 -0.2423
10714TIP3    H153557   5.436   0.449   2.369 -0.9120  1.4620 -0.7497
10714TIP3    H253558   5.305   0.400   2.311 -0.4140 -1.1230  0.1827
10715TIP3   OH253559   6.343   4.573   0.711 -0.0386 -0.1707  0.6076
10715TIP3    H153560   6.248   4.583   0.712  0.0345  0.4960  0.7617
10715TIP3    H253561   6.358   4.495   0.657 -0.6692 -0.2998  0.6137
10716TIP3   OH253562   6.022   5.546   3.423  0.0445  0.1528 -0.1600
10716TIP3    H153563   6.080   5.475   3.395 -0.9374 -0.4950 -0.5988
10716TIP3    H253564   5.952   5.502   3.471  0.6104  1.0531  1.5832
10717TIP3   OH253565   3.982   6.467   2.677 -0.0186 -0.3958 -0.0548
10717TIP3    H153566   3.887   6.462   2.671 -0.1772  1.7101 -0.2550
10717TIP3    H253567   4.011   6.483   2.587  0.4674 -0.4027  0.0954
10718TIP3   OH253568   2.947   0.041  16.318  0.1855 -0.0536  0.2993
10718TIP3    H153569   2.872   0.098  16.302 -0.6000 -1.2485 -0.3422
10718TIP3    H253570   2.947   0.028  16.413  2.8268  4.2638  1.1715
10719TIP3   OH253571   1.282   6.568  16.231  0.5611 -0.0309  0.4323
10719TIP3    H153572   1.200   6.582  16.278 -0.1515 -1.8248 -0.2281
10719TIP3    H253573   1.334   6.512  16.289  0.3674 -0.8318 -0.1596
10720TIP3   OH253574   2.073   6.476   5.679 -0.0019  0.2030  0.0358
10720TIP3    H153575   2.163   6.502   5.660 -0.7464  2.6910 -0.3258
10720TIP3    H253576   2.031   6.470   5.594 -0.5302  0.4114  0.2796
10721TIP3   OH253577   6.046   2.951   4.601  0.3560  0.1961 -0.1268
10721TIP3    H153578   5.953   2.950   4.626  0.5673 -0.9772  0.6623
10721TIP3    H253579   6.060   3.039   4.565 -1.1366  0.2838 -0.5643
10722TIP3   OH253580   0.831   3.191   5.716 -0.5525  0.1310 -0.2981
10722TIP3    H153581   0.820   3.103   5.752  0.5172 -0.0943 -0.4824
10722TIP3    H253582   0.791   3.188   5.629  1.7475 -0.9773 -1.4128
10723TIP3   OH253583   4.127   1.361  11.140  0.2317 -0.2411 -0.6422
10723TIP3    H153584   4.220   1.379  11.131  0.0717  0.9665 -0.0519
10723TIP3    H253585   4.085   1.413  11.072 -0.2683  2.1269  1.3419
10724TIP3   OH253586   2.778   0.402   0.738  0.2170  0.1483 -0.4239
10724TIP3    H153587   2.872   0.390   0.724  0.2906  0.2488 -0.0226
10724TIP3    H253588   2.759   0.487   0.699  0.4682  0.5386  0.2902
10725TIP3   OH253589   0.645   1.697  16.346  0.5840  0.2602  0.1313
10725TIP3    H153590   0.611   1.681  16.434 -0.7184 -1.2462 -0.5942
10725TIP3    H253591   0.737   1.669  16.351  0.1163 -1.2879  0.6351
10726TIP3   OH253592   3.179   5.330   2.836  0.7545  0.1945 -0.5701
10726TIP3    H153593   3.123   5.257   2.865  0.5898  0.3366 -0.5252
10726TIP3    H253594   3.246   5.337   2.903  0.3304  0.5711 -0.1802
10727TIP3   OH253595   0.867   6.744   3.420 -0.2298 -0.2305 -0.5684
10727TIP3    H153596   0.907   6.805   3.359  0.7245 -0.1982  0.0578
10727TIP3    H253597   0.900   6.658   3.393  1.0485 -0.1134  0.4945
10728TIP3   OH253598   5.623   4.399   3.217 -0.5363  0.0757  0.3880
10728TIP3    H153599   5.700   4.448   3.190 -1.6027  1.2110 -0.7367
10728TIP3    H253600   5.631   4.315   3.173  0.6061 -0.2779  1.2074
10729TIP3   OH253601   5.305   4.854   5.637  0.6217 -0.5152  0.1499
10729TIP3    H153602   5.285   4.887   5.724 -1.3690 -0.6478 -0.2071
10729TIP3    H253603   5.319   4.933   5.584 -3.4365 -0.0590 -0.5446
10730TIP3   OH253604   4.547   0.102   3.981  0.3807 -0.2887 -0.3830
10730TIP3    H153605   4.541   0.011   3.952 -0.3358 -0.0278 -1.0614
10730TIP3    H253606   4.557   0.095   4.076 -2.4754 -1.0526 -0.0371
10731TIP3   OH253607   0.378   2.793   4.484  0.1463 -0.3914 -0.1103
10731TIP3    H153608   0.372   2.755   4.397  1.6779 -0.3171 -0.2759
10731TIP3    H253609   0.452   2.748   4.525  1.1275  1.3912  0.1875
10732TIP3   OH253610   3.417   2.122   4.796  0.3550 -0.0805  0.2639
10732TIP3    H153611   3.404   2.213   4.821 -1.9580 -0.4518  0.5971
10732TIP3    H253612   3.446   2.126   4.705  1.6372  1.0031  0.6886
10733TIP3   OH253613   1.963   6.120   3.641  0.2285  0.1715 -0.0062
10733TIP3    H153614   1.946   6.036   3.684 -0.2260  0.9443  1.3773
10733TIP3    H253615   1.956   6.101   3.547 -2.4932 -0.8312  0.3134
10734TIP3   OH253616   1.599   4.689   5.610  0.0154  0.3927 -0.0707
10734TIP3    H153617   1.674   4.630   5.607 -0.6314 -0.4748  0.3204
10734TIP3    H253618   1.548   4.666   5.532 -0.4466  0.1399  0.3002
10735TIP3   OH253619   6.055   0.221  12.664 -0.0251  0.0534  0.1665
10735TIP3    H153620   6.134   0.267  12.634  0.6683  0.3212  2.2501
10735TIP3    H253621   6.008   0.198  12.583  1.2772  1.4726 -1.0447
10736TIP3   OH253622   3.117   6.127   2.372  0.0923 -0.1878  0.8196
10736TIP3    H153623   3.024   6.148   2.369  0.5694  2.1046 -1.0457
10736TIP3    H253624   3.160   6.200   2.326  2.7332 -1.5810  0.8636
10737TIP3   OH253625   1.630   2.792  14.175  0.1980  0.2670  0.3818
10737TIP3    H153626   1.704   2.767  14.119  0.3421  1.1371  0.1750
10737TIP3    H253627   1.627   2.723  14.242  0.8791 -0.0482  0.0988
10738TIP3   OH253628   4.584   5.419   0.034  0.2470 -0.0327 -0.1208
10738TIP3    H153629   4.644   5.362   0.083  0.0491 -0.8715 -0.8376
10738TIP3    H253630   4.624   5.427  -0.052 -0.5690 -0.4531 -0.5520
10739TIP3   OH253631   6.284   5.167  14.162  0.0971  0.3237 -0.2375
10739TIP3    H153632   6.328   5.175  14.247  0.1020 -0.7041 -0.1378
10739TIP3    H253633   6.198   5.130  14.182  0.1968 -0.1702 -0.7096
10740TIP3   OH253634   6.266   1.352  14.324 -0.0049  0.3900 -0.7783
10740TIP3    H153635   6.242   1.348  14.416 -0.1908  0.7114 -0.8109
10740TIP3    H253636   6.212   1.423  14.288 -0.1672  0.0548 -1.2036
10741TIP3   OH253637   6.756   1.537  14.547 -0.5016  0.0578 -0.5302
10741TIP3    H153638   6.788   1.582  14.626 -1.4868  2.5992 -1.4613
10741TIP3    H253639   6.704   1.464  14.581 -0.4684  0.7608  1.1610
10742TIP3   OH253640   0.063   1.862   4.188 -0.4156  0.2722 -0.1130
10742TIP3    H153641  -0.004   1.830   4.128 -0.1811  2.9705 -1.9801
10742TIP3    H253642   0.145   1.832   4.149 -0.3740 -0.9953  0.8785
10743TIP3   OH253643   2.675   6.695  12.900  0.8200 -0.1164  0.3018
10743TIP3    H153644   2.643   6.605  12.896  0.1065  0.0946  1.0178
10743TIP3    H253645   2.596   6.748  12.910  0.8145  0.9253 -3.4792
10744TIP3   OH253646   2.703   5.692   1.125 -0.0518 -0.0715  0.5154
10744TIP3    H153647   2.656   5.616   1.090 -0.9703  0.5804  0.2743
10744TIP3    H253648   2.674   5.765   1.071  0.9608  0.4290  0.6250
10745TIP3   OH253649   2.808   2.455   1.627  0.0356  0.0225 -0.5408
10745TIP3    H153650   2.889   2.501   1.605  0.1454  1.8897  3.1335
10745TIP3    H253651   2.741   2.497   1.573  0.5030  3.2062  1.1281
10746TIP3   OH253652   6.067   1.866  15.654 -0.2691  0.7576 -0.0048
10746TIP3    H153653   6.142   1.816  15.622 -0.3955  0.0932  0.7129
10746TIP3    H253654   6.009   1.800  15.692 -1.6723  1.1345 -1.3953
10747TIP3   OH253655   2.899   0.128  12.639 -0.2147  0.1462  0.1532
10747TIP3    H153656   2.811   0.098  12.616 -0.6721 -0.2154  2.2450
10747TIP3    H253657   2.932   0.062  12.700  1.4852  0.3381 -0.5018
10748TIP3   OH253658   3.074   4.720  12.712 -0.0038  0.2985  0.4896
10748TIP3    H153659   2.989   4.764  12.710 -0.0957  0.3623  2.8098
10748TIP3    H253660   3.133   4.781  12.667 -1.1149  0.3437 -0.9774
10749TIP3   OH253661   0.416   0.513   2.659  0.0073 -0.1465  0.2056
10749TIP3    H153662   0.399   0.489   2.568  0.2712 -1.7198  0.5394
10749TIP3    H253663   0.333   0.498   2.704  0.3520 -1.1812  0.5439
10750TIP3   OH253664   1.665   5.889  17.128  0.2901 -0.4869 -0.0564
10750TIP3    H153665   1.614   5.894  17.046 -1.1756 -1.5805  0.7461
10750TIP3    H253666   1.723   5.965  17.124 -0.6816  0.2319 -1.5040
10751TIP3   OH253667   0.790   3.358   5.125 -0.0443  0.6485  0.3195
10751TIP3    H153668   0.769   3.270   5.157  1.4659  0.4073  0.6946
10751TIP3    H253669   0.735   3.369   5.047  0.9876 -1.3024 -0.7416
10752TIP3   OH253670   3.891   6.119   4.476  0.1094 -0.0548 -0.5839
10752TIP3    H153671   3.820   6.066   4.439  1.2910 -1.6231 -0.6924
10752TIP3    H253672   3.967   6.061   4.475  0.5446  0.2273  3.0772
10753TIP3   OH253673   0.206   3.355   3.947  0.2559 -0.2126 -0.0734
10753TIP3    H153674   0.223   3.447   3.931 -1.4798  0.3295  0.9438
10753TIP3    H253675   0.233   3.311   3.866  2.1797  1.0041 -0.1538
10754TIP3   OH253676   6.013   5.906  11.171  0.2800  0.1151  0.8790
10754TIP3    H153677   5.971   5.953  11.243 -0.7817 -0.7749  0.8672
10754TIP3    H253678   6.054   5.830  11.212  0.4208  0.0744  0.6669
10755TIP3   OH253679   4.445   4.551  17.152  0.1892 -0.1523 -0.3837
10755TIP3    H153680   4.398   4.581  17.229  0.8870  2.0574 -0.7666
10755TIP3    H253681   4.458   4.457  17.168  1.0122  0.3597  2.5827
10756TIP3   OH253682   4.098   0.257   2.038 -0.7719  0.5474  0.0189
10756TIP3    H153683   4.060   0.176   2.072 -1.5057  0.6870 -0.4599
10756TIP3    H253684   4.047   0.327   2.080 -0.6497  0.7470 -0.1643
10757TIP3   OH253685   2.386   5.056  17.142  0.1494  0.2439 -0.1210
10757TIP3    H153686   2.413   5.083  17.229  1.2392 -0.4190 -0.2331
10757TIP3    H253687   2.410   4.964  17.136 -1.0991 -0.0679 -0.6695
10758TIP3   OH253688   2.160   0.951  17.225  0.1120  0.1162  0.4327
10758TIP3    H153689   2.075   0.981  17.256 -0.4042 -1.9480  1.1706
10758TIP3    H253690   2.219   0.967  17.299  0.4063  1.5547 -0.0829
10759TIP3   OH253691   0.230   1.047   3.691  0.9864 -0.2282 -0.1821
10759TIP3    H153692   0.245   1.064   3.598  2.3941 -3.1602 -0.6094
10759TIP3    H253693   0.161   0.980   3.693  3.4754 -3.0054  0.5171
10760TIP3   OH253694   2.494   2.875   1.811 -0.0574 -0.4023 -0.4383
10760TIP3    H153695   2.550   2.799   1.826  2.1836  1.3795  0.8003
10760TIP3    H253696   2.410   2.851   1.850  0.1244 -2.7046 -1.2982
10761TIP3   OH253697   4.303   0.251  13.631 -0.1031  1.1202  0.1346
10761TIP3    H153698   4.282   0.275  13.721 -1.6490 -0.1927  0.1921
10761TIP3    H253699   4.220   0.261  13.584  0.6110  1.5019 -1.0749
10762TIP3   OH253700   1.367   6.353  16.386  0.1439  0.3765 -0.5838
10762TIP3    H153701   1.424   6.282  16.413  0.5618  0.8905 -0.0864
10762TIP3    H253702   1.321   6.379  16.466 -0.4746  0.2548 -0.8912
10763TIP3   OH253703   0.415   0.841  11.820  0.3085 -0.3504  0.0366
10763TIP3    H153704   0.373   0.797  11.894 -0.8700  0.8652  0.1125
10763TIP3    H253705   0.457   0.918  11.858  1.1831 -0.6413 -0.3087
10764TIP3   OH253706   2.931   0.608  10.984 -0.5730  0.3607  0.5468
10764TIP3    H153707   2.991   0.597  10.910 -0.1114 -2.8167  1.2711
10764TIP3    H253708   2.987   0.638  11.056 -0.3089 -0.2102  0.5819
10765TIP3   OH253709   4.880   2.395   5.022  0.4280 -0.0136 -0.1175
10765TIP3    H153710   4.793   2.386   5.061  0.7508 -0.1811  0.5755
10765TIP3    H253711   4.934   2.333   5.070  0.7629 -0.4866 -1.0836
10766TIP3   OH253712   5.391   4.384   2.476 -0.0901  0.1579  0.1164
10766TIP3    H153713   5.478   4.349   2.494  0.2400  1.2652  0.8017
10766TIP3    H253714   5.331   4.317   2.508  0.4965 -0.7521 -0.6381
10767TIP3   OH253715   0.432   5.779  15.193  0.1079  0.1665 -0.0890
10767TIP3    H153716   0.459   5.723  15.265 -0.2546 -0.2193 -0.2490
10767TIP3    H253717   0.390   5.854  15.236 -0.1060 -0.0609  0.0985
10768TIP3   OH253718   1.377   2.766   4.759  0.2741  0.2564  0.1214
10768TIP3    H153719   1.445   2.699   4.757  0.7205  0.7165 -0.3629
10768TIP3    H253720   1.376   2.797   4.850  0.9655  0.5072  0.0441
10769TIP3   OH253721   6.182   0.419  10.389 -0.2789  0.0627 -0.4041
10769TIP3    H153722   6.123   0.494  10.394 -0.9681 -0.2938 -2.2688
10769TIP3    H253723   6.270   0.457  10.389 -0.5191  0.6919  0.9015
10770TIP3   OH253724   6.117   2.950   2.427 -0.5011 -0.5414  0.4015
10770TIP3    H153725   6.035   2.989   2.456 -0.2002 -0.8128  1.7121
10770TIP3    H253726   6.110   2.858   2.455 -0.7931 -1.2261 -1.7414
10771TIP3   OH253727   4.603   3.710  14.547  0.1302  0.0542  0.2921
10771TIP3    H153728   4.590   3.642  14.482 -0.8886 -0.4422  0.9864
10771TIP3    H253729   4.604   3.664  14.631  1.7859  0.6365  0.6402
10772TIP3   OH253730   5.342   5.709   4.223 -0.8234  0.4550  0.6572
10772TIP3    H153731   5.402   5.705   4.148 -0.3784 -1.0311  1.0561
10772TIP3    H253732   5.325   5.802   4.235 -1.2543  0.7178 -1.5552
10773TIP3   OH253733   6.128   1.884   0.381  0.3229  0.1295  0.0008
10773TIP3    H153734   6.081   1.861   0.461 -1.6250  2.0019 -0.5000
10773TIP3    H253735   6.135   1.802   0.332  0.2630 -0.7579  1.4109
10774TIP3   OH253736   0.935   0.986  14.605 -0.3010  0.0180  0.1274
10774TIP3    H153737   0.968   1.016  14.690  0.1898 -0.4698  0.1143
10774TIP3    H253738   0.933   1.065  14.551  2.8164 -0.2144 -0.5017
10775TIP3   OH253739   2.555   4.956   3.617 -0.6811 -0.7580  0.6076
10775TIP3    H153740   2.620   5.011   3.660 -1.3316  0.4215  0.1138
10775TIP3    H253741   2.480   4.956   3.676 -0.9205 -0.5921  0.3021
10776TIP3   OH253742   2.929   0.989  14.677  0.2330 -0.1816 -0.1917
10776TIP3    H153743   2.911   0.990  14.770  1.7033 -1.5171  0.1439
10776TIP3    H253744   2.999   0.925  14.666 -0.4371 -0.6351 -2.3220
10777TIP3   OH253745   6.393   2.897   4.448  0.1303  0.5607  0.3625
10777TIP3    H153746   6.447   2.821   4.427  0.3448  0.9488 -0.5462
10777TIP3    H253747   6.389   2.899   4.544 -3.0650 -2.8346  0.5300
10778TIP3   OH253748   1.719   1.398   2.836  0.4881 -0.3961  0.2832
10778TIP3    H153749   1.757   1.313   2.812  0.9465  0.3218 -1.6910
10778TIP3    H253750   1.652   1.413   2.770 -1.2294 -0.2479  1.9772
10779TIP3   OH253751   6.731   2.661  14.502 -0.0934 -0.0322 -0.0241
10779TIP3    H153752   6.636   2.676  14.502 -0.0889 -0.0095  0.5962
10779TIP3    H253753   6.763   2.704  14.581  0.4834  0.2325 -0.3940
10780TIP3   OH253754   3.679   0.100   5.669  0.1024 -0.3790  0.1894
10780TIP3    H153755   3.749   0.155   5.636 -0.1588  0.3782  0.8548
10780TIP3    H253756   3.681   0.022   5.613 -0.6096  1.0055 -1.8757
10781TIP3   OH253757   6.787   2.759   4.823 -0.5722  0.5269 -0.3432
10781TIP3    H153758   6.718   2.724   4.767 -1.8669  3.4920 -0.7843
10781TIP3    H253759   6.820   2.835   4.775  1.2557  0.6873  1.0500
10782TIP3   OH253760   0.872   3.143   1.206  0.6335 -0.7959 -0.0629
10782TIP3    H153761   0.862   3.203   1.280  0.2259 -0.5948 -0.2789
10782TIP3    H253762   0.966   3.139   1.191  0.7428 -1.0515  0.6438
10783TIP3   OH253763   5.330   4.833   0.276  0.3622 -0.0767  0.4328
10783TIP3    H153764   5.397   4.766   0.256 -0.3084 -0.6965  0.2170
10783TIP3    H253765   5.366   4.881   0.350  0.4998 -1.2158  1.1257
10784TIP3   OH253766   0.367   5.035   2.540 -0.5176 -0.1951  0.2003
10784TIP3    H153767   0.364   5.048   2.635  2.0107  0.0313  0.3225
10784TIP3    H253768   0.344   5.121   2.504  0.2780  0.2248  0.6691
10785TIP3   OH253769   0.457   4.658   5.870 -0.5310 -0.0893  0.5431
10785TIP3    H153770   0.427   4.627   5.956 -3.9310  1.7319  0.1661
10785TIP3    H253771   0.486   4.748   5.886  3.2419 -1.0992  0.4636
10786TIP3   OH253772   3.311   5.414   6.434  0.5555  0.5597 -0.6089
10786TIP3    H153773   3.259   5.492   6.450 -0.2459  0.1920 -1.3561
10786TIP3    H253774   3.266   5.343   6.480  0.4731  0.2678 -1.1267
10787TIP3   OH253775   5.963   1.740  12.975  0.2416 -0.1248  0.5648
10787TIP3    H153776   5.959   1.833  12.951 -1.1322 -0.4509 -0.6190
10787TIP3    H253777   5.875   1.720  13.005  0.1282 -1.3707 -0.5383
10788TIP3   OH253778   2.602   3.259   4.354  0.1602  0.1577 -0.0006
10788TIP3    H153779   2.545   3.262   4.431 -0.6997 -1.5621 -0.4999
10788TIP3    H253780   2.614   3.350   4.329  0.9678  0.8097  2.5115
10789TIP3   OH253781   2.326   5.102  11.037  0.5774 -0.0646 -0.1189
10789TIP3    H153782   2.292   5.068  10.954  0.8014 -1.3486  0.2916
10789TIP3    H253783   2.328   5.196  11.025 -1.6674 -0.0394 -0.7173
10790TIP3   OH253784   5.234   4.788   3.751  0.1744  0.2407  0.0104
10790TIP3    H153785   5.263   4.876   3.774  1.2475  0.0334 -0.4584
10790TIP3    H253786   5.229   4.742   3.835  0.1493  0.5893  0.2041
10791TIP3   OH253787   3.344   1.167  14.705  1.2528  0.0496  0.2735
10791TIP3    H153788   3.318   1.252  14.741 -0.3288  0.2241 -1.1594
10791TIP3    H253789   3.306   1.103  14.765  0.2848  0.3532  0.0010
10792TIP3   OH253790   5.206   2.636   5.833 -0.5521 -0.2568  0.5861
10792TIP3    H153791   5.140   2.651   5.765  0.1097 -0.0931 -0.0358
10792TIP3    H253792   5.159   2.645   5.915 -1.6948 -1.8502  0.1608
10793TIP3   OH253793   3.343   5.457  13.282 -0.0608 -0.6061  0.2695
10793TIP3    H153794   3.323   5.501  13.200 -0.3665  0.2360  0.7817
10793TIP3    H253795   3.278   5.491  13.343 -0.3125 -1.7781  0.6840
10794TIP3   OH253796   2.722   1.670  15.015  0.2784 -0.8322  0.6476
10794TIP3    H153797   2.764   1.623  14.943 -0.1901 -0.0207 -0.1761
10794TIP3    H253798   2.649   1.716  14.974 -1.0793 -1.7439  1.9573
10795TIP3   OH253799   1.727   1.009   3.781  0.2085 -1.1633 -0.9853
10795TIP3    H153800   1.718   1.017   3.686  1.6552 -0.6358 -1.1003
10795TIP3    H253801   1.808   0.960   3.794  0.3225 -0.7436 -0.0256
10796TIP3   OH253802   3.872   1.925  10.955  0.5200  0.4783 -0.5626
10796TIP3    H153803   3.791   1.911  11.005  0.6886  1.0605 -0.1163
10796TIP3    H253804   3.882   2.020  10.952 -0.5503  0.5865 -3.4458
10797TIP3   OH253805   1.434   0.953  11.869  0.0726 -0.1879 -0.6427
10797TIP3    H153806   1.381   0.950  11.789 -1.1138 -0.6252  0.1304
10797TIP3    H253807   1.512   1.002  11.843 -1.6316  2.4488 -1.3261
10798TIP3   OH253808   5.493   5.295   1.663 -0.8388  0.0577 -0.5344
10798TIP3    H153809   5.412   5.250   1.686 -0.3863 -0.9061 -0.7662
10798TIP3    H253810   5.552   5.225   1.636 -0.0316  0.7776 -0.6743
10799TIP3   OH253811   5.603   3.356   6.397  0.0167 -0.0700  0.4016
10799TIP3    H153812   5.608   3.291   6.467  1.1147  0.5344  0.9008
10799TIP3    H253813   5.692   3.360   6.361 -1.0874 -2.6369 -3.1619
10800TIP3   OH253814   3.089   3.901   3.927 -0.3037 -0.0252 -0.1685
10800TIP3    H153815   3.107   3.867   3.839  1.3663 -1.0964  0.5533
10800TIP3    H253816   3.171   3.892   3.974 -1.4726 -0.5809  1.8761
10801TIP3   OH253817   2.932   6.752   5.661 -0.5804 -0.2007 -0.7462
10801TIP3    H153818   2.957   6.762   5.569  1.5093 -1.6220 -0.4012
10801TIP3    H253819   2.984   6.679   5.692 -1.2515  0.2371  1.5996
10802TIP3   OH253820   4.122   4.196   4.937  0.4091 -0.1550  0.0372
10802TIP3    H153821   4.148   4.104   4.929 -0.0475 -0.2949  0.1363
10802TIP3    H253822   4.055   4.208   4.870  1.7225  0.5801 -1.1928
10803TIP3   OH253823   3.272   1.561   3.596  0.1084 -0.1820  0.4921
10803TIP3    H153824   3.350   1.559   3.541  0.0550  2.5663  0.1750
10803TIP3    H253825   3.245   1.652   3.596 -2.7555 -0.9226  1.1420
10804TIP3   OH253826   4.709   3.363  11.112  0.0424  0.1350 -0.8334
10804TIP3    H153827   4.732   3.451  11.144  0.3118 -0.1919 -0.1192
10804TIP3    H253828   4.780   3.307  11.142 -1.3526 -0.7799  0.8979
10805TIP3   OH253829   0.281   3.303  15.651 -0.1282 -0.5018 -0.1499
10805TIP3    H153830   0.285   3.257  15.567  1.2849  2.2628 -1.7544
10805TIP3    H253831   0.363   3.281  15.695  0.4898  0.3213 -0.8591
10806TIP3   OH253832   6.188   5.303  12.619  0.0048 -0.1859 -0.5570
10806TIP3    H153833   6.276   5.340  12.623 -0.0548 -0.1845  1.3603
10806TIP3    H253834   6.142   5.359  12.556  0.8547  0.9697 -0.1905
10807TIP3   OH253835   0.063   2.868  14.858 -0.0876  0.7007  0.7376
10807TIP3    H153836  -0.031   2.873  14.840 -0.0941  1.0462  0.8692
10807TIP3    H253837   0.068   2.833  14.947 -0.0376 -2.3447 -0.3351
10808TIP3   OH253838   3.749   1.969   0.701  0.0546  0.0333 -0.5053
10808TIP3    H153839   3.708   2.055   0.693  0.2751  0.3988  1.5938
10808TIP3    H253840   3.677   1.908   0.712 -0.0457  0.2743  0.2292
10809TIP3   OH253841   2.312   5.944   4.925 -0.2293  0.7038 -0.2753
10809TIP3    H153842   2.353   5.970   5.008  0.2443  0.0915 -0.3116
10809TIP3    H253843   2.361   5.866   4.898  0.1730  1.3822 -1.5587
10810TIP3   OH253844   0.155   1.138  11.615 -0.3423  0.3153 -0.1858
10810TIP3    H153845   0.077   1.158  11.564 -1.4541 -0.8102  0.9989
10810TIP3    H253846   0.154   1.043  11.625  0.7090  0.3634  0.5793
10811TIP3   OH253847   0.348   6.756   4.918  0.2853  0.1268 -0.1851
10811TIP3    H153848   0.388   6.780   4.834  1.5054  1.5402  0.7535
10811TIP3    H253849   0.259   6.729   4.894  1.4222 -2.2144 -2.2310
10812TIP3   OH253850   5.877   4.709  11.550 -0.4467  1.0077  0.1551
10812TIP3    H153851   5.843   4.708  11.461  0.0163  1.2158 -0.0308
10812TIP3    H253852   5.831   4.780  11.593 -0.7519  0.8349  0.1145
10813TIP3   OH253853   3.635   3.453   4.409  0.1182  0.0783  0.8284
10813TIP3    H153854   3.726   3.470   4.432  0.2537 -0.2367  0.5387
10813TIP3    H253855   3.584   3.516   4.460  0.5027  0.2853  0.9528
10814TIP3   OH253856   1.506   1.156   4.314 -0.0862 -0.2419 -0.1550
10814TIP3    H153857   1.485   1.155   4.221 -0.4592  2.0676 -0.1432
10814TIP3    H253858   1.572   1.087   4.324  0.0517 -0.4549 -2.1413
10815TIP3   OH253859   6.406   2.280  13.033  0.2733 -0.1909  0.1010
10815TIP3    H153860   6.466   2.261  12.962 -0.2054  2.3098 -1.0817
10815TIP3    H253861   6.437   2.363  13.069 -0.7378 -0.3593  1.4418
10816TIP3   OH253862   4.268   4.286   2.975 -0.4113 -0.0322  0.4872
10816TIP3    H153863   4.185   4.332   2.987 -1.3505 -1.0808 -1.4115
10816TIP3    H253864   4.267   4.260   2.882  0.3965 -3.1158  1.2215
10817TIP3   OH253865   5.961   5.857   2.837  0.4573 -0.0798 -0.6157
10817TIP3    H153866   5.869   5.851   2.863  0.5588  0.2767 -0.1614
10817TIP3    H253867   5.992   5.938   2.877  0.8632  0.0136 -1.1109
10818TIP3   OH253868   4.217   4.945  14.851 -0.3014 -0.2383  0.0035
10818TIP3    H153869   4.312   4.950  14.843 -0.2185 -0.4177  0.7995
10818TIP3    H253870   4.189   4.899  14.772  0.2874 -0.3152 -0.1687
10819TIP3   OH253871   3.532   2.220   3.616  0.2492  0.0064  0.1561
10819TIP3    H153872   3.569   2.136   3.643 -1.3369 -0.0256  2.6033
10819TIP3    H253873   3.602   2.283   3.631  1.6210 -0.8379 -2.1383
10820TIP3   OH253874   2.818   4.784   1.322 -0.0838  0.5278  0.0064
10820TIP3    H153875   2.782   4.848   1.262  2.0774  0.8962 -1.0074
10820TIP3    H253876   2.900   4.756   1.281  0.4057 -0.8109  1.7608
10821TIP3   OH253877   3.401   3.156  12.723  0.3936  0.8045 -0.1172
10821TIP3    H153878   3.393   3.131  12.815  1.3352 -0.4847 -0.3715
10821TIP3    H253879   3.477   3.215  12.720  0.0942  1.2042 -0.0169
10822TIP3   OH253880   0.142   4.501  11.308  0.4721 -0.9239 -0.1256
10822TIP3    H153881   0.156   4.420  11.258 -0.1532 -0.6927 -0.6909
10822TIP3    H253882   0.218   4.556  11.287 -0.3911 -0.3073 -1.8907
10823TIP3   OH253883   1.018   3.709   2.530 -0.0063  0.3232  0.1601
10823TIP3    H153884   1.004   3.646   2.601  3.0273  0.2364  0.8185
10823TIP3    H253885   0.969   3.787   2.558 -0.5865 -0.4222  1.2871
10824TIP3   OH253886   1.266   3.507   1.506 -0.4943  0.8023  0.0548
10824TIP3    H153887   1.294   3.445   1.573 -2.1187 -1.5818 -1.3276
10824TIP3    H253888   1.317   3.483   1.428 -1.0443  1.2967 -0.4670
10825TIP3   OH253889   0.819   6.482   2.573  0.3635 -0.3764 -0.5499
10825TIP3    H153890   0.777   6.422   2.513  0.4852 -0.3579 -0.6545
10825TIP3    H253891   0.902   6.439   2.596 -0.1130 -0.8384  0.3650
10826TIP3   OH253892   3.526   6.670   1.602  0.3490  0.0282 -0.3074
10826TIP3    H153893   3.558   6.583   1.578 -0.0633 -0.0678 -0.5319
10826TIP3    H253894   3.539   6.676   1.696 -0.2337 -0.5386 -0.1876
10827TIP3   OH253895   1.672   6.230   1.348 -0.1505  0.4425  0.3904
10827TIP3    H153896   1.740   6.297   1.338  0.5194 -0.2632  0.1013
10827TIP3    H253897   1.605   6.254   1.283  0.8075 -0.0294 -0.8085
10828TIP3   OH253898   5.655   3.398  12.216 -0.0976  0.1540 -0.0326
10828TIP3    H153899   5.721   3.374  12.282  0.5545 -0.0441 -0.7332
10828TIP3    H253900   5.677   3.488  12.192 -0.4554  0.2932  0.1539
10829TIP3   OH253901   2.225   1.243   2.052 -0.1676  1.0500  0.0802
10829TIP3    H153902   2.199   1.327   2.090  0.2126  1.4574 -0.5442
10829TIP3    H253903   2.320   1.250   2.041 -0.2036  0.7404 -0.4607
10830TIP3   OH253904   1.897   6.154   4.526 -0.4672  0.2338  0.7916
10830TIP3    H153905   1.878   6.229   4.470 -1.4008  0.5675  1.5343
10830TIP3    H253906   1.991   6.159   4.542 -0.2378  0.3161 -0.4670
10831TIP3   OH253907   2.537   2.975  16.560  0.3865  0.3572 -0.3285
10831TIP3    H153908   2.500   2.938  16.640 -0.7275  0.2675 -0.8663
10831TIP3    H253909   2.631   2.984  16.579  0.3738 -0.9289  0.4966
10832TIP3   OH253910   6.462   3.095   0.738  0.4740  0.1265 -0.3921
10832TIP3    H153911   6.519   3.094   0.661  1.5864 -0.0108  0.4081
10832TIP3    H253912   6.517   3.128   0.808 -1.1073  2.3247 -0.0706
10833TIP3   OH253913   3.771   6.707  11.121  0.2774  0.2498 -0.2228
10833TIP3    H153914   3.708   6.639  11.147  0.3994  0.7633  1.5366
10833TIP3    H253915   3.718   6.786  11.112  0.1385 -0.0265 -2.2699
10834TIP3   OH253916   1.696   3.641   0.335  0.3208  0.0201 -0.4488
10834TIP3    H153917   1.695   3.653   0.240  0.2067 -1.6849 -0.6978
10834TIP3    H253918   1.789   3.638   0.357  0.3596  1.2975 -0.3514
10835TIP3   OH253919   5.325   1.144   1.498 -0.0441  0.2927  0.3410
10835TIP3    H153920   5.292   1.067   1.453  2.4119 -1.2692  1.0259
10835TIP3    H253921   5.377   1.190   1.433 -0.2813  0.5693  0.3437
10836TIP3   OH253922   3.177   3.056  11.065 -0.1524 -1.0710  0.6773
10836TIP3    H153923   3.189   2.998  10.990  1.5796  0.1751 -0.0701
10836TIP3    H253924   3.149   3.139  11.027  0.3698 -0.5326  1.4340
10837TIP3   OH253925   0.037   3.368   1.399  0.4114  0.5103  0.1362
10837TIP3    H153926   0.092   3.445   1.387 -1.2929  1.8638  0.6372
10837TIP3    H253927   0.038   3.324   1.314  1.1702  1.2234 -0.2440
10838TIP3   OH253928   5.766   3.504   0.270  0.0037 -1.0646 -0.1780
10838TIP3    H153929   5.704   3.479   0.201 -0.1010 -0.6834 -0.2193
10838TIP3    H253930   5.839   3.544   0.222 -0.4029 -0.1046 -0.0178
10839TIP3   OH253931   4.784   2.523  14.467 -0.3658  0.1858  0.4238
10839TIP3    H153932   4.691   2.517  14.445 -0.7986  2.1627  1.4267
10839TIP3    H253933   4.788   2.501  14.560  0.2355 -0.2290  0.3048
10840TIP3   OH253934   4.794   6.054  15.614 -0.2039 -0.0578 -0.3530
10840TIP3    H153935   4.796   6.032  15.707  1.9571 -1.1020 -0.5817
10840TIP3    H253936   4.737   6.130  15.608  0.4674  0.6974  1.9727
10841TIP3   OH253937   6.192   6.602  15.406 -0.2263  0.0958  0.1138
10841TIP3    H153938   6.149   6.688  15.408 -1.8262 -0.6615  0.9133
10841TIP3    H253939   6.122   6.541  15.429  1.4302 -1.1669  2.1727
10842TIP3   OH253940   5.977   5.003  13.068 -0.5276  0.1228  0.4290
10842TIP3    H153941   6.034   4.945  13.018 -0.9211  0.5775 -0.5639
10842TIP3    H253942   5.946   4.949  13.141  3.2525  0.6008  2.6215
10843TIP3   OH253943   5.691   5.542  12.083 -0.4461  0.3292  0.1543
10843TIP3    H153944   5.768   5.591  12.052 -0.6999  0.7240  0.1360
10843TIP3    H253945   5.692   5.461  12.033  0.0101  0.2893  0.2185
10844TIP3   OH253946   6.434   3.047  15.690  0.1987  0.2790 -0.4917
10844TIP3    H153947   6.467   3.099  15.618 -0.3916  1.3816  0.0155
10844TIP3    H253948   6.418   3.109  15.760 -0.2433 -0.6211  0.2347
10845TIP3   OH253949   1.878   6.775  13.701 -0.4539  0.0757 -0.3374
10845TIP3    H153950   1.898   6.700  13.646  0.5211  1.0071 -1.3026
10845TIP3    H253951   1.783   6.772  13.713 -0.2267 -2.7568  1.8343
10846TIP3   OH253952   3.311   0.061   5.142  0.4590  0.2715  0.3118
10846TIP3    H153953   3.407   0.062   5.147  0.5900  1.3062 -1.5199
10846TIP3    H253954   3.289   0.144   5.100 -1.2108 -0.2479  0.1123
10847TIP3   OH253955   4.773   6.491  13.147 -0.0077  0.3189 -0.4222
10847TIP3    H153956   4.725   6.540  13.080  3.4424  1.9243 -1.9282
10847TIP3    H253957   4.799   6.410  13.104 -1.2701 -0.5712  0.4091
10848TIP3   OH253958   3.199   5.872  12.220  0.4203  0.2998 -0.1865
10848TIP3    H153959   3.282   5.834  12.193  0.7258  1.0166 -0.2797
10848TIP3    H253960   3.164   5.913  12.141 -0.5202 -0.8719 -0.4010
10849TIP3   OH253961   5.597   0.596  13.816  0.1635 -0.7280  0.3251
10849TIP3    H153962   5.688   0.604  13.788 -0.0950  0.4959 -0.2337
10849TIP3    H253963   5.596   0.519  13.874  1.1423 -1.9981 -1.2597
10850TIP3   OH253964   0.218   0.613   1.494 -0.5500  0.5806  0.3866
10850TIP3    H153965   0.153   0.556   1.533 -0.7491  1.1284  0.8788
10850TIP3    H253966   0.251   0.666   1.567 -0.7760  1.4779 -0.1388
10851TIP3   OH253967   0.660   5.388   4.212 -0.2188  0.2041  0.9759
10851TIP3    H153968   0.576   5.368   4.169 -0.1242  1.8925 -0.0561
10851TIP3    H253969   0.635   5.427   4.295 -0.4727  1.0208  0.5213
10852TIP3   OH253970   5.775   4.491  12.885 -0.5624 -0.1420 -0.1140
10852TIP3    H153971   5.743   4.580  12.900  0.2747  0.1059  0.2360
10852TIP3    H253972   5.698   4.443  12.855 -1.2084  0.5038  0.4617
10853TIP3   OH253973   5.856   6.117  14.300 -0.3243  0.1737  0.4948
10853TIP3    H153974   5.905   6.043  14.336 -1.2507 -0.6497  0.1066
10853TIP3    H253975   5.922   6.168  14.252  0.3512 -0.3299  0.8665
10854TIP3   OH253976   3.391   3.100   5.789  0.4631  0.4352  0.2173
10854TIP3    H153977   3.384   3.063   5.877  1.1048 -0.8397 -0.2523
10854TIP3    H253978   3.482   3.083   5.763 -0.4879 -1.9838 -1.8666
10855TIP3   OH253979   4.384   3.619   5.264 -0.5577  0.6185 -0.2681
10855TIP3    H153980   4.404   3.680   5.193  2.2029  0.6006  0.3674
10855TIP3    H253981   4.303   3.576   5.237 -0.8554  2.2491 -2.2533
10856TIP3   OH253982   0.720   6.039  13.492  0.0396 -0.6739  0.1427
10856TIP3    H153983   0.705   6.121  13.539  1.6852 -0.4561  0.3418
10856TIP3    H253984   0.739   6.065  13.402 -1.5008 -0.9994 -0.3201
10857TIP3   OH253985   5.317   0.943   1.262 -0.2945 -0.6053 -0.2036
10857TIP3    H153986   5.333   0.981   1.176  0.7042 -0.9650 -0.1842
10857TIP3    H253987   5.374   0.866   1.265 -0.2352 -0.5298  0.8195
10858TIP3   OH253988   5.891   4.579   3.361 -0.2221  0.2507 -0.4036
10858TIP3    H153989   5.851   4.634   3.294 -0.6049  0.0146 -0.3714
10858TIP3    H253990   5.967   4.629   3.391 -1.3030  1.3828  0.5675
10859TIP3   OH253991   1.914   6.027  16.248  0.0576 -0.3237  0.3329
10859TIP3    H153992   2.007   6.040  16.267  0.2912 -2.5744  0.9975
10859TIP3    H253993   1.879   5.983  16.326 -0.8770 -2.1923 -1.0605
10860TIP3   OH253994   0.291   6.576  13.546  0.2070 -0.0700  0.2023
10860TIP3    H153995   0.244   6.659  13.536 -0.3227 -0.4116 -0.1967
10860TIP3    H253996   0.228   6.519  13.592  0.3924 -0.3970  0.0479
10861TIP3   OH253997   4.720   4.822  12.686 -0.2984  0.2669  0.3087
10861TIP3    H153998   4.729   4.872  12.767  0.6412  2.4920 -1.0790
10861TIP3    H253999   4.630   4.837  12.658 -0.5056 -0.1837  0.7175
10862TIP3   OH254000   5.582   5.182   2.760  0.3604  0.4195  0.2488
10862TIP3    H154001   5.525   5.217   2.692  0.6046 -2.0960 -1.3732
10862TIP3    H254002   5.522   5.158   2.831 -0.3536 -0.1584 -0.5334
10863TIP3   OH254003   0.310   6.396  14.942 -0.3193 -0.3434  0.2594
10863TIP3    H154004   0.367   6.422  15.014 -2.3386  0.6886  1.5849
10863TIP3    H254005   0.257   6.324  14.977  1.1087 -2.3629 -1.4448
10864TIP3   OH254006   5.357   5.586  13.011  0.0164 -0.1864 -0.0051
10864TIP3    H154007   5.408   5.667  13.009 -1.9560  1.1980  1.7450
10864TIP3    H254008   5.277   5.607  12.963  0.1647 -1.6928 -0.9988
10865TIP3   OH254009   1.742   1.575  12.004 -0.4381 -0.1280  0.2249
10865TIP3    H154010   1.799   1.584  12.080 -0.4286 -0.2618  0.2329
10865TIP3    H254011   1.765   1.650  11.948  2.4360 -2.1679 -1.5624
10866TIP3   OH254012   1.342   2.269   2.823 -0.3076 -0.0508  0.0060
10866TIP3    H154013   1.265   2.212   2.832 -0.6888  0.7803  3.2715
10866TIP3    H254014   1.414   2.210   2.804 -1.5984 -0.8744 -3.0737
10867TIP3   OH254015   6.648   1.272  12.587  0.3128 -0.4585 -0.4724
10867TIP3    H154016   6.689   1.221  12.657 -0.6196  0.4190  0.7602
10867TIP3    H254017   6.719   1.287  12.524  0.5262 -3.6467 -1.1757
10868TIP3   OH254018   3.472   1.295  12.094 -0.6137 -0.4740  0.4626
10868TIP3    H154019   3.387   1.276  12.133 -1.2008 -1.4193 -1.1960
10868TIP3    H254020   3.508   1.209  12.071  1.2800 -0.1870  2.0531
10869TIP3   OH254021   2.120   2.164   2.425 -0.1193 -0.5744 -0.0171
10869TIP3    H154022   2.196   2.127   2.471 -1.2734 -0.2139  2.2654
10869TIP3    H254023   2.159   2.220   2.357  1.6463 -0.7020  0.8220
10870TIP3   OH254024   2.651   5.545   3.229 -0.1100  0.0666 -1.2969
10870TIP3    H154025   2.562   5.575   3.208  0.3404  1.5009 -1.2213
10870TIP3    H254026   2.708   5.595   3.171  0.9071  1.6866  0.9340
10871TIP3   OH254027   1.063   5.536  15.647 -0.9190 -0.0398  0.2726
10871TIP3    H154028   1.101   5.528  15.560 -0.6408 -0.1528  0.4038
10871TIP3    H254029   0.981   5.488  15.642 -0.9553  0.0469  0.0411
10872TIP3   OH254030   6.744   2.136  10.531  0.1413 -0.6209 -0.5168
10872TIP3    H154031   6.733   2.199  10.603  2.1833 -0.7639 -0.0306
10872TIP3    H254032   6.688   2.170  10.461 -1.4014 -0.1296  0.8772
10873TIP3   OH254033   3.807   1.167   2.691 -0.0245  0.1775  0.2098
10873TIP3    H154034   3.839   1.180   2.780  0.6351 -1.6093  0.2666
10873TIP3    H254035   3.733   1.107   2.700 -0.4969  0.6477 -0.3868
10874TIP3   OH254036   5.165   2.084   1.296 -0.1712  0.0332 -0.1533
10874TIP3    H154037   5.149   2.055   1.206 -0.8426 -0.9124  0.2580
10874TIP3    H254038   5.142   2.177   1.295  0.2012  0.1274 -1.0479
10875TIP3   OH254039   5.837   3.483  15.806  0.0075 -0.1648 -0.1798
10875TIP3    H154040   5.748   3.478  15.841  0.0884 -1.5441 -0.1043
10875TIP3    H254041   5.825   3.503  15.713 -0.5316 -2.2612 -0.6257
10876TIP3   OH254042   2.207   0.953  12.871  0.0800 -0.1139  0.2601
10876TIP3    H154043   2.300   0.930  12.868 -0.2805 -1.7422 -2.6946
10876TIP3    H254044   2.204   1.045  12.846  0.8621 -0.4538 -1.1819
10877TIP3   OH254045   4.776   1.436  13.294 -0.1616  0.2071  0.1920
10877TIP3    H154046   4.869   1.429  13.271 -0.0624  0.8931  0.3437
10877TIP3    H254047   4.740   1.495  13.228 -1.2459 -2.5620 -1.8818
10878TIP3   OH254048   1.843   5.362  13.985 -0.2267  0.7131  0.0123
10878TIP3    H154049   1.861   5.306  13.909 -0.0348  0.1830  0.4378
10878TIP3    H254050   1.871   5.309  14.060 -3.2010 -0.0575  0.7214
10879TIP3   OH254051   2.193   5.487   1.913 -0.1074  0.6112  0.0926
10879TIP3    H154052   2.119   5.488   1.974 -0.1182  0.3797  0.0836
10879TIP3    H254053   2.268   5.515   1.965 -0.1633  0.6512  0.1521
10880TIP3   OH254054   5.805   1.288   0.323 -0.0393 -0.0263  0.6656
10880TIP3    H154055   5.759   1.368   0.346  0.1163  0.4602 -0.6738
10880TIP3    H254056   5.847   1.260   0.405  1.9616  2.6030  0.6608
10881TIP3   OH254057   3.589   4.931  11.041  0.2595  0.4552  0.0667
10881TIP3    H154058   3.585   5.008  10.984  0.6145 -0.1096 -0.7293
10881TIP3    H254059   3.547   4.861  10.991 -2.6865  0.7601  1.8880
10882TIP3   OH254060   6.019   1.646   2.907  0.3041 -0.2904  0.2065
10882TIP3    H154061   5.983   1.584   2.970 -1.7443  0.0973 -0.5028
10882TIP3    H254062   6.009   1.603   2.822  0.1691  0.4148 -0.1476
10883TIP3   OH254063   5.055   5.333   3.215 -0.3276 -0.6565 -0.5370
10883TIP3    H154064   5.063   5.424   3.186  2.5694 -0.4613  0.4482
10883TIP3    H254065   5.001   5.290   3.149 -0.0296  1.3325 -2.1560
10884TIP3   OH254066   4.619   4.706  11.468  0.0295 -0.2467 -0.3266
10884TIP3    H154067   4.578   4.656  11.397  0.0064  1.4130 -1.5237
10884TIP3    H254068   4.548   4.760  11.503  0.2680 -0.3409  0.3120
10885TIP3   OH254069   6.056   5.927   0.997  0.2371 -0.1425 -0.3831
10885TIP3    H154070   6.011   5.871   0.934  2.4094 -1.4896 -0.7981
10885TIP3    H254071   6.118   5.978   0.945  0.7445  0.1034  0.4375
10886TIP3   OH254072   5.293   5.637  15.643  0.1509 -0.0742 -0.0005
10886TIP3    H154073   5.364   5.576  15.663 -0.7157 -0.5642  1.7488
10886TIP3    H254074   5.331   5.699  15.580  2.2338 -0.0604  1.2001
10887TIP3   OH254075   2.504   2.744  17.087 -0.0927  0.7955 -0.3815
10887TIP3    H154076   2.587   2.758  17.042  0.4674 -1.7270 -0.2941
10887TIP3    H254077   2.525   2.680  17.155 -1.7629  1.4766  0.8414
10888TIP3   OH254078   3.263   0.283  14.936 -0.2785  0.3527  0.2256
10888TIP3    H154079   3.289   0.370  14.964 -0.5902  0.4157  0.3290
10888TIP3    H254080   3.171   0.293  14.910  0.2909  0.5262 -1.8438
10889TIP3   OH254081   5.106   4.025  11.418  0.0314  0.2003  0.2399
10889TIP3    H154082   5.192   4.049  11.386  0.6221  0.6231  2.0109
10889TIP3    H254083   5.102   3.929  11.410  0.4347  0.2393 -0.3827
10890TIP3   OH254084   1.942   6.554  16.975 -0.2068 -0.0218  0.2010
10890TIP3    H154085   2.025   6.588  16.942 -0.1923 -0.9886 -0.8230
10890TIP3    H254086   1.917   6.615  17.045  2.7598 -1.2255  2.5455
10891TIP3   OH254087   4.432   4.788   0.325 -0.0649  0.0651 -0.4378
10891TIP3    H154088   4.392   4.875   0.335 -2.2768 -0.9286  0.1550
10891TIP3    H254089   4.441   4.756   0.415 -0.3117 -0.7455 -0.6941
10892TIP3   OH254090   1.808   1.228   4.774  0.5344 -0.3806  0.6904
10892TIP3    H154091   1.798   1.263   4.862  2.2221  0.2422  0.6653
10892TIP3    H254092   1.750   1.282   4.720  1.2700  0.7966  1.0464
10893TIP3   OH254093   1.747   1.136  12.581  0.0225 -0.1642 -0.0669
10893TIP3    H154094   1.722   1.078  12.509 -1.5096  2.1744 -1.5493
10893TIP3    H254095   1.795   1.080  12.641  1.9739 -2.1284 -3.1857
10894TIP3   OH254096   2.525   1.658   2.896  0.4024  0.4237 -0.7687
10894TIP3    H154097   2.612   1.651   2.857  0.8822  0.5879  0.2553
10894TIP3    H254098   2.471   1.698   2.828  1.7629  2.8793 -0.5019
10895TIP3   OH254099   0.147   5.347  12.741  0.0516 -0.6048 -0.0671
10895TIP3    H154100   0.139   5.417  12.675 -1.3282 -0.4346  0.2688
10895TIP3    H254101   0.127   5.390  12.824  0.3501 -1.1523  0.2925
10896TIP3   OH254102   2.744   2.318   6.473 -0.1705 -0.7462 -0.4428
10896TIP3    H154103   2.753   2.306   6.379 -0.6567  0.1695 -0.6141
10896TIP3    H254104   2.789   2.400   6.491 -0.0837 -0.9126  0.1255
10897TIP3   OH254105   2.487   6.526   5.167 -0.4153 -0.2316 -0.0665
10897TIP3    H154106   2.472   6.433   5.152  0.2762 -0.5746  1.1788
10897TIP3    H254107   2.482   6.566   5.081  1.4579 -1.7583 -0.9513
10898TIP3   OH254108   1.810   4.843  16.489  0.4172  0.0242  0.6222
10898TIP3    H154109   1.773   4.881  16.568  0.0957 -0.4136  0.6858
10898TIP3    H254110   1.869   4.774  16.520 -1.7991 -2.0517  0.4593
10899TIP3   OH254111   6.199   2.691  12.941 -0.1748  0.0440  0.0075
10899TIP3    H154112   6.163   2.751  13.005  0.7630  0.1416  0.4725
10899TIP3    H254113   6.191   2.736  12.858  0.3395  0.7350  0.3253
10900TIP3   OH254114   2.511   4.666   2.273 -0.6845  0.1579  0.0454
10900TIP3    H154115   2.557   4.708   2.200  0.3163 -2.1881 -0.7586
10900TIP3    H254116   2.538   4.716   2.350  0.8876  0.6672 -0.7839
10901TIP3   OH254117   1.388   2.264   3.240 -0.0993  0.3156 -0.3502
10901TIP3    H154118   1.389   2.240   3.332  0.5633 -0.8972 -0.6521
10901TIP3    H254119   1.297   2.251   3.213 -0.5710  1.8827  0.4113
10902TIP3   OH254120   3.871   0.784  13.094 -0.3636 -0.3761  0.2300
10902TIP3    H154121   3.954   0.830  13.105  0.1389 -1.2240  0.0836
10902TIP3    H254122   3.893   0.707  13.041 -1.2828 -0.4950  0.0026
10903TIP3   OH254123   6.451   1.679  11.681 -0.0188 -0.4716 -0.1892
10903TIP3    H154124   6.533   1.728  11.693 -0.2310 -0.5500  2.0187
10903TIP3    H254125   6.441   1.629  11.762 -1.2953 -1.9572 -1.2088
10904TIP3   OH254126   2.125   1.264   5.675 -0.3246 -0.2605 -0.1772
10904TIP3    H154127   2.103   1.173   5.654 -2.8165  0.0832  0.5854
10904TIP3    H254128   2.164   1.260   5.762  0.1258 -0.6476 -0.3931
10905TIP3   OH254129   0.661   4.857  13.723 -0.4110 -0.1764  0.4566
10905TIP3    H154130   0.580   4.898  13.693  1.0692  2.5657 -0.1915
10905TIP3    H254131   0.641   4.826  13.811 -1.6582  2.3149  1.1565
10906TIP3   OH254132   6.535   5.723   4.518  0.4384  0.3122  0.0379
10906TIP3    H154133   6.592   5.681   4.583 -0.1326  1.3074  1.2093
10906TIP3    H254134   6.450   5.729   4.561 -0.4494 -0.6638 -1.4888
10907TIP3   OH254135   4.011   6.088  14.074  0.2097  0.1217  0.4915
10907TIP3    H154136   3.936   6.146  14.081 -0.0965 -0.4049  1.6559
10907TIP3    H254137   4.034   6.066  14.164  0.1070 -1.8302  0.0842
10908TIP3   OH254138   6.091   3.350  15.873 -0.1603  0.7662  0.1815
10908TIP3    H154139   5.996   3.341  15.869 -0.4168  3.1048 -0.4236
10908TIP3    H254140   6.106   3.441  15.899  1.9137  0.7186 -0.6367
10909TIP3   OH254141   4.753   3.954  15.648 -0.1450  0.7075  0.3607
10909TIP3    H154142   4.808   3.966  15.570  0.3925  0.9037  0.7663
10909TIP3    H254143   4.783   4.020  15.709 -0.7499  0.7275  0.6445
10910TIP3   OH254144   6.462   1.741   5.099 -0.2050  0.0455 -0.2452
10910TIP3    H154145   6.396   1.808   5.082  0.5149  0.7828 -0.2251
10910TIP3    H254146   6.422   1.660   5.070 -0.2982  0.7772 -2.3450
10911TIP3   OH254147   2.314   2.025  13.925 -0.5406  0.3377 -0.3117
10911TIP3    H154148   2.356   1.995  14.005 -3.3094 -2.3105  0.3731
10911TIP3    H254149   2.248   2.088  13.955 -1.1736 -0.2058 -0.5231
10912TIP3   OH254150   0.374   3.964  12.067  0.2545 -0.5524 -0.2462
10912TIP3    H154151   0.378   3.912  11.987 -3.7108 -1.3896 -0.1052
10912TIP3    H254152   0.374   4.055  12.036 -1.7858 -0.8655 -1.3325
10913TIP3   OH254153   2.622   5.095  11.969 -0.5287  0.4037 -0.2424
10913TIP3    H154154   2.560   5.027  11.943 -0.2596 -0.6454  1.6598
10913TIP3    H254155   2.569   5.156  12.021 -0.4587  0.8475 -0.6878
10914TIP3   OH254156   3.908   3.399   5.098  0.1258 -0.4122  1.0179
10914TIP3    H154157   3.966   3.326   5.116 -0.0409 -0.4726  1.3245
10914TIP3    H254158   3.890   3.437   5.184 -0.6832 -0.6949  0.9785
10915TIP3   OH254159   1.770   4.817  11.463  0.1298  0.0715  0.0828
10915TIP3    H154160   1.791   4.879  11.533 -2.3443 -1.1929  2.1321
10915TIP3    H254161   1.855   4.779  11.439  1.0861  0.3331  2.6588
10916TIP3   OH254162   3.721   4.874   0.925  0.6462 -0.3278  0.1670
10916TIP3    H154163   3.639   4.847   0.966  0.2320 -0.7481 -0.9124
10916TIP3    H254164   3.757   4.940   0.984 -0.7057  0.2160  0.4141
10917TIP3   OH254165   2.525   3.598  12.558 -0.0167 -0.0506  0.3238
10917TIP3    H154166   2.590   3.585  12.627 -0.0875 -1.2134  0.1894
10917TIP3    H254167   2.452   3.643  12.603  0.3374  0.0802  0.7780
10918TIP3   OH254168   2.540   5.914  11.809 -0.3365 -0.2904 -0.1557
10918TIP3    H154169   2.548   5.846  11.877  2.6865  0.2221  0.1188
10918TIP3    H254170   2.561   5.868  11.727  0.9884  0.1298 -0.0631
10919TIP3   OH254171   4.538   3.337   2.106 -0.0968 -0.0109 -0.2296
10919TIP3    H154172   4.505   3.273   2.044  0.3045  0.3056 -0.7826
10919TIP3    H254173   4.463   3.395   2.123 -0.0736  0.2076 -0.8282
10920TIP3   OH254174   4.263   5.607   1.712  1.1399 -0.2549  0.3534
10920TIP3    H154175   4.282   5.517   1.739  1.5673 -0.8494 -1.7048
10920TIP3    H254176   4.344   5.637   1.670  0.3532  0.3204 -0.8128
10921TIP3   OH254177   2.809   4.807  13.879  0.2731 -0.1649  0.3014
10921TIP3    H154178   2.730   4.826  13.829  1.1823  0.6573 -0.8921
10921TIP3    H254179   2.795   4.720  13.917 -0.2044 -1.1213 -1.9350
10922TIP3   OH254180   4.644   5.315  13.250 -0.8217 -0.0387  0.2274
10922TIP3    H154181   4.721   5.372  13.241 -0.7954  0.1919  1.6651
10922TIP3    H254182   4.570   5.373  13.237 -0.7848  0.2907  1.3274
10923TIP3   OH254183   3.488   3.388   4.165 -0.0348  0.9287 -0.0349
10923TIP3    H154184   3.394   3.392   4.183 -0.2259 -1.9928  0.1414
10923TIP3    H254185   3.529   3.408   4.249 -0.5455  0.6029  0.2996
10924TIP3   OH254186   0.594   2.733  13.247  0.0395  0.3104 -0.0078
10924TIP3    H154187   0.523   2.731  13.311  0.5964  0.9262  0.6494
10924TIP3    H254188   0.619   2.825  13.241  0.6433  0.1315 -0.3841
10925TIP3   OH254189   5.238   6.619   1.131 -0.3797 -0.0899 -0.1435
10925TIP3    H154190   5.223   6.597   1.039  2.6338 -1.4506 -0.4358
10925TIP3    H254191   5.332   6.634   1.137 -0.6027  0.7463  2.5978
10926TIP3   OH254192   4.898   5.834  13.151 -0.4611  0.5828 -0.1995
10926TIP3    H154193   4.862   5.884  13.224  0.2297  0.1718  0.4346
10926TIP3    H254194   4.870   5.744  13.168  0.2034  0.3893 -0.1149
10927TIP3   OH254195   3.987   0.076   0.341  0.1533  0.3111 -0.1175
10927TIP3    H154196   3.903   0.121   0.346 -1.6227 -2.5055 -1.7389
10927TIP3    H254197   3.990   0.020   0.419 -0.0963 -0.5000 -0.6750
10928TIP3   OH254198   0.138   3.123   6.006  0.5313  0.2915  0.4205
10928TIP3    H154199   0.080   3.166   6.068 -0.6666 -0.8310  0.0979
10928TIP3    H254200   0.219   3.107   6.056  0.0966  0.6593  1.2581
10929TIP3   OH254201   6.157   4.830  12.926  0.4479  0.2837 -0.2083
10929TIP3    H154202   6.164   4.872  12.840 -0.9209  1.3860  0.1880
10929TIP3    H254203   6.240   4.848  12.968  0.4791  1.2730 -0.6533
10930TIP3   OH254204   4.885   6.359   2.621 -0.1909 -0.5926  0.3948
10930TIP3    H154205   4.813   6.320   2.571  2.0786 -1.1505 -2.7835
10930TIP3    H254206   4.929   6.285   2.662 -0.1220 -0.5272  0.4391
10931TIP3   OH254207   4.458   5.695   5.637 -0.4114  0.5115  0.1788
10931TIP3    H154208   4.446   5.767   5.574  0.7648  1.4853  1.0224
10931TIP3    H254209   4.371   5.657   5.646 -0.8435  1.1104 -1.1366
10932TIP3   OH254210   4.297   5.148   1.104 -0.0794 -0.5627  0.0079
10932TIP3    H154211   4.233   5.097   1.054  0.8421  0.4682 -2.3831
10932TIP3    H254212   4.245   5.194   1.169 -1.9621  0.7536 -2.2723
10933TIP3   OH254213   0.315   3.319   6.383 -0.7422 -0.4743  0.2882
10933TIP3    H154214   0.265   3.349   6.458 -1.3641 -0.2670 -0.1982
10933TIP3    H254215   0.267   3.353   6.307  1.0458  1.1727 -0.1690
10934TIP3   OH254216   3.706   4.857  16.021  0.6249  0.1969 -0.3515
10934TIP3    H154217   3.786   4.907  16.038 -0.0205  0.8378  0.9693
10934TIP3    H254218   3.649   4.878  16.094 -0.5645 -0.6702 -0.9950
10935TIP3   OH254219   4.910   5.106  14.154  0.0792 -0.3585 -0.2506
10935TIP3    H154220   4.929   5.013  14.143  1.5777 -0.0239 -0.6900
10935TIP3    H254221   4.876   5.113  14.243 -1.4266 -1.4992 -0.6865
10936TIP3   OH254222   4.027   1.961  15.669  0.5281 -0.2178 -0.0802
10936TIP3    H154223   4.012   1.900  15.742  0.2312  3.2948  3.1347
10936TIP3    H254224   4.121   1.957  15.654  0.5411 -1.3233  0.1847
10937TIP3   OH254225   5.391   4.738   5.902 -0.8081  0.0844  0.0646
10937TIP3    H154226   5.364   4.829   5.892  0.1260  0.3800  0.1308
10937TIP3    H254227   5.437   4.736   5.985 -1.4407 -0.6112  0.4059
10938TIP3   OH254228   3.108   5.421   1.429  0.1595 -0.6731 -0.0620
10938TIP3    H154229   3.094   5.500   1.377 -0.5452 -1.9004 -1.8708
10938TIP3    H254230   3.056   5.434   1.508 -0.3415  0.4620 -0.5658
10939TIP3   OH254231   1.205   4.932  16.517 -0.2525  0.0317  0.3179
10939TIP3    H154232   1.212   4.850  16.566  0.4611 -0.2839 -0.2989
10939TIP3    H254233   1.265   4.992  16.563  1.8703 -0.7987 -1.1821
10940TIP3   OH254234   5.197   1.928   3.142  0.4705 -0.0022 -0.8711
10940TIP3    H154235   5.166   1.842   3.170 -1.0912  0.7410 -0.2269
10940TIP3    H254236   5.279   1.910   3.096  0.5587 -1.7539 -0.0989
10941TIP3   OH254237   4.112   6.260   2.441  0.4931 -0.2131 -0.0041
10941TIP3    H154238   4.048   6.321   2.403  0.9543  0.3590  0.1244
10941TIP3    H254239   4.085   6.251   2.532  1.0700  0.6723  0.2610
10942TIP3   OH254240   6.459   6.315  13.944 -0.1339 -0.0339 -0.1319
10942TIP3    H154241   6.538   6.286  13.990  0.2432 -1.5269 -1.6157
10942TIP3    H254242   6.466   6.410  13.942  1.6373 -0.1315 -0.2401
10943TIP3   OH254243   5.982   4.088  12.598  0.4005  0.4593 -0.1648
10943TIP3    H154244   5.914   4.119  12.538  1.3647  1.8816 -0.5937
10943TIP3    H254245   6.009   4.004  12.562 -0.0869  0.5953 -0.8682
10944TIP3   OH254246   2.037   4.130  14.755 -0.3283  0.9194 -0.2873
10944TIP3    H154247   2.080   4.163  14.834  0.2591 -1.6013  0.5575
10944TIP3    H254248   2.089   4.054  14.730 -3.4596 -1.5638  0.0444
10945TIP3   OH254249   6.701   6.628   3.924 -0.0117 -0.1641  0.5424
10945TIP3    H154250   6.618   6.646   3.879  0.3302  0.3194  0.1103
10945TIP3    H254251   6.682   6.550   3.977 -0.6208 -0.3041  0.1284
10946TIP3   OH254252   1.135   4.365   2.093  0.1976  0.0905 -0.3017
10946TIP3    H154253   1.139   4.280   2.137  0.1119  0.6982  0.9257
10946TIP3    H254254   1.097   4.424   2.159  1.3224  1.3286 -0.7191
10947TIP3   OH254255   1.995   3.830   5.237 -0.1221 -0.1692 -0.3189
10947TIP3    H154256   2.037   3.914   5.258 -0.9096  0.1716 -0.0914
10947TIP3    H254257   2.057   3.787   5.178  0.0811  0.7722 -0.8080
10948TIP3   OH254258   0.112   1.017   4.055 -0.8136  0.3622  0.1747
10948TIP3    H154259   0.168   0.945   4.027 -1.7940 -0.0111 -0.9357
10948TIP3    H254260   0.170   1.093   4.061 -0.2709  0.1128 -1.5256
10949TIP3   OH254261   4.994   4.192   4.690  0.6294  0.1489 -0.0464
10949TIP3    H154262   4.985   4.184   4.785  1.0457 -0.4241 -0.0475
10949TIP3    H254263   4.925   4.135   4.655  0.3879  0.4655 -0.0940
10950TIP3   OH254264   1.874   5.475   2.837  0.1581  0.8738  0.4338
10950TIP3    H154265   1.831   5.498   2.919 -0.8764 -3.2628  1.2854
10950TIP3    H254266   1.968   5.479   2.857 -0.0733  0.5054  1.6756
10951TIP3   OH254267   6.354   2.066   4.810  0.0468  0.2694 -0.2945
10951TIP3    H154268   6.278   2.108   4.851  0.1469  0.5669 -0.4190
10951TIP3    H254269   6.325   2.045   4.721 -0.2519 -0.5967 -0.0020
10952TIP3   OH254270   6.456   4.606   3.178  0.3960 -0.1506  0.1215
10952TIP3    H154271   6.372   4.652   3.173 -0.7393 -2.1097 -0.2013
10952TIP3    H254272   6.434   4.522   3.220  2.3657 -0.3733  0.7832
10953TIP3   OH254273   6.136   3.488   0.366  0.1359 -0.7745  0.6215
10953TIP3    H154274   6.144   3.401   0.327  0.4629 -0.5034  0.0681
10953TIP3    H254275   6.088   3.539   0.301  1.3715 -0.1057  0.1940
10954TIP3   OH254276   3.726   3.555  12.092 -0.8638  0.0966  0.4322
10954TIP3    H154277   3.802   3.612  12.103  1.1053 -2.1140 -0.7685
10954TIP3    H254278   3.665   3.606  12.038  0.2630  1.5017  0.4362
10955TIP3   OH254279   0.261   0.430   5.265 -0.3342 -0.5260 -0.6668
10955TIP3    H154280   0.282   0.350   5.217 -0.3877 -1.1296  0.2908
10955TIP3    H254281   0.346   0.468   5.289 -0.3128 -0.5177 -0.7563
10956TIP3   OH254282   0.407   5.425   3.509 -0.0381 -0.1411  0.5179
10956TIP3    H154283   0.446   5.380   3.434  0.1190  2.8458 -1.3722
10956TIP3    H254284   0.314   5.428   3.489 -0.2024 -0.6006  1.1976
10957TIP3   OH254285   4.837   5.208   2.947 -0.1042  0.4436 -0.1412
10957TIP3    H154286   4.770   5.275   2.939 -0.2703  0.1771 -1.1968
10957TIP3    H254287   4.876   5.203   2.860  2.3051  1.6187  0.7763
10958TIP3   OH254288   2.406   1.430   5.443 -0.2681 -0.5392 -0.1677
10958TIP3    H154289   2.402   1.507   5.386 -3.9900 -1.3718 -1.3611
10958TIP3    H254290   2.376   1.461   5.528  0.9790 -0.1525  0.1405
10959TIP3   OH254291   4.703   2.910  16.465 -0.1599  0.1091  0.6065
10959TIP3    H154292   4.627   2.895  16.409 -0.3368  0.3421  0.7783
10959TIP3    H254293   4.764   2.961  16.410  0.1301 -0.5962  0.2687
10960TIP3   OH254294   0.764   5.902  12.990  0.6575  0.0514 -0.0748
10960TIP3    H154295   0.753   5.896  13.085 -0.4396 -1.3181 -0.2523
10960TIP3    H254296   0.763   5.996  12.972  2.9617  0.4236  1.4489
10961TIP3   OH254297   5.056   4.668   5.735 -0.3065 -0.8441 -0.7275
10961TIP3    H154298   5.141   4.634   5.707  0.6734  1.3792 -0.6619
10961TIP3    H254299   5.021   4.712   5.657  0.5345  1.7643  0.2573
10962TIP3   OH254300   4.964   2.121  14.137  0.0094  0.3252 -0.4626
10962TIP3    H154301   4.965   2.204  14.185 -1.3519  0.0037  0.1707
10962TIP3    H254302   4.951   2.145  14.046 -2.2530  0.7644 -0.0669
10963TIP3   OH254303   6.108   0.174   0.366  0.2360  0.4462 -0.5360
10963TIP3    H154304   6.098   0.268   0.352 -0.0569  0.4422 -0.3643
10963TIP3    H254305   6.203   0.160   0.370  0.3012  0.5984 -1.4397
10964TIP3   OH254306   0.885   1.298   5.363  0.0657 -0.3250 -0.3690
10964TIP3    H154307   0.958   1.259   5.409 -0.2498  1.3008  1.6633
10964TIP3    H254308   0.832   1.224   5.334  0.3688 -1.4655  1.8076
10965TIP3   OH254309   3.677   4.538  13.691 -0.2366  0.0988  0.5015
10965TIP3    H154310   3.605   4.545  13.754 -0.6717 -0.1386  0.0395
10965TIP3    H254311   3.637   4.497  13.614  0.0240  1.3600 -0.3339
10966TIP3   OH254312   4.604   5.344  15.055 -0.1924  0.2220 -0.0068
10966TIP3    H154313   4.650   5.317  14.975  1.7426 -0.2232  1.1892
10966TIP3    H254314   4.538   5.276  15.070 -0.1300 -0.0356 -0.8627
10967TIP3   OH254315   1.301   1.232  14.947  0.2554 -0.2052  0.1878
10967TIP3    H154316   1.250   1.193  14.876  1.8801 -1.0401 -0.5805
10967TIP3    H254317   1.270   1.188  15.026 -2.4569  1.6047  0.2756
10968TIP3   OH254318   1.611   2.667   3.697 -0.4016 -0.2082 -0.2389
10968TIP3    H154319   1.517   2.665   3.712 -0.4501 -0.1119 -0.5238
10968TIP3    H254320   1.621   2.708   3.611 -0.0189  1.6518  0.6348
10969TIP3   OH254321   6.332   3.434   1.612  0.3755  0.5124 -0.1388
10969TIP3    H154322   6.358   3.498   1.678  1.0177 -2.0128  2.2492
10969TIP3    H254323   6.403   3.436   1.547  0.0551  2.5855 -0.4920
10970TIP3   OH254324   0.595   3.422  12.764  0.0539 -0.0547  0.5580
10970TIP3    H154325   0.554   3.473  12.694  0.7610 -0.7586 -0.3859
10970TIP3    H254326   0.523   3.404  12.825 -1.5761 -2.7451 -1.9020
10971TIP3   OH254327   1.033   5.725   5.853 -0.3473  0.4139 -0.3483
10971TIP3    H154328   1.090   5.653   5.827 -0.6484 -0.7867  2.0781
10971TIP3    H254329   1.090   5.802   5.851  1.2822 -0.6607  1.4651
10972TIP3   OH254330   4.893   3.203  12.897 -0.1932  0.1487  0.2580
10972TIP3    H154331   4.907   3.265  12.826  0.0747  0.2127  0.3669
10972TIP3    H254332   4.888   3.257  12.976 -3.9127  0.4880 -0.0058
10973TIP3   OH254333   5.631   6.215  12.050 -0.4127 -0.1681 -0.0756
10973TIP3    H154334   5.679   6.154  11.994  1.1024 -0.0955  1.1061
10973TIP3    H254335   5.686   6.293  12.053 -1.7968  0.8806 -0.6633
10974TIP3   OH254336   5.953   5.879   4.992 -0.0325  0.5474 -0.5057
10974TIP3    H154337   5.863   5.907   5.010 -0.9419 -0.9594 -2.3546
10974TIP3    H254338   5.974   5.920   4.907 -0.0452 -1.2859 -1.4372
10975TIP3   OH254339   0.017   4.004   3.288  0.1703 -0.1325 -0.2230
10975TIP3    H154340  -0.056   3.972   3.340  0.4611 -2.3815 -1.1128
10975TIP3    H254341   0.094   3.990   3.343  0.2849 -0.8920 -0.5682
10976TIP3   OH254342   2.803   3.299   2.895  0.3476  0.0783  0.1046
10976TIP3    H154343   2.717   3.284   2.935  0.4952 -1.2426 -0.0292
10976TIP3    H254344   2.785   3.306   2.802  0.6585 -3.2979 -0.3058
10977TIP3   OH254345   4.112   2.728   1.707  0.8960  0.6065 -0.3033
10977TIP3    H154346   4.057   2.775   1.644  0.8742 -0.2189 -0.9191
10977TIP3    H254347   4.067   2.740   1.791 -0.0293  0.2593 -0.7368
10978TIP3   OH254348   4.382   5.986   3.264 -0.4930 -0.2065  0.2311
10978TIP3    H154349   4.398   5.962   3.172 -1.0521  0.4010 -0.0344
10978TIP3    H254350   4.306   5.935   3.290  0.4764 -1.4309  0.8115
10979TIP3   OH254351   5.555   3.433   5.150  0.0736 -0.0310 -0.5686
10979TIP3    H154352   5.568   3.359   5.209  0.6238  1.0466  0.7288
10979TIP3    H254353   5.461   3.435   5.133 -0.0208 -0.6651 -0.1205
10980TIP3   OH254354   4.272   0.436   5.383  0.2683 -0.2464 -0.4721
10980TIP3    H154355   4.243   0.519   5.345  1.5034 -0.4572 -1.9787
10980TIP3    H254356   4.366   0.449   5.400  0.0939 -0.7346  1.0225
10981TIP3   OH254357   4.454   3.190  11.533  0.6256  0.3151 -0.7000
10981TIP3    H154358   4.528   3.131  11.515 -0.2309 -0.7222 -0.9048
10981TIP3    H254359   4.440   3.235  11.449 -0.5435 -1.3098 -1.4249
10982TIP3   OH254360   0.899   3.842  11.844  0.5860  0.9139  0.3852
10982TIP3    H154361   0.866   3.930  11.828  3.2002  2.1682  1.3880
10982TIP3    H254362   0.849   3.811  11.920 -1.6227  0.7218 -1.0624
10983TIP3   OH254363   2.929   1.921   1.355 -0.0910  0.1042  0.7367
10983TIP3    H154364   2.863   1.990   1.354  0.4567  0.6275  0.4200
10983TIP3    H254365   2.878   1.840   1.351 -0.7543  0.4721  1.4538
10984TIP3   OH254366   0.841   1.177   3.648 -0.6321  0.6615  1.1198
10984TIP3    H154367   0.877   1.118   3.714  0.8885 -1.4885 -1.3731
10984TIP3    H254368   0.915   1.231   3.620 -1.1439  1.2795  0.9315
10985TIP3   OH254369   0.064   3.744  17.066 -0.5084  0.1039  0.0376
10985TIP3    H154370   0.060   3.666  17.122  0.7351 -0.3453 -0.4790
10985TIP3    H254371   0.022   3.717  16.984 -1.7046  0.5510  0.4793
10986TIP3   OH254372   1.767   2.629   2.457 -0.0485  0.5425 -0.5193
10986TIP3    H154373   1.724   2.670   2.532 -0.1842 -2.3714  1.1231
10986TIP3    H254374   1.841   2.582   2.494  1.2248  0.8174 -2.5543
10987TIP3   OH254375   2.916   5.794   0.582  0.5952  0.6406  0.1737
10987TIP3    H154376   2.883   5.807   0.670 -1.1883 -0.7150 -0.2380
10987TIP3    H254377   2.867   5.856   0.528  0.3924  0.2366 -0.1120
10988TIP3   OH254378   6.730   2.822  14.272 -0.6463  0.0086  0.2568
10988TIP3    H154379   6.771   2.895  14.319 -0.6088 -0.3644  0.8214
10988TIP3    H254380   6.754   2.744  14.323 -0.0217 -0.4972 -0.7718
10989TIP3   OH254381   4.081   5.559   4.983  0.9050 -0.1628 -0.3408
10989TIP3    H154382   3.993   5.529   4.961  0.6841  1.4872 -1.9464
10989TIP3    H254383   4.076   5.655   4.976  2.2994  0.1209  1.6867
10990TIP3   OH254384   0.210   3.143   4.770  0.0127 -0.0034  0.2897
10990TIP3    H154385   0.270   3.165   4.698  0.2974 -1.1459  0.1638
10990TIP3    H254386   0.151   3.078   4.733 -1.6264  1.4250  0.2839
10991TIP3   OH254387   3.263   0.751  14.390  0.4254 -0.0697 -0.5553
10991TIP3    H154388   3.265   0.847  14.381  0.8081 -0.0344 -0.1264
10991TIP3    H254389   3.321   0.733  14.463 -0.3587 -0.5649 -0.0387
10992TIP3   OH254390   2.523   5.353   5.283  0.1972  0.1705 -0.5876
10992TIP3    H154391   2.613   5.362   5.312  0.3492  0.4423 -1.1245
10992TIP3    H254392   2.528   5.358   5.188 -0.1796 -1.6797 -0.7273
10993TIP3   OH254393   2.750   4.753   5.535  0.1233 -0.4835 -0.4437
10993TIP3    H154394   2.814   4.778   5.469  0.4887 -0.8536 -0.2361
10993TIP3    H254395   2.684   4.703   5.486  1.0669 -1.8944 -0.3388
10994TIP3   OH254396   3.688   4.497  13.002  0.6501  0.2017  0.2357
10994TIP3    H154397   3.653   4.470  12.917  0.1200 -0.7155  0.7263
10994TIP3    H254398   3.632   4.571  13.029 -0.3673 -0.6802  0.6056
10995TIP3   OH254399   0.636   0.440  17.259 -0.1447  0.2456  0.1351
10995TIP3    H154400   0.674   0.502  17.197  1.1628 -1.0127 -0.3946
10995TIP3    H254401   0.585   0.493  17.319 -0.1672  1.6716 -1.0937
10996TIP3   OH254402   0.308   6.250  15.572 -0.0184  0.3642 -0.1841
10996TIP3    H154403   0.238   6.246  15.637  0.0454  1.6699 -0.0186
10996TIP3    H254404   0.358   6.169  15.586  0.5345  1.0281  2.0231
10997TIP3   OH254405   1.181   1.832  16.353  0.1758  0.0026  0.4892
10997TIP3    H154406   1.207   1.903  16.413 -0.8554 -0.6197  1.7199
10997TIP3    H254407   1.130   1.876  16.285  1.8804  0.8091 -0.3399
10998TIP3   OH254408   1.524   3.974   3.401  0.1790  0.1315  0.3291
10998TIP3    H154409   1.455   3.986   3.336  0.7223  0.3271 -0.2186
10998TIP3    H254410   1.606   3.979   3.351  0.6066  0.3561  1.0378
10999TIP3   OH254411   5.880   6.489   2.309  0.3203  0.5675  0.3170
10999TIP3    H154412   5.887   6.493   2.214  1.3175 -1.7613  0.2023
10999TIP3    H254413   5.881   6.395   2.329  0.7950  0.9879  2.6577
11000TIP3   OH254414   2.085   3.378  14.110 -0.5789  0.5157  0.5079
11000TIP3    H154415   2.120   3.427  14.035 -1.6467 -1.2804 -1.2740
11000TIP3    H254416   2.008   3.428  14.137 -0.6914  0.7322 -0.1838
11001TIP3   OH254417   6.273   1.789  15.449 -0.0284  0.4289  0.0688
11001TIP3    H154418   6.201   1.794  15.386  0.2621 -0.5107 -0.3607
11001TIP3    H254419   6.335   1.856  15.419 -0.7569  1.3393  0.5218
11002TIP3   OH254420   4.318   2.744  12.021 -0.3394 -0.3340  0.0888
11002TIP3    H154421   4.311   2.731  12.116  1.2588 -0.6682  0.1864
11002TIP3    H254422   4.411   2.763  12.006 -0.2677 -1.7804 -1.5815
11003TIP3   OH254423   4.830   3.063  16.280 -0.5680 -0.8946  0.3645
11003TIP3    H154424   4.873   3.000  16.221 -0.0689 -0.3561  0.1463
11003TIP3    H254425   4.787   3.125  16.222  0.4702  0.0213  0.5282
11004TIP3   OH254426   6.025   4.447   5.360  0.0271  0.3588  0.1376
11004TIP3    H154427   5.963   4.499   5.410  1.6621  1.9693  0.6213
11004TIP3    H254428   6.086   4.412   5.426 -0.6119 -1.6391 -0.2532
11005TIP3   OH254429   4.841   0.217  10.803  0.5476 -0.1638  0.2523
11005TIP3    H154430   4.890   0.243  10.725  0.9820  1.4586  1.0165
11005TIP3    H254431   4.822   0.300  10.848 -1.6017 -0.8657  0.7607
11006TIP3   OH254432   4.994   5.459  13.823 -0.3729  0.0891 -0.1504
11006TIP3    H154433   4.952   5.410  13.752 -1.8803 -0.2440  0.9314
11006TIP3    H254434   4.993   5.550  13.793 -0.1016 -0.1655 -0.9581
11007TIP3   OH254435   4.146   2.930   6.517  0.5711 -0.1377  0.1513
11007TIP3    H154436   4.143   2.837   6.537 -0.3114  0.0703  1.0440
11007TIP3    H254437   4.063   2.948   6.473  0.7993  0.1994 -0.1518
11008TIP3   OH254438   4.757   1.774  14.963 -0.3742 -0.3222  0.0188
11008TIP3    H154439   4.723   1.845  15.018  0.2702  0.2592 -0.3148
11008TIP3    H254440   4.803   1.819  14.892  0.3722 -1.0795  0.0088
11009TIP3   OH254441   3.024   5.591   5.469 -0.4273 -0.6488  0.0556
11009TIP3    H154442   2.934   5.626   5.474 -0.4097 -0.2648 -1.7561
11009TIP3    H254443   3.072   5.641   5.535 -1.9893 -2.5001  2.8211
11010TIP3   OH254444   6.715   5.508  15.905  0.8207  0.3237  0.8851
11010TIP3    H154445   6.678   5.581  15.855 -0.7401 -1.0047  0.0048
11010TIP3    H254446   6.775   5.465  15.844  0.3960 -0.1449  0.7854
11011TIP3   OH254447   6.776   1.063   2.247 -0.3299 -0.1346 -0.6279
11011TIP3    H154448   6.772   1.008   2.326 -1.9254  0.5848 -0.1634
11011TIP3    H254449   6.770   1.001   2.175  0.1950 -0.7432 -0.1608
11012TIP3   OH254450   0.655   6.427  15.748  0.2867  0.5421 -0.0556
11012TIP3    H154451   0.743   6.435  15.711  0.8942 -0.0794  1.1807
11012TIP3    H254452   0.665   6.364  15.820 -0.9949  1.1054  0.6538
11013TIP3   OH254453   5.898   1.670   1.137 -0.1502  0.0412 -0.1722
11013TIP3    H154454   5.834   1.740   1.123 -0.6144 -0.4058 -0.2800
11013TIP3    H254455   5.848   1.589   1.130  0.4437 -0.3178 -0.3603
11014TIP3   OH254456   4.706   1.716  16.839  0.2166 -0.2464 -0.0954
11014TIP3    H154457   4.746   1.661  16.906 -2.7041 -0.4874  1.6319
11014TIP3    H254458   4.744   1.803  16.853 -0.4936 -0.2184  2.1933
11015TIP3   OH254459   0.380   5.797   0.900 -0.3489 -0.3611  1.1014
11015TIP3    H154460   0.313   5.857   0.868  0.0671  0.4463  1.7100
11015TIP3    H254461   0.451   5.804   0.836  0.6894  1.6304  2.3861
11016TIP3   OH254462   4.237   5.925  15.086  0.0299  0.3063  0.1302
11016TIP3    H154463   4.218   5.854  15.147  0.7784  0.5319  0.6372
11016TIP3    H254464   4.236   5.883  14.999 -1.7400  0.1214  0.2081
11017TIP3   OH254465   5.306   3.796   2.286 -0.1690  0.2612  0.5075
11017TIP3    H154466   5.277   3.879   2.248 -2.2150 -0.3218  0.6914
11017TIP3    H254467   5.367   3.821   2.355  0.2994  1.5301 -0.3210
11018TIP3   OH254468   3.019   0.969  15.696 -0.0290  0.3694  0.0055
11018TIP3    H154469   2.953   0.914  15.653 -0.4575  0.6170  0.3336
11018TIP3    H254470   3.071   0.908  15.748  0.6259  0.0386 -1.0189
11019TIP3   OH254471   4.932   1.147   0.630  0.1517 -0.5556  0.5989
11019TIP3    H154472   4.940   1.234   0.670 -1.0017  0.4240 -1.1786
11019TIP3    H254473   4.871   1.100   0.688 -1.4721  0.8243  0.0848
11020TIP3   OH254474   5.308   6.505   3.978 -0.4291 -0.0885 -0.3019
11020TIP3    H154475   5.232   6.519   4.034 -0.8011  0.1072 -0.8455
11020TIP3    H254476   5.335   6.593   3.952  1.1086 -0.0397  1.3395
11021TIP3   OH254477   0.467   5.349   3.055  0.2668 -0.1711 -0.1720
11021TIP3    H154478   0.476   5.444   3.049  1.2340 -0.2918 -1.0309
11021TIP3    H254479   0.477   5.318   2.965  2.9379 -1.2781  0.3986
11022TIP3   OH254480   3.437   2.015   4.528  0.2612 -0.0529  0.3154
11022TIP3    H154481   3.477   2.071   4.461  1.6618  0.0365  1.1818
11022TIP3    H254482   3.343   2.033   4.521  0.5623  1.4593 -0.2822
11023TIP3   OH254483   1.645   5.608  13.290 -0.2450 -0.3033 -0.0876
11023TIP3    H154484   1.715   5.655  13.335  1.9685 -2.8325 -0.5703
11023TIP3    H254485   1.568   5.663  13.300  1.9485  3.0770 -0.2178
11024TIP3   OH254486   5.743   1.220   4.351 -0.3683  0.2509  0.3784
11024TIP3    H154487   5.749   1.130   4.319  0.1192  0.0431  1.0279
11024TIP3    H254488   5.735   1.211   4.446  1.5552  0.9231  0.6485
11025TIP3   OH254489   1.606   2.654  15.562 -0.1400  0.0498 -0.1108
11025TIP3    H154490   1.701   2.660  15.572  0.0569 -0.4026 -1.4573
11025TIP3    H254491   1.589   2.560  15.555 -0.9577 -0.0254  2.2228
11026TIP3   OH254492   5.117   2.336   2.770  0.2625 -0.0559 -0.2178
11026TIP3    H154493   5.151   2.247   2.760  0.6389  0.2798 -2.1080
11026TIP3    H254494   5.086   2.338   2.861 -0.2402 -2.2794 -0.2669
11027TIP3   OH254495   3.947   6.277   5.869 -0.2170 -0.3007 -0.1825
11027TIP3    H154496   4.002   6.205   5.900  2.1732  1.0641 -0.9798
11027TIP3    H254497   3.886   6.294   5.941  1.5980 -0.7337  1.5522
11028TIP3   OH254498   0.391   4.852  16.305 -0.2799  0.1744 -0.5244
11028TIP3    H154499   0.322   4.856  16.239 -1.0613 -1.9703  0.0743
11028TIP3    H254500   0.376   4.929  16.360 -1.5989  0.2589 -0.9662
11029TIP3   OH254501   4.758   2.442  16.917  0.5110  0.9553  0.0835
11029TIP3    H154502   4.707   2.472  16.992 -2.2848 -2.8787 -0.0321
11029TIP3    H254503   4.737   2.505  16.848 -2.2962  0.8728  0.7437
11030TIP3   OH254504   1.833   0.128   1.633  0.3680 -0.1855 -0.4274
11030TIP3    H154505   1.793   0.153   1.716 -0.4824 -0.1558 -0.8421
11030TIP3    H254506   1.925   0.113   1.655 -0.1561 -1.7702  0.8336
11031TIP3   OH254507   2.767   2.053  17.153 -0.3445  0.5582 -0.1092
11031TIP3    H154508   2.799   1.972  17.192  1.3986  1.2678 -0.0015
11031TIP3    H254509   2.747   2.110  17.227  0.6264  1.0288 -0.1947
11032TIP3   OH254510   3.802   4.705  12.548 -0.0366  0.0129  0.5932
11032TIP3    H154511   3.850   4.782  12.577  0.8571 -0.9326  1.7170
11032TIP3    H254512   3.801   4.647  12.625 -0.5498 -1.1557 -0.2669
11033TIP3   OH254513   4.604   0.148   5.418 -0.1424 -0.1951 -0.4270
11033TIP3    H154514   4.700   0.143   5.425 -0.0595 -0.1452 -1.3941
11033TIP3    H254515   4.582   0.089   5.346 -0.8740 -0.4326 -0.0152
11034TIP3   OH254516   2.930   3.841  14.865 -0.0833 -0.2621 -0.5817
11034TIP3    H154517   2.952   3.870  14.954  0.2338  0.3856 -0.8660
11034TIP3    H254518   2.921   3.922  14.815  0.1215 -0.6377 -1.2357
11035TIP3   OH254519   2.926   5.475   3.358  0.2242 -0.2621 -0.3543
11035TIP3    H154520   2.940   5.385   3.387 -0.4941 -0.4529 -0.5749
11035TIP3    H254521   2.867   5.467   3.283  0.4923  0.3634 -0.6337
11036TIP3   OH254522   1.840   5.852   3.713  0.3172  0.0035 -0.4483
11036TIP3    H154523   1.771   5.860   3.779 -0.0615  0.3232 -0.8780
11036TIP3    H254524   1.811   5.781   3.655  0.0707  0.5185 -0.9599
11037TIP3   OH254525   3.620   1.587  15.834 -0.3977  0.0597 -0.0988
11037TIP3    H154526   3.637   1.673  15.872  0.4177 -0.8166  1.6699
11037TIP3    H254527   3.671   1.585  15.753  2.8482 -0.0929  1.7734
11038TIP3   OH254528   6.066   0.464   5.941 -0.2783  0.1690 -0.4338
11038TIP3    H154529   6.075   0.537   6.002 -0.9127  0.7023 -0.9651
11038TIP3    H254530   5.977   0.433   5.955  0.3389 -1.2666  0.6020
11039TIP3   OH254531   4.623   0.139   0.900  0.1822 -0.4242  0.5667
11039TIP3    H154532   4.578   0.068   0.853  1.3046 -0.3133 -0.7375
11039TIP3    H254533   4.611   0.216   0.845  0.9032 -0.1192  0.8191
11040TIP3   OH254534   3.567   2.804   0.290  0.1684 -0.0769 -0.2683
11040TIP3    H154535   3.657   2.769   0.284  0.5404  0.9794 -1.2732
11040TIP3    H254536   3.570   2.867   0.362  0.1413 -0.2841 -0.0845
11041TIP3   OH254537   1.721   1.287   3.714 -0.2683 -0.0020 -0.0099
11041TIP3    H154538   1.721   1.191   3.712 -0.3763  0.0024 -0.8588
11041TIP3    H254539   1.785   1.312   3.648 -0.7225  0.5073 -0.2717
11042TIP3   OH254540   0.348   5.356   0.793  0.6557 -0.5863 -0.3996
11042TIP3    H154541   0.326   5.429   0.735  0.1488 -0.5120 -0.1196
11042TIP3    H254542   0.441   5.342   0.780  0.8813  0.4929 -0.0185
11043TIP3   OH254543   5.849   2.787  16.396 -0.3307 -0.4400 -0.4798
11043TIP3    H154544   5.808   2.828  16.320 -1.8543 -0.7215  0.1723
11043TIP3    H254545   5.876   2.860  16.452 -0.5279 -0.2719 -0.6040
11044TIP3   OH254546   2.411   0.712  12.516  0.0462 -0.0428 -0.2052
11044TIP3    H154547   2.470   0.687  12.445  2.5788  1.9031  1.0576
11044TIP3    H254548   2.335   0.750  12.471  0.7462 -0.4978 -1.8774
11045TIP3   OH254549   6.782   6.698   3.554 -0.0232  0.1710 -0.1793
11045TIP3    H154550   6.695   6.690   3.593  0.0437 -1.1266 -0.2614
11045TIP3    H254551   6.842   6.705   3.629  0.1360 -2.6131  0.0611
11046TIP3   OH254552   6.682   3.107   0.305  0.5243 -0.3069 -0.5369
11046TIP3    H154553   6.747   3.094   0.235  0.7536  1.1280 -0.6208
11046TIP3    H254554   6.718   3.061   0.380  1.3100 -0.1116 -0.7838
11047TIP3   OH254555   2.348   0.321   0.028 -0.3217 -0.1685  0.3994
11047TIP3    H154556   2.342   0.304  -0.066  1.2261  0.9338  0.0520
11047TIP3    H254557   2.262   0.353   0.053 -0.9563 -1.1135 -0.4785
11048TIP3   OH254558   5.363   4.716  13.090  0.2141  0.5269 -0.4072
11048TIP3    H154559   5.298   4.787  13.088 -0.4436 -0.0089  0.7777
11048TIP3    H254560   5.423   4.741  13.160  0.0460 -0.0148 -0.0634
11049TIP3   OH254561   0.649   5.210  13.764  0.7164 -0.2783  0.2384
11049TIP3    H154562   0.564   5.167  13.753  1.4598 -1.6030 -0.4604
11049TIP3    H254563   0.686   5.170  13.843  0.3153  0.9700  1.0886
11050TIP3   OH254564   5.020   6.380   4.540  0.5736 -0.1703  0.1069
11050TIP3    H154565   4.957   6.424   4.597 -0.1082  0.8390 -1.3456
11050TIP3    H254566   5.063   6.451   4.492  2.8086 -0.8352  0.9848
11051TIP3   OH254567   4.771   3.517   5.691  0.8686  0.1358  0.3218
11051TIP3    H154568   4.700   3.490   5.749  1.3285  0.2140  0.9331
11051TIP3    H254569   4.727   3.545   5.611  0.1118  1.2704  1.1007
11052TIP3   OH254570   3.082   2.053   2.181  0.7676 -0.2911  0.3486
11052TIP3    H154571   2.998   2.073   2.140  1.0575  1.2182  0.4462
11052TIP3    H254572   3.097   1.961   2.161 -0.2395 -0.2157 -0.8563
11053TIP3   OH254573   4.184   2.243  16.096  0.2682  0.0118  0.5067
11053TIP3    H154574   4.128   2.179  16.051  0.8332  0.7811 -1.4192
11053TIP3    H254575   4.234   2.191  16.159 -1.4155 -0.9379  1.1346
11054TIP3   OH254576   1.622   4.894  16.274  0.2192  0.5881 -0.0041
11054TIP3    H154577   1.671   4.912  16.355  0.9665  0.9582 -0.5185
11054TIP3    H254578   1.553   4.960  16.272 -0.0654  0.3081  0.5414
11055TIP3   OH254579   4.400   1.351  11.929  0.2327 -0.5906 -0.4460
11055TIP3    H154580   4.361   1.318  11.848  1.2945 -0.6152 -0.9613
11055TIP3    H254581   4.454   1.280  11.962  1.2240  0.0339 -0.6782
11056TIP3   OH254582   2.822   6.223   4.725 -0.4428  0.1642  0.0484
11056TIP3    H154583   2.843   6.292   4.788 -1.0117  0.1482  0.2676
11056TIP3    H254584   2.906   6.187   4.698  0.0671  2.5152 -1.8766
11057TIP3   OH254585   5.331   0.104  12.986  0.2806 -0.1013 -0.4692
11057TIP3    H154586   5.398   0.054  13.033 -0.4762 -0.5760  0.1352
11057TIP3    H254587   5.297   0.043  12.921 -1.5000 -0.8588  1.0671
11058TIP3   OH254588   0.410   3.758  11.149 -0.5107  0.0340  0.6916
11058TIP3    H154589   0.317   3.743  11.163 -0.8395  0.3291 -1.0276
11058TIP3    H254590   0.422   3.756  11.054  1.1345  0.5862  0.8424
11059TIP3   OH254591   5.704   0.004  13.398  0.3834 -0.1834 -0.3103
11059TIP3    H154592   5.678  -0.083  13.429  0.1652  0.4073  1.2312
11059TIP3    H254593   5.624   0.057  13.405  0.8393  0.4743 -0.0024
11060TIP3   OH254594   5.201   3.280   3.633 -0.3001 -0.5767 -0.8078
11060TIP3    H154595   5.128   3.249   3.686 -0.5714  1.0971 -0.1363
11060TIP3    H254596   5.205   3.374   3.650  1.8590 -0.5761 -1.0261
11061TIP3   OH254597   5.472   2.330   1.453 -0.7762  0.2641 -0.8984
11061TIP3    H154598   5.444   2.282   1.531 -0.1036 -0.3118 -0.9978
11061TIP3    H254599   5.492   2.418   1.485  1.9587 -0.6345  0.1088
11062TIP3   OH254600   5.589   5.813  14.044  0.2634 -0.3802  0.2616
11062TIP3    H154601   5.608   5.839  13.954  4.5843  0.1115  1.1146
11062TIP3    H254602   5.609   5.890  14.097  0.5126 -1.4814  1.8461
11063TIP3   OH254603   5.654   6.569   0.815  0.2155 -0.5575 -0.1546
11063TIP3    H154604   5.695   6.560   0.901 -1.9631 -1.4798  0.8626
11063TIP3    H254605   5.632   6.662   0.809  0.4976 -0.4614  0.2260
11064TIP3   OH254606   0.865   4.147   5.519 -0.1146 -0.1127  0.2244
11064TIP3    H154607   0.797   4.094   5.478 -1.3055  0.8840  0.8305
11064TIP3    H254608   0.845   4.237   5.492  0.8834  0.2129  0.5325
11065TIP3   OH254609   3.205   4.658   3.299 -0.2168 -0.8564 -0.1283
11065TIP3    H154610   3.242   4.574   3.326 -0.1806 -0.6340  0.5541
11065TIP3    H254611   3.165   4.641   3.214  2.8666 -0.7320 -1.7673
11066TIP3   OH254612   3.159   1.465   5.820  0.1990  0.2255  0.3591
11066TIP3    H154613   3.178   1.558   5.828  1.7970 -0.0137 -0.2236
11066TIP3    H254614   3.090   1.449   5.884 -0.2785  1.8480  0.2943
11067TIP3   OH254615   0.897   6.761  13.738  0.0929  0.0301  0.1262
11067TIP3    H154616   0.968   6.764  13.802 -0.1122  1.9787  0.3247
11067TIP3    H254617   0.939   6.782  13.655  0.4758 -3.1000 -0.6061
11068TIP3   OH254618   1.693   1.373   0.888 -0.1000 -0.7804 -0.4032
11068TIP3    H154619   1.610   1.400   0.926  0.9550  0.5215  1.1323
11068TIP3    H254620   1.670   1.332   0.804 -2.1515  1.1702 -0.8781
11069TIP3   OH254621   2.937   4.074  13.252 -0.3444 -0.4749  0.7393
11069TIP3    H154622   3.022   4.073  13.298  0.2411  0.3319 -0.2759
11069TIP3    H254623   2.912   4.167  13.252  0.1969 -0.2695 -1.4562
11070TIP3   OH254624   2.370   1.869  13.052 -0.1006  0.2038  0.3854
11070TIP3    H154625   2.344   1.922  13.127  0.3593  0.7307  0.1803
11070TIP3    H254626   2.321   1.788  13.062 -2.6780  1.5247 -0.5271
11071TIP3   OH254627   4.570   2.564   4.786  0.3000 -0.2384 -0.4205
11071TIP3    H154628   4.488   2.607   4.764 -1.2371 -1.5294  2.2934
11071TIP3    H254629   4.603   2.613   4.861  1.4031 -0.4776 -0.7326
11072TIP3   OH254630   4.136   0.620  11.277 -0.0891  0.0689  0.1699
11072TIP3    H154631   4.218   0.571  11.272  0.9968  1.7846  0.1040
11072TIP3    H254632   4.098   0.596  11.362  1.0369  0.0629  0.6878
11073TIP3   OH254633   6.040   4.690   3.959 -0.2778 -0.2110  0.0659
11073TIP3    H154634   6.113   4.628   3.951  1.1574  1.5399 -1.1594
11073TIP3    H254635   6.004   4.695   3.870 -0.9258  0.0700  0.3449
11074TIP3   OH254636   3.080   6.779   1.338  0.0461  0.0328 -0.6098
11074TIP3    H154637   3.065   6.693   1.300 -1.7512  0.5901 -1.2378
11074TIP3    H254638   3.173   6.779   1.360 -0.2083 -2.6076  0.8179
11075TIP3   OH254639   1.595   6.626   6.713 -0.5979  0.1658 -0.6790
11075TIP3    H154640   1.637   6.677   6.782 -1.6613 -0.3416  0.3728
11075TIP3    H254641   1.571   6.691   6.647  0.0325  0.7207 -0.3751
11076TIP3   OH254642   6.141   2.150  15.597 -0.2370 -0.2997 -0.1626
11076TIP3    H154643   6.133   2.102  15.515 -0.9408 -0.4112 -0.0351
11076TIP3    H254644   6.108   2.090  15.664 -0.4148  0.0827  0.0955
11077TIP3   OH254645   5.207   3.781   5.111 -0.3068 -0.2581  0.4353
11077TIP3    H154646   5.217   3.868   5.148  1.2803 -0.4203  0.4525
11077TIP3    H254647   5.139   3.791   5.045  0.8893  1.3585 -0.6318
11078TIP3   OH254648   0.294   3.170   5.277 -0.3577  0.3738  0.3682
11078TIP3    H154649   0.295   3.082   5.314 -1.0325 -0.3209 -1.1731
11078TIP3    H254650   0.371   3.213   5.315 -0.5704 -0.5367  1.8988
11079TIP3   OH254651   2.732   5.383  13.522  0.2051  0.4190  0.3119
11079TIP3    H154652   2.708   5.298  13.557  1.2244  0.0999  0.2800
11079TIP3    H254653   2.687   5.389  13.438  1.3245 -0.7628 -0.4160
11080TIP3   OH254654   0.888   2.312   4.012 -0.0667 -0.0244  0.0906
11080TIP3    H154655   0.817   2.326   3.949 -0.6201 -0.7770  0.5360
11080TIP3    H254656   0.925   2.399   4.025 -0.3072  0.2322 -0.8506
11081TIP3   OH254657   6.084   1.463   2.127  0.3109 -0.6489  0.1846
11081TIP3    H154658   6.111   1.518   2.201 -1.2721 -0.3220  0.5500
11081TIP3    H254659   5.992   1.444   2.143 -0.8557  1.5018 -2.9108
11082TIP3   OH254660   2.192   3.392   3.314  0.0992 -0.2113  0.7845
11082TIP3    H154661   2.097   3.396   3.313  0.0983 -0.3678  0.1656
11082TIP3    H254662   2.220   3.476   3.280  0.1586 -0.8603 -0.8562
11083TIP3   OH254663   2.862   0.556  11.399 -0.1139  0.5086  0.1528
11083TIP3    H154664   2.864   0.621  11.469  0.1817  0.2805  0.3560
11083TIP3    H254665   2.779   0.572  11.354  0.4458  1.7891 -0.5168
11084TIP3   OH254666   5.098   5.045  10.478  0.3517 -0.7383 -0.3024
11084TIP3    H154667   5.166   5.045  10.546  0.4395  0.0146 -0.3786
11084TIP3    H254668   5.017   5.063  10.525 -0.3039 -4.3306  0.2158
11085TIP3   OH254669   3.829   4.256   6.053  0.4136  0.3626 -0.1481
11085TIP3    H154670   3.765   4.267   5.982 -1.6430  0.3720  1.5823
11085TIP3    H254671   3.892   4.326   6.039 -0.7528  1.2608 -1.1788
11086TIP3   OH254672   6.098   0.151  11.027  0.3109  0.2360  0.3109
11086TIP3    H154673   6.112   0.184  11.116  0.2162  0.5962  0.1944
11086TIP3    H254674   6.004   0.165  11.011  0.3651  0.3467  0.0855
11087TIP3   OH254675   6.654   4.707  15.834  0.0084  0.4173 -0.0658
11087TIP3    H154676   6.627   4.752  15.754 -1.2666  0.7592  0.5281
11087TIP3    H254677   6.744   4.681  15.817 -0.2411  0.4570 -1.6206
11088TIP3   OH254678   5.216   5.338  10.280 -0.0839  0.5095  0.3136
11088TIP3    H154679   5.146   5.388  10.238 -0.6945 -1.1996 -0.8497
11088TIP3    H254680   5.222   5.373  10.368 -2.7460  0.4478  0.5973
11089TIP3   OH254681   5.411   6.118   1.329  0.0163 -0.1071  0.1799
11089TIP3    H154682   5.453   6.077   1.405  0.3447 -0.1223 -0.0087
11089TIP3    H254683   5.435   6.062   1.256  0.2963  0.3047 -0.0471
11090TIP3   OH254684   4.871   6.415  15.467 -0.2657  0.4371  0.7637
11090TIP3    H154685   4.805   6.362  15.423  0.6085  0.5617 -0.7734
11090TIP3    H254686   4.825   6.495  15.494 -1.0886 -0.1649  1.1727
11091TIP3   OH254687   3.167   2.619  11.965  0.1583 -0.1086 -0.0097
11091TIP3    H154688   3.145   2.590  11.876  1.4046  0.1035 -0.4186
11091TIP3    H254689   3.085   2.615  12.013 -1.0899  2.0523 -1.7828
11092TIP3   OH254690   4.084   1.253  17.097  0.2368 -0.2310  0.3854
11092TIP3    H154691   4.005   1.292  17.061  0.6346 -0.6386 -0.9917
11092TIP3    H254692   4.132   1.222  17.021  1.8219  0.1684  1.1842
11093TIP3   OH254693   4.713   5.524  11.865  0.3712  0.0471 -0.4857
11093TIP3    H154694   4.636   5.487  11.909  0.2015  0.0844 -0.7492
11093TIP3    H254695   4.712   5.484  11.778  1.0052 -0.4405 -0.2790
11094TIP3   OH254696   4.534   6.579  13.815 -0.0965  0.3918 -0.2230
11094TIP3    H154697   4.568   6.619  13.735  0.1105  0.1204 -0.2754
11094TIP3    H254698   4.547   6.485  13.801 -0.1467  0.3385  0.0899
11095TIP3   OH254699   4.527   2.178   0.527 -0.2186 -0.2844 -0.5488
11095TIP3    H154700   4.618   2.150   0.536 -0.3427 -0.4497  0.2289
11095TIP3    H254701   4.486   2.156   0.610 -0.8915  0.0994 -0.7667
11096TIP3   OH254702   1.064   6.486  16.900  0.3765  0.0020  0.0058
11096TIP3    H154703   1.026   6.415  16.952 -0.2929  0.1343 -0.2902
11096TIP3    H254704   1.029   6.566  16.940 -1.9353  0.0640 -1.9386
11097TIP3   OH254705   5.136   5.451   0.072  0.0663  0.3125  0.0151
11097TIP3    H154706   5.137   5.364   0.031  0.0777  0.1235  0.4160
11097TIP3    H254707   5.189   5.441   0.150 -0.2041  0.5954  0.2347
11098TIP3   OH254708   2.343   0.184  15.702  0.2071 -0.4720 -0.2797
11098TIP3    H154709   2.373   0.184  15.611  0.3049 -1.3656 -0.2596
11098TIP3    H254710   2.424   0.189  15.753  0.1154  0.8003 -0.2333
11099TIP3   OH254711   4.124   3.321   1.704 -0.6676 -0.2603  0.6595
11099TIP3    H154712   4.045   3.358   1.744 -0.9228 -0.5561  0.4373
11099TIP3    H254713   4.097   3.298   1.615 -1.0135 -2.5045  1.2835
11100TIP3   OH254714   3.960   0.123  17.179  0.2490  0.0448 -0.2286
11100TIP3    H154715   4.005   0.157  17.256  0.8588 -0.0777 -0.5261
11100TIP3    H254716   3.873   0.164  17.182  0.6268  0.8551 -0.0368
11101TIP3   OH254717   6.047   3.565  11.203  0.5349 -0.8703 -1.2064
11101TIP3    H154718   6.029   3.487  11.255 -0.4931  0.0317 -0.1475
11101TIP3    H254719   6.142   3.578  11.211  0.4483 -0.9517  0.2039
11102TIP3   OH254720   2.777   6.768  12.182  0.7382  0.2101  0.0795
11102TIP3    H154721   2.734   6.853  12.190 -0.9232 -0.5276 -0.5925
11102TIP3    H254722   2.706   6.704  12.190  1.4709 -1.0381 -2.3975
11103TIP3   OH254723   5.291   4.520   1.741  0.3871 -0.6117 -0.1722
11103TIP3    H154724   5.224   4.530   1.674  0.7927 -0.5252 -0.5682
11103TIP3    H254725   5.292   4.603   1.788  0.7960 -0.3148 -0.7038
11104TIP3   OH254726   4.724   1.146  16.491  0.6318  0.4897  0.0610
11104TIP3    H154727   4.681   1.198  16.559 -0.2245 -0.2677  0.1225
11104TIP3    H254728   4.813   1.180  16.488  0.4892  1.0153  1.0731
11105TIP3   OH254729   3.261   2.207   5.433  0.5016  0.5031  0.2128
11105TIP3    H154730   3.298   2.290   5.461 -0.6024  0.5648  1.5412
11105TIP3    H254731   3.171   2.227   5.408  0.2171 -0.2824  0.5571
11106TIP3   OH254732   5.661   2.134   3.597  0.0248 -0.1008  0.3654
11106TIP3    H154733   5.633   2.225   3.598  1.9268  0.5898  3.4427
11106TIP3    H254734   5.616   2.093   3.671  0.7176 -1.1389  0.2423
11107TIP3   OH254735   0.115   4.758  16.406 -0.0503 -0.7433 -0.3894
11107TIP3    H154736   0.123   4.802  16.321  0.2434 -0.0324  0.0035
11107TIP3    H254737   0.101   4.666  16.383 -1.3186 -0.3701 -1.2376
11108TIP3   OH254738   2.757   2.701  15.645 -0.2035 -0.1462 -0.4812
11108TIP3    H154739   2.730   2.793  15.648  0.4253  0.0465 -0.6258
11108TIP3    H254740   2.704   2.663  15.575 -0.0675  0.2402 -0.7965
11109TIP3   OH254741   4.521   3.243   5.278  0.3634  0.1039 -0.3951
11109TIP3    H154742   4.521   3.307   5.350  1.9007  1.7435 -1.7535
11109TIP3    H254743   4.516   3.297   5.199 -3.8581 -1.6757 -1.6466
11110TIP3   OH254744   0.370   0.919  15.944  0.1749  0.2213  0.0136
11110TIP3    H154745   0.443   0.910  16.006  0.5878 -1.2033 -0.6476
11110TIP3    H254746   0.294   0.887  15.992  0.2418  0.3983  0.2389
11111TIP3   OH254747   2.675   6.541   1.517  0.0546  0.3369 -0.1675
11111TIP3    H154748   2.659   6.619   1.464 -1.2486 -0.2205 -0.6464
11111TIP3    H254749   2.690   6.472   1.453 -1.9801 -0.4398  0.1350
11112TIP3   OH254750   5.330   1.726  16.785 -0.2067 -0.0020  0.5933
11112TIP3    H154751   5.361   1.650  16.734 -1.6029  0.9865 -1.8974
11112TIP3    H254752   5.283   1.687  16.858 -0.4787 -1.5576 -0.3479
11113TIP3   OH254753   5.265   0.028   3.275 -0.0168  0.0318 -0.1200
11113TIP3    H154754   5.254   0.122   3.262  0.7535  0.2031  0.4113
11113TIP3    H254755   5.357   0.011   3.254  0.2386 -0.3353  1.1976
11114TIP3   OH254756   4.279   4.844  13.987 -0.6448 -0.2988 -0.3089
11114TIP3    H154757   4.249   4.822  14.075 -2.0437  2.3066 -0.0376
11114TIP3    H254758   4.289   4.760  13.943 -1.1281 -1.5985  1.9369
11115TIP3   OH254759   3.913   0.832  14.184 -0.3104  0.1527 -0.1756
11115TIP3    H154760   3.842   0.856  14.126  0.1799  1.3839 -0.2815
11115TIP3    H254761   3.967   0.911  14.192  0.1883 -0.2819  1.1393
11116TIP3   OH254762   3.551   4.936   4.735  0.2005  0.4510  0.5115
11116TIP3    H154763   3.520   4.846   4.723  1.2716 -0.0354  1.2226
11116TIP3    H254764   3.580   4.940   4.826 -0.0593  1.6010  0.5662
11117TIP3   OH254765   1.717   4.580   1.591 -0.1220 -0.7194  0.3732
11117TIP3    H154766   1.681   4.525   1.522 -2.3922 -0.9045  1.6311
11117TIP3    H254767   1.717   4.524   1.669 -1.9284  0.7855  1.5372
11118TIP3   OH254768   1.784   4.460  16.796 -0.0517  0.0218 -0.1687
11118TIP3    H154769   1.831   4.446  16.714 -2.3479 -2.5962 -1.2328
11118TIP3    H254770   1.731   4.539  16.779  1.7642  1.3533  0.0452
11119TIP3   OH254771   0.230   1.243  16.041 -0.9298 -0.0396 -0.2492
11119TIP3    H154772   0.193   1.160  16.010 -0.4875 -0.2443 -0.2395
11119TIP3    H254773   0.224   1.238  16.136  1.6409 -1.2931 -0.0797
11120TIP3   OH254774   1.528   3.992  11.480 -0.1646 -0.2964 -0.3669
11120TIP3    H154775   1.453   3.966  11.427 -0.5508 -0.1907  0.1216
11120TIP3    H254776   1.497   4.065  11.533  0.0627 -0.7159  0.3646
11121TIP3   OH254777   5.683   3.536   4.172  0.1113 -0.1794  0.2403
11121TIP3    H154778   5.602   3.585   4.158 -0.4000 -0.6475  1.4346
11121TIP3    H254779   5.654   3.447   4.190  0.9252 -0.4715  0.1383
11122TIP3   OH254780   5.299   2.946  15.087 -0.7726 -0.8962 -0.2083
11122TIP3    H154781   5.375   2.972  15.139 -1.6664 -0.7888  1.0797
11122TIP3    H254782   5.332   2.944  14.997  0.2600  1.1393  0.0571
11123TIP3   OH254783   5.365   6.538   1.446 -0.1577 -0.2273 -0.4608
11123TIP3    H154784   5.328   6.471   1.504  1.8128  0.5298  1.8454
11123TIP3    H254785   5.412   6.488   1.379 -0.6923 -1.1485 -0.1714
11124TIP3   OH254786   4.491   6.409  11.544 -0.4231  0.7464 -0.4565
11124TIP3    H154787   4.555   6.479  11.531  0.9743 -0.3991 -0.0691
11124TIP3    H254788   4.496   6.391  11.638 -0.1979 -0.3593 -0.6689
11125TIP3   OH254789   1.325   0.579  14.727  0.3370 -0.6736 -0.2087
11125TIP3    H154790   1.266   0.583  14.652  1.0234  2.2218 -0.7471
11125TIP3    H254791   1.408   0.550  14.691  0.3897 -0.3237 -0.3765
11126TIP3   OH254792   5.872   0.841   3.957 -0.3479 -0.0325  0.5154
11126TIP3    H154793   5.933   0.910   3.934  0.7890 -1.1569  0.0449
11126TIP3    H254794   5.925   0.761   3.956 -1.3884 -0.7857  2.0431
11127TIP3   OH254795   5.928   5.091  11.673  0.0559  0.3696 -0.0158
11127TIP3    H154796   6.019   5.120  11.662 -0.0972  0.9008  0.0916
11127TIP3    H254797   5.889   5.099  11.587  0.9648 -2.9946 -0.8961
11128TIP3   OH254798   5.984   5.661   3.985  0.1963  0.1202  0.4908
11128TIP3    H154799   5.891   5.640   3.993  0.5726 -2.1769 -0.4800
11128TIP3    H254800   6.000   5.663   3.891  1.2043  0.2137  0.6591
11129TIP3   OH254801   0.774   5.300  15.974 -0.4389  0.3477  0.0885
11129TIP3    H154802   0.765   5.300  16.069 -2.8559  1.5383 -0.0621
11129TIP3    H254803   0.760   5.209  15.948 -0.0938  0.0780  0.8301
11130TIP3   OH254804   3.233   6.678  16.118  0.2629  0.3211 -0.5084
11130TIP3    H154805   3.137   6.678  16.123  0.2122 -0.3636 -1.2228
11130TIP3    H254806   3.252   6.673  16.025  0.9564 -1.4589 -0.3173
11131TIP3   OH254807   3.778   6.785   3.756 -0.0549  0.3917  0.3450
11131TIP3    H154808   3.867   6.789   3.719 -0.3132  0.8046 -0.2396
11131TIP3    H254809   3.766   6.692   3.776 -0.3584 -0.0848 -1.7844
11132TIP3   OH254810   0.098   6.311   4.127  0.1161 -0.0419 -0.0603
11132TIP3    H154811   0.150   6.252   4.072 -0.5923 -0.3221 -0.4489
11132TIP3    H254812   0.009   6.303   4.092 -0.2941  0.0020  0.9475
11133TIP3   OH254813   5.974   3.776   1.504 -0.2177  0.2845 -0.5533
11133TIP3    H154814   6.007   3.701   1.554  0.6511  0.8981 -0.1930
11133TIP3    H254815   5.881   3.781   1.527 -0.6210 -1.4818 -1.6088
11134TIP3   OH254816   6.226   5.374  14.846 -0.0885  0.7635 -0.4871
11134TIP3    H154817   6.318   5.396  14.833 -0.3895  2.7743  0.4138
11134TIP3    H254818   6.182   5.458  14.853 -1.8238 -0.1539  0.2880
11135TIP3   OH254819   0.261   4.332   0.800 -0.3138 -0.2652 -0.7011
11135TIP3    H154820   0.327   4.284   0.849 -1.0203 -0.1547  0.3916
11135TIP3    H254821   0.259   4.290   0.714 -0.8078 -2.1018  0.1577
11136TIP3   OH254822   4.530   4.092   2.686 -0.2122 -0.0748  0.0786
11136TIP3    H154823   4.522   4.187   2.693 -0.3486 -0.0829  0.0363
11136TIP3    H254824   4.440   4.061   2.679 -0.1478 -0.1744 -0.3491
11137TIP3   OH254825   1.691   4.627  11.798 -0.2084  0.2854 -0.1134
11137TIP3    H154826   1.702   4.549  11.853 -2.5104 -0.2640 -0.3066
11137TIP3    H254827   1.720   4.599  11.711  1.2204  0.4230  0.2965
11138TIP3   OH254828   1.046   1.381  15.182 -0.1048 -0.1640 -0.1331
11138TIP3    H154829   0.999   1.320  15.126 -0.6652 -0.8083  1.0025
11138TIP3    H254830   1.039   1.343  15.270  1.3610  0.4367  0.2737
11139TIP3   OH254831   6.203   1.676   1.301 -0.0690  0.3573  0.6134
11139TIP3    H154832   6.231   1.602   1.354 -2.5527 -0.2992  1.1467
11139TIP3    H254833   6.229   1.653   1.212  0.1879 -0.6311  0.9380
11140TIP3   OH254834   5.715   3.073  12.134 -0.1759  0.1002  0.1961
11140TIP3    H154835   5.667   3.068  12.051 -0.5778  0.3299  0.4161
11140TIP3    H254836   5.655   3.116  12.194  0.0696 -0.1787  0.6457
11141TIP3   OH254837   1.943   0.723   4.686 -0.2593  0.1572 -0.0179
11141TIP3    H154838   1.942   0.813   4.719  0.7493  0.2331 -0.1627
11141TIP3    H254839   1.962   0.731   4.593  1.1458 -0.2568  0.2157
11142TIP3   OH254840   1.760   2.638  13.424  0.1122 -0.1938 -0.4143
11142TIP3    H154841   1.719   2.699  13.484  0.2835 -0.4723 -0.0098
11142TIP3    H254842   1.740   2.672  13.337  1.3096  1.1724 -0.1838
11143TIP3   OH254843   2.966   0.213  14.902  0.0279  0.4718 -0.0655
11143TIP3    H154844   2.953   0.304  14.874  0.8009  1.4389  2.4365
11143TIP3    H254845   2.890   0.194  14.957  0.9463  0.3862  1.1954
11144TIP3   OH254846   4.915   0.828  13.392 -0.3082  0.0555  0.6081
11144TIP3    H154847   4.903   0.734  13.404  0.0844 -0.2015 -0.8067
11144TIP3    H254848   4.836   0.867  13.428 -0.7617 -0.8625  0.6364
11145TIP3   OH254849   2.284   6.666   0.749  0.3588  0.0271  0.0127
11145TIP3    H154850   2.297   6.577   0.781  1.1560  0.2566  0.3639
11145TIP3    H254851   2.226   6.707   0.813  0.6973  0.0195  0.3272
11146TIP3   OH254852   0.154   3.691   5.802  0.0015 -0.8716 -0.5454
11146TIP3    H154853   0.065   3.691   5.837 -0.7164  0.8440 -2.2294
11146TIP3    H254854   0.143   3.697   5.708  1.9290 -1.8951 -0.8871
11147TIP3   OH254855   6.338   4.583   1.470  0.0198 -0.0552  0.6258
11147TIP3    H154856   6.358   4.624   1.387  1.3574 -0.3649  0.7662
11147TIP3    H254857   6.314   4.493   1.448  1.6334 -0.5128  0.6452
11148TIP3   OH254858   4.658   0.115  16.234  0.1272 -0.3981  0.1080
11148TIP3    H154859   4.746   0.113  16.273  0.1048  1.5645  0.3228
11148TIP3    H254860   4.667   0.172  16.158 -1.5303  2.1649  1.7110
11149TIP3   OH254861   2.378   0.770   1.064 -0.2464 -0.6186  0.1045
11149TIP3    H154862   2.333   0.687   1.081  0.1649 -0.7780  0.4351
11149TIP3    H254863   2.374   0.816   1.148  1.6841 -1.3491  0.6473
11150TIP3   OH254864   3.563   4.012   0.108 -0.4394  0.2637  0.3712
11150TIP3    H154865   3.495   3.971   0.162  0.1097 -0.5128  0.4947
11150TIP3    H254866   3.631   4.038   0.171  0.4142 -1.0631  0.0464
11151TIP3   OH254867   5.579   6.752   5.035 -0.2025 -0.0537  0.0787
11151TIP3    H154868   5.515   6.818   5.009 -1.9826 -1.7288 -0.0136
11151TIP3    H254869   5.542   6.669   5.004  1.5739 -1.1983  0.8521
11152TIP3   OH254870   4.702   4.225  16.891  0.5011  0.2902  0.2113
11152TIP3    H154871   4.734   4.255  16.806 -0.5846 -0.4209 -0.4874
11152TIP3    H254872   4.745   4.140  16.904 -0.3213 -0.2188 -0.2769
11153TIP3   OH254873   3.627   6.458  11.154  0.1646 -0.2891  0.4261
11153TIP3    H154874   3.590   6.514  11.086  0.7807  1.6512  1.5976
11153TIP3    H254875   3.553   6.405  11.184 -0.0684 -1.3683 -1.8351
11154TIP3   OH254876   1.935   5.688   5.760 -0.2538  0.9114  0.5149
11154TIP3    H154877   2.017   5.641   5.744 -2.2528 -2.2849 -1.7670
11154TIP3    H254878   1.939   5.764   5.703  1.1799  0.8880  0.5643
11155TIP3   OH254879   1.660   4.687  16.735  0.1491  0.1253  0.4763
11155TIP3    H154880   1.577   4.676  16.781  0.3220 -0.0623  0.7496
11155TIP3    H254881   1.681   4.780  16.747  1.1924 -0.3073  2.5544
11156TIP3   OH254882   2.316   6.090  14.754 -0.2783 -0.3714 -0.6068
11156TIP3    H154883   2.220   6.090  14.756 -0.2831 -1.7194  0.6783
11156TIP3    H254884   2.339   6.002  14.726  0.5977 -0.3013 -0.1244
11157TIP3   OH254885   3.688   3.012  13.920 -0.1195 -0.0480  0.0098
11157TIP3    H154886   3.740   3.093  13.913 -1.1099  0.4719 -3.4389
11157TIP3    H254887   3.753   2.942  13.916  0.5684  0.6103 -0.8679
11158TIP3   OH254888   5.847   6.618   5.426 -0.2369  0.3660  0.4051
11158TIP3    H154889   5.904   6.588   5.497  0.1390 -1.3822 -0.5960
11158TIP3    H254890   5.903   6.622   5.349 -1.3776 -1.1958 -0.5591
11159TIP3   OH254891   4.118   0.041  16.930 -0.2440  0.3857 -0.1773
11159TIP3    H154892   4.153   0.113  16.982  0.9151 -1.1595  1.2967
11159TIP3    H254893   4.042   0.009  16.980 -1.7385  1.4929 -1.6062
11160TIP3   OH254894   5.804   2.306   2.584  0.2415  0.2028 -0.1816
11160TIP3    H154895   5.831   2.380   2.531  0.2837  0.9215  0.8222
11160TIP3    H254896   5.841   2.323   2.670  0.1443 -0.9235  0.1023
11161TIP3   OH254897   1.889   5.752   1.012  0.1167  0.2963 -0.0953
11161TIP3    H154898   1.939   5.808   1.071  0.4164  0.9259 -0.9200
11161TIP3    H254899   1.809   5.732   1.060 -0.5868  2.4952 -0.2469
11162TIP3   OH254900   1.525   5.829  16.514  0.3145  0.4888  0.0109
11162TIP3    H154901   1.570   5.745  16.514  0.9645  0.7442 -2.9091
11162TIP3    H254902   1.442   5.813  16.469 -0.4071  1.0368  1.1035
11163TIP3   OH254903   3.310   5.883   3.803 -0.1428 -0.1294 -0.2697
11163TIP3    H154904   3.324   5.797   3.843  2.1230  0.3270  0.0632
11163TIP3    H254905   3.346   5.945   3.866 -1.9022  1.1088 -0.4323
11164TIP3   OH254906   1.385   5.799  13.810 -0.0402 -0.0496  0.2137
11164TIP3    H154907   1.459   5.849  13.846 -0.4623  1.0107 -0.3461
11164TIP3    H254908   1.406   5.789  13.717 -1.1263  1.3053 -0.2176
11165TIP3   OH254909   3.578   4.522  11.810  0.5484 -0.5479  0.2981
11165TIP3    H154910   3.501   4.563  11.850  0.0391 -0.9988 -0.2111
11165TIP3    H254911   3.652   4.577  11.838 -0.2277  1.4213 -1.3079
11166TIP3   OH254912   2.802   1.331   1.190  0.2005 -0.3836 -0.4870
11166TIP3    H154913   2.875   1.315   1.130 -0.5096 -0.6107 -1.3211
11166TIP3    H254914   2.741   1.384   1.139 -0.1808 -0.1236  0.2255
11167TIP3   OH254915   6.314   0.180  11.477  0.5291 -0.1959  0.0039
11167TIP3    H154916   6.255   0.172  11.552  1.3765 -0.9329  0.6129
11167TIP3    H254917   6.397   0.208  11.515  1.2958 -1.6862 -0.4825
11168TIP3   OH254918   1.085   3.608  11.842  0.3093 -0.5496 -0.5901
11168TIP3    H154919   1.157   3.653  11.887  0.0795  0.0861 -0.8401
11168TIP3    H254920   1.015   3.674  11.837 -0.5655 -1.3876  0.2873
11169TIP3   OH254921   5.255   4.492   4.142 -0.4378 -0.1953  0.1538
11169TIP3    H154922   5.281   4.544   4.219 -0.0864 -0.6079  0.3187
11169TIP3    H254923   5.202   4.552   4.089 -0.4301  0.1853  0.5720
11170TIP3   OH254924   4.072   0.013  14.183 -0.1621  0.0926  0.1227
11170TIP3    H154925   4.051   0.099  14.219  1.3549  0.8378 -0.7042
11170TIP3    H254926   4.055  -0.048  14.255 -1.8759  0.9794  0.5311
11171TIP3   OH254927   1.214   4.832  15.028 -0.1911 -0.0732  0.6091
11171TIP3    H154928   1.294   4.796  14.988 -0.2865 -1.4249  1.5637
11171TIP3    H254929   1.228   4.927  15.029  1.0506 -0.2304  0.0344
11172TIP3   OH254930   3.740   6.699  15.584  0.8816  0.0441 -0.2934
11172TIP3    H154931   3.696   6.695  15.499  1.3791 -1.9508 -0.4891
11172TIP3    H254932   3.719   6.787  15.617 -2.2519 -0.3851 -0.8669
11173TIP3   OH254933   4.714   6.349  15.774 -0.8181 -0.1454 -0.8372
11173TIP3    H154934   4.651   6.416  15.801 -1.0070 -0.5377 -0.2734
11173TIP3    H254935   4.682   6.319  15.689 -1.4328 -0.3765 -0.5349
11174TIP3   OH254936   0.763   1.181   2.185  0.5118  0.6266  0.8679
11174TIP3    H154937   0.819   1.111   2.153 -0.2379 -0.0970  1.1150
11174TIP3    H254938   0.775   1.181   2.280 -0.7654 -0.3072  1.0483
11175TIP3   OH254939   5.649   4.493  15.342 -0.2856  0.0857  0.2198
11175TIP3    H154940   5.709   4.484  15.268 -0.8050  0.0802 -0.2039
11175TIP3    H254941   5.686   4.436  15.410  1.2960  1.5963  0.7023
11176TIP3   OH254942   4.289   5.015   0.310 -0.1672  0.0757 -0.4128
11176TIP3    H154943   4.240   5.058   0.240 -1.1538 -0.0668  0.1643
11176TIP3    H254944   4.344   5.085   0.346 -0.4645  0.4272 -0.6232
11177TIP3   OH254945   4.797   2.915   6.504 -0.5448 -0.8451 -0.6091
11177TIP3    H154946   4.859   2.929   6.433 -0.3454 -0.4854 -0.3705
11177TIP3    H254947   4.757   2.830   6.485  0.2154 -1.2109 -0.6223
11178TIP3   OH254948   4.647   5.334  16.190  0.0229 -0.3116  0.2052
11178TIP3    H154949   4.621   5.319  16.100  3.5060  1.3476 -1.2426
11178TIP3    H254950   4.676   5.425  16.193 -0.0109 -0.2850  3.0236
11179TIP3   OH254951   6.321   1.648  13.479 -0.3336 -0.3378 -0.2163
11179TIP3    H154952   6.416   1.632  13.479 -0.5344 -1.6489 -1.3235
11179TIP3    H254953   6.310   1.727  13.427  0.4105  1.9470  2.8212
11180TIP3   OH254954   0.534   1.186   4.507 -0.4178 -0.4678 -0.2861
11180TIP3    H154955   0.597   1.212   4.440  1.4875 -0.3434  1.4423
11180TIP3    H254956   0.510   1.096   4.484  1.5211 -1.0488 -0.2751
11181TIP3   OH254957   1.941   6.622   6.040  0.4148 -0.2194  0.5665
11181TIP3    H154958   1.921   6.541   5.993  0.0744 -0.1826  0.6485
11181TIP3    H254959   1.901   6.610   6.126 -1.3315  0.8154 -0.0578
11182TIP3   OH254960   5.382   4.569  12.307  0.1708  0.3994 -0.1953
11182TIP3    H154961   5.319   4.497  12.312 -1.2651  1.6347  0.3088
11182TIP3    H254962   5.464   4.528  12.280 -0.1315 -1.7009  1.7683
11183TIP3   OH254963   6.113   1.559  14.284  0.3239  0.1312  0.0030
11183TIP3    H154964   6.150   1.644  14.309 -1.0678  0.2999  1.6747
11183TIP3    H254965   6.038   1.581  14.229 -1.0177  0.1410  1.7287
11184TIP3   OH254966   3.656   1.097   5.966  0.0290  0.7266 -0.5092
11184TIP3    H154967   3.636   1.130   6.053 -0.3484 -0.9758  0.0787
11184TIP3    H254968   3.633   1.004   5.969  0.0415  0.6177 -2.4091
11185TIP3   OH254969   3.449   2.349   3.295  0.3267 -0.1990 -0.0664
11185TIP3    H154970   3.538   2.327   3.322  0.4641  0.1009 -0.2691
11185TIP3    H254971   3.458   2.431   3.246 -0.2920  0.9617  1.6461
11186TIP3   OH254972   1.505   3.931  12.867  0.4139 -0.0116 -0.6689
11186TIP3    H154973   1.417   3.917  12.902  0.0870 -0.6897 -1.7367
11186TIP3    H254974   1.512   3.871  12.794  2.0601 -0.5218 -0.1362
11187TIP3   OH254975   3.927   2.248   0.082 -0.1844 -0.4931 -0.1104
11187TIP3    H154976   3.975   2.317   0.036 -2.0279 -0.6947 -2.5252
11187TIP3    H254977   3.995   2.188   0.112  1.2209  0.4449 -1.2848
11188TIP3   OH254978   0.798   5.874  12.069  0.0659  0.3200 -0.1577
11188TIP3    H154979   0.801   5.970  12.060 -0.2794  0.3753  0.2702
11188TIP3    H254980   0.818   5.858  12.161  0.4577 -0.0457 -0.3021
11189TIP3   OH254981   1.045   1.870   3.250 -0.6083  0.2292  0.0320
11189TIP3    H154982   1.004   1.918   3.178 -1.1553 -0.1324  0.1016
11189TIP3    H254983   0.977   1.864   3.317 -0.6857 -1.0327 -0.1460
11190TIP3   OH254984   5.095   0.784  15.913  0.7103  0.8977 -0.4321
11190TIP3    H154985   5.034   0.824  15.851  0.3327 -0.0201 -0.6773
11190TIP3    H254986   5.181   0.792  15.870  0.7846  2.2019 -0.0790
11191TIP3   OH254987   6.701   5.328   0.529  0.1126  0.1388 -0.1723
11191TIP3    H154988   6.621   5.353   0.482 -0.7278 -0.3656  0.9425
11191TIP3    H254989   6.764   5.395   0.506 -0.2866 -0.0301 -1.9422
11192TIP3   OH254990   0.865   4.168  13.193 -0.3964 -0.2870  0.1415
11192TIP3    H154991   0.818   4.156  13.276  0.5940 -0.7050  0.6629
11192TIP3    H254992   0.955   4.190  13.219 -0.4645  1.2722 -0.8344
11193TIP3   OH254993   2.364   5.486  17.160  0.1389 -0.6150 -0.2703
11193TIP3    H154994   2.299   5.523  17.100 -0.1967  0.1743  0.5580
11193TIP3    H254995   2.418   5.430  17.105 -1.1092 -1.1242 -1.0202
11194TIP3   OH254996   1.026   5.457  11.598 -0.0493 -0.2648 -0.1895
11194TIP3    H154997   1.114   5.474  11.565  1.1029  0.1459  2.8207
11194TIP3    H254998   0.968   5.497  11.533  2.0005  0.5768 -1.6022
11195TIP3   OH254999   6.148   3.853  14.685  0.0858  0.6675  0.0191
11195TIP3    H155000   6.203   3.931  14.675  0.1730  0.5645 -0.2964
11195TIP3    H255001   6.118   3.833  14.597 -0.1504  0.4975  0.1377
11196TIP3   OH255002   4.522   2.602   5.387  0.3759 -0.4654 -0.0524
11196TIP3    H155003   4.544   2.691   5.357  2.2828 -0.2556  1.7294
11196TIP3    H255004   4.602   2.551   5.370  0.6261 -0.9216  2.2163
11197TIP3   OH255005   1.192   0.115   2.118 -0.1233 -0.4772 -0.2961
11197TIP3    H155006   1.194   0.130   2.213 -2.9852  0.0698 -0.2550
11197TIP3    H255007   1.108   0.073   2.102 -0.5189  1.0857 -2.8174
11198TIP3   OH255008   6.188   1.256   2.861 -0.1204  0.2457  0.0375
11198TIP3    H155009   6.258   1.318   2.883 -1.7935  2.8306 -1.3237
11198TIP3    H255010   6.125   1.265   2.932 -1.1849  1.5420 -1.0120
11199TIP3   OH255011   1.428   3.879  17.241 -0.3397 -0.0049 -0.1523
11199TIP3    H155012   1.421   3.929  17.159 -0.7199  2.1216  1.1142
11199TIP3    H255013   1.389   3.936  17.307  2.5883 -0.3838  2.0556
11200TIP3   OH255014   6.175   6.752  13.119 -0.3488  0.7894 -0.6004
11200TIP3    H155015   6.139   6.734  13.205  0.5782  0.3561 -0.2872
11200TIP3    H255016   6.100   6.776  13.065 -0.9594  0.8369  0.2696
11201TIP3   OH255017   2.693   1.900  16.924 -0.4520 -0.2200  0.4446
11201TIP3    H155018   2.625   1.946  16.874 -0.3862 -1.5482 -0.9480
11201TIP3    H255019   2.698   1.947  17.007 -2.2801  0.6000  0.1381
11202TIP3   OH255020   2.011   0.494  13.419  0.0349 -0.1948  0.3461
11202TIP3    H155021   2.102   0.518  13.402 -0.5347  0.0978 -3.1399
11202TIP3    H255022   1.973   0.570  13.463  1.3736 -0.2163  1.5991
11203TIP3   OH255023   5.077   3.085  14.463  0.0817 -0.3393 -0.1642
11203TIP3    H155024   4.982   3.069  14.462 -0.0684  0.1380  1.7061
11203TIP3    H255025   5.105   3.054  14.549  1.1284  2.0052  0.4208
11204TIP3   OH255026   6.297   3.641  11.031 -0.2268  0.0290 -0.4993
11204TIP3    H155027   6.274   3.651  10.939  1.3883 -0.3413 -0.9679
11204TIP3    H255028   6.328   3.551  11.039  0.3240  0.2737  0.2430
11205TIP3   OH255029   1.735   6.575  10.885 -0.3927 -0.0682 -0.0757
11205TIP3    H155030   1.641   6.580  10.868 -0.4157  0.8427  0.2937
11205TIP3    H255031   1.743   6.576  10.980  0.0555  1.7171 -0.0864
11206TIP3   OH255032   2.523   0.393  15.779  0.4144 -0.3132  0.0273
11206TIP3    H155033   2.477   0.419  15.859  1.6685  0.4880  0.5175
11206TIP3    H255034   2.453   0.376  15.716 -0.6136 -1.2588  1.3708
11207TIP3   OH255035   0.901   1.452  13.706  0.1619  0.3005  0.4546
11207TIP3    H155036   0.891   1.547  13.715  1.0583  0.4678 -0.1370
11207TIP3    H255037   0.871   1.433  13.617  1.6826  0.3263 -0.1086
11208TIP3   OH255038   3.853   1.916  14.213 -0.0538  0.3651 -0.2744
11208TIP3    H155039   3.924   1.851  14.217 -0.7270 -0.3819 -0.2749
11208TIP3    H255040   3.884   1.981  14.149  0.6597  0.0901 -0.2251
11209TIP3   OH255041   3.105   2.061   3.421 -0.3789  0.1001  0.3373
11209TIP3    H155042   3.057   2.139   3.392 -0.5708 -0.1257  0.0421
11209TIP3    H255043   3.160   2.038   3.346  1.0236  0.9954  1.0374
11210TIP3   OH255044   0.112   2.224  13.292  0.2569 -0.8441 -0.2881
11210TIP3    H155045   0.125   2.151  13.231  1.8569  1.7145 -3.3251
11210TIP3    H255046   0.199   2.242  13.328 -0.0975 -0.3551  0.3542
11211TIP3   OH255047   5.206   0.244   5.688 -0.5316 -0.3389 -0.1262
11211TIP3    H155048   5.177   0.335   5.685 -0.3263 -0.3004 -2.3211
11211TIP3    H255049   5.288   0.246   5.737  0.7472  1.0867 -2.1865
11212TIP3   OH255050   3.762   5.386  13.364 -0.7884  0.2443  0.4383
11212TIP3    H155051   3.745   5.313  13.424 -0.9816 -0.7798 -0.8237
11212TIP3    H255052   3.706   5.457  13.397 -0.9200 -0.2983  1.4314
11213TIP3   OH255053   2.729   3.484   2.474 -0.1609  0.5018 -0.1300
11213TIP3    H155054   2.707   3.461   2.384 -1.7717  0.4187  0.2633
11213TIP3    H255055   2.741   3.579   2.471  2.6538  0.2386 -0.9564
11214TIP3   OH255056   4.017   6.693  11.205  0.1879  0.2060  0.0206
11214TIP3    H155057   4.031   6.599  11.217 -0.6490  0.1521  0.6859
11214TIP3    H255058   3.922   6.703  11.196  0.2421  1.0124  0.2109
11215TIP3   OH255059   3.125   1.338   4.139  0.5748  0.2464 -0.3012
11215TIP3    H155060   3.217   1.323   4.160  0.5608  0.8354  0.2147
11215TIP3    H255061   3.078   1.270   4.188  0.7262 -0.0470 -0.5565
11216TIP3   OH255062   0.185   0.287   1.449 -0.6012 -0.8777  0.7500
11216TIP3    H155063   0.257   0.306   1.508 -0.8643  0.9559  0.5416
11216TIP3    H255064   0.133   0.221   1.495  0.1870 -0.8260  1.7422
11217TIP3   OH255065   4.901   4.788  15.866  0.0747  0.0310 -0.3863
11217TIP3    H155066   4.805   4.787  15.861 -0.0614  2.0907  0.6274
11217TIP3    H255067   4.920   4.849  15.937  2.1804  0.8561 -1.5916
11218TIP3   OH255068   4.281   6.178   5.031  0.3035  0.4623  0.1958
11218TIP3    H155069   4.240   6.179   5.118 -0.0495 -0.4664  0.0531
11218TIP3    H255070   4.296   6.271   5.011  0.0389  0.7099  1.0811
11219TIP3   OH255071   3.968   4.347  16.269 -0.3378  0.1613 -0.1696
11219TIP3    H155072   3.990   4.398  16.191  0.6934 -1.1772 -0.7994
11219TIP3    H255073   4.010   4.262  16.255 -0.6574 -0.3311  1.5619
11220TIP3   OH255074   1.690   3.298   4.516  0.1536 -0.1290  0.8156
11220TIP3    H155075   1.691   3.290   4.612  0.5432  0.3157  0.8560
11220TIP3    H255076   1.754   3.368   4.498 -0.7279  0.5617  0.3049
11221TIP3   OH255077   3.106   5.682   2.207  0.5528  0.4820 -0.1401
11221TIP3    H155078   3.026   5.645   2.171 -0.1418  1.0721  0.7386
11221TIP3    H255079   3.172   5.668   2.139 -0.1975 -0.3691 -0.7134
11222TIP3   OH255080   1.490   0.557   2.822 -0.4008 -0.0401 -0.2998
11222TIP3    H155081   1.486   0.462   2.807  4.2094 -0.5802  0.3528
11222TIP3    H255082   1.517   0.592   2.737  0.1645  0.3399  0.0320
11223TIP3   OH255083   1.205   6.483   5.738  0.1473 -0.5391  0.8877
11223TIP3    H155084   1.263   6.416   5.774 -0.2219 -1.0553  0.5464
11223TIP3    H255085   1.161   6.520   5.814 -1.4382 -2.3812  0.9554
11224TIP3   OH255086   4.159   4.993   5.713  0.2612  0.5573 -0.6056
11224TIP3    H155087   4.207   4.924   5.758 -1.1537 -0.8698 -1.2241
11224TIP3    H255088   4.105   5.033   5.781  0.9383  0.9411 -0.2861
11225TIP3   OH255089   2.702   1.464   1.745 -0.5032  0.3903  0.1072
11225TIP3    H155090   2.707   1.426   1.657 -0.2282  0.1957  0.2049
11225TIP3    H255091   2.669   1.553   1.731  1.1718  0.9826 -0.3817
11226TIP3   OH255092   2.702   1.344   5.401 -0.2439 -0.8265 -0.4046
11226TIP3    H155093   2.714   1.407   5.330 -0.7796 -0.3968 -0.1117
11226TIP3    H255094   2.671   1.264   5.357 -1.0932 -0.3966 -0.5949
11227TIP3   OH255095   6.747   5.857   4.399  0.1320  0.0996 -0.3815
11227TIP3    H155096   6.691   5.820   4.466  0.4740  1.7105  0.8470
11227TIP3    H255097   6.815   5.791   4.385 -0.0899 -0.3607  0.6573
11228TIP3   OH255098   4.780   5.123  11.273 -0.5432  0.1503  0.2404
11228TIP3    H155099   4.740   5.193  11.221  0.2554 -0.4695 -1.2790
11228TIP3    H255100   4.874   5.136  11.261 -0.3808 -1.2775 -0.2366
11229TIP3   OH255101   0.601   6.301   2.845  0.0815  0.0791  0.3222
11229TIP3    H155102   0.551   6.349   2.778  1.5270  0.7179 -0.3397
11229TIP3    H255103   0.657   6.242   2.794 -1.1374 -1.8313  1.1030
11230TIP3   OH255104   4.071   0.105  14.994  0.3223 -0.0198  0.5493
11230TIP3    H155105   3.995   0.047  15.006 -0.7077  1.2862  0.5788
11230TIP3    H255106   4.139   0.048  14.957 -1.0116 -1.0130 -0.4941
11231TIP3   OH255107   4.852   6.180  11.360  0.3569 -0.2624  0.4962
11231TIP3    H155108   4.823   6.268  11.383  1.3656 -0.1846  1.5777
11231TIP3    H255109   4.815   6.124  11.428 -1.0607 -0.8494 -0.6966
11232TIP3   OH255110   3.087   6.406   2.291 -0.2274 -0.4836 -0.3094
11232TIP3    H155111   3.144   6.427   2.217  1.2400 -0.4783  0.7811
11232TIP3    H255112   3.000   6.434   2.263  0.7810  2.5027 -0.8436
11233TIP3   OH255113   3.044   4.647   0.926 -0.0235 -0.3941 -0.4060
11233TIP3    H155114   3.100   4.569   0.936  0.0605 -0.2880 -0.0245
11233TIP3    H255115   2.969   4.630   0.983 -0.8988 -0.9851 -1.6742
11234TIP3   OH255116   2.975   6.307   1.123 -0.1567  0.4365  0.2112
11234TIP3    H155117   3.032   6.380   1.099 -0.3166  0.0247 -1.6023
11234TIP3    H255118   3.032   6.247   1.171  0.9825  0.0587 -1.5186
11235TIP3   OH255119   3.685   3.499   3.249  0.0204  0.1959  0.5971
11235TIP3    H155120   3.757   3.497   3.312  1.8985 -2.5911 -1.4084
11235TIP3    H255121   3.629   3.425   3.273 -0.8000  0.7785  0.5612
11236TIP3   OH255122   3.989   2.129  14.552 -0.3333 -0.6455 -0.8623
11236TIP3    H155123   3.990   2.084  14.636  1.5113 -0.9122 -0.9943
11236TIP3    H255124   3.912   2.186  14.557 -0.6535 -1.1585  0.7263
11237TIP3   OH255125   1.853   0.798  16.159  0.6627  0.4811 -0.2997
11237TIP3    H155126   1.795   0.872  16.175 -0.8613 -1.0733  1.9193
11237TIP3    H255127   1.911   0.796  16.235  0.3841 -0.8139 -0.0906
11238TIP3   OH255128   2.878   0.601   1.733  0.4639 -0.9742  0.8899
11238TIP3    H155129   2.931   0.651   1.796 -0.0024 -0.7992  1.1483
11238TIP3    H255130   2.852   0.665   1.667 -0.9064 -0.6476  1.7109
11239TIP3   OH255131   3.104   0.847   0.358  0.5048  0.3864  0.0667
11239TIP3    H155132   3.099   0.838   0.263 -1.4872 -0.1830  0.1851
11239TIP3    H255133   3.144   0.766   0.388  0.3244  0.1875 -0.2287
11240TIP3   OH255134   3.786   6.289  16.152  0.0700 -0.1006 -0.3348
11240TIP3    H155135   3.698   6.260  16.128 -0.5016  0.9188  0.4395
11240TIP3    H255136   3.778   6.317  16.243  1.5315 -1.2585  0.1836
11241TIP3   OH255137   5.925   6.259   4.834 -0.0653  0.2952  0.5396
11241TIP3    H155138   5.900   6.352   4.842 -0.0017  0.3694 -0.1101
11241TIP3    H255139   5.987   6.245   4.905 -3.5840 -0.4796  3.8042
11242TIP3   OH255140   2.504   1.760   0.617  0.1456 -0.6531 -0.1005
11242TIP3    H155141   2.438   1.753   0.686 -0.9674  0.5470 -0.9956
11242TIP3    H255142   2.588   1.760   0.664 -0.6051  1.0202  1.3603
11243TIP3   OH255143   6.513   4.111  13.940 -0.2613 -0.3905  0.0050
11243TIP3    H155144   6.597   4.155  13.925 -0.1037 -1.0568 -1.1769
11243TIP3    H255145   6.472   4.108  13.854 -1.3115 -0.4833  0.4935
11244TIP3   OH255146   1.762   6.171   0.469  0.1817 -0.5124 -0.2247
11244TIP3    H155147   1.845   6.210   0.442  0.1623 -0.0164  0.4110
11244TIP3    H255148   1.779   6.138   0.557 -0.7201  0.9997  0.5579
11245TIP3   OH255149   5.656   6.250   5.000  0.1220 -0.2423 -0.4914
11245TIP3    H155150   5.673   6.329   5.052 -0.3360 -0.9461  0.7673
11245TIP3    H255151   5.730   6.246   4.939  0.7770  0.5271  0.2167
11246TIP3   OH255152   0.949   4.242   1.951 -0.6012  0.0795 -0.2731
11246TIP3    H155153   0.876   4.226   2.011 -1.0181 -1.5147 -1.1610
11246TIP3    H255154   1.011   4.293   2.003 -1.4953 -0.1928  1.1173
11247TIP3   OH255155   3.681   2.217  16.398  0.0541  0.1507  0.3235
11247TIP3    H155156   3.693   2.273  16.475  0.7373  1.3156 -0.5948
11247TIP3    H255157   3.600   2.170  16.415 -0.5951  1.4922  1.0901
11248TIP3   OH255158   3.566   0.776  12.311  0.7152 -0.6255 -0.1415
11248TIP3    H155159   3.504   0.724  12.361 -0.9364  0.7720 -0.6207
11248TIP3    H255160   3.605   0.835  12.375  1.5025 -1.4339  0.1420
11249TIP3   OH255161   2.932   6.210  16.752 -0.3752  0.3872  0.7253
11249TIP3    H155162   2.985   6.190  16.829  1.9723  1.4399 -0.5190
11249TIP3    H255163   2.977   6.283  16.710 -1.6444 -0.0663 -1.6057
11250TIP3   OH255164   1.175   2.106   2.183  0.3455  0.2726 -0.2335
11250TIP3    H155165   1.138   2.107   2.271 -0.6335 -0.4679 -0.6147
11250TIP3    H255166   1.269   2.096   2.197  0.0868 -1.1199  0.7151
11251TIP3   OH255167   6.591   2.723  12.984  0.1897  0.0142 -0.3298
11251TIP3    H155168   6.543   2.703  12.903  0.3392 -0.2376 -0.3589
11251TIP3    H255169   6.570   2.650  13.042 -1.5814  1.2101  0.6202
11252TIP3   OH255170   6.771   1.665   0.610 -1.0447 -0.1793 -0.0475
11252TIP3    H155171   6.758   1.648   0.703 -0.9029  0.5223  0.1031
11252TIP3    H255172   6.771   1.760   0.602  0.0532 -0.2119 -0.6033
11253TIP3   OH255173   3.602   0.302  16.261 -0.1471 -0.2553  0.0436
11253TIP3    H155174   3.658   0.293  16.184 -0.3060  0.3228 -0.1459
11253TIP3    H255175   3.589   0.212  16.292  0.8023 -0.4111  0.0334
11254TIP3   OH255176   0.673   4.558   0.832  0.0008 -0.0723 -0.4384
11254TIP3    H155177   0.711   4.558   0.920 -0.5180 -1.7004 -0.1793
11254TIP3    H255178   0.611   4.631   0.832 -1.5480 -1.3079  1.2874
11255TIP3   OH255179   0.754   5.644   1.869  0.0812  0.1094 -0.2103
11255TIP3    H155180   0.741   5.549   1.863  2.7256 -0.2518 -2.1811
11255TIP3    H255181   0.752   5.674   1.779  2.4545  1.3555  0.0696
11256TIP3   OH255182   3.196   0.856   2.600 -0.2569  0.1547 -0.7806
11256TIP3    H155183   3.253   0.847   2.676 -0.4496 -0.5289 -0.7079
11256TIP3    H255184   3.255   0.881   2.529  0.1456 -0.5885 -0.7185
11257TIP3   OH255185   6.702   2.245  16.185  0.3529  0.0955  0.2083
11257TIP3    H155186   6.732   2.173  16.131  2.8793  0.4336  1.0328
11257TIP3    H255187   6.685   2.206  16.271 -0.2918  0.1410  0.1050
11258TIP3   OH255188   6.591   5.780   2.070 -0.4468 -0.3743 -0.2507
11258TIP3    H155189   6.581   5.865   2.113 -1.2553 -0.2869 -0.6067
11258TIP3    H255190   6.684   5.758   2.083 -0.3673  0.2755  0.3639
11259TIP3   OH255191   4.302   6.117   0.600  0.7354  0.0032 -0.3032
11259TIP3    H155192   4.329   6.127   0.691  1.6922  0.6478 -0.6504
11259TIP3    H255193   4.310   6.204   0.563  2.7267 -0.6850 -1.6415
11260TIP3   OH255194   1.943   6.725   3.569  0.2788  0.0410 -0.4386
11260TIP3    H155195   1.978   6.637   3.559 -1.4720 -0.7219 -0.1072
11260TIP3    H255196   2.020   6.782   3.566  1.3454 -1.4040 -1.6542
11261TIP3   OH255197   2.309   2.688   2.856 -0.4209  0.4887 -0.2998
11261TIP3    H155198   2.219   2.664   2.838 -0.6471  1.3518 -0.3835
11261TIP3    H255199   2.331   2.641   2.937 -0.5886 -0.5409 -0.8388
11262TIP3   OH255200   3.511   2.126   1.822 -0.1271  0.0897 -0.1302
11262TIP3    H155201   3.431   2.159   1.862  0.1739 -1.0286  1.4985
11262TIP3    H255202   3.482   2.061   1.759 -0.5345  0.1551 -0.0106
11263TIP3   OH255203   3.423   2.554  12.489 -0.0884 -0.0717  0.3197
11263TIP3    H155204   3.383   2.641  12.483  0.2805  0.0392 -0.6084
11263TIP3    H255205   3.454   2.549  12.579 -2.0279 -0.0977  1.0386
11264TIP3   OH255206   5.216   1.198   4.033  0.1647 -0.2239  0.6288
11264TIP3    H155207   5.238   1.283   3.996 -0.1105 -0.0961  0.7624
11264TIP3    H255208   5.257   1.198   4.119  0.8389 -0.5371  0.3139
11265TIP3   OH255209   0.174   5.556  13.660  0.0353 -0.3738 -0.2990
11265TIP3    H155210   0.236   5.601  13.717 -0.3002 -0.6890  0.3231
11265TIP3    H255211   0.203   5.465  13.659 -1.5905 -0.9986  1.7060
11266TIP3   OH255212   3.027   1.120   1.175 -0.2935  0.3242 -1.1376
11266TIP3    H155213   3.051   1.052   1.111  0.2454 -0.3610 -0.2272
11266TIP3    H255214   2.942   1.092   1.209  0.4439 -0.5455  0.0718
11267TIP3   OH255215   5.006   1.724  15.347  0.6765  0.3121  0.7283
11267TIP3    H155216   5.060   1.714  15.268  0.4581  0.1049  0.6045
11267TIP3    H255217   4.920   1.692  15.321  0.8045 -0.4898  1.2917
11268TIP3   OH255218   2.933   1.522   4.288  0.0498  0.0310  0.2858
11268TIP3    H155219   2.900   1.606   4.258 -0.3865  0.2330  1.3050
11268TIP3    H255220   2.993   1.494   4.219 -1.3422  0.2033 -1.0693
11269TIP3   OH255221   2.820   5.930  17.045 -0.2872 -0.1522  0.0358
11269TIP3    H155222   2.778   5.937  17.130  0.8964  0.6978  0.5785
11269TIP3    H255223   2.848   5.838  17.039  0.6956  0.0632  1.1050
11270TIP3   OH255224   1.210   2.521   4.678  0.0849  0.3491  0.4439
11270TIP3    H155225   1.232   2.470   4.600  0.3780 -0.1675  0.8578
11270TIP3    H255226   1.275   2.592   4.681  1.1502 -0.6196  1.1443
11271TIP3   OH255227   1.911   4.355   2.597  0.2877 -0.0376  0.0768
11271TIP3    H155228   1.913   4.450   2.586 -2.1317  0.1145  0.3917
11271TIP3    H255229   1.940   4.320   2.513 -0.2467  1.0067 -0.5649
11272TIP3   OH255230   3.264   2.244   3.658  0.4640 -0.7828 -0.6638
11272TIP3    H155231   3.358   2.230   3.654  0.6931  0.7176 -1.5423
11272TIP3    H255232   3.255   2.333   3.693 -0.6820 -1.4183  0.7235
11273TIP3   OH255233   5.941   0.878   1.707  0.0822 -0.1777  0.1415
11273TIP3    H155234   5.858   0.918   1.733  0.1527 -0.1168  0.2715
11273TIP3    H255235   5.940   0.791   1.748  0.7945  0.4233  1.4936
11274TIP3   OH255236   3.619   1.133   3.397  0.4467  0.3264 -0.3383
11274TIP3    H155237   3.532   1.137   3.436  0.6660 -2.4203  0.6309
11274TIP3    H255238   3.624   1.046   3.357  1.8020  1.4303 -2.8176
11275TIP3   OH255239   4.197   0.564  17.216  0.4241 -0.1451  0.0647
11275TIP3    H155240   4.276   0.533  17.172 -0.8127 -2.0442 -0.9105
11275TIP3    H255241   4.206   0.532  17.306  0.8533 -0.1701  0.0141
11276TIP3   OH255242   2.887   4.336  15.189 -0.4495  1.0336 -0.5553
11276TIP3    H155243   2.864   4.418  15.232  0.8605  0.8336  0.6221
11276TIP3    H255244   2.918   4.279  15.260 -0.0753 -0.0125 -1.5166
11277TIP3   OH255245   6.455   2.979   3.753  0.7008  0.0400  0.1018
11277TIP3    H155246   6.441   3.067   3.790 -2.1712  0.1259 -0.9879
11277TIP3    H255247   6.386   2.969   3.688  0.4642 -3.3375  0.7156
11278TIP3   OH255248   6.097   6.429  10.987 -0.0662 -0.0808 -0.0507
11278TIP3    H155249   6.148   6.353  11.015  0.6991  0.7702  1.0033
11278TIP3    H255250   6.054   6.402  10.906  2.5109 -0.6937 -1.3186
11279TIP3   OH255251   1.583   6.668  12.773 -0.0982  0.3317  0.2873
11279TIP3    H155252   1.492   6.696  12.758  0.0121  0.1997 -0.7335
11279TIP3    H255253   1.585   6.577  12.743 -0.4864 -0.9211  3.6841
11280TIP3   OH255254   1.179   5.582  11.119  0.7906  0.4086  0.6238
11280TIP3    H155255   1.110   5.642  11.088  0.9855  2.0276  3.0520
11280TIP3    H255256   1.137   5.496  11.119 -0.5359  1.0223  0.0156
11281TIP3   OH255257   0.323   4.446   1.942  0.0454  0.6883 -0.1016
11281TIP3    H155258   0.336   4.524   1.995 -0.3839  0.3110  0.5688
11281TIP3    H255259   0.270   4.387   1.997  0.2065  0.0004 -0.6634
11282TIP3   OH255260   6.470   4.231   0.728 -0.3462 -0.3189  0.0227
11282TIP3    H155261   6.387   4.214   0.684  0.1865 -2.5967 -0.2385
11282TIP3    H255262   6.480   4.158   0.789  2.3170 -1.1829 -1.2926
11283TIP3   OH255263   0.696   2.355  15.944  0.5648 -0.0189  0.5641
11283TIP3    H155264   0.671   2.406  15.867 -0.8300 -1.3174  0.0825
11283TIP3    H255265   0.617   2.353  15.998  1.1554 -0.1564  1.4486
11284TIP3   OH255266   2.626   4.314  13.276 -0.4363 -0.2456  0.3105
11284TIP3    H155267   2.685   4.390  13.272 -1.7394  0.7612 -0.6694
11284TIP3    H255268   2.649   4.263  13.198  0.3297 -0.8060  0.8830
11285TIP3   OH255269   2.909   6.080  16.503  0.1316 -0.0203 -0.2416
11285TIP3    H155270   2.834   6.022  16.508  0.5877 -0.6143 -0.1471
11285TIP3    H255271   2.894   6.144  16.573 -1.5512  1.4394 -1.8593
11286TIP3   OH255272   4.969   0.974  16.202  0.6840 -0.5963  0.1007
11286TIP3    H155273   4.924   0.917  16.140 -0.5147  1.3243 -0.8821
11286TIP3    H255274   4.942   1.063  16.177  0.6482  0.3001  2.9976
11287TIP3   OH255275   5.409   4.025  12.556 -0.1893 -0.1936  0.3680
11287TIP3    H155276   5.424   4.064  12.469  0.2659  0.9041  0.9114
11287TIP3    H255277   5.331   4.069  12.589 -0.8221 -1.1721  0.2156
11288TIP3   OH255278   3.814   1.748   6.139  0.1955 -0.1147 -0.3539
11288TIP3    H155279   3.785   1.808   6.207 -0.3253  0.8348 -1.3844
11288TIP3    H255280   3.781   1.786   6.058  3.3712  0.4665 -1.5065
11289TIP3   OH255281   5.485   5.996  16.733  0.4400  0.0493 -0.2862
11289TIP3    H155282   5.428   5.993  16.809  0.3578  0.0278 -0.3481
11289TIP3    H255283   5.503   6.089  16.720  3.9082 -0.0319  2.3417
11290TIP3   OH255284   0.487   3.066  12.430  0.0378 -0.8251  0.1558
11290TIP3    H155285   0.546   3.132  12.395 -0.1197 -0.7224  0.0788
11290TIP3    H255286   0.515   2.984  12.390  0.3444 -0.8339  0.3883
11291TIP3   OH255287   6.624   5.774   2.928  0.1283 -0.2361  0.3081
11291TIP3    H155288   6.644   5.821   3.009  1.5931  0.2106 -0.2797
11291TIP3    H255289   6.612   5.843   2.863 -1.7392 -0.5628  0.2629
11292TIP3   OH255290   2.734   0.042  15.449  0.3462 -0.6465 -0.0978
11292TIP3    H155291   2.759  -0.031  15.393 -0.3040  0.0283 -1.3110
11292TIP3    H255292   2.779   0.026  15.531 -2.5161 -4.3517  1.0144
11293TIP3   OH255293   4.283   2.992  14.938 -1.1305 -0.4077 -0.3183
11293TIP3    H155294   4.200   2.981  14.892  0.6610  1.3454 -4.5175
11293TIP3    H255295   4.334   2.914  14.915 -0.0071  0.7521 -2.0234
11294TIP3   OH255296   0.766   2.814   0.097 -0.3874  0.4310  0.1662
11294TIP3    H155297   0.860   2.800   0.103 -0.0844  2.2578  0.2094
11294TIP3    H255298   0.740   2.843   0.185 -1.4272 -2.1363  0.7978
11295TIP3   OH255299   1.685   3.373   1.952  0.4600  0.5556 -0.5753
11295TIP3    H155300   1.639   3.306   2.001 -2.4543  1.7653 -1.4524
11295TIP3    H255301   1.686   3.340   1.862  0.3926  1.0241 -0.7479
11296TIP3   OH255302   0.437   6.646  13.800  0.0229 -0.3398  0.8359
11296TIP3    H155303   0.423   6.740  13.788 -1.5728 -0.5518  0.7581
11296TIP3    H255304   0.401   6.606  13.721  0.7933 -1.0163  0.8139
11297TIP3   OH255305   3.570   1.049  13.412  0.6636 -0.2463 -0.2736
11297TIP3    H155306   3.563   1.002  13.329  0.8910 -1.5555  0.4242
11297TIP3    H255307   3.569   1.142  13.387 -1.4980 -0.5374 -1.5627
11298TIP3   OH255308   2.051   1.493  12.042 -0.2286  0.3547 -0.2937
11298TIP3    H155309   2.008   1.502  12.127 -1.1773  2.4741 -0.9244
11298TIP3    H255310   2.079   1.402  12.038 -2.0269 -0.3386  1.4196
11299TIP3   OH255311   1.270   1.252   4.936  0.2420  0.7341 -0.3625
11299TIP3    H155312   1.350   1.283   4.978  0.3929  1.4415 -1.1304
11299TIP3    H255313   1.199   1.292   4.986  0.3119 -0.7090  0.9548
11300TIP3   OH255314   1.611   0.622  12.473  0.3249  0.2082 -0.2849
11300TIP3    H155315   1.529   0.593  12.512  0.8375 -2.0663 -0.7463
11300TIP3    H255316   1.659   0.663  12.545 -0.6487  0.3027  0.3206
11301TIP3   OH255317   6.361   0.467   0.599  0.2414 -0.6185  0.1501
11301TIP3    H155318   6.439   0.491   0.649  0.1235 -1.3704  0.7244
11301TIP3    H255319   6.299   0.437   0.666  0.2621 -2.1232 -0.4713
11302TIP3   OH255320   0.445   6.583  14.798  0.0162 -0.5213  0.1833
11302TIP3    H155321   0.388   6.584  14.721 -1.4270  2.0405  1.1861
11302TIP3    H255322   0.427   6.499  14.840 -1.8385 -0.4546 -0.4015
11303TIP3   OH255323   4.975   2.595  13.738  0.0737 -0.3020 -0.2136
11303TIP3    H155324   5.023   2.530  13.688 -0.8074 -1.6906  0.6733
11303TIP3    H255325   4.909   2.628  13.677 -1.9254 -3.0018  0.3203
11304TIP3   OH255326   0.814   4.740   5.019 -0.5020  0.1524  0.1663
11304TIP3    H155327   0.844   4.653   5.045  0.8967  1.3998  3.1901
11304TIP3    H255328   0.721   4.728   5.000 -0.2182 -2.0840 -0.1409
11305TIP3   OH255329   1.816   1.892  14.122  0.1774  0.0748 -0.1155
11305TIP3    H155330   1.736   1.932  14.156  1.5242  2.6469  0.2639
11305TIP3    H255331   1.828   1.813  14.174 -0.1553  1.6239  2.4738
11306TIP3   OH255332   5.257   1.239  16.455 -0.5678  0.3464  0.7205
11306TIP3    H155333   5.291   1.187  16.528  0.0649 -0.2039  0.0486
11306TIP3    H255334   5.236   1.324  16.494 -1.4466 -0.3318  1.8029
11307TIP3   OH255335   3.563   2.112   5.310 -0.1947  0.0013 -0.6682
11307TIP3    H155336   3.633   2.151   5.258  0.5370 -0.0669  0.2335
11307TIP3    H255337   3.560   2.165   5.390  1.3948 -2.1966  0.9786
11308TIP3   OH255338   6.427   5.655  15.836  0.1109 -0.1332 -0.5854
11308TIP3    H155339   6.458   5.621  15.920 -1.1105 -0.9528 -0.4265
11308TIP3    H255340   6.347   5.704  15.858 -0.5935 -0.9146 -1.3151
11309TIP3   OH255341   2.894   2.528   2.735 -0.0924  0.0826 -0.1181
11309TIP3    H155342   2.856   2.615   2.740  2.9777  1.4809  0.8820
11309TIP3    H255343   2.976   2.540   2.687 -0.2512 -2.5496 -1.2155
11310TIP3   OH255344   0.247   6.043   2.777  0.6800  0.0770 -0.1026
11310TIP3    H155345   0.260   6.124   2.827  0.2579 -1.2594  2.3557
11310TIP3    H255346   0.336   6.014   2.755  1.4230 -1.6821  4.1621
11311TIP3   OH255347   4.834   0.795   2.352 -0.3615 -0.2998 -0.2659
11311TIP3    H155348   4.818   0.742   2.430  0.8200 -0.5132 -0.1395
11311TIP3    H255349   4.811   0.737   2.279  0.4670 -0.8468 -0.1131
11312TIP3   OH255350   4.479   5.599   3.455  0.2154  0.3674 -0.4424
11312TIP3    H155351   4.540   5.525   3.448  0.2079  0.4484 -1.6271
11312TIP3    H255352   4.443   5.608   3.367 -1.1962  0.5946  0.1299
11313TIP3   OH255353   5.850   5.028  16.972 -0.4780  0.4242  0.1171
11313TIP3    H155354   5.921   5.035  17.035  0.0137  0.4919 -0.4387
11313TIP3    H255355   5.832   5.118  16.946 -1.1704  0.4578  0.6962
11314TIP3   OH255356   5.865   0.726  17.087 -0.5974  0.2897  0.3118
11314TIP3    H155357   5.889   0.804  17.037 -1.4453  1.2296  1.3188
11314TIP3    H255358   5.843   0.661  17.020  1.4594  0.4180 -0.5711
11315TIP3   OH255359   6.370   4.036   2.371 -0.2316  0.4383 -0.4051
11315TIP3    H155360   6.377   3.941   2.382  0.5797  0.5467  0.0491
11315TIP3    H255361   6.336   4.068   2.455  0.6392  0.6715 -0.1331
11316TIP3   OH255362   2.909   1.170   4.224 -0.6595  0.0160 -0.6009
11316TIP3    H155363   2.821   1.201   4.199 -0.3749  2.6207  1.2026
11316TIP3    H255364   2.951   1.149   4.141 -2.2467  0.9251 -1.6915
11317TIP3   OH255365   2.101   1.353   6.191  0.1300  0.4718 -0.1782
11317TIP3    H155366   2.082   1.268   6.151  1.1035  1.2391 -2.4015
11317TIP3    H255367   2.112   1.333   6.284  2.2408 -2.1831 -0.8620
11318TIP3   OH255368   6.044   6.388  12.569  0.5164  0.2313  0.0619
11318TIP3    H155369   6.035   6.312  12.627 -0.0371 -0.5357 -0.9997
11318TIP3    H255370   6.135   6.415  12.578  1.0288 -1.2614 -0.3847
11319TIP3   OH255371   6.282   3.822   3.430  0.4053  0.3663  0.0074
11319TIP3    H155372   6.341   3.897   3.439  1.3117 -0.4414  1.0099
11319TIP3    H255373   6.203   3.848   3.477  1.3286  0.0871  1.7749
11320TIP3   OH255374   5.286   0.254  16.718 -0.3772  0.6434  0.6617
11320TIP3    H155375   5.284   0.160  16.704 -1.3709  0.8357 -0.6002
11320TIP3    H255376   5.220   0.271  16.784 -0.6755  0.5257  0.3933
11321TIP3   OH255377   3.214   4.758  15.039  0.7480 -0.0344 -0.3237
11321TIP3    H155378   3.284   4.824  15.031  0.7668 -0.0396 -0.1941
11321TIP3    H255379   3.212   4.735  15.132 -0.4109  1.0358 -0.0652
11322TIP3   OH255380   5.523   5.866  16.206  0.5013 -0.2734  0.3025
11322TIP3    H155381   5.518   5.901  16.295  0.5772  1.4696 -0.3336
11322TIP3    H255382   5.578   5.789  16.214  0.8652  0.0984  1.7035
11323TIP3   OH255383   4.949   6.621   4.723  0.0123 -0.0346 -0.3990
11323TIP3    H155384   4.997   6.572   4.790 -0.4815 -1.1491 -0.8338
11323TIP3    H255385   4.912   6.695   4.770 -2.5307 -2.1708  1.2252
11324TIP3   OH255386   5.897   1.246  16.041 -0.3384 -0.6968 -0.4426
11324TIP3    H155387   5.945   1.171  16.076 -2.2218 -1.2235  1.2372
11324TIP3    H255388   5.809   1.237  16.078 -1.3014  1.0520 -2.1246
11325TIP3   OH255389   5.925   3.361   5.420 -0.1142  0.7431 -0.0721
11325TIP3    H155390   5.902   3.407   5.340  1.2078  1.6860  0.0631
11325TIP3    H255391   5.855   3.383   5.481 -0.5575  0.9009 -0.6276
11326TIP3   OH255392   5.541   0.629   0.049 -0.6356 -0.0855 -0.0191
11326TIP3    H155393   5.595   0.706   0.031 -2.3641  1.6095  1.6410
11326TIP3    H255394   5.516   0.638   0.141 -0.9511 -2.6402  0.2141
11327TIP3   OH255395   0.933   1.478   3.604  0.0594  0.0047  0.4232
11327TIP3    H155396   0.984   1.489   3.524 -0.4075 -2.7965 -0.3994
11327TIP3    H255397   0.997   1.476   3.675  0.5792  1.4170  0.0134
11328TIP3   OH255398   3.082   3.570  13.412  0.0307  0.8585 -0.0286
11328TIP3    H155399   3.110   3.500  13.471 -1.0278  0.1456 -0.3247
11328TIP3    H255400   3.163   3.612  13.384  0.6936 -0.1952  0.2323
11329TIP3   OH255401   6.356   0.730   0.207  0.2725 -0.3004  0.9171
11329TIP3    H155402   6.356   0.668   0.134  1.0721 -0.3869  0.9881
11329TIP3    H255403   6.316   0.681   0.279 -2.0567  0.3111  0.1222
11330TIP3   OH255404   3.407   6.021  14.205 -0.2698 -0.1968  0.7210
11330TIP3    H155405   3.451   6.106  14.201 -0.2597 -0.0399  2.9230
11330TIP3    H255406   3.478   5.957  14.200 -0.2914 -0.1369 -1.1335
11331TIP3   OH255407   0.223   0.109  17.197  0.1633  0.1731 -0.6289
11331TIP3    H155408   0.134   0.140  17.216  0.2368 -0.4789  0.9970
11331TIP3    H255409   0.272   0.188  17.176 -0.9012  0.4851 -2.1134
11332TIP3   OH255410   2.521   4.238   4.392 -0.1968  0.2208 -0.5645
11332TIP3    H155411   2.447   4.205   4.341 -0.9943  1.0777  0.0168
11332TIP3    H255412   2.541   4.323   4.353 -0.2837  0.5178  0.0263
11333TIP3   OH255413   4.257   0.200   1.705 -0.3567 -0.2758 -0.0208
11333TIP3    H155414   4.293   0.190   1.793  0.6016  0.3825 -0.3164
11333TIP3    H255415   4.290   0.125   1.657  0.9495  0.4964 -0.3780
11334TIP3   OH255416   2.430   0.092   0.516  0.2295 -0.4230  0.5269
11334TIP3    H155417   2.364   0.120   0.579 -0.2609  0.7561 -0.4835
11334TIP3    H255418   2.512   0.092   0.565  0.0148  1.3945  0.9460
11335TIP3   OH255419   4.396   5.243   5.284  0.0360 -0.3961  0.0682
11335TIP3    H155420   4.329   5.202   5.339 -2.1938  0.5892 -1.7530
11335TIP3    H255421   4.384   5.337   5.298 -0.2835 -0.1392 -1.6728
11336TIP3   OH255422   2.307   5.593   1.673 -1.0763  0.2020  0.1193
11336TIP3    H155423   2.270   5.538   1.742 -0.5039  1.1123  1.1810
11336TIP3    H255424   2.402   5.583   1.682 -0.9944  0.3907 -0.4917
11337TIP3   OH255425   5.835   5.786  11.676  0.1745 -0.0090 -0.3314
11337TIP3    H155426   5.802   5.709  11.722 -0.5817  1.0697  0.9851
11337TIP3    H255427   5.758   5.840  11.660  0.8808  1.1790  0.1424
11338TIP3   OH255428   0.432   4.469   3.048 -0.3253  0.1013  0.2916
11338TIP3    H155429   0.405   4.463   2.957  1.1847  1.0831 -0.2687
11338TIP3    H255430   0.492   4.544   3.050 -0.1434 -0.0515  2.0451
11339TIP3   OH255431   6.365   1.741  14.620  0.2019  0.1846 -0.3414
11339TIP3    H155432   6.305   1.806  14.584 -0.0434 -0.1397 -0.5257
11339TIP3    H255433   6.336   1.729  14.711 -0.8820 -0.9583 -0.8060
11340TIP3   OH255434   4.488   2.490  13.356  0.2378  0.6588  0.0362
11340TIP3    H155435   4.430   2.469  13.283 -1.3804 -1.1601  1.7286
11340TIP3    H255436   4.542   2.411  13.366  1.4684  1.4624 -0.0721
11341TIP3   OH255437   3.185   2.065   4.451  0.0656  0.1796  0.0632
11341TIP3    H155438   3.092   2.049   4.465 -0.1686  0.9753 -0.4714
11341TIP3    H255439   3.193   2.161   4.447  0.7451  0.1097 -0.8591
11342TIP3   OH255440   2.454   6.558   0.165 -0.3920  0.2276 -0.1419
11342TIP3    H155441   2.467   6.653   0.170  0.0637  0.1061  1.9478
11342TIP3    H255442   2.362   6.545   0.190 -0.4407  0.1124 -0.3786
11343TIP3   OH255443   3.053   1.838   0.059  0.0631 -0.1242  0.2282
11343TIP3    H155444   3.088   1.809  -0.025  1.4699  0.9350  0.4059
11343TIP3    H255445   2.961   1.810   0.058  0.1237 -0.3838 -1.5261
11344TIP3   OH255446   5.526   2.901   4.943 -0.0846  0.1344  0.1218
11344TIP3    H155447   5.508   2.813   4.976  0.9621 -0.7518 -1.5406
11344TIP3    H255448   5.440   2.937   4.923 -0.4919 -0.9018 -0.0742
11345TIP3   OH255449   5.871   2.325  15.280  0.1738  0.0277 -0.2547
11345TIP3    H155450   5.839   2.332  15.190  2.6817 -2.0555 -1.4228
11345TIP3    H255451   5.800   2.281  15.327 -0.3489 -0.8000 -1.7516
11346TIP3   OH255452   5.338   4.299   2.790 -0.1566 -0.3699  0.3170
11346TIP3    H155453   5.257   4.319   2.743 -0.6587 -1.3946  0.7128
11346TIP3    H255454   5.309   4.260   2.873  0.6865  2.1063  1.8827
11347TIP3   OH255455   2.473   2.965  12.348  0.2458 -0.4965  0.1777
11347TIP3    H155456   2.505   2.942  12.261 -1.2211 -0.4595 -0.4065
11347TIP3    H255457   2.452   2.881  12.389  0.9289 -0.5138  0.5165
11348TIP3   OH255458   2.025   6.313   2.561 -0.0856 -0.0675 -0.1112
11348TIP3    H155459   2.114   6.319   2.526 -0.0633  0.8941  0.0794
11348TIP3    H255460   1.969   6.302   2.483  0.2644 -1.6301 -0.1637
11349TIP3   OH255461   0.463   3.928  13.680 -0.0722 -0.4630  0.2283
11349TIP3    H155462   0.394   3.980  13.720  0.1238 -1.9556  2.6481
11349TIP3    H255463   0.545   3.966  13.714  0.0811 -2.0594  1.7288
11350TIP3   OH255464   3.731   5.490  16.229  0.4942 -0.5304  0.1893
11350TIP3    H155465   3.660   5.531  16.279  0.1734 -0.6761 -0.1454
11350TIP3    H255466   3.686   5.434  16.166  0.8926 -0.1735 -0.4133
11351TIP3   OH255467   1.787   1.606   5.200  0.2660 -0.4456 -0.8118
11351TIP3    H155468   1.713   1.560   5.238  0.6931 -1.4193 -1.1285
11351TIP3    H255469   1.850   1.613   5.272  0.3572 -0.6969 -0.8679
11352TIP3   OH255470   6.086   1.438   3.819 -0.1830  0.5894  0.5769
11352TIP3    H155471   6.045   1.388   3.889 -1.1684  2.0852  1.1126
11352TIP3    H255472   6.172   1.463   3.854 -0.1922  0.3295  0.7855
11353TIP3   OH255473   6.236   2.960   5.849 -0.3411  0.4299 -0.3320
11353TIP3    H155474   6.208   2.871   5.828 -1.4931  0.2060  1.8096
11353TIP3    H255475   6.325   2.950   5.882  0.0393  0.2887 -1.3618
11354TIP3   OH255476   4.663   5.149  11.505  0.2825  0.2651 -0.3944
11354TIP3    H155477   4.697   5.065  11.538 -4.0280 -1.2487  0.9185
11354TIP3    H255478   4.684   5.147  11.412 -0.0636 -2.5752 -0.5239
11355TIP3   OH255479   0.762   4.232   4.644  0.2714  0.4268 -0.9396
11355TIP3    H155480   0.692   4.280   4.688  0.5590 -0.2738  0.3557
11355TIP3    H255481   0.746   4.140   4.667  0.8074  0.1037 -1.8048
11356TIP3   OH255482   1.983   5.150   5.613  0.2346 -0.4258 -0.3575
11356TIP3    H155483   2.075   5.167   5.590 -0.2923  1.3463 -1.4088
11356TIP3    H255484   1.963   5.213   5.682 -0.6598  0.5238 -1.4316
11357TIP3   OH255485   2.081   5.818  12.474  0.0758  0.4696  0.0054
11357TIP3    H155486   2.044   5.760  12.540  1.2380  0.0252  0.3028
11357TIP3    H255487   2.174   5.824  12.497  0.4825  0.4095 -1.5056
11358TIP3   OH255488   0.683   6.619  16.956 -0.0407  0.1158 -0.0923
11358TIP3    H155489   0.676   6.560  17.032  1.8682 -2.7546 -1.9285
11358TIP3    H255490   0.767   6.663  16.969  0.0468  0.0014 -0.2633
11359TIP3   OH255491   3.661   4.872   1.983  0.7843 -0.0053  0.0428
11359TIP3    H155492   3.656   4.792   1.931  1.4111 -0.7122  1.0305
11359TIP3    H255493   3.669   4.942   1.919  0.5462 -0.7609 -0.8303
11360TIP3   OH255494   3.536   0.276   4.855  0.3697 -0.3570 -0.2412
11360TIP3    H155495   3.555   0.217   4.928 -0.6639 -1.4446 -0.8044
11360TIP3    H255496   3.574   0.232   4.779 -0.5218 -0.3866 -0.6885
11361TIP3   OH255497   4.022   6.242  13.016 -0.3850 -0.2296 -0.7514
11361TIP3    H155498   3.940   6.263  12.971 -0.4730  0.1015 -0.4422
11361TIP3    H255499   3.994   6.201  13.098 -0.2660  0.5332 -0.3169
11362TIP3   OH255500   0.642   3.427  16.060 -0.2991 -0.2589  0.1877
11362TIP3    H155501   0.669   3.341  16.093  0.0863 -0.6916 -1.1932
11362TIP3    H255502   0.548   3.431  16.076 -0.3359 -0.9894  0.1667
11363TIP3   OH255503   4.856   4.245  11.898 -0.3190  0.1410  0.0701
11363TIP3    H155504   4.843   4.327  11.851 -0.3403 -0.1282 -0.3985
11363TIP3    H255505   4.945   4.252  11.933 -0.6484  0.7584  0.8381
11364TIP3   OH255506   1.458   0.060   4.666 -0.2666  0.5235  0.5267
11364TIP3    H155507   1.380   0.068   4.611 -0.5194 -2.9223  0.1553
11364TIP3    H255508   1.531   0.073   4.607 -0.5614 -1.8861 -0.4775
11365TIP3   OH255509   5.029   2.974   0.311  0.1801  0.0046 -0.1233
11365TIP3    H155510   4.994   2.929   0.387  2.6601 -0.8102  0.6294
11365TIP3    H255511   5.112   2.929   0.292  0.2450  0.9650 -2.5616
11366TIP3   OH255512   5.878   2.303   0.363  0.1372 -0.2259 -0.0912
11366TIP3    H155513   5.915   2.267   0.283 -0.8883 -1.3802 -0.0936
11366TIP3    H255514   5.836   2.384   0.336  1.7281  0.5751 -0.2688
11367TIP3   OH255515   1.519   1.074   1.011 -0.1503 -0.1757 -0.4634
11367TIP3    H155516   1.450   1.113   0.958 -0.8607  1.2101  1.3623
11367TIP3    H255517   1.576   1.029   0.948 -2.1235 -0.4902 -2.1281
11368TIP3   OH255518   0.228   6.199  11.217  0.3351  0.2414  0.3442
11368TIP3    H155519   0.186   6.177  11.134  1.4033 -0.8008  0.0451
11368TIP3    H255520   0.155   6.217  11.277 -0.6279 -2.6057  0.1576
11369TIP3   OH255521   1.401   0.635  13.898  0.3682 -0.3678 -0.3280
11369TIP3    H155522   1.320   0.638  13.848  0.6868 -0.8846 -0.8913
11369TIP3    H255523   1.420   0.726  13.919 -0.8422 -0.3029  0.6206
11370TIP3   OH255524   5.640   0.718   3.888  0.6661 -0.4245 -0.7055
11370TIP3    H155525   5.724   0.759   3.906  0.4191 -0.8209  1.7232
11370TIP3    H255526   5.637   0.643   3.948 -0.7905 -1.3379 -1.8339
11371TIP3   OH255527   1.094   6.214  13.911  0.2254  0.0491 -0.1003
11371TIP3    H155528   1.035   6.288  13.928 -1.0522 -1.1246  0.7950
11371TIP3    H255529   1.036   6.141  13.892  1.4676 -0.7778 -0.8692
11372TIP3   OH255530   5.538   6.574  14.405 -0.2613 -0.2489 -0.4382
11372TIP3    H155531   5.486   6.521  14.344  0.5654 -1.9232  0.2411
11372TIP3    H255532   5.619   6.524  14.416 -0.0591  0.4196  1.3974
11373TIP3   OH255533   1.317   3.017  11.146 -0.3753 -0.6638 -0.1648
11373TIP3    H155534   1.343   3.016  11.054 -1.6568 -1.0795 -0.5386
11373TIP3    H255535   1.231   3.058  11.147 -1.8434 -3.4668  0.3809
11374TIP3   OH255536   2.732   6.298  17.135  0.5874 -0.7904 -0.0507
11374TIP3    H155537   2.812   6.342  17.105  0.8418 -1.2383 -0.0325
11374TIP3    H255538   2.674   6.300  17.059  0.2032  0.4750  0.2465
11375TIP3   OH255539   3.646   0.413  14.443 -0.4309 -0.0712 -0.2895
11375TIP3    H155540   3.560   0.386  14.412 -0.5504 -0.1456  0.1086
11375TIP3    H255541   3.708   0.369  14.384 -0.6482 -0.4819 -0.2124
11376TIP3   OH255542   6.078   5.538  12.281 -0.1252 -0.0755 -0.1147
11376TIP3    H155543   6.039   5.520  12.195  0.2068  2.0728 -0.7975
11376TIP3    H255544   6.006   5.530  12.343 -0.5559 -0.8451 -0.7017
11377TIP3   OH255545   3.476   5.077   2.148  0.4746 -0.3743 -0.2851
11377TIP3    H155546   3.484   5.039   2.061 -0.9605  1.9671 -1.5292
11377TIP3    H255547   3.460   5.170   2.133 -3.2960 -0.3534  2.2645
11378TIP3   OH255548   5.847   2.531  15.940  0.2328 -0.0416 -0.2238
11378TIP3    H155549   5.865   2.441  15.914  1.8237  0.0588  0.4401
11378TIP3    H255550   5.913   2.551  16.007 -1.4588  0.8913  1.2696
11379TIP3   OH255551   5.868   6.045  13.350 -0.3487 -0.1406  0.4872
11379TIP3    H155552   5.807   6.099  13.299 -1.3740  0.2860  2.0641
11379TIP3    H255553   5.934   6.107  13.381  0.0371 -0.3181  0.0177
11380TIP3   OH255554   4.178   6.139  12.327  0.5477  0.2638 -0.4295
11380TIP3    H155555   4.216   6.057  12.357  2.4069  1.5443  0.8621
11380TIP3    H255556   4.232   6.207  12.366 -0.5621  2.1238 -1.9600
11381TIP3   OH255557   5.398   4.882   3.147 -0.3531 -0.1095  0.6315
11381TIP3    H155558   5.311   4.843   3.133 -0.4399 -0.0114  0.8915
11381TIP3    H255559   5.458   4.808   3.137 -0.4626 -0.1719  0.4154
11382TIP3   OH255560   4.093   2.112  12.652 -0.3135 -0.1295  0.0428
11382TIP3    H155561   4.019   2.114  12.591  1.0323  2.0180 -1.6482
11382TIP3    H255562   4.102   2.202  12.681  0.6340 -0.6807  1.5350
11383TIP3   OH255563   4.146   1.775   2.084 -0.5188  0.0521 -0.0819
11383TIP3    H155564   4.235   1.759   2.055  0.0645 -3.1385  2.7806
11383TIP3    H255565   4.154   1.836   2.157 -0.6269 -0.2564  0.1953
11384TIP3   OH255566   3.881   1.531   5.442  0.0871  0.0167  0.1612
11384TIP3    H155567   3.891   1.444   5.403  0.8496 -0.5754  1.5764
11384TIP3    H255568   3.971   1.564   5.448 -0.0908  0.4178  0.6586
11385TIP3   OH255569   3.500   2.964  15.642 -0.1956  0.3702 -0.5969
11385TIP3    H155570   3.556   3.018  15.698  0.3501 -0.2748 -0.5119
11385TIP3    H255571   3.506   3.005  15.556 -1.5429  1.7481 -0.0731
11386TIP3   OH255572   4.145   1.690   4.808 -0.1562  0.4277  0.1111
11386TIP3    H155573   4.186   1.606   4.825 -0.2071  0.3689 -0.0613
11386TIP3    H255574   4.130   1.692   4.714 -0.2060  0.6055  0.1213
11387TIP3   OH255575   1.722   5.879   2.244 -0.1192  0.5680  0.2882
11387TIP3    H155576   1.706   5.949   2.307  0.7812  1.8856 -0.8826
11387TIP3    H255577   1.643   5.825   2.247 -1.9156  3.0067 -0.4952
11388TIP3   OH255578   0.030   1.294  12.348 -0.0536  0.4875 -0.0479
11388TIP3    H155579  -0.014   1.353  12.287 -1.0272 -0.5402 -0.3718
11388TIP3    H255580  -0.018   1.212  12.341  1.0807 -0.2630  0.6154
11389TIP3   OH255581   6.778   3.497   2.178  0.5887 -0.6969  0.1305
11389TIP3    H155582   6.826   3.418   2.155 -1.4278 -1.9285 -0.0938
11389TIP3    H255583   6.693   3.466   2.209 -0.5379  1.3928 -0.6432
11390TIP3   OH255584   3.920   1.791  12.939  0.2603 -0.2174  0.2080
11390TIP3    H155585   3.942   1.814  13.029  1.0806  0.4279 -0.1447
11390TIP3    H255586   3.996   1.744  12.906 -0.9513 -2.5864  0.5539
11391TIP3   OH255587   2.283   1.669  12.368 -0.0779 -0.1111 -0.0809
11391TIP3    H155588   2.324   1.584  12.352  0.1501 -0.1491  0.7109
11391TIP3    H255589   2.323   1.727  12.303 -0.2538 -0.6087 -0.6456
11392TIP3   OH255590   0.752   3.094  15.215 -0.2881  0.4074  0.0895
11392TIP3    H155591   0.841   3.126  15.223 -0.6269  1.7801 -1.2538
11392TIP3    H255592   0.761   3.003  15.187  0.6808 -0.3868  2.7491
11393TIP3   OH255593   2.229   5.268  15.424 -0.6835 -0.4555 -0.4345
11393TIP3    H155594   2.253   5.359  15.405  0.4158 -0.9604 -1.6344
11393TIP3    H255595   2.181   5.239  15.347 -2.3343 -0.4822  0.5664
11394TIP3   OH255596   1.461   5.403   0.240 -0.0284 -0.5848 -0.4182
11394TIP3    H155597   1.470   5.457   0.162  0.7260 -1.2793 -0.8261
11394TIP3    H255598   1.504   5.453   0.309 -0.3898 -0.1281 -0.5187
11395TIP3   OH255599   0.241   1.220  16.347 -0.1800 -0.9167  0.2130
11395TIP3    H155600   0.231   1.221  16.442  0.2136 -3.6677  0.3776
11395TIP3    H255601   0.324   1.264  16.331 -0.9683  0.9612  0.9341
11396TIP3   OH255602   5.554   4.906   4.166 -0.2993 -0.4217  0.0922
11396TIP3    H155603   5.515   4.896   4.080  1.3169  0.2679 -0.7644
11396TIP3    H255604   5.576   4.816   4.193  0.9009 -0.5087 -1.0786
11397TIP3   OH255605   6.516   2.763  13.752  0.9153 -0.1514  0.4741
11397TIP3    H155606   6.470   2.800  13.677 -1.9194 -1.6561  1.3284
11397TIP3    H255607   6.530   2.837  13.810  1.4558  0.6994 -0.6914
11398TIP3   OH255608   4.733   6.692  14.861  0.3261 -0.3584  0.8240
11398TIP3    H155609   4.795   6.621  14.847 -0.1449 -0.8587  1.2586
11398TIP3    H255610   4.762   6.734  14.942 -0.5680 -1.3212  1.6720
11399TIP3   OH255611   3.939   5.512   2.763 -0.5421 -0.0426  0.1359
11399TIP3    H155612   3.940   5.527   2.857 -1.6047 -0.4308  0.2109
11399TIP3    H255613   3.984   5.589   2.726  0.9996 -0.4788  1.0141
11400TIP3   OH255614   1.539   2.074  10.501  0.0222  0.2217 -0.0428
11400TIP3    H155615   1.554   2.064  10.595  0.9193  1.2398 -0.0623
11400TIP3    H255616   1.616   2.036  10.459 -0.0082  0.4688 -0.3320
11401TIP3   OH255617   4.621   2.391   5.146 -0.1078  0.2340  0.0519
11401TIP3    H155618   4.626   2.307   5.193  1.0877 -0.5380 -1.3579
11401TIP3    H255619   4.527   2.408   5.138 -0.4677 -2.0253 -1.3621
11402TIP3   OH255620   2.473   5.614  15.888  0.7030  0.0627  0.1861
11402TIP3    H155621   2.404   5.666  15.931  0.8026  1.2802 -1.0425
11402TIP3    H255622   2.433   5.528  15.875  0.4230 -0.1161  2.0103
11403TIP3   OH255623   6.627   6.330   4.030 -0.1032 -0.1465 -0.2762
11403TIP3    H155624   6.655   6.303   3.943 -0.5463 -1.6182  0.0044
11403TIP3    H255625   6.538   6.362   4.018  0.4371  1.2706 -0.6202
11404TIP3   OH255626   6.285   5.475  14.394  0.1787 -0.4006 -0.3987
11404TIP3    H155627   6.231   5.396  14.389 -0.5288 -0.2383  2.6846
11404TIP3    H255628   6.227   5.542  14.428  1.5493  0.6172  0.0524
11405TIP3   OH255629   2.486   2.379   2.338  0.0527 -0.2134 -0.2289
11405TIP3    H155630   2.565   2.354   2.290  0.8950 -1.4611  1.6655
11405TIP3    H255631   2.517   2.396   2.427 -1.6384  0.6254  0.2362
11406TIP3   OH255632   4.137   1.122   6.387 -0.3312 -0.1317  0.5487
11406TIP3    H155633   4.194   1.198   6.389 -0.9260  0.3219  0.5791
11406TIP3    H255634   4.180   1.061   6.327  0.6802 -0.2063  1.3234
11407TIP3   OH255635   5.016   2.203   5.150 -0.4890 -0.4193  0.0866
11407TIP3    H155636   5.111   2.211   5.145 -0.5275  0.9694  1.2145
11407TIP3    H255637   5.002   2.117   5.191  0.2916 -0.2478  0.7287
11408TIP3   OH255638   4.133   2.610   0.173 -0.0258  0.0898  0.0215
11408TIP3    H155639   4.155   2.545   0.106 -0.3819 -1.7955  1.6170
11408TIP3    H255640   4.175   2.576   0.252 -2.0439  0.6475  1.3949
11409TIP3   OH255641   3.624   1.009   0.804 -0.9760  0.0893 -0.0296
11409TIP3    H155642   3.595   1.097   0.829 -2.8916  0.5624 -3.3286
11409TIP3    H255643   3.650   1.018   0.713  1.0348 -2.3562  0.2276
11410TIP3   OH255644   3.626   0.796  15.189  0.2165  0.3562  0.5844
11410TIP3    H155645   3.707   0.846  15.204  1.1029 -1.2061  1.2978
11410TIP3    H255646   3.578   0.847  15.124  1.9704  1.1213 -0.1756
11411TIP3   OH255647   6.257   6.002   0.137 -0.0322  0.2061 -0.3889
11411TIP3    H155648   6.223   5.945   0.205 -0.2495  2.0551  1.1552
11411TIP3    H255649   6.193   5.996   0.066  0.9050 -2.8043 -1.0937
11412TIP3   OH255650   3.699   5.831   6.151  0.4791  0.1200 -0.9410
11412TIP3    H155651   3.737   5.910   6.112  1.1717 -0.1248 -0.7771
11412TIP3    H255652   3.774   5.774   6.168 -0.0262 -0.6502 -1.2169
11413TIP3   OH255653   0.549   4.024  14.389  0.3361  0.0855 -0.0466
11413TIP3    H155654   0.461   4.027  14.353 -0.6263 -1.2218  2.0481
11413TIP3    H255655   0.560   4.108  14.433  0.8409  0.9565 -1.7639
11414TIP3   OH255656   4.922   0.186   3.700 -0.4470 -0.1724 -0.2268
11414TIP3    H155657   4.903   0.278   3.686 -1.6050 -0.3747 -0.1079
11414TIP3    H255658   4.923   0.148   3.612  0.1970 -0.0217 -0.2872
11415TIP3   OH255659   6.373   0.841  14.589  0.0754 -0.1785  0.1842
11415TIP3    H155660   6.287   0.872  14.621 -1.1034  0.2926 -3.0888
11415TIP3    H255661   6.374   0.748  14.611 -1.4941 -0.2934 -0.1088
11416TIP3   OH255662   4.253   5.682  16.223 -0.2733  0.0787 -0.3315
11416TIP3    H155663   4.345   5.656  16.219  0.2049  1.6408 -0.3814
11416TIP3    H255664   4.209   5.623  16.162  0.4508 -1.5310  0.6241
11417TIP3   OH255665   0.773   0.139  14.000  0.0025  0.0462 -0.2103
11417TIP3    H155666   0.817   0.111  13.919 -0.3031  3.4265 -1.7013
11417TIP3    H255667   0.750   0.057  14.044  4.5627 -1.9616 -1.0290
11418TIP3   OH255668   5.710   1.687  13.114  0.0032 -0.2352 -0.2625
11418TIP3    H155669   5.662   1.678  13.032  0.2862 -1.0860 -0.3474
11418TIP3    H255670   5.648   1.726  13.175 -0.1836  0.4945 -0.8944
11419TIP3   OH255671   4.254   6.075  16.384 -0.1717 -0.2530  0.0459
11419TIP3    H155672   4.186   6.009  16.392  0.6234 -1.1127 -0.1540
11419TIP3    H255673   4.330   6.037  16.428  0.8470 -0.2580 -1.6516
11420TIP3   OH255674   0.559   5.956   4.921  0.0373  0.8316  0.2219
11420TIP3    H155675   0.546   6.035   4.974 -0.3518  0.4065  0.7726
11420TIP3    H255676   0.492   5.895   4.953  0.0539  0.4292 -0.4939
11421TIP3   OH255677   0.788   3.993   4.336 -0.1419 -0.8451 -0.2048
11421TIP3    H155678   0.859   3.958   4.391  0.0407 -1.0532 -0.5669
11421TIP3    H255679   0.717   4.010   4.397  0.3334 -0.3243  0.2176
11422TIP3   OH255680   1.725   5.457  12.191  0.2496 -0.2590  0.1722
11422TIP3    H155681   1.711   5.384  12.130  0.0689 -0.0073 -0.0908
11422TIP3    H255682   1.649   5.456  12.249 -0.1488  0.1996 -0.3268
11423TIP3   OH255683   5.001   2.495  12.594 -0.1881 -0.1889  0.3571
11423TIP3    H155684   4.966   2.430  12.533 -1.6675  0.0056  0.9543
11423TIP3    H255685   4.944   2.488  12.671  0.0031  1.3912  0.6684
11424TIP3   OH255686   6.354   4.728  15.239 -0.0161  0.3536 -0.1119
11424TIP3    H155687   6.283   4.739  15.302 -0.8329 -2.4693 -0.3879
11424TIP3    H255688   6.429   4.701  15.292  0.2658  1.2843 -0.0296
11425TIP3   OH255689   5.602   1.709   0.596  0.1585  0.2864 -0.7289
11425TIP3    H155690   5.649   1.651   0.655 -0.9515 -1.3494 -1.3964
11425TIP3    H255691   5.558   1.771   0.655  0.0076 -0.5921  0.1034
11426TIP3   OH255692   6.505   6.248  15.087 -0.0312  0.3534  0.8996
11426TIP3    H155693   6.417   6.211  15.076 -1.1141  2.7968  0.6497
11426TIP3    H255694   6.531   6.273  14.998  0.5474  0.4149  1.0861
11427TIP3   OH255695   4.648   3.084   1.483  0.0792 -0.5560  0.0414
11427TIP3    H155696   4.612   3.149   1.423 -2.5909 -1.0628  0.9313
11427TIP3    H255697   4.683   3.015   1.426  1.3009  0.7872 -0.8920
11428TIP3   OH255698   3.365   5.144  12.438 -0.1191 -0.6299 -0.0265
11428TIP3    H155699   3.451   5.165  12.402 -0.1185  0.4049  0.5491
11428TIP3    H255700   3.340   5.062  12.394  1.0243 -0.7889 -0.4037
11429TIP3   OH255701   6.456   4.835  13.782  0.3037  0.0556  0.8067
11429TIP3    H155702   6.477   4.871  13.696 -0.7457  0.8812  0.8802
11429TIP3    H255703   6.459   4.911  13.841 -0.2384 -0.2712  1.2678
11430TIP3   OH255704   0.986   3.779  12.643  0.1631 -0.6248 -0.0361
11430TIP3    H155705   0.962   3.765  12.552 -0.7981 -1.1123  0.2819
11430TIP3    H255706   1.060   3.721  12.658  0.7521 -0.0606 -0.6733
11431TIP3   OH255707   6.383   6.251  12.508 -0.4065  0.7801 -0.3306
11431TIP3    H155708   6.368   6.342  12.484  0.8541  0.6912 -1.5318
11431TIP3    H255709   6.357   6.200  12.431  1.4051  0.3272 -0.7010
11432TIP3   OH255710   5.633   0.043   0.891  0.5381  0.2540  0.0504
11432TIP3    H155711   5.644   0.066   0.983 -2.5466  1.0111  0.3119
11432TIP3    H255712   5.652   0.124   0.843  2.2267 -0.1620 -0.0491
11433TIP3   OH255713   0.432   2.443  14.761  0.0792  0.2979  0.3105
11433TIP3    H155714   0.510   2.465  14.711  0.7214  1.9061  1.9229
11433TIP3    H255715   0.448   2.354  14.794  0.4204 -0.0676 -0.8202
11434TIP3   OH255716   6.697   3.692  16.815 -0.0847 -0.1606  0.2150
11434TIP3    H155717   6.743   3.630  16.759 -3.3101 -0.0608 -2.8677
11434TIP3    H255718   6.745   3.774  16.805  0.5084 -0.6221 -0.8945
11435TIP3   OH255719   2.776   2.760   2.823 -0.6565  0.4642  0.2678
11435TIP3    H155720   2.711   2.828   2.802 -0.8034  0.2453  0.0018
11435TIP3    H255721   2.797   2.775   2.915  0.1725  1.5922 -0.0752
11436TIP3   OH255722   5.109   2.245  11.565  0.0774 -0.1312  0.0930
11436TIP3    H155723   5.163   2.183  11.613 -1.5212 -1.0398  0.8232
11436TIP3    H255724   5.083   2.311  11.630 -0.1731 -0.0378 -0.0984
11437TIP3   OH255725   3.554   4.177  16.463  0.2262 -0.0825  0.2909
11437TIP3    H155726   3.647   4.182  16.486  0.2664  0.3671  0.0515
11437TIP3    H255727   3.509   4.170  16.547  0.2309  3.4821  0.7527
11438TIP3   OH255728   1.701   0.094  13.360 -0.1334  0.1030  0.1945
11438TIP3    H155729   1.716   0.000  13.344  0.3550  0.4071 -1.2426
11438TIP3    H255730   1.789   0.128  13.380  0.1119  0.6614 -1.6346
11439TIP3   OH255731   5.765   5.773   1.934 -0.4180 -0.2303  0.2130
11439TIP3    H155732   5.780   5.709   2.003  0.1280 -0.0082  0.3021
11439TIP3    H255733   5.844   5.828   1.933 -1.3684  1.2217  0.9652
11440TIP3   OH255734   1.289   4.166   4.929  0.3888  0.6263 -0.0873
11440TIP3    H155735   1.274   4.255   4.963 -0.4691  1.6744 -2.9389
11440TIP3    H255736   1.204   4.141   4.891  0.8884 -1.0433 -0.1747
11441TIP3   OH255737   5.187   0.384  13.421  0.0606  0.7031 -0.0841
11441TIP3    H155738   5.172   0.293  13.449 -0.6221  0.9231  0.2778
11441TIP3    H255739   5.261   0.378  13.361  1.2068  0.1555  1.3456
11442TIP3   OH255740   6.423   4.815   4.390  1.2148 -0.3027  0.7080
11442TIP3    H155741   6.398   4.742   4.447 -1.6209 -1.3774 -1.6813
11442TIP3    H255742   6.488   4.777   4.330 -0.2433 -0.9436 -0.5200
11443TIP3   OH255743   5.431   1.497   2.216  0.2900  0.4125  0.2225
11443TIP3    H155744   5.384   1.532   2.141  0.1691  0.0725  0.1367
11443TIP3    H255745   5.367   1.442   2.261  1.2496 -2.1984 -1.3361
11444TIP3   OH255746   1.948   0.246  12.868 -0.8126  0.0252  0.5477
11444TIP3    H155747   1.965   0.230  12.961  0.1344  1.1379  0.5898
11444TIP3    H255748   2.035   0.249  12.828 -1.1585  0.7005 -0.1763
11445TIP3   OH255749   6.062   6.575  16.893 -0.4282 -0.0527  0.6145
11445TIP3    H155750   6.030   6.623  16.817 -2.4464 -1.3345  0.5582
11445TIP3    H255751   6.148   6.611  16.911 -0.9196  1.9523 -0.7907
11446TIP3   OH255752   2.089   5.564  11.394 -0.4155  0.3298  0.5541
11446TIP3    H155753   2.165   5.515  11.427 -0.8920 -1.0733 -0.3712
11446TIP3    H255754   2.128   5.639  11.348  0.3920 -0.0510  0.5913
11447TIP3   OH255755   0.781   0.164   4.322  0.5041 -0.0756  0.2087
11447TIP3    H155756   0.773   0.114   4.403 -2.7215  0.4302  0.3287
11447TIP3    H255757   0.738   0.109   4.256 -0.3850  1.1767 -0.2905
11448TIP3   OH255758   3.978   1.730   3.607  1.1843 -0.2885 -0.9063
11448TIP3    H155759   3.992   1.801   3.544 -1.4395  1.2356  0.0552
11448TIP3    H255760   4.064   1.690   3.618  2.0685  0.3860 -4.1948
11449TIP3   OH255761   1.569   6.463   0.468  0.0963 -0.0884 -0.3456
11449TIP3    H155762   1.581   6.386   0.525 -0.7582  0.8750  1.2094
11449TIP3    H255763   1.521   6.525   0.522  0.6996  1.5346 -1.5939
11450TIP3   OH255764   4.157   0.442   5.793  0.0555  0.2819 -0.2503
11450TIP3    H155765   4.091   0.373   5.791  0.6389 -0.2939 -0.2333
11450TIP3    H255766   4.180   0.450   5.886  2.6836 -2.1938 -0.5448
11451TIP3   OH255767   5.535   4.019   1.118 -0.2670 -0.2951  0.9333
11451TIP3    H155768   5.485   3.967   1.055 -2.0704  0.5808  1.5687
11451TIP3    H255769   5.575   3.955   1.176  1.0257 -1.1035 -0.7402
11452TIP3   OH255770   4.207   5.049   4.444  0.3672 -0.3568  0.4268
11452TIP3    H155771   4.121   5.091   4.444  0.5291 -0.0195 -0.7652
11452TIP3    H255772   4.249   5.081   4.524 -0.1790  0.3649  0.4337
11453TIP3   OH255773   6.461   3.341  14.482  0.1715 -0.6946 -0.0095
11453TIP3    H155774   6.372   3.317  14.508  0.5705 -2.6721 -0.2743
11453TIP3    H255775   6.478   3.286  14.405  0.8969  1.1777 -1.2785
11454TIP3   OH255776   5.153   1.130  14.510  0.3525  0.1060  0.0226
11454TIP3    H155777   5.131   1.095  14.596 -0.0870 -1.9317 -0.8724
11454TIP3    H255778   5.245   1.107  14.498  0.5038  0.6732  0.0690
11455TIP3   OH255779   2.193   2.733  13.115 -0.1765  0.0957 -0.1573
11455TIP3    H155780   2.167   2.654  13.162  1.2447 -0.1298  0.2849
11455TIP3    H255781   2.214   2.796  13.185 -0.1536  0.4775 -0.5072
11456TIP3   OH255782   5.062   2.667  16.809 -0.7525  0.3796  0.2091
11456TIP3    H155783   5.087   2.580  16.778 -0.2017  0.4356  0.4820
11456TIP3    H255784   5.099   2.672  16.898  0.8675  1.5985 -0.4788
11457TIP3   OH255785   1.344   5.781  16.717  0.6818 -0.8882  0.3835
11457TIP3    H155786   1.375   5.823  16.637  1.5749 -1.2533  0.5219
11457TIP3    H255787   1.250   5.775  16.706  0.8099 -1.1146 -0.7301
11458TIP3   OH255788   4.290   4.003  16.038 -0.6784  0.0830  0.6274
11458TIP3    H155789   4.377   4.021  16.003 -1.8561  3.2274 -1.1040
11458TIP3    H255790   4.259   3.928  15.988  0.1991  0.4031 -0.4464
11459TIP3   OH255791   1.628   5.311   4.143  0.5079 -0.3044  0.1297
11459TIP3    H155792   1.637   5.218   4.164 -1.3539 -0.7780 -0.9148
11459TIP3    H255793   1.534   5.325   4.138  0.6988  1.9989  1.6250
11460TIP3   OH255794   5.910   4.598  10.790 -0.4094 -0.2932  0.0989
11460TIP3    H155795   5.989   4.623  10.839  0.6422 -0.0873 -1.6020
11460TIP3    H255796   5.919   4.644  10.706 -2.3757 -0.2506 -0.1280
11461TIP3   OH255797   6.756   2.939   5.207  0.4964 -0.0014 -0.3246
11461TIP3    H155798   6.707   2.924   5.287  2.3770 -1.3784  0.6560
11461TIP3    H255799   6.750   3.033   5.192 -2.0514 -0.0602 -0.0720
11462TIP3   OH255800   1.189   1.771   5.567  0.5663  0.2405  0.0488
11462TIP3    H155801   1.153   1.845   5.616  0.3199 -1.1827  2.1476
11462TIP3    H255802   1.113   1.729   5.526  0.0725 -1.1986  2.2779
11463TIP3   OH255803   1.066   4.079  13.561 -0.2934  0.1649 -0.0923
11463TIP3    H155804   1.152   4.040  13.543 -0.4393  0.2364 -0.9681
11463TIP3    H255805   1.023   4.016  13.619 -0.2571 -0.6596 -0.9366
11464TIP3   OH255806   4.289   1.374   6.139  0.4865 -0.2266  0.2476
11464TIP3    H155807   4.261   1.376   6.047  0.2455  0.6926  0.3318
11464TIP3    H255808   4.231   1.310   6.180 -2.1091  2.1555  0.5797
11465TIP3   OH255809   2.269   1.981  16.919  0.0269 -0.6256  0.0086
11465TIP3    H155810   2.356   1.968  16.881  0.7825  0.3628  1.2961
11465TIP3    H255811   2.215   1.913  16.879  1.3321 -1.1167 -0.9995
11466TIP3   OH255812   4.090   4.680   3.802  0.3270  0.5862 -0.3389
11466TIP3    H155813   4.150   4.621   3.849 -0.1570  0.2428 -0.1435
11466TIP3    H255814   4.146   4.752   3.773  0.4485  1.4127  1.7703
11467TIP3   OH255815   1.401   5.005   0.819  0.0564 -0.1274 -0.0441
11467TIP3    H155816   1.438   5.014   0.907  0.6056  1.1720 -0.3952
11467TIP3    H255817   1.352   5.085   0.804 -1.9381 -1.2725 -0.0952
11468TIP3   OH255818   1.079   3.897  14.288 -0.0745  0.6890 -0.0575
11468TIP3    H155819   1.121   3.891  14.374 -1.3081 -0.9097  0.5090
11468TIP3    H255820   0.985   3.891  14.307 -0.3460 -0.6843 -1.5464
11469TIP3   OH255821   0.562   1.434  13.895  0.0836 -0.2526 -0.5976
11469TIP3    H155822   0.557   1.339  13.905 -0.2315 -0.3280 -1.4398
11469TIP3    H255823   0.613   1.448  13.816  2.1584  0.3445  0.7511
11470TIP3   OH255824   5.569   5.937   4.550 -0.5121  0.5833  0.4058
11470TIP3    H155825   5.537   6.027   4.544 -0.1355  0.6060 -2.1134
11470TIP3    H255826   5.627   5.927   4.475 -1.4276 -2.1291 -0.0520
11471TIP3   OH255827   4.709   3.589   2.586  0.6675  0.0837  0.0568
11471TIP3    H155828   4.757   3.633   2.515  1.0042 -1.1706 -0.5206
11471TIP3    H255829   4.631   3.554   2.543  0.4734 -0.0038  0.4820
11472TIP3   OH255830   0.724   3.032   1.425 -0.3769  0.0508 -0.1668
11472TIP3    H155831   0.807   2.984   1.421 -1.1991 -1.4299  0.0209
11472TIP3    H255832   0.681   2.998   1.504 -0.7749  1.4711  0.2490
11473TIP3   OH255833   5.720   1.717   5.480 -0.2482 -0.1824 -0.4956
11473TIP3    H155834   5.697   1.625   5.491 -0.9695  0.0662  0.2023
11473TIP3    H255835   5.787   1.717   5.412  0.8459 -1.3658  0.5205
11474TIP3   OH255836   4.255   4.617   4.022 -0.1361 -0.1970 -0.4624
11474TIP3    H155837   4.332   4.562   4.035  1.9642  1.7766 -3.4266
11474TIP3    H255838   4.241   4.660   4.107  1.4416 -1.2713  0.3830
11475TIP3   OH255839   2.052   1.228  15.594 -0.1447 -0.1288 -0.4165
11475TIP3    H155840   2.085   1.259  15.510  0.7244 -0.2263 -0.1185
11475TIP3    H255841   2.125   1.180  15.633 -0.5601 -0.1571  0.3567
11476TIP3   OH255842   2.963   6.659  13.633  0.2186  0.1286 -0.5876
11476TIP3    H155843   2.869   6.671  13.645 -0.1754 -0.9355 -2.2339
11476TIP3    H255844   3.003   6.738  13.671 -1.2746  0.3253  0.6607
11477TIP3   OH255845   5.603   2.493   2.406  0.2548  0.4432  0.3388
11477TIP3    H155846   5.531   2.555   2.394  0.3175  0.0180 -3.1808
11477TIP3    H255847   5.560   2.411   2.434 -0.3464  0.7911  0.4564
11478TIP3   OH255848   6.291   5.635   2.542 -0.4664 -0.5003  0.1105
11478TIP3    H155849   6.291   5.582   2.462  1.5142  0.8147 -0.8316
11478TIP3    H255850   6.333   5.717   2.517  0.8177 -0.2759  2.6528
11479TIP3   OH255851   1.852   2.539  14.661 -0.5377  0.2912 -0.1792
11479TIP3    H155852   1.778   2.546  14.602 -0.7254  1.0388  0.1348
11479TIP3    H255853   1.871   2.629  14.687  1.2938  0.2843 -1.2450
11480TIP3   OH255854   5.420   1.782  16.462 -0.3568  0.7608 -0.2387
11480TIP3    H155855   5.399   1.824  16.545  0.0939  2.5358 -0.9861
11480TIP3    H255856   5.486   1.838  16.422  2.3579 -2.0478 -0.1274
11481TIP3   OH255857   6.143   4.859  14.886 -0.1955  0.1140  0.4977
11481TIP3    H155858   6.223   4.911  14.896  0.2561 -0.1512 -1.3862
11481TIP3    H255859   6.153   4.816  14.802 -1.8499 -0.8080  0.7333
11482TIP3   OH255860   1.783   3.849   5.794  0.4062 -0.6870 -0.6026
11482TIP3    H155861   1.804   3.941   5.810  0.0175 -0.5357 -0.9390
11482TIP3    H255862   1.767   3.812   5.881 -1.2104  0.0056 -0.5709
11483TIP3   OH255863   1.811   3.866  16.821 -0.4224 -0.1408  0.4050
11483TIP3    H155864   1.860   3.810  16.881 -0.5601 -1.1266 -0.3681
11483TIP3    H255865   1.842   3.955  16.839  0.0673 -0.5063  1.4081
11484TIP3   OH255866   6.308   0.184  15.355 -0.3011  0.1720  0.5110
11484TIP3    H155867   6.274   0.136  15.430 -1.9032  2.8832  1.6711
11484TIP3    H255868   6.396   0.211  15.381 -0.3633  0.0148  0.8847
11485TIP3   OH255869   4.419   4.470  13.308  0.2890 -0.6814  0.6718
11485TIP3    H155870   4.323   4.476  13.308  0.2777  0.4443 -1.6169
11485TIP3    H255871   4.444   4.485  13.399 -1.5814  2.9009  0.7653
11486TIP3   OH255872   5.855   1.662   3.523  0.0516  0.6301 -0.1164
11486TIP3    H155873   5.772   1.673   3.568 -0.0266  0.4327 -0.2109
11486TIP3    H255874   5.833   1.668   3.430  0.0685  0.0941 -0.1564
11487TIP3   OH255875   1.236   4.205  15.202 -0.7685 -0.1138 -0.8218
11487TIP3    H155876   1.202   4.177  15.286  0.0915  1.1287 -0.0335
11487TIP3    H255877   1.250   4.123  15.154  0.0093 -0.9396  0.7387
11488TIP3   OH255878   4.396   2.494   4.384  0.1745 -0.2302  0.0076
11488TIP3    H155879   4.376   2.404   4.407  0.9132 -0.9021 -1.7941
11488TIP3    H255880   4.338   2.547   4.439 -1.3067 -1.8442  0.0654
11489TIP3   OH255881   4.387   1.518  14.041 -0.0183 -0.2655  0.0688
11489TIP3    H155882   4.361   1.609  14.030 -0.6535 -0.5743 -1.3367
11489TIP3    H255883   4.391   1.484  13.951  1.0426 -1.3936  0.5210
11490TIP3   OH255884   3.893   5.415   2.509 -0.2674  0.3628  0.3433
11490TIP3    H155885   3.901   5.322   2.489  0.3972 -0.1228  2.5773
11490TIP3    H255886   3.947   5.427   2.588  0.9901  2.9583 -0.7825
11491TIP3   OH255887   5.019   2.594   2.684  0.1366 -0.2078 -0.2887
11491TIP3    H155888   5.050   2.504   2.680  1.7215  0.2335  0.8327
11491TIP3    H255889   4.963   2.597   2.762 -0.8251 -0.4591 -0.9576
11492TIP3   OH255890   2.876   5.423   3.718 -0.4672 -0.3094 -0.3232
11492TIP3    H155891   2.787   5.451   3.696 -0.0368  2.1124  0.6872
11492TIP3    H255892   2.879   5.429   3.814  0.2256 -2.2889 -0.1916
11493TIP3   OH255893   1.522   5.679  11.901  0.2438 -0.2105 -0.0284
11493TIP3    H155894   1.549   5.588  11.899  1.7700  0.1465  1.7168
11493TIP3    H255895   1.520   5.702  11.994 -0.2948  1.4837 -0.4101
11494TIP3   OH255896   4.562   4.854  16.639 -0.0731 -0.1604  0.5299
11494TIP3    H155897   4.473   4.860  16.603 -0.3007  1.0630  1.2355
11494TIP3    H255898   4.549   4.828  16.730  0.4103 -1.6384  0.2016
11495TIP3   OH255899   6.069   0.995  12.119 -0.3036  0.1778  0.3357
11495TIP3    H155900   6.059   1.003  12.024 -2.2376 -0.3979  0.4613
11495TIP3    H255901   5.992   1.038  12.155  0.0363 -0.2744  1.6274
11496TIP3   OH255902   2.157   6.580  16.167  0.2942 -0.1808  0.3720
11496TIP3    H155903   2.145   6.675  16.161  0.5229 -0.1394  0.5013
11496TIP3    H255904   2.124   6.558  16.254  1.3527 -0.0240  0.8395
11497TIP3   OH255905   6.589   1.485  16.128  0.0220 -0.6477 -0.1350
11497TIP3    H155906   6.520   1.436  16.173 -0.9911  0.4141 -0.4857
11497TIP3    H255907   6.645   1.417  16.090  0.2017 -1.5461  1.6484
11498TIP3   OH255908   2.621   3.388  15.395  0.5356  0.3027 -0.1689
11498TIP3    H155909   2.645   3.464  15.449  1.1765  0.3773 -0.5387
11498TIP3    H255910   2.570   3.332  15.452 -0.1000  1.1056  0.0572
11499TIP3   OH255911   6.011   2.184  12.696  0.1555  0.0758  0.0134
11499TIP3    H155912   6.103   2.198  12.674  1.0041 -0.0375  3.1021
11499TIP3    H255913   5.975   2.272  12.708 -0.7669  0.2302 -3.0677
11500TIP3   OH255914   1.787   4.125   4.012 -0.1519 -0.0487  0.0469
11500TIP3    H155915   1.756   4.210   3.980  0.9012 -0.3653 -1.9904
11500TIP3    H255916   1.801   4.138   4.106 -1.9231  1.4210  0.1525
11501TIP3   OH255917   3.169   4.514  15.230  0.0159  0.1669 -0.3687
11501TIP3    H155918   3.195   4.576  15.299  0.9426 -0.1494 -0.4155
11501TIP3    H255919   3.184   4.428  15.269  1.6100 -0.0295 -1.3144
11502TIP3   OH255920   2.058   2.473   1.338 -0.0087 -0.7634 -0.4401
11502TIP3    H155921   2.119   2.468   1.412  1.4703 -0.7400 -1.5903
11502TIP3    H255922   2.017   2.558   1.345 -1.0566 -1.3756  1.2085
11503TIP3   OH255923   4.354   4.855   1.084 -0.1398 -0.8347 -0.2185
11503TIP3    H155924   4.389   4.803   1.157 -1.2355 -0.8924  0.2743
11503TIP3    H255925   4.326   4.937   1.124 -1.1554 -1.0367 -0.4909
11504TIP3   OH255926   0.511   5.255   2.339  0.3210  0.2573 -0.4462
11504TIP3    H155927   0.562   5.249   2.259 -0.1156 -1.5225 -0.6198
11504TIP3    H255928   0.427   5.213   2.317 -0.7070  1.8352  0.2505
11505TIP3   OH255929   2.144   6.154   3.288 -0.1229  0.3335 -0.6643
11505TIP3    H155930   2.172   6.244   3.303  0.4417 -0.0418  0.7168
11505TIP3    H255931   2.048   6.159   3.281 -0.1936  0.9268  0.4792
11506TIP3   OH255932   0.874   1.711  11.617  0.5707  0.2213  0.3863
11506TIP3    H155933   0.908   1.794  11.583 -0.3171 -0.3090 -1.9944
11506TIP3    H255934   0.809   1.736  11.682  1.2643  1.3507  0.6713
11507TIP3   OH255935   0.117   5.782   1.384 -0.3109 -0.2960  0.1132
11507TIP3    H155936   0.068   5.782   1.302  0.0574  1.9906 -0.1787
11507TIP3    H255937   0.176   5.707   1.376 -0.1649 -0.0350 -1.7990
11508TIP3   OH255938   0.431   3.729  13.499  0.7607 -0.0019 -0.4750
11508TIP3    H155939   0.439   3.803  13.559  0.4083  0.3755 -0.8825
11508TIP3    H255940   0.514   3.726  13.452  0.4645  0.6842 -1.0661
11509TIP3   OH255941   0.285   0.798   4.413  0.6575  0.5969 -0.6695
11509TIP3    H155942   0.226   0.834   4.480 -0.5707 -0.2784 -1.2283
11509TIP3    H255943   0.327   0.874   4.374 -0.4066  1.2919 -0.5014
11510TIP3   OH255944   4.925   2.718  14.698 -0.2129 -0.0200 -0.0238
11510TIP3    H155945   5.005   2.762  14.669 -0.0034 -0.5112 -0.2045
11510TIP3    H255946   4.874   2.787  14.742  0.8340  0.0404  1.1561
11511TIP3   OH255947   2.923   6.686  12.775 -0.2765  0.4786 -0.0981
11511TIP3    H155948   2.838   6.665  12.813  0.0152 -1.2324 -0.2982
11511TIP3    H255949   2.924   6.639  12.691  1.1900 -0.2462  0.2962
11512TIP3   OH255950   6.140   1.275   4.961 -0.9327  0.4923 -0.1920
11512TIP3    H155951   6.152   1.180   4.958  1.8162  0.7863 -0.4400
11512TIP3    H255952   6.151   1.304   4.870 -0.0894  1.1993  0.1224
11513TIP3   OH255953   1.202   1.345   5.562 -0.4793 -0.0752  0.4157
11513TIP3    H155954   1.250   1.265   5.583  1.6093  1.1340  0.4828
11513TIP3    H255955   1.121   1.338   5.612  0.0323 -1.7529  1.0774
11514TIP3   OH255956   2.770   2.513  13.265 -0.2774 -0.5553 -0.0139
11514TIP3    H155957   2.824   2.456  13.209  0.6184  0.2033  0.0602
11514TIP3    H255958   2.822   2.593  13.275 -1.9328  0.6958 -0.9270
11515TIP3   OH255959   3.966   4.725   4.398  0.0195  0.5247 -0.4029
11515TIP3    H155960   3.973   4.743   4.491  2.2024  1.0564 -0.6051
11515TIP3    H255961   3.901   4.787   4.366 -1.8089 -0.6125  0.9502
11516TIP3   OH255962   2.090   6.294  16.107 -0.1399  0.3771 -0.0969
11516TIP3    H155963   2.153   6.365  16.117 -0.2616  0.7170 -1.4796
11516TIP3    H255964   2.018   6.318  16.165 -0.2139  1.4584 -0.5952
11517TIP3   OH255965   3.072   2.323   2.170 -0.7504 -0.3461 -0.0844
11517TIP3    H155966   3.020   2.341   2.092 -0.8537  0.4974  0.1678
11517TIP3    H255967   3.073   2.227   2.177 -0.7404 -0.4288 -1.1112
11518TIP3   OH255968   4.994   5.502   0.335 -0.5680  0.1843  0.5187
11518TIP3    H155969   4.970   5.434   0.397 -1.6776  0.7272  0.7179
11518TIP3    H255970   4.960   5.471   0.251  1.9105 -1.0869 -0.1209
11519TIP3   OH255971   5.715   5.712   1.361 -0.0331  0.0171  0.2682
11519TIP3    H155972   5.697   5.646   1.428 -0.8220 -1.7721 -1.5979
11519TIP3    H255973   5.753   5.786   1.409 -0.6985 -1.1132  2.6749
11520TIP3   OH255974   4.380   0.898  13.205  0.0469 -0.5432  0.2234
11520TIP3    H155975   4.398   0.839  13.278  1.7353  1.6048  1.6819
11520TIP3    H255976   4.465   0.911  13.163 -0.8113 -1.3158 -1.8547
11521TIP3   OH255977   1.422   6.107  15.259 -0.4002  0.0555  0.0041
11521TIP3    H155978   1.390   6.097  15.169  1.6475 -0.6653 -0.6993
11521TIP3    H255979   1.383   6.034  15.307 -0.2083 -0.5209 -0.7052
11522TIP3   OH255980   6.674   5.252   1.713  0.0170  0.4697 -0.1567
11522TIP3    H155981   6.713   5.315   1.653 -1.3440  1.8376  0.3311
11522TIP3    H255982   6.707   5.167   1.683  0.2823  1.2045 -2.1089
11523TIP3   OH255983   6.772   2.093   1.633 -0.2929  0.1362 -0.0902
11523TIP3    H155984   6.799   2.103   1.541  0.1409  0.1322  0.0354
11523TIP3    H255985   6.677   2.084   1.629 -0.2577 -0.0628 -0.5568
11524TIP3   OH255986   5.652   4.575  16.932  0.0956 -0.1800  0.2997
11524TIP3    H155987   5.665   4.499  16.989  3.0143 -1.1685 -1.4723
11524TIP3    H255988   5.718   4.638  16.960 -0.3480  0.4982 -0.1496
11525TIP3   OH255989   6.685   4.970  17.106 -0.0952  0.3074 -0.1383
11525TIP3    H155990   6.704   5.034  17.037 -0.5525  0.0507 -0.5038
11525TIP3    H255991   6.765   4.967  17.158  1.0675 -1.0131 -1.8721
11526TIP3   OH255992   2.891   3.733   2.605 -0.0705 -0.4968 -0.3171
11526TIP3    H155993   2.964   3.699   2.657 -1.8249  0.7173  3.2560
11526TIP3    H255994   2.820   3.744   2.668 -2.2967  1.5473 -2.9501
11527TIP3   OH255995   6.287   1.385   5.843 -0.5952 -0.2795  0.6739
11527TIP3    H155996   6.326   1.305   5.808 -2.2283 -0.4473 -0.9347
11527TIP3    H255997   6.286   1.446   5.769 -2.7301 -0.0789  0.8069
11528TIP3   OH255998   2.168   5.586   4.611  0.1767  0.4651 -0.3342
11528TIP3    H155999   2.142   5.619   4.697 -0.8072  1.3256 -0.9298
11528TIP3    H256000   2.143   5.656   4.550 -1.8707 -1.3127 -1.6631
11529TIP3   OH256001   2.982   5.261  14.998 -0.0071 -0.2470  0.2930
11529TIP3    H156002   3.068   5.301  15.004 -1.0234  2.2612 -0.6748
11529TIP3    H256003   2.997   5.168  15.017  3.0918 -0.1528 -1.1403
11530TIP3   OH256004   1.442   2.356   5.653 -0.6264  0.0229 -0.4500
11530TIP3    H156005   1.410   2.418   5.719 -0.9648 -0.4910 -0.1125
11530TIP3    H256006   1.433   2.270   5.696  0.6328 -0.1894 -0.5889
11531TIP3   OH256007   0.654   4.707   1.482 -0.5625 -0.1779 -0.0268
11531TIP3    H156008   0.569   4.750   1.481  0.0137  1.0150  0.4785
11531TIP3    H256009   0.635   4.614   1.465 -1.8957  0.1556 -0.4285
11532TIP3   OH256010   1.453   0.505   1.199  0.2687  0.0089  0.2725
11532TIP3    H156011   1.401   0.570   1.247 -1.7138 -1.7629  0.6569
11532TIP3    H256012   1.403   0.424   1.207  2.6302 -1.5800 -0.2443
11533TIP3   OH256013   2.950   0.875   2.799 -0.1886 -0.4364  0.1725
11533TIP3    H156014   2.991   0.800   2.842  0.8134 -0.6811 -1.1262
11533TIP3    H256015   2.968   0.861   2.706 -1.8805  0.2960 -0.3014
11534TIP3   OH256016   5.419   3.871  11.448 -0.0183 -0.1026 -0.5332
11534TIP3    H156017   5.456   3.821  11.375  0.7813 -0.4549  0.0990
11534TIP3    H256018   5.488   3.933  11.471  0.1720 -0.7227  0.6198
11535TIP3   OH256019   2.912   0.227  15.304 -0.0371 -0.1426 -0.7763
11535TIP3    H156020   2.841   0.259  15.248 -1.6139  0.9582  1.6909
11535TIP3    H256021   2.868   0.178  15.374  1.5261  1.1227  1.2005
11536TIP3   OH256022   4.679   3.264  16.741  0.2837  0.1581 -0.0829
11536TIP3    H156023   4.626   3.313  16.677  1.3021  0.6113 -0.6054
11536TIP3    H256024   4.739   3.330  16.777  0.7976 -0.4368  0.1628
11537TIP3   OH256025   4.398   5.972   3.759 -0.4805  0.3035  0.0365
11537TIP3    H156026   4.371   6.039   3.822  0.0531  1.7642 -1.2185
11537TIP3    H256027   4.473   6.011   3.714  1.1695 -1.9720  0.6354
11538TIP3   OH256028   1.582   3.240  11.088  0.2370  0.0364  0.8102
11538TIP3    H156029   1.578   3.159  11.138 -0.1659 -0.6591 -0.3094
11538TIP3    H256030   1.631   3.217  11.009  0.4956  0.9939  0.6829
11539TIP3   OH256031   1.682   2.781  17.028  0.0242 -0.7692 -0.2260
11539TIP3    H156032   1.604   2.827  17.058  0.1190 -0.8110  0.0838
11539TIP3    H256033   1.755   2.834  17.059  0.1154 -0.0954 -1.5214
11540TIP3   OH256034   1.084   2.369   2.702 -0.3489  0.3735 -0.3949
11540TIP3    H156035   1.053   2.385   2.791  0.6502 -0.4435  0.1284
11540TIP3    H256036   1.153   2.433   2.689  0.5159 -0.4518 -0.0074
11541TIP3   OH256037   1.452   4.210   3.997 -0.4197 -0.8207  0.0432
11541TIP3    H156038   1.545   4.188   4.008 -0.4604 -2.1115 -1.7344
11541TIP3    H256039   1.450   4.305   3.987  0.5184 -0.6047  1.5816
11542TIP3   OH256040   6.158   1.098   1.978 -0.3109  0.5241  0.1550
11542TIP3    H156041   6.212   1.170   1.945  0.5815 -0.3745 -0.4182
11542TIP3    H256042   6.219   1.024   1.987 -1.0573  0.0145  1.3780
11543TIP3   OH256043   0.523   1.516  14.356 -0.8164 -0.0398 -0.6537
11543TIP3    H156044   0.580   1.591  14.340  0.5588 -1.0585 -0.6886
11543TIP3    H256045   0.583   1.442  14.365 -2.1523 -1.1687 -0.8022
11544TIP3   OH256046   3.976   2.967  11.567 -0.4684 -0.2309 -0.4228
11544TIP3    H156047   3.990   2.984  11.474 -0.2152  1.5205 -0.0821
11544TIP3    H256048   4.011   3.043  11.612  0.0541 -1.3583  1.1770
11545TIP3   OH256049   2.458   2.560   0.031 -0.5196  0.0294  0.6837
11545TIP3    H156050   2.468   2.473  -0.007  0.9000  0.6387 -0.4300
11545TIP3    H256051   2.396   2.548   0.103 -0.1211 -1.9488  0.7468
11546TIP3   OH256052   2.161   1.883   1.819 -0.4782 -0.3679 -0.8640
11546TIP3    H156053   2.067   1.864   1.814 -1.1745  2.6999 -1.1707
11546TIP3    H256054   2.166   1.978   1.819  2.7899 -0.4067 -3.3197
11547TIP3   OH256055   5.003   2.186  13.823  0.5334 -0.2294 -0.4508
11547TIP3    H156056   4.950   2.185  13.743 -1.0758 -0.4249  0.5561
11547TIP3    H256057   5.080   2.238  13.800 -0.5978  0.9939 -1.7100
11548TIP3   OH256058   1.540   1.919   1.047 -0.1435  0.0564  0.0025
11548TIP3    H156059   1.539   1.893   1.139  1.1415 -0.9719 -0.2502
11548TIP3    H256060   1.552   2.014   1.049  1.3870 -0.1370  0.8893
11549TIP3   OH256061   4.511   3.384   3.552  0.3208  0.2070  0.0633
11549TIP3    H156062   4.453   3.308   3.552  1.0609 -0.3697  0.3338
11549TIP3    H256063   4.470   3.446   3.612  0.6761 -0.7439  1.3349
11550TIP3   OH256064   2.841   1.670  16.998  0.0045 -0.1500  0.0294
11550TIP3    H156065   2.802   1.755  16.977  0.7764 -0.0614 -1.1065
11550TIP3    H256066   2.769   1.607  16.989 -0.0220  0.0776 -1.5588
11551TIP3   OH256067   2.587   4.812   2.512 -0.0836 -0.0316 -0.4771
11551TIP3    H156068   2.585   4.895   2.464  0.0161  1.1051  1.4070
11551TIP3    H256069   2.675   4.809   2.550 -1.5322  1.4427  3.4417
11552TIP3   OH256070   6.583   5.120   1.203  0.0875 -0.2203  0.1522
11552TIP3    H156071   6.510   5.110   1.142 -0.3112 -0.0831  0.5997
11552TIP3    H256072   6.649   5.170   1.154 -0.8374  1.2151  0.3257
11553TIP3   OH256073   3.337   0.914  13.154 -0.0069 -0.4961  0.1137
11553TIP3    H156074   3.426   0.879  13.156  0.1514 -0.5990 -3.0111
11553TIP3    H256075   3.302   0.896  13.241  2.8910 -0.7321  1.3390
11554TIP3   OH256076   6.665   2.756  12.417 -0.3000 -0.5639  0.2085
11554TIP3    H156077   6.591   2.705  12.384 -1.0854 -0.3980  1.6360
11554TIP3    H256078   6.681   2.721  12.505 -0.3877  1.1639  0.9505
11555TIP3   OH256079   6.404   2.710  15.080  0.7025  0.6545 -0.3401
11555TIP3    H156080   6.319   2.729  15.040  0.9433 -0.8852 -1.7118
11555TIP3    H256081   6.389   2.718  15.174 -0.9164  0.5765 -0.5676
11556TIP3   OH256082   6.225   6.679  11.221 -0.8113 -0.4788 -0.4918
11556TIP3    H156083   6.260   6.602  11.266  0.0458 -0.8969 -1.8178
11556TIP3    H256084   6.297   6.743  11.224 -1.5846  0.3760  0.7731
11557TIP3   OH256085   4.324   0.526  15.430  0.0660  0.3013 -0.0258
11557TIP3    H156086   4.373   0.596  15.386  1.6224 -0.7982 -0.1344
11557TIP3    H256087   4.308   0.461  15.361 -1.8798  0.7614 -0.0624
11558TIP3   OH256088   2.524   3.273   5.886 -0.2717 -0.1650 -0.2836
11558TIP3    H156089   2.557   3.256   5.974  0.8061 -0.6843 -0.7646
11558TIP3    H256090   2.434   3.240   5.887 -0.6895  0.9217  0.9528
11559TIP3   OH256091   6.094   2.518  11.741  0.5132 -0.1891 -0.3260
11559TIP3    H156092   6.142   2.516  11.824  1.0645  0.9148 -0.6102
11559TIP3    H256093   6.133   2.590  11.692  0.9680 -1.5296 -2.0178
11560TIP3   OH256094   6.262   1.111   0.976  0.5279  0.5702 -0.3164
11560TIP3    H156095   6.306   1.031   0.949 -0.6226  0.3609 -1.6582
11560TIP3    H256096   6.296   1.179   0.917 -0.5397  0.5017 -1.0327
11561TIP3   OH256097   5.237   3.265  16.523  0.3252 -0.1590 -0.2703
11561TIP3    H156098   5.211   3.294  16.610 -0.2094 -1.4857  0.0326
11561TIP3    H256099   5.175   3.195  16.501  0.1990  0.4199 -1.8854
11562TIP3   OH256100   5.151   4.617  17.095  0.3403  0.4127 -0.4276
11562TIP3    H156101   5.168   4.710  17.109  0.2534  0.5802 -1.3629
11562TIP3    H256102   5.207   4.593  17.021  1.4413 -0.6332  0.7001
11563TIP3   OH256103   2.258   5.464   4.088 -0.2364 -0.7334  0.1955
11563TIP3    H156104   2.264   5.470   3.992  0.7684 -1.7752  0.1686
11563TIP3    H256105   2.175   5.506   4.109  0.5309  1.5694 -0.9199
11564TIP3   OH256106   3.538   6.164   2.884 -0.5985 -0.1981 -0.4347
11564TIP3    H156107   3.467   6.101   2.871 -0.7076 -0.0458 -0.5772
11564TIP3    H256108   3.590   6.127   2.956 -0.3826 -0.6934 -0.8419
11565TIP3   OH256109   1.257   6.698  13.731  0.1293  0.2392  0.2437
11565TIP3    H156110   1.225   6.754  13.660  0.6725 -1.8021 -1.7437
11565TIP3    H256111   1.346   6.674  13.704  0.0370 -1.2620  1.1991
11566TIP3   OH256112   2.656   6.159  16.207  0.3957  0.0406  0.5912
11566TIP3    H156113   2.605   6.177  16.285 -2.1936  0.4378 -1.0792
11566TIP3    H256114   2.621   6.218  16.140  2.2755 -0.4990 -0.9956
11567TIP3   OH256115   4.370   4.484   0.493  0.2072  0.1391 -0.3244
11567TIP3    H156116   4.400   4.572   0.514 -0.9184  0.5045 -0.1996
11567TIP3    H256117   4.449   4.439   0.460  0.8464  1.0943 -0.1343
11568TIP3   OH256118   1.487   6.427   3.851 -0.2221  0.8551  0.0317
11568TIP3    H156119   1.396   6.418   3.878 -0.1178  1.3805  0.5823
11568TIP3    H256120   1.520   6.337   3.848 -0.7157  0.6727 -0.0346
11569TIP3   OH256121   4.515   3.758   1.026 -0.0359  0.7212 -0.4140
11569TIP3    H156122   4.476   3.820   1.087 -0.4754  0.2276 -0.1857
11569TIP3    H256123   4.609   3.764   1.043 -0.2599 -0.9117  1.8239
11570TIP3   OH256124   6.495   0.702  13.884  0.0631 -0.1000 -0.1644
11570TIP3    H156125   6.435   0.769  13.916 -2.5541 -2.0853 -0.6501
11570TIP3    H256126   6.460   0.678  13.798  2.3760 -0.4152 -1.0929
11571TIP3   OH256127   2.259   2.256  17.013  0.4085  0.3877 -0.3044
11571TIP3    H156128   2.177   2.278  17.059  0.4987  0.2220 -0.0652
11571TIP3    H256129   2.253   2.162  16.998  0.8483  0.2681  0.2814
11572TIP3   OH256130   4.271   3.786  12.927  0.6268 -0.3410  0.0386
11572TIP3    H156131   4.204   3.764  12.862  1.4607 -0.1074 -0.9218
11572TIP3    H256132   4.249   3.875  12.954 -0.4455 -0.8788  1.0155
11573TIP3   OH256133   5.070   3.983  11.863 -0.4696  0.2677 -0.5036
11573TIP3    H156134   5.133   3.928  11.816  0.4086  0.5879  0.2900
11573TIP3    H256135   5.001   3.921  11.890  0.5227 -0.4654  0.4149
11574TIP3   OH256136   4.184   5.377  10.640 -0.2057 -0.1374 -0.1299
11574TIP3    H156137   4.107   5.394  10.586 -0.2917  0.9503  0.3029
11574TIP3    H256138   4.214   5.290  10.613 -2.2582 -1.1178  0.5016
11575TIP3   OH256139   5.964   1.337  16.592  0.7757  0.1158 -0.3487
11575TIP3    H156140   5.958   1.424  16.552  1.5954  0.1720 -0.3596
11575TIP3    H256141   6.055   1.311  16.581  0.2754 -1.2945 -1.4422
11576TIP3   OH256142   3.956   0.632  12.004 -0.0072  0.7608 -0.2868
11576TIP3    H156143   3.910   0.710  12.034 -0.3026 -0.2848  2.1998
11576TIP3    H256144   4.049   0.656  12.008 -0.1034  1.0651  0.2921
11577TIP3   OH256145   0.194   3.911   3.676 -0.1836  0.0757  0.1918
11577TIP3    H156146   0.122   3.849   3.665 -0.3674 -0.1445  2.1531
11577TIP3    H256147   0.199   3.958   3.593 -3.9253  1.4712  0.5441
11578TIP3   OH256148   3.778   0.437  12.124  0.7443  0.5197  0.1376
11578TIP3    H156149   3.686   0.431  12.098  1.1252  0.0480 -1.1772
11578TIP3    H256150   3.810   0.516  12.080  0.8896  0.8939  0.8937
11579TIP3   OH256151   4.899   5.431   0.874 -0.0885  0.0093 -0.3738
11579TIP3    H156152   4.913   5.525   0.860  2.9719 -0.3021 -0.1265
11579TIP3    H256153   4.826   5.425   0.934 -0.0754  2.2714 -0.0775
11580TIP3   OH256154   2.441   3.847   1.975  0.2754  0.6820  0.1836
11580TIP3    H156155   2.458   3.884   1.889 -1.3445 -0.2225 -0.5768
11580TIP3    H256156   2.382   3.909   2.017  0.7023  0.8982  0.4676
11581TIP3   OH256157   4.359   2.687   3.703  0.8780 -0.1623 -0.1665
11581TIP3    H156158   4.439   2.649   3.739  0.8157  1.2438  1.6008
11581TIP3    H256159   4.298   2.614   3.696  1.6818 -0.8937  0.3660
11582TIP3   OH256160   2.384   2.481   3.049 -0.1616 -0.6874 -0.5300
11582TIP3    H156161   2.438   2.439   2.982 -1.2913 -1.6288 -0.8911
11582TIP3    H256162   2.330   2.410   3.083 -0.4893  0.0423  0.4908
11583TIP3   OH256163   0.422   3.438  17.181  0.2079  0.3980  0.0785
11583TIP3    H156164   0.333   3.453  17.215  0.0758  1.2410 -0.6168
11583TIP3    H256165   0.447   3.353  17.218 -0.3829  0.7362  1.3299
11584TIP3   OH256166   3.137   0.299   5.692 -0.9056 -0.7431  0.2272
11584TIP3    H156167   3.220   0.330   5.727 -1.5282 -0.3337  1.3919
11584TIP3    H256168   3.123   0.214   5.733 -1.3480 -0.5403  0.5041
11585TIP3   OH256169   0.377   1.558   6.263  0.0151  0.1505 -0.2515
11585TIP3    H156170   0.348   1.472   6.293  0.7646  0.1219  0.4201
11585TIP3    H256171   0.305   1.617   6.287 -0.8810 -0.4032 -1.4885
11586TIP3   OH256172   4.302   2.418   3.061  0.0995 -0.0708 -0.2473
11586TIP3    H156173   4.252   2.455   3.134  0.8408 -0.9303  0.7408
11586TIP3    H256174   4.385   2.465   3.063 -0.1846  0.4693 -1.0657
11587TIP3   OH256175   2.869   4.320   2.338  0.2796 -0.2794  0.0481
11587TIP3    H156176   2.910   4.235   2.356 -0.7274 -0.8188 -0.0941
11587TIP3    H256177   2.922   4.359   2.269  2.8474  0.7878  2.4185
11588TIP3   OH256178   3.581   5.462   4.625  0.2734  0.6137  0.4739
11588TIP3    H156179   3.593   5.489   4.534  0.6403  0.1560  0.3805
11588TIP3    H256180   3.506   5.513   4.656  2.4091  3.6744  1.0949
11589TIP3   OH256181   6.040   6.100  12.365  0.3663 -0.1953  0.0027
11589TIP3    H156182   6.123   6.061  12.338  1.3414  0.9441  1.2637
11589TIP3    H256183   6.031   6.077  12.457 -0.0317  0.8394  0.2359
11590TIP3   OH256184   1.989   0.275  17.250  0.1858 -0.1503 -0.0252
11590TIP3    H156185   2.028   0.360  17.273 -0.4556  0.7344 -1.9793
11590TIP3    H256186   2.009   0.264  17.157 -1.3587 -1.2308 -0.2640
11591TIP3   OH256187   2.050   5.894   4.505 -0.0620 -0.0492 -0.0175
11591TIP3    H156188   2.012   5.848   4.430  1.7459 -2.1024  0.2323
11591TIP3    H256189   2.130   5.933   4.471  0.1582  0.0147  0.5574
11592TIP3   OH256190   1.828   2.820  16.489  0.1392 -0.4129 -0.1259
11592TIP3    H156191   1.846   2.846  16.399  2.2772  1.8373  0.8422
11592TIP3    H256192   1.783   2.895  16.527 -1.9131 -1.8363  0.4267
11593TIP3   OH256193   6.230   4.264  14.420 -0.3215 -0.3500 -0.0852
11593TIP3    H156194   6.221   4.181  14.374 -2.0437 -0.5603  0.5605
11593TIP3    H256195   6.310   4.303  14.384 -1.0116 -0.9798 -2.4771
11594TIP3   OH256196   1.867   2.587   3.764  0.1275 -0.0917 -0.2842
11594TIP3    H156197   1.790   2.615   3.716 -0.6572  2.0572  1.9979
11594TIP3    H256198   1.833   2.551   3.846  1.4683  0.8653  0.7601
11595TIP3   OH256199   6.557   0.179  13.821 -0.4407  0.1273 -0.3508
11595TIP3    H156200   6.559   0.271  13.846  0.7616 -0.4163  1.7104
11595TIP3    H256201   6.464   0.160  13.806 -0.7714  1.4735 -0.1018
11596TIP3   OH256202   6.060   2.831  15.506 -0.3712  0.8183  0.1354
11596TIP3    H156203   6.017   2.807  15.424  0.6082  2.6336 -0.9713
11596TIP3    H256204   6.004   2.793  15.574 -1.1412 -0.8526 -1.3333
11597TIP3   OH256205   0.987   6.592   4.833  0.0560 -0.5248 -0.3208
11597TIP3    H156206   1.039   6.523   4.792 -1.2143 -1.6803 -0.0677
11597TIP3    H256207   0.985   6.569   4.926  1.8966  1.4056  0.2817
11598TIP3   OH256208   0.618   5.263  13.184 -0.4083 -0.2701  0.3009
11598TIP3    H156209   0.559   5.305  13.121  0.4334 -0.4375 -0.6169
11598TIP3    H256210   0.668   5.336  13.221 -2.1815  0.0750  2.2228
11599TIP3   OH256211   6.222   1.150   0.057 -0.7585 -0.2469 -0.3939
11599TIP3    H156212   6.188   1.198  -0.018 -0.5097  1.7461  0.6834
11599TIP3    H256213   6.146   1.106   0.094 -1.6691  1.7714  0.2822
11600TIP3   OH256214   6.578   5.601   4.251 -1.1072  0.3443  0.3720
11600TIP3    H156215   6.588   5.687   4.210 -2.1788  0.4313  0.2430
11600TIP3    H256216   6.524   5.618   4.329 -1.5391 -0.2359  0.2063
11601TIP3   OH256217   1.403   4.487   3.903  0.1795  0.2135  0.0151
11601TIP3    H156218   1.361   4.566   3.935  1.1741  1.0235 -0.6182
11601TIP3    H256219   1.414   4.501   3.809 -0.4331 -1.0671 -0.2801
11602TIP3   OH256220   1.347   5.247   3.317 -0.1862  0.0914 -0.0762
11602TIP3    H156221   1.300   5.255   3.234 -0.7221 -0.2880  0.1857
11602TIP3    H256222   1.279   5.251   3.384 -0.1695 -2.7394  0.2513
11603TIP3   OH256223   4.748   0.175  16.707 -0.0696  0.6605 -0.3829
11603TIP3    H156224   4.723   0.101  16.762 -1.2777  0.9069 -0.5644
11603TIP3    H256225   4.731   0.252  16.761  0.0644  0.8447 -0.6017
11604TIP3   OH256226   6.307   5.722  17.058 -0.2522  0.0433 -0.7236
11604TIP3    H156227   6.362   5.729  16.980  0.0482  0.1626 -0.5010
11604TIP3    H256228   6.255   5.643  17.044  0.8683 -0.7709 -0.3595
11605TIP3   OH256229   4.316   5.008   0.604  0.3393  0.4439 -0.3971
11605TIP3    H156230   4.360   5.075   0.657 -0.1841  1.0720 -0.7314
11605TIP3    H256231   4.318   5.043   0.515 -1.4917  0.8813 -0.3182
11606TIP3   OH256232   3.069   2.110   1.224  0.0714 -0.4292  0.3235
11606TIP3    H156233   3.022   2.033   1.256 -0.0197 -0.3999  0.2584
11606TIP3    H256234   3.012   2.148   1.157 -2.5179  2.7458  3.8659
11607TIP3   OH256235   4.823   6.104   4.656 -0.6301  0.0037  0.2691
11607TIP3    H156236   4.901   6.159   4.660 -0.8901  0.7481 -2.6488
11607TIP3    H256237   4.857   6.016   4.641 -0.3102  0.0667  0.6241
11608TIP3   OH256238   4.612   5.727  13.853 -0.1901 -0.0962 -0.0809
11608TIP3    H156239   4.647   5.762  13.771  1.5828  0.0254  0.6800
11608TIP3    H256240   4.621   5.632  13.844  0.8909 -0.0462  0.3161
11609TIP3   OH256241   6.724   1.678  16.599 -0.7373  0.1045  0.2876
11609TIP3    H156242   6.680   1.617  16.540  1.8700  0.6400 -2.4825
11609TIP3    H256243   6.780   1.623  16.654 -0.8264 -0.2167  0.0556
11610TIP3   OH256244   1.881   4.822   1.608 -0.0710  0.3667  0.3657
11610TIP3    H156245   1.808   4.883   1.594  0.2458  0.5627 -0.5191
11610TIP3    H256246   1.839   4.736   1.613 -0.4063  0.5230  0.2945
11611TIP3   OH256247   0.896   1.671   0.256 -0.5241 -0.3139  0.2200
11611TIP3    H156248   0.928   1.636   0.173  0.9755  0.5320  0.4135
11611TIP3    H256249   0.924   1.763   0.257 -1.5948  0.0372  1.1284
11612TIP3   OH256250   1.015   5.067   2.931  0.1700  0.3103  0.1576
11612TIP3    H156251   1.010   5.069   3.027  1.0994 -2.1913  0.3484
11612TIP3    H256252   1.101   5.104   2.910 -0.0497  0.8938  0.2726
11613TIP3   OH256253   3.584   2.646  15.514 -0.7337 -0.6638  0.7148
11613TIP3    H156254   3.498   2.616  15.487 -1.0958  0.1422  0.9381
11613TIP3    H256255   3.644   2.611  15.448 -1.2120 -1.3485  0.6463
11614TIP3   OH256256   6.425   5.846   2.436 -0.3998 -0.0861  0.6144
11614TIP3    H156257   6.450   5.932   2.468 -0.9427  0.4545 -0.3581
11614TIP3    H256258   6.506   5.808   2.402 -0.5023  0.9229 -0.8781
11615TIP3   OH256259   6.508   2.668   1.802  0.5373  0.5320 -0.1580
11615TIP3    H156260   6.472   2.721   1.872  0.8965  2.2747 -1.2166
11615TIP3    H256261   6.460   2.696   1.724  1.8008  0.4284 -1.0034
11616TIP3   OH256262   1.718   2.475  14.283  0.4112  0.3219 -0.9064
11616TIP3    H156263   1.662   2.483  14.361 -0.2924  1.8758 -1.5113
11616TIP3    H256264   1.789   2.417  14.310 -0.9393 -0.8955  0.2226
11617TIP3   OH256265   6.157   4.416  12.114 -0.2786  0.0256  0.3892
11617TIP3    H156266   6.116   4.501  12.096 -0.7851 -0.5524 -1.4348
11617TIP3    H256267   6.232   4.437  12.169  0.1638  1.7891 -0.7933
11618TIP3   OH256268   2.725   4.993  17.191 -0.1421  1.0295 -0.6495
11618TIP3    H156269   2.676   5.067  17.155 -1.5511  0.4324 -0.0397
11618TIP3    H256270   2.690   4.916  17.146  1.4089  0.7107 -1.3854
11619TIP3   OH256271   6.747   3.721   4.172  0.8589 -0.8130 -0.1334
11619TIP3    H156272   6.710   3.717   4.083  0.4620  2.1150 -0.2023
11619TIP3    H256273   6.821   3.661   4.170 -0.4855 -2.5447 -1.7233
11620TIP3   OH256274   1.305   2.565   6.657 -0.5733 -0.2538  0.3864
11620TIP3    H156275   1.309   2.498   6.726 -1.0298 -0.1609  0.5083
11620TIP3    H256276   1.246   2.632   6.693 -0.0641  0.2461  0.2936
11621TIP3   OH256277   0.129   1.128  11.952 -0.2870  0.2648 -0.4519
11621TIP3    H156278   0.133   1.109  11.859  0.3642  1.0643 -0.5927
11621TIP3    H256279   0.068   1.063  11.987 -2.9887  1.8085 -1.9029
11622TIP3   OH256280   4.628   0.171   4.783 -0.2216 -0.3326 -0.2614
11622TIP3    H156281   4.553   0.206   4.831  1.2715  0.9087  1.2791
11622TIP3    H256282   4.666   0.246   4.739 -0.2879 -1.0845 -1.6501
11623TIP3   OH256283   3.439   5.266   3.316 -0.1908 -0.2193  0.0070
11623TIP3    H156284   3.492   5.202   3.364  0.6440  0.9218  0.6491
11623TIP3    H256285   3.481   5.350   3.334 -2.1172  0.7084  0.4023
11624TIP3   OH256286   0.174   4.735   3.661  0.5252  0.4727  0.0006
11624TIP3    H156287   0.122   4.814   3.672 -0.4643 -0.3895  2.3233
11624TIP3    H256288   0.265   4.765   3.668  0.2595  1.6103 -1.0923
11625TIP3   OH256289   4.069   1.947   0.486  0.2558  0.1586 -0.1069
11625TIP3    H156290   4.069   2.043   0.493  3.7098  0.2173  1.2379
11625TIP3    H256291   4.110   1.930   0.401  0.9704 -0.0682  0.2731
11626TIP3   OH256292   4.759   3.955   0.547  0.5751  0.1584 -0.1737
11626TIP3    H156293   4.844   3.912   0.562 -0.2128 -1.3744  0.0417
11626TIP3    H256294   4.757   3.971   0.453  0.4422 -1.3167 -0.4524
11627TIP3   OH256295   5.564   4.727  15.868  0.1571  0.5339 -0.6877
11627TIP3    H156296   5.643   4.747  15.919  0.2779  1.5452 -1.2559
11627TIP3    H256297   5.516   4.809  15.863 -0.1071  0.3310 -1.7721
11628TIP3   OH256298   3.344   1.559  15.967  0.0042 -0.5493 -0.5944
11628TIP3    H156299   3.410   1.502  15.927 -1.0992 -0.5739 -2.4758
11628TIP3    H256300   3.343   1.637  15.911 -0.5690  0.0658  0.2466
11629TIP3   OH256301   1.226   0.094   4.853  0.3882  0.3227  0.1252
11629TIP3    H156302   1.232   0.067   4.945 -0.3199 -0.0229  0.0787
11629TIP3    H256303   1.313   0.075   4.817 -0.3254 -3.0370 -0.1737
11630TIP3   OH256304   0.747   4.729  11.088  0.4290 -0.1382 -0.3764
11630TIP3    H156305   0.809   4.774  11.031  0.6710 -2.1803 -1.8350
11630TIP3    H256306   0.785   4.643  11.102 -1.0058 -0.6567  0.5665
11631TIP3   OH256307   5.128   1.986   5.936  0.4784 -0.3797 -0.7878
11631TIP3    H156308   5.118   2.056   5.873  0.4574 -1.0562 -1.5568
11631TIP3    H256309   5.059   2.001   6.001 -0.6676 -0.6853 -1.8972
11632TIP3   OH256310   3.432   3.726   4.022 -0.1358 -0.2315  0.2354
11632TIP3    H156311   3.469   3.721   4.110 -2.8430 -0.6745  1.4364
11632TIP3    H256312   3.405   3.817   4.013  0.7899 -0.0108 -0.4674
11633TIP3   OH256313   1.004   1.703  10.660  0.5085  0.2390 -0.5516
11633TIP3    H156314   0.918   1.710  10.702  0.7145  1.3433 -0.2950
11633TIP3    H256315   1.065   1.689  10.733  0.8395  1.9475 -0.4529
11634TIP3   OH256316   2.640   4.760  13.118  0.0277  0.5836 -0.1016
11634TIP3    H156317   2.594   4.841  13.098 -0.4107  0.2066 -0.6345
11634TIP3    H256318   2.595   4.693  13.067 -0.8072 -0.3184  1.7250
11635TIP3   OH256319   5.248   2.203   0.023  0.0955  0.0876 -0.2640
11635TIP3    H156320   5.320   2.203   0.087 -0.6015  0.9150  0.5471
11635TIP3    H256321   5.177   2.251   0.067 -0.3404  0.8370 -1.7314
11636TIP3   OH256322   0.747   6.018   4.736  0.2020  0.0137  0.2247
11636TIP3    H156323   0.689   5.964   4.790  0.8830  0.7434  1.7366
11636TIP3    H256324   0.707   6.105   4.739  0.5359  0.1750 -0.0223
11637TIP3   OH256325   5.012   2.853  10.933 -0.4466 -0.2489  0.2816
11637TIP3    H156326   4.916   2.852  10.935 -0.4781  0.9070 -0.1061
11637TIP3    H256327   5.037   2.849  11.026 -0.8386 -1.1497  0.3653
11638TIP3   OH256328   0.989   0.235  16.882 -0.2275  0.0790  0.1639
11638TIP3    H156329   0.901   0.234  16.845 -0.1808  1.0837  0.0090
11638TIP3    H256330   0.999   0.149  16.922  0.1513 -1.5711 -3.1235
11639TIP3   OH256331   4.977   2.438  15.156 -0.9519  0.2884  0.0060
11639TIP3    H156332   5.055   2.481  15.192 -0.2900  0.6400 -1.7385
11639TIP3    H256333   4.945   2.498  15.089 -1.3509 -0.8910 -0.9069
11640TIP3   OH256334   1.133   6.689   2.814 -0.7281  0.6577 -0.0554
11640TIP3    H156335   1.062   6.651   2.761 -0.9270  0.0758  0.6127
11640TIP3    H256336   1.212   6.674   2.762 -0.5474 -2.1607  0.8632
11641TIP3   OH256337   4.412   1.322   3.771  0.0110  0.5410  0.1684
11641TIP3    H156338   4.484   1.384   3.756 -1.5137  2.7454  1.3136
11641TIP3    H256339   4.431   1.284   3.857 -0.8933  2.3049  1.2098
11642TIP3   OH256340   6.408   1.127  15.132  0.9147 -0.0560  0.0764
11642TIP3    H156341   6.377   1.089  15.214  0.3496 -0.4752 -0.3215
11642TIP3    H256342   6.334   1.180  15.101  0.7618 -0.6576 -0.6257
11643TIP3   OH256343   1.112   4.819   4.709 -0.2385 -0.2160  0.5295
11643TIP3    H156344   1.160   4.816   4.792  1.9425 -2.1212 -0.6818
11643TIP3    H256345   1.052   4.744   4.714  0.0310 -0.4457  0.3057
11644TIP3   OH256346   1.881   5.842  13.043  0.1463  0.5847  0.1160
11644TIP3    H156347   1.908   5.752  13.021  0.6503  0.5023  1.0173
11644TIP3    H256348   1.815   5.864  12.978 -1.2494 -1.0753  0.9033
11645TIP3   OH256349   1.865   1.476   5.437  0.8286 -0.1081  0.1371
11645TIP3    H156350   1.959   1.476   5.420  1.0441 -1.1542  1.2019
11645TIP3    H256351   1.843   1.384   5.454 -0.4474  0.0752 -0.3709
11646TIP3   OH256352   0.126   4.941  17.233 -0.1898 -0.2714 -0.5193
11646TIP3    H156353   0.178   4.959  17.310  0.7555 -0.9633 -0.9769
11646TIP3    H256354   0.155   4.854  17.204 -0.4827  0.0030 -1.6882
11647TIP3   OH256355   2.658   2.670  12.887 -0.1204 -0.0445 -0.0093
11647TIP3    H156356   2.692   2.620  12.961 -0.0764 -0.8211 -0.5457
11647TIP3    H256357   2.574   2.628  12.867 -0.0189  0.0153 -0.5571
11648TIP3   OH256358   6.035   5.920   3.868 -0.9186 -0.2761 -0.2044
11648TIP3    H156359   6.076   5.850   3.918  0.3267  0.4769 -0.1239
11648TIP3    H256360   6.030   5.994   3.929 -2.5262 -0.3702 -0.1836
11649TIP3   OH256361   0.016   5.308  14.910 -0.1216 -0.1155 -0.1194
11649TIP3    H156362  -0.026   5.321  14.996  0.5311 -0.6120  0.2865
11649TIP3    H256363   0.084   5.242  14.927 -1.9816 -2.6006 -1.6122
11650TIP3   OH256364   1.239   0.553  12.182  0.2013  0.3127  0.1994
11650TIP3    H156365   1.290   0.540  12.102  2.1040 -0.4527  1.4710
11650TIP3    H256366   1.238   0.648  12.194 -0.1795  0.4472 -0.7406
11651TIP3   OH256367   5.849   4.356  15.135  0.2509  0.6314 -0.2963
11651TIP3    H156368   5.886   4.299  15.203  0.3290 -0.4323 -1.2131
11651TIP3    H256369   5.911   4.350  15.063  0.3113  1.9749 -0.3822
11652TIP3   OH256370   2.017   2.630  13.513 -0.4640  0.2020  0.2516
11652TIP3    H156371   1.932   2.642  13.470 -0.2509  0.8912  0.0119
11652TIP3    H256372   2.006   2.672  13.598 -0.4740 -0.0230  0.3618
11653TIP3   OH256373   3.598   1.930  14.571  0.2167  0.2218  0.0353
11653TIP3    H156374   3.671   1.872  14.595 -0.0657  0.0684  0.5250
11653TIP3    H256375   3.630   1.977  14.493 -0.4798 -2.3978 -1.9844
11654TIP3   OH256376   3.497   5.392   0.233 -0.6309 -0.3772 -0.4779
11654TIP3    H156377   3.503   5.389   0.328 -0.3643  0.5005 -0.4664
11654TIP3    H256378   3.534   5.476   0.208 -0.2855 -0.7837 -1.3941
11655TIP3   OH256379   0.340   0.352  15.359  0.2351  0.1688  0.0898
11655TIP3    H156380   0.305   0.319  15.442 -1.6473  0.5002 -0.5148
11655TIP3    H256381   0.419   0.301  15.344  0.1234 -0.5093  1.6498
11656TIP3   OH256382   6.670   6.155   0.172 -0.0112  0.0642 -0.4527
11656TIP3    H156383   6.599   6.107   0.129 -1.8562  0.8605  1.5489
11656TIP3    H256384   6.627   6.230   0.213  1.7585 -0.0610  1.8506
11657TIP3   OH256385   6.005   5.301  15.114  0.2082  0.1464  0.5008
11657TIP3    H156386   6.088   5.312  15.162  1.7037  0.7770 -2.0319
11657TIP3    H256387   6.008   5.212  15.081 -0.3052  0.0672  0.6606
11658TIP3   OH256388   6.148   5.487   0.889 -0.4944  0.0144 -0.0837
11658TIP3    H156389   6.084   5.557   0.877  0.3285  1.3630  2.6442
11658TIP3    H256390   6.153   5.474   0.984  2.8079 -0.4106 -0.1899
11659TIP3   OH256391   5.110   3.107  13.071  0.4156  0.2591  0.0004
11659TIP3    H156392   5.090   3.200  13.084 -0.6390  0.2476 -1.2968
11659TIP3    H256393   5.029   3.061  13.095  0.6578 -0.2536 -0.1528
11660TIP3   OH256394   1.564   4.869   4.436  0.6812  0.0132  0.0393
11660TIP3    H156395   1.594   4.866   4.527  1.8272 -0.7778 -0.3315
11660TIP3    H256396   1.477   4.909   4.440  0.4151 -0.6539  1.5549
11661TIP3   OH256397   1.218   3.259  13.085  0.2575 -0.3458 -0.3427
11661TIP3    H156398   1.234   3.324  13.153 -1.0913 -1.2100  0.8561
11661TIP3    H256399   1.130   3.278  13.054 -0.1392 -1.5449 -0.0055
11662TIP3   OH256400   5.132   0.139  13.536 -0.7745  0.0831  0.3106
11662TIP3    H156401   5.149   0.141  13.630 -1.6649 -0.6425  0.4899
11662TIP3    H256402   5.046   0.099  13.527 -1.5746  1.9107 -0.6953
11663TIP3   OH256403   6.470   4.055   5.291 -0.2760  0.1802 -0.2597
11663TIP3    H156404   6.440   4.083   5.378  0.6209 -1.0852  0.5022
11663TIP3    H256405   6.420   3.976   5.273 -1.8574  1.4684 -1.8071
11664TIP3   OH256406   2.102   3.291  11.809  0.2574  0.1006 -0.5775
11664TIP3    H156407   2.144   3.252  11.886  2.4148 -0.1329 -1.8111
11664TIP3    H256408   2.134   3.240  11.735 -1.2896  0.7188 -1.7332
11665TIP3   OH256409   5.525   0.038   5.609 -0.0597 -0.0175  0.4065
11665TIP3    H156410   5.555   0.022   5.520  0.7517 -0.2429  0.7118
11665TIP3    H256411   5.524   0.133   5.618  0.9469 -0.0033  0.5022
11666TIP3   OH256412   4.218   4.066   0.785 -0.5289 -0.0738  0.5334
11666TIP3    H156413   4.293   4.117   0.756 -1.1393  0.1882 -0.6538
11666TIP3    H256414   4.148   4.130   0.796 -0.4787 -0.2531  2.0711
11667TIP3   OH256415   4.071   1.332   2.413 -0.6289 -0.1547 -0.0495
11667TIP3    H156416   4.010   1.259   2.402 -0.8189  0.2149 -1.7354
11667TIP3    H256417   4.141   1.316   2.350  0.4183  0.0630  1.0156
11668TIP3   OH256418   6.022   3.049   3.311 -0.3150 -0.7350  0.4497
11668TIP3    H156419   6.025   3.103   3.390  1.8055 -0.1644  0.0467
11668TIP3    H256420   6.037   3.111   3.239 -0.1654 -1.5380 -0.2296
11669TIP3   OH256421   4.775   1.075   2.307 -0.1396 -0.3141  1.0443
11669TIP3    H156422   4.819   0.991   2.292  2.2028  0.7124  1.7728
11669TIP3    H256423   4.727   1.062   2.390 -0.2376 -1.0648  0.8852
11670TIP3   OH256424   1.465   0.993   6.354  0.1388  0.5257 -0.0275
11670TIP3    H156425   1.421   1.075   6.377 -0.4119  0.2037  0.0672
11670TIP3    H256426   1.493   0.956   6.437 -0.3272  0.2183 -0.0050
11671TIP3   OH256427   5.739   6.356  14.410 -0.1741 -0.6205  0.5050
11671TIP3    H156428   5.740   6.274  14.360 -1.4301 -0.8662  0.8445
11671TIP3    H256429   5.823   6.358  14.456 -0.2688 -1.8891  0.7582
11672TIP3   OH256430   4.830   6.146  14.939  0.1764  0.2016  0.3302
11672TIP3    H156431   4.878   6.071  14.905  0.3375  1.1158 -1.5707
11672TIP3    H256432   4.824   6.206  14.865 -2.4713  0.8283  0.9534
11673TIP3   OH256433   2.701   0.460  11.049 -0.3693  0.2082  0.0614
11673TIP3    H156434   2.748   0.539  11.075  0.3823 -0.2805  0.2422
11673TIP3    H256435   2.609   0.484  11.053 -0.1610  1.0057  0.3272
11674TIP3   OH256436   0.608   5.851   6.015  0.7638 -0.2384 -0.3324
11674TIP3    H156437   0.564   5.806   6.086  0.1361 -1.5807 -1.5150
11674TIP3    H256438   0.643   5.931   6.054  0.9625 -1.2150  1.5893
11675TIP3   OH256439   4.946   6.289  13.098  0.0903  0.3839  0.0449
11675TIP3    H156440   5.036   6.320  13.082 -0.1684  0.5905 -1.1300
11675TIP3    H256441   4.945   6.266  13.191  0.5323  3.1510  0.8190
11676TIP3   OH256442   6.339   6.291   2.943 -0.5784  0.0205 -0.3056
11676TIP3    H156443   6.272   6.272   2.877 -1.9529 -0.9485  1.2986
11676TIP3    H256444   6.360   6.384   2.930 -0.4605 -0.2301 -2.3592
11677TIP3   OH256445   5.566   6.119  15.475  0.0559  0.6653 -0.7483
11677TIP3    H156446   5.559   6.026  15.496  1.6624  0.6194 -0.2946
11677TIP3    H256447   5.498   6.134  15.409  0.5191 -1.1070 -1.6968
11678TIP3   OH256448   6.212   1.469  16.737  0.3170  0.3177  0.0228
11678TIP3    H156449   6.272   1.437  16.804  1.1991  1.1657 -0.3371
11678TIP3    H256450   6.219   1.407  16.666  0.7186  0.3735  0.0121
11679TIP3   OH256451   1.193   3.325   0.916 -0.3983  0.0675  0.3769
11679TIP3    H156452   1.272   3.289   0.956 -0.6476 -0.6626  0.2387
11679TIP3    H256453   1.134   3.340   0.990  0.6624  2.8471  0.7815
11680TIP3   OH256454   3.037   0.294  11.615  0.5969  0.2929 -0.3326
11680TIP3    H156455   3.073   0.341  11.540 -1.6341  2.5184 -0.1367
11680TIP3    H256456   2.953   0.260  11.585  0.6281 -0.6663  0.5740
11681TIP3   OH256457   4.663   1.320   6.184 -0.8157  0.7390  0.3658
11681TIP3    H156458   4.594   1.386   6.184 -2.0068 -0.4563 -0.1523
11681TIP3    H256459   4.646   1.268   6.263 -2.9308 -1.8893 -1.6258
11682TIP3   OH256460   5.797   0.562   1.077 -0.0155 -0.1226 -0.7739
11682TIP3    H156461   5.759   0.475   1.080 -0.8163  0.2136 -0.9359
11682TIP3    H256462   5.810   0.586   1.169 -1.3681  0.2505 -0.6627
11683TIP3   OH256463   2.537   2.975   0.411 -0.8246 -0.7853  0.2933
11683TIP3    H156464   2.579   2.905   0.461  0.7687 -0.3580 -0.3864
11683TIP3    H256465   2.482   2.928   0.348  2.4164 -1.6886 -2.1360
11684TIP3   OH256466   6.445   4.528  13.029  0.5297  0.1907 -0.2650
11684TIP3    H156467   6.498   4.500  12.955 -0.3345 -1.1929 -0.4094
11684TIP3    H256468   6.355   4.506  13.004  0.3157 -1.4548  1.6311
11685TIP3   OH256469   5.569   5.161   0.824  0.0228 -0.4457  0.4095
11685TIP3    H156470   5.647   5.213   0.842  0.2286 -0.4825 -0.3084
11685TIP3    H256471   5.603   5.073   0.806 -0.0628 -0.2016 -1.0546
11686TIP3   OH256472   2.431   3.752  11.865 -0.0140 -0.7701  0.7868
11686TIP3    H156473   2.388   3.669  11.844 -1.8590 -0.3510  2.6208
11686TIP3    H256474   2.494   3.730  11.933 -0.6767 -0.6381  1.4474
11687TIP3   OH256475   6.614   1.340   1.786  0.3927 -0.2020  0.5178
11687TIP3    H156476   6.574   1.292   1.714  0.4597 -0.4707  0.6613
11687TIP3    H256477   6.661   1.412   1.743 -1.1367  0.7877  0.3996
11688TIP3   OH256478   4.254   2.111   3.841 -0.2977  0.8631  0.1314
11688TIP3    H156479   4.327   2.080   3.789 -0.1465 -0.1526  0.9142
11688TIP3    H256480   4.215   2.032   3.878  1.4448  1.5372  3.9961
11689TIP3   OH256481   0.569   4.746  12.948 -0.0621  0.7703 -0.1411
11689TIP3    H156482   0.646   4.706  12.989 -1.9249 -1.0242  1.8978
11689TIP3    H256483   0.563   4.704  12.862  1.2580  0.9860 -0.3522
11690TIP3   OH256484   2.558   3.581   0.642 -0.5754  0.5123 -0.1970
11690TIP3    H156485   2.647   3.551   0.660 -0.4195 -0.5250 -2.4551
11690TIP3    H256486   2.532   3.625   0.723  0.9216 -1.6421  1.5943
11691TIP3   OH256487   6.127   6.123  15.440 -0.0553  0.1264  0.0971
11691TIP3    H156488   6.223   6.128  15.442  0.1301 -1.4208 -1.5400
11691TIP3    H256489   6.101   6.184  15.372 -0.2922  0.8902  0.8596
11692TIP3   OH256490   3.312   3.844  14.732 -0.1115  0.6661 -0.3084
11692TIP3    H156491   3.261   3.791  14.671 -0.9302 -0.9415  1.6754
11692TIP3    H256492   3.395   3.858  14.688 -0.3233 -1.2531 -1.4217
11693TIP3   OH256493   2.892   6.782   3.060 -0.1350 -0.0158  0.2396
11693TIP3    H156494   2.951   6.854   3.082  0.4776 -0.1932 -0.7569
11693TIP3    H256495   2.900   6.773   2.965  2.0001 -3.2141  0.5615
11694TIP3   OH256496   3.354   2.033  14.673  0.3487  0.0872  0.7800
11694TIP3    H156497   3.328   2.080  14.594  2.4156  1.7990  1.0420
11694TIP3    H256498   3.434   1.987  14.648 -0.1616 -1.1306  1.3107
11695TIP3   OH256499   4.315   4.562   4.404  0.5832 -0.2114  0.2417
11695TIP3    H156500   4.317   4.573   4.499  0.0716  0.4565  0.1831
11695TIP3    H256501   4.407   4.562   4.377  0.6948  0.8983  0.5965
11696TIP3   OH256502   0.257   4.678  13.749 -0.1593  0.3455 -0.9265
11696TIP3    H156503   0.177   4.651  13.794 -0.8156  0.7520 -1.8262
11696TIP3    H256504   0.327   4.655  13.810 -1.0565  1.4991  0.6423
11697TIP3   OH256505   5.372   2.921  12.701 -0.2965  0.4681 -0.0254
11697TIP3    H156506   5.323   2.980  12.758 -1.1425  0.3846 -0.6434
11697TIP3    H256507   5.386   2.972  12.621 -1.2511 -0.2315 -0.6592
11698TIP3   OH256508   4.346   1.219   5.325  0.2357 -0.0217  0.6834
11698TIP3    H156509   4.317   1.169   5.249 -0.5133  1.4044 -0.0034
11698TIP3    H256510   4.411   1.281   5.291  1.0813 -0.4276  1.4977
11699TIP3   OH256511   4.247   5.138  10.546  0.7223 -0.2711 -0.0475
11699TIP3    H156512   4.175   5.111  10.490  1.7740 -1.7698 -0.7573
11699TIP3    H256513   4.230   5.094  10.630 -1.3899  2.7667  1.2859
11700TIP3   OH256514   4.596   4.330   1.813  0.2269 -0.2323  0.5265
11700TIP3    H156515   4.669   4.275   1.783  0.4492 -0.9558  2.2643
11700TIP3    H256516   4.527   4.268   1.834 -0.1569  0.3017  0.8498
11701TIP3   OH256517   6.392   3.896   5.031  0.3533 -0.6028  0.0854
11701TIP3    H156518   6.438   3.823   5.073  1.0680  0.3613  1.0335
11701TIP3    H256519   6.460   3.942   4.981  0.1859  0.1272  0.5103
11702TIP3   OH256520   1.711   1.853  12.562 -0.3728 -0.0950  0.7674
11702TIP3    H156521   1.653   1.883  12.631  0.4687 -1.0339  1.9262
11702TIP3    H256522   1.727   1.930  12.508 -0.5030  0.8308  2.0249
11703TIP3   OH256523   0.575   1.899  12.446 -0.5747  0.0553  0.0375
11703TIP3    H156524   0.488   1.874  12.415  0.8667 -2.1680 -2.6724
11703TIP3    H256525   0.604   1.824  12.498 -0.7088  1.3928  2.2116
11704TIP3   OH256526   3.854   4.144  12.374  0.3884  0.9612 -0.5024
11704TIP3    H156527   3.903   4.062  12.365 -0.8075  0.3053 -1.4020
11704TIP3    H256528   3.845   4.176  12.285  0.3166  1.7711 -0.2137
11705TIP3   OH256529   2.288   1.738   0.818  0.0551  0.4664 -0.0647
11705TIP3    H156530   2.323   1.674   0.881  0.3506 -1.4372 -2.0246
11705TIP3    H256531   2.218   1.782   0.865  0.4083 -0.7181  1.6744
11706TIP3   OH256532   5.554   4.023  10.635  0.0406  0.2332  0.3619
11706TIP3    H156533   5.500   4.033  10.713  1.3470  0.7544  1.2364
11706TIP3    H256534   5.618   3.955  10.659  0.6983  0.6745 -0.0988
11707TIP3   OH256535   2.172   1.936   4.073 -0.3016  0.3897 -0.2129
11707TIP3    H156536   2.136   1.847   4.079  0.6746 -0.2850 -2.9929
11707TIP3    H256537   2.254   1.932   4.122 -0.7890  0.1195  0.6193
11708TIP3   OH256538   6.208   4.256   4.660  0.6127  0.0771  0.0804
11708TIP3    H156539   6.222   4.240   4.753  1.1976 -0.0867 -0.0328
11708TIP3    H256540   6.197   4.351   4.654 -2.4831 -0.1399  0.6974
11709TIP3   OH256541   5.940   2.379  17.153 -0.3987  0.2923  0.1067
11709TIP3    H156542   6.015   2.436  17.144 -0.5789  0.3986 -0.8358
11709TIP3    H256543   5.964   2.317  17.223  1.4537 -1.0423 -1.6112
11710TIP3   OH256544   6.615   5.767   3.309  0.1995  0.2017  0.0953
11710TIP3    H156545   6.653   5.828   3.246  0.4667 -0.8345 -0.7865
11710TIP3    H256546   6.520   5.781   3.303  0.2272  0.1527 -0.4995
11711TIP3   OH256547   4.868   0.843   4.283  0.8752 -0.6670  0.1444
11711TIP3    H156548   4.944   0.785   4.271  2.1619  0.8136  0.7451
11711TIP3    H256549   4.906   0.931   4.292 -1.0499  0.4930 -1.9266
11712TIP3   OH256550   6.235   1.010   4.190 -0.0010 -0.0726 -0.3377
11712TIP3    H156551   6.174   1.022   4.262  1.8238  0.1127  1.2719
11712TIP3    H256552   6.185   1.031   4.111 -1.9926 -0.0385  0.8765
11713TIP3   OH256553   5.507   5.033  15.113 -1.0105 -0.0813  0.3592
11713TIP3    H156554   5.490   5.066  15.201 -2.5988  0.9411 -0.3012
11713TIP3    H256555   5.512   5.111  15.058  0.8397 -0.6458 -0.3594
11714TIP3   OH256556   4.080   5.671  10.717  0.3147  0.3427 -0.4864
11714TIP3    H156557   4.065   5.577  10.728 -1.0289  0.3702 -1.7251
11714TIP3    H256558   4.171   5.684  10.740  0.4040 -1.1929  0.1563
11715TIP3   OH256559   6.370   3.726  12.426  0.2426  0.2656 -0.4033
11715TIP3    H156560   6.315   3.770  12.361 -0.7269  0.5054  0.5367
11715TIP3    H256561   6.378   3.790  12.497  0.5487 -0.3020  0.0829
11716TIP3   OH256562   5.838   6.209   5.992 -0.8030  0.2297  0.8265
11716TIP3    H156563   5.776   6.206   6.065  0.7804 -2.0839  2.2131
11716TIP3    H256564   5.858   6.117   5.975  1.2341  0.8629 -0.4440
11717TIP3   OH256565   4.158   1.809   1.387  0.1280  0.3797  0.3236
11717TIP3    H156566   4.082   1.752   1.401 -0.2032  0.2942 -1.5413
11717TIP3    H256567   4.231   1.748   1.371 -0.1912  0.4236 -1.5005
11718TIP3   OH256568   1.278   5.762  16.361 -0.0002  0.0491  0.0416
11718TIP3    H156569   1.260   5.704  16.287  1.6034 -0.7320  0.2287
11718TIP3    H256570   1.225   5.727  16.433  0.2747 -0.6553 -0.0950
11719TIP3   OH256571   5.323   0.577  16.964 -0.7913 -0.3064 -0.0523
11719TIP3    H156572   5.370   0.660  16.960 -1.1260 -0.1146 -0.0681
11719TIP3    H256573   5.243   0.592  16.913 -0.1218 -1.1300 -1.4119
11720TIP3   OH256574   2.903   5.251   3.169  0.8542 -0.8892  0.0211
11720TIP3    H156575   2.839   5.192   3.128  0.9823 -0.8474 -0.2354
11720TIP3    H256576   2.892   5.334   3.124  0.3952 -0.5996  0.6582
11721TIP3   OH256577   5.201   3.561  13.617  0.1458 -0.4192  0.1963
11721TIP3    H156578   5.226   3.552  13.709 -1.6783 -3.7522  0.5146
11721TIP3    H256579   5.268   3.511  13.570 -0.7472 -1.5908  0.1250
11722TIP3   OH256580   5.111   2.475  16.314  0.8676  0.5969  0.1052
11722TIP3    H156581   5.021   2.444  16.319  0.8556  0.6666  0.3475
11722TIP3    H256582   5.131   2.477  16.220  1.0509 -0.6613  0.1044
11723TIP3   OH256583   1.190   1.616  12.288  0.0689  0.7424  0.2730
11723TIP3    H156584   1.212   1.628  12.380  1.0162 -0.4847  0.2279
11723TIP3    H256585   1.241   1.540  12.260 -2.8209 -1.1297 -0.3664
11724TIP3   OH256586   3.877   0.272   5.603 -0.3341 -0.3025  0.2253
11724TIP3    H156587   3.956   0.243   5.557  0.5636  2.2965 -0.0342
11724TIP3    H256588   3.904   0.279   5.695 -1.1488 -2.2117  0.6442
11725TIP3   OH256589   1.997   1.584  16.649 -0.3599  0.7068 -0.0565
11725TIP3    H156590   1.917   1.532  16.659  0.4388 -0.8603 -1.3303
11725TIP3    H256591   1.978   1.643  16.576 -0.7129  1.1129  0.3541
11726TIP3   OH256592   4.770   1.585   3.580 -0.0143 -0.1260  0.3793
11726TIP3    H156593   4.756   1.662   3.523 -0.2777  0.4272  1.1762
11726TIP3    H256594   4.835   1.533   3.533 -0.3309  0.2503 -0.5010
11727TIP3   OH256595   0.347   5.011  10.759 -0.6292  0.0009  0.2069
11727TIP3    H156596   0.431   5.035  10.719  0.1484  2.8345  3.1521
11727TIP3    H256597   0.282   5.064  10.713 -0.7625 -1.4241 -1.3649
11728TIP3   OH256598   4.646   5.072  13.382  0.5962 -0.1751  0.5283
11728TIP3    H156599   4.667   5.152  13.334  1.4989 -2.0127 -2.3861
11728TIP3    H256600   4.562   5.091  13.424 -0.3465  1.5983 -1.9080
11729TIP3   OH256601   0.467   4.380   3.315 -0.4534  0.2030  0.4571
11729TIP3    H156602   0.462   4.422   3.229 -2.0531  0.0633  0.4390
11729TIP3    H256603   0.498   4.449   3.373  3.5494 -0.4387 -0.6119
11730TIP3   OH256604   6.456   1.033   3.357  0.6715  0.4172  0.1696
11730TIP3    H156605   6.532   1.088   3.338  1.3808 -0.3300  0.7811
11730TIP3    H256606   6.385   1.073   3.306  1.1229  1.9701  0.6880
11731TIP3   OH256607   4.762   2.780  14.297 -0.0981 -0.4031 -0.3031
11731TIP3    H156608   4.778   2.708  14.358  0.1013 -1.2764 -1.3546
11731TIP3    H256609   4.763   2.859  14.352 -1.1059 -1.2556  0.9906
11732TIP3   OH256610   2.861   0.124   1.447 -0.0874  0.2436 -0.1318
11732TIP3    H156611   2.940   0.107   1.396 -0.8085 -0.4201 -1.0710
11732TIP3    H256612   2.869   0.215   1.476  1.2182  0.0423  0.1756
11733TIP3   OH256613   1.107   3.498  14.240 -0.0712  0.0873  0.0672
11733TIP3    H156614   1.143   3.445  14.169  0.4180  1.2363 -0.5835
11733TIP3    H256615   1.099   3.438  14.314  0.5833 -0.8480 -0.5980
11734TIP3   OH256616   3.264   3.872   5.900 -0.3932 -0.3940 -0.3391
11734TIP3    H156617   3.311   3.954   5.917 -1.1003 -0.0590  0.0019
11734TIP3    H256618   3.316   3.805   5.946 -0.2128 -0.0368 -0.0158
11735TIP3   OH256619   3.691   0.851   4.957  0.1234 -0.4350 -0.1087
11735TIP3    H156620   3.629   0.831   5.028 -2.1534  0.1814 -1.7847
11735TIP3    H256621   3.776   0.859   5.001 -0.9486 -1.3378  2.3427
11736TIP3   OH256622   5.639   1.091  13.918  0.0058 -0.0576 -0.2068
11736TIP3    H156623   5.584   1.122  13.846  1.4569  0.9362 -0.9412
11736TIP3    H256624   5.681   1.169  13.952  1.2628 -0.8134  0.0552
11737TIP3   OH256625   4.055   5.923  16.579  0.4152 -0.1621 -0.0179
11737TIP3    H156626   4.020   5.884  16.499  0.9267 -0.0717 -0.2910
11737TIP3    H256627   4.136   5.873  16.596 -0.8623 -1.8094  1.7637
11738TIP3   OH256628   2.489   2.878  13.199  0.2025 -0.0352 -0.1743
11738TIP3    H156629   2.491   2.966  13.236  0.3855 -0.1932  0.2028
11738TIP3    H256630   2.493   2.891  13.104  0.0751  0.3642 -0.1272
11739TIP3   OH256631   2.555   2.050   1.008  0.5000  0.7437  0.1961
11739TIP3    H156632   2.584   2.037   0.917  0.1923 -1.1802  0.3308
11739TIP3    H256633   2.543   2.145   1.016  4.4051  1.4806 -0.5576
11740TIP3   OH256634   4.987   1.999  15.295  0.1942 -0.1816 -0.3719
11740TIP3    H156635   4.939   1.928  15.337  1.0371 -0.8176 -0.4499
11740TIP3    H256636   5.047   2.030  15.363 -1.6173  1.9238  0.3741
11741TIP3   OH256637   2.780   6.391   3.518  0.3242 -0.1840  0.0716
11741TIP3    H156638   2.693   6.426   3.499  0.5901  0.1756 -0.5349
11741TIP3    H256639   2.779   6.372   3.612 -0.6575 -0.9004 -0.0636
11742TIP3   OH256640   2.341   1.553   1.370  0.1794 -0.2344  0.6728
11742TIP3    H156641   2.307   1.478   1.321 -0.1473  0.2828  0.1017
11742TIP3    H256642   2.263   1.601   1.397  0.4191  0.4535  0.1561
11743TIP3   OH256643   4.163   3.561   3.424 -0.5093  0.0269  0.5475
11743TIP3    H156644   4.127   3.646   3.448 -0.2183  0.1184  0.6541
11743TIP3    H256645   4.252   3.579   3.394  0.0098 -0.3901  1.7894
11744TIP3   OH256646   6.218   0.377  14.747 -0.1797  0.4470  0.5095
11744TIP3    H156647   6.208   0.325  14.667  0.8840  0.2162  0.5155
11744TIP3    H256648   6.141   0.355  14.799  0.4278 -1.4307  0.6819
11745TIP3   OH256649   3.673   6.601  13.375  0.0737  0.6233  0.7712
11745TIP3    H156650   3.740   6.542  13.342  1.0594  0.8947  2.1738
11745TIP3    H256651   3.654   6.659  13.302  0.8741  0.1084  0.1334
11746TIP3   OH256652   3.131   1.855  12.656  0.0111  0.1282 -0.3377
11746TIP3    H156653   3.189   1.779  12.659 -0.2487 -0.0687 -0.1924
11746TIP3    H256654   3.100   1.857  12.565 -1.2212 -0.9028  0.0193
11747TIP3   OH256655   1.750   2.330  12.461 -0.1467  0.1487 -0.3894
11747TIP3    H156656   1.663   2.309  12.494 -0.5247  0.0110 -1.4594
11747TIP3    H256657   1.734   2.379  12.380  0.7345  1.9632  0.4702
11748TIP3   OH256658   0.976   4.017  16.585  0.6730  0.3712 -0.1035
11748TIP3    H156659   0.966   3.929  16.620  0.4882  0.2459 -0.4601
11748TIP3    H256660   0.982   4.004  16.490 -1.4356  0.8905 -0.3544
11749TIP3   OH256661   0.942   2.633   4.171 -0.1784 -0.0673  0.7940
11749TIP3    H156662   1.008   2.601   4.232  0.0127  2.3897  2.0037
11749TIP3    H256663   0.859   2.619   4.216 -0.0230  1.9630  1.8537
11750TIP3   OH256664   4.461   2.876   2.321  0.3041 -0.7224  0.1808
11750TIP3    H156665   4.383   2.856   2.373  1.2202 -2.6608  0.9367
11750TIP3    H256666   4.474   2.970   2.331 -1.7916 -0.3923  0.2058
11751TIP3   OH256667   1.514   0.901   5.049 -0.0985 -0.3847 -0.4763
11751TIP3    H156668   1.579   0.842   5.011 -0.5013  0.4297 -2.5612
11751TIP3    H256669   1.565   0.972   5.088  0.3496 -1.6012  1.2942
11752TIP3   OH256670   3.910   6.657  13.967  0.2278 -0.5370 -0.7017
11752TIP3    H156671   3.992   6.643  13.920  0.8697 -1.5641  0.6781
11752TIP3    H256672   3.933   6.717  14.038 -0.7943  1.2145 -1.7696
11753TIP3   OH256673   2.271   3.872  14.316 -0.3541  0.4505  0.7830
11753TIP3    H156674   2.232   3.941  14.262  2.9908  1.5575 -0.4622
11753TIP3    H256675   2.338   3.917  14.368 -0.9326 -1.2367  3.1760
11754TIP3   OH256676   1.565   4.027   0.822  0.1704 -0.3771  0.1604
11754TIP3    H156677   1.540   3.987   0.905  0.7519 -1.8080 -0.3194
11754TIP3    H256678   1.502   3.993   0.759 -0.0189  0.3755 -0.0665
11755TIP3   OH256679   1.173   6.101  12.453 -0.3296 -0.3386 -0.6481
11755TIP3    H156680   1.089   6.130  12.489 -0.8496 -1.7632 -0.6283
11755TIP3    H256681   1.167   6.005  12.454  1.4423 -0.4730 -0.3386
11756TIP3   OH256682   0.810   0.299   4.851 -0.1312  0.7641 -0.4449
11756TIP3    H156683   0.866   0.249   4.792  0.1670  0.4788  0.0707
11756TIP3    H256684   0.799   0.384   4.808 -0.8866  0.1642 -1.4702
11757TIP3   OH256685   6.030   3.458  13.141  0.5754 -0.4335  0.2035
11757TIP3    H156686   6.083   3.464  13.062 -0.7121  1.5547 -0.5861
11757TIP3    H256687   6.017   3.364  13.154 -1.2077 -0.8704 -3.4181
11758TIP3   OH256688   1.692   5.834   3.000  0.1754  0.1587 -0.3115
11758TIP3    H156689   1.704   5.744   3.032  0.9129  0.2385 -0.3466
11758TIP3    H256690   1.668   5.824   2.908 -0.6057 -0.0267 -0.0946
11759TIP3   OH256691   6.202   4.709  10.683 -0.0043 -0.4979  0.3144
11759TIP3    H156692   6.150   4.713  10.763  0.0728  0.2580  0.3311
11759TIP3    H256693   6.289   4.680  10.712 -0.1039 -0.6798  0.4353
11760TIP3   OH256694   3.936   0.064   3.515  0.1565  0.5861  0.7059
11760TIP3    H156695   3.870   0.067   3.446  0.5818  0.6938  0.2993
11760TIP3    H256696   3.980   0.149   3.509  2.8719 -0.8132 -1.5556
11761TIP3   OH256697   3.678   6.386   3.702 -0.3979  0.2951 -0.7736
11761TIP3    H156698   3.629   6.305   3.709 -1.3426  0.9594  0.8050
11761TIP3    H256699   3.624   6.451   3.747 -0.2317  2.0913 -2.9547
11762TIP3   OH256700   1.805   1.854   4.436 -0.0809  0.0236  0.1096
11762TIP3    H156701   1.801   1.760   4.417  3.9592 -0.5471  1.0763
11762TIP3    H256702   1.845   1.859   4.523 -1.2887  2.6836  0.6053
11763TIP3   OH256703   5.237   0.292  14.216  0.2470 -0.3554 -0.5987
11763TIP3    H156704   5.229   0.207  14.174  1.7259 -0.8383  0.0253
11763TIP3    H256705   5.235   0.355  14.144 -1.9994 -0.7818 -0.9884
11764TIP3   OH256706   4.769   4.830  15.130 -0.2298  0.1549  0.1029
11764TIP3    H156707   4.809   4.878  15.202  2.0334 -2.1531  0.5311
11764TIP3    H256708   4.721   4.759  15.172  0.4563 -0.7520 -0.6103
11765TIP3   OH256709   0.374   4.802   4.058  0.4163  0.0357  0.1806
11765TIP3    H156710   0.301   4.864   4.062  0.3351 -0.1130  1.5379
11765TIP3    H256711   0.366   4.751   4.139 -0.5354 -2.9049 -1.6097
11766TIP3   OH256712   5.114   0.718   1.072  0.0843 -0.0353 -0.3156
11766TIP3    H156713   5.193   0.770   1.054  1.6862 -1.5794  1.7673
11766TIP3    H256714   5.049   0.783   1.100  0.6508  1.2439 -1.7974
11767TIP3   OH256715   4.705   3.636  16.502 -0.5030  0.0245 -0.1925
11767TIP3    H156716   4.689   3.645  16.408  0.9273 -0.7837 -0.5416
11767TIP3    H256717   4.686   3.544  16.521  2.5383 -0.7535 -0.4549
11768TIP3   OH256718   4.990   3.568  13.310 -0.7138 -0.4977  0.3575
11768TIP3    H156719   4.916   3.592  13.366 -0.4502 -0.7672  0.8280
11768TIP3    H256720   4.969   3.607  13.225 -0.6717  0.6998  0.8805
11769TIP3   OH256721   3.061   1.244  14.051 -0.4590 -0.2063  0.3700
11769TIP3    H156722   3.150   1.278  14.063 -0.4411  0.3561 -1.1525
11769TIP3    H256723   3.071   1.149  14.058 -0.0309 -0.0884  1.8018
11770TIP3   OH256724   3.050   1.504  16.397 -0.1637  0.5961 -0.4814
11770TIP3    H156725   3.012   1.592  16.395 -1.5939  0.0557  1.0271
11770TIP3    H256726   2.983   1.448  16.358  0.8538  0.1699 -1.7117
11771TIP3   OH256727   3.540   1.685  15.205  0.1226  0.3154 -0.0335
11771TIP3    H156728   3.555   1.610  15.262 -0.0056  0.2855 -0.0399
11771TIP3    H256729   3.511   1.647  15.122 -0.1021  0.3795  0.0152
11772TIP3   OH256730   2.488   1.301   1.585  0.0415  0.2085 -0.5175
11772TIP3    H156731   2.483   1.361   1.659  1.4624  1.2674 -1.2191
11772TIP3    H256732   2.397   1.292   1.555 -0.5297 -0.0793  1.1852
11773TIP3   OH256733   5.868   2.826   3.651 -0.5711 -0.0627 -0.3991
11773TIP3    H156734   5.781   2.868   3.649  0.0997  1.4312  0.3129
11773TIP3    H256735   5.850   2.737   3.682 -2.2141 -0.8415 -3.2687
11774TIP3   OH256736   2.461   0.889  15.541  0.6369 -0.2050  0.5564
11774TIP3    H156737   2.491   0.802  15.568  1.2838  0.0953  0.8300
11774TIP3    H256738   2.478   0.891  15.447  1.1225 -0.1773  0.6436
11775TIP3   OH256739   4.270   4.447  16.170 -0.2815  0.2240 -0.3169
11775TIP3    H156740   4.315   4.524  16.205  1.2165  0.0783 -1.8197
11775TIP3    H256741   4.193   4.482  16.126 -0.3083  0.7255  0.1194
11776TIP3   OH256742   2.208   0.699   2.329 -0.3166  0.2833 -0.1702
11776TIP3    H156743   2.230   0.735   2.415  0.6298  1.4855 -0.8855
11776TIP3    H256744   2.224   0.605   2.338 -0.4451  0.3643  1.0341
11777TIP3   OH256745   5.434   3.808   0.970  0.1907 -0.3207  0.5686
11777TIP3    H156746   5.487   3.730   0.987 -0.1931 -1.3906 -2.4728
11777TIP3    H256747   5.399   3.794   0.882 -0.5360  2.9708  0.2139
11778TIP3   OH256748   2.017   3.675  14.171 -0.2270 -0.6705  0.1563
11778TIP3    H156749   2.008   3.712  14.259  0.2628  0.2243 -0.1638
11778TIP3    H256750   2.103   3.703  14.141 -1.7642  2.2756 -2.0644
11779TIP3   OH256751   0.843   1.517   5.501 -0.3569 -0.3471  0.2319
11779TIP3    H156752   0.875   1.438   5.457 -1.3115 -0.4073 -0.3799
11779TIP3    H256753   0.749   1.504   5.510 -0.3844  0.2910  1.0411
11780TIP3   OH256754   2.777   0.861   0.428  0.0730 -0.1467  0.0298
11780TIP3    H156755   2.744   0.949   0.408 -0.3082 -0.0969  0.8225
11780TIP3    H256756   2.869   0.864   0.403  0.0451  0.4552 -0.0284
11781TIP3   OH256757   6.310   4.176   2.117  0.3269 -0.6556 -0.2563
11781TIP3    H156758   6.330   4.164   2.210  0.7572  1.4707  0.0006
11781TIP3    H256759   6.307   4.272   2.106 -1.1938 -0.8561 -2.1335
11782TIP3   OH256760   3.688   2.531  16.744 -0.1376  0.4430 -0.2531
11782TIP3    H156761   3.739   2.458  16.709  0.3588  0.1814  0.9671
11782TIP3    H256762   3.729   2.609  16.708  0.6625  0.1969  0.0949
11783TIP3   OH256763   4.245   5.400  15.219 -0.0203  0.7623 -0.1123
11783TIP3    H156764   4.317   5.366  15.272 -1.7467  0.9599  2.5807
11783TIP3    H256765   4.196   5.322  15.193 -0.7679  0.7711  1.1506
11784TIP3   OH256766   2.716   1.381   0.515  0.3353  0.3198  0.0250
11784TIP3    H156767   2.779   1.422   0.456 -1.6985  1.0266 -1.8260
11784TIP3    H256768   2.741   1.289   0.516  1.8682  0.7097  0.0287
11785TIP3   OH256769   2.211   6.056  16.321 -0.2505  0.9180  0.1958
11785TIP3    H156770   2.244   6.129  16.374  1.1473  1.1335 -0.9073
11785TIP3    H256771   2.229   6.082  16.231 -1.2437 -0.0879 -0.3241
11786TIP3   OH256772   2.080   0.054  14.520  0.1702 -0.0544 -0.1500
11786TIP3    H156773   2.019  -0.008  14.479  2.0968 -2.7516  0.7755
11786TIP3    H256774   2.163   0.038  14.476  0.9325  1.3549  0.7149
11787TIP3   OH256775   2.104   5.051   2.523 -0.1045  0.0209  0.0473
11787TIP3    H156776   2.014   5.080   2.535  0.4345  3.3393 -2.4962
11787TIP3    H256777   2.152   5.090   2.596 -0.2482  1.0499 -0.3983
11788TIP3   OH256778   0.678   4.523  15.432  0.5679  0.4871 -0.4286
11788TIP3    H156779   0.707   4.572  15.509  0.1650  0.1370 -0.0510
11788TIP3    H256780   0.756   4.518  15.376  2.0018 -2.4008  1.5430
11789TIP3   OH256781   1.885   3.138  15.972 -0.2288 -0.0340 -0.1891
11789TIP3    H156782   1.929   3.133  16.057  0.0111 -1.3124 -0.3794
11789TIP3    H256783   1.824   3.212  15.982  0.7230  0.6725  0.6418
11790TIP3   OH256784   3.824   2.290   4.841 -0.2135  0.5942 -0.1533
11790TIP3    H156785   3.803   2.378   4.810 -2.4282  0.0589 -0.3984
11790TIP3    H256786   3.888   2.303   4.911  0.4236  2.2778 -0.9964
11791TIP3   OH256787   4.664   0.287   1.313  0.1116  0.7857 -0.4858
11791TIP3    H156788   4.721   0.210   1.312  1.4446  1.7284 -0.0491
11791TIP3    H256789   4.691   0.336   1.391 -4.7606 -1.1656  2.8825
11792TIP3   OH256790   2.571   1.468   0.746 -0.5233 -0.1783  0.2283
11792TIP3    H156791   2.627   1.434   0.677 -0.4884 -1.2393  0.7616
11792TIP3    H256792   2.632   1.502   0.812 -0.4214 -2.2687  1.2871
11793TIP3   OH256793   0.381   6.625   0.658 -0.5964 -0.0897  0.4838
11793TIP3    H156794   0.299   6.668   0.684 -0.5131  0.5703 -0.3172
11793TIP3    H256795   0.400   6.565   0.730  0.1797  2.3902  2.4713
11794TIP3   OH256796   5.500   1.218   3.066  0.2015  0.3180 -0.1448
11794TIP3    H156797   5.446   1.203   2.988  0.9159 -0.8477 -0.4392
11794TIP3    H256798   5.559   1.290   3.041 -0.6718  1.0699 -0.0866
11795TIP3   OH256799   5.884   3.124  11.872 -0.4744 -0.3771  0.1381
11795TIP3    H156800   5.827   3.173  11.932  0.5140  0.5631  0.3491
11795TIP3    H256801   5.877   3.170  11.789  0.2187 -0.0604  0.2515
11796TIP3   OH256802   3.830   2.335  16.636  0.1780 -0.0677  0.0827
11796TIP3    H156803   3.896   2.381  16.687  1.2023 -0.1273 -1.1367
11796TIP3    H256804   3.853   2.243  16.643 -0.4147 -0.1941  0.5030
11797TIP3   OH256805   3.849   3.974  15.807  0.0877 -0.1913  0.4688
11797TIP3    H156806   3.796   4.054  15.810  0.0469 -0.1624 -0.5936
11797TIP3    H256807   3.787   3.903  15.827 -0.2830 -0.1226 -0.3934
11798TIP3   OH256808   6.455   0.406   1.937 -0.4745 -0.5480 -0.5018
11798TIP3    H156809   6.531   0.367   1.894  0.4991  1.8351 -1.1346
11798TIP3    H256810   6.423   0.471   1.874 -1.3252  0.4384  0.8908
11799TIP3   OH256811   0.217   3.780   4.679  0.0308  0.3677 -0.0060
11799TIP3    H156812   0.157   3.761   4.751  0.4592 -3.2255 -0.4063
11799TIP3    H256813   0.165   3.763   4.600 -0.0167  2.8792 -0.5951
11800TIP3   OH256814   5.320   4.221   3.421  0.0533 -0.1049 -0.4276
11800TIP3    H156815   5.237   4.183   3.391 -0.1027 -0.9848  1.0518
11800TIP3    H256816   5.301   4.315   3.430 -1.1372 -0.4554  0.9810
11801TIP3   OH256817   0.112   4.870   2.647 -0.6558  0.4463  0.0922
11801TIP3    H156818   0.196   4.916   2.660 -2.2700  2.9037  3.1074
11801TIP3    H256819   0.129   4.780   2.675  1.1333  0.7128 -0.0112
11802TIP3   OH256820   1.087   1.486   3.349 -0.1155 -0.0161 -0.3163
11802TIP3    H156821   1.053   1.400   3.325 -1.3150  0.4023 -0.2092
11802TIP3    H256822   1.178   1.485   3.319  0.1913 -1.6566  0.5266
11803TIP3   OH256823   1.935   5.234   2.172 -0.4428  0.3354 -0.0075
11803TIP3    H156824   1.860   5.231   2.232  2.3417 -0.3313  3.8761
11803TIP3    H256825   1.958   5.327   2.166 -0.6071  0.3873  0.1609
11804TIP3   OH256826   5.849   5.034  11.366 -0.0195  0.0517  0.0259
11804TIP3    H156827   5.829   4.961  11.425  0.8272 -0.2132 -0.0096
11804TIP3    H256828   5.798   5.015  11.287 -1.5585  0.6620  0.8190
11805TIP3   OH256829   5.667   6.551  13.520  0.3540  0.2324 -0.1098
11805TIP3    H156830   5.588   6.503  13.545  0.2377  1.3645  1.9740
11805TIP3    H256831   5.713   6.564  13.603  2.1294  0.6431 -1.1220
11806TIP3   OH256832   1.210   3.551  15.511 -0.3523  0.7537  1.3221
11806TIP3    H156833   1.184   3.638  15.480  2.9643  1.3736 -0.1182
11806TIP3    H256834   1.177   3.491  15.444  3.6258  1.7584 -1.9107
11807TIP3   OH256835   6.709   1.793  11.780  0.1827  0.6236 -0.3793
11807TIP3    H156836   6.707   1.801  11.875 -0.5923  1.7320 -0.4752
11807TIP3    H256837   6.729   1.881  11.748  3.0331 -0.2078 -1.2034
11808TIP3   OH256838   3.044   4.606  16.637 -0.3926  0.0076 -0.1527
11808TIP3    H156839   3.027   4.519  16.601 -1.1690  0.0082  0.2137
11808TIP3    H256840   2.978   4.618  16.705  1.9845 -0.6711  2.4986
11809TIP3   OH256841   0.754   2.342  12.565 -0.1595 -0.6098  0.1000
11809TIP3    H156842   0.813   2.414  12.544 -1.5314  0.7578  0.7089
11809TIP3    H256843   0.803   2.289  12.629 -0.0596  1.2895  1.7137
11810TIP3   OH256844   4.701   3.847  14.907 -0.0443 -0.4354  0.1963
11810TIP3    H156845   4.744   3.788  14.968 -2.1454 -1.9576  0.3109
11810TIP3    H256846   4.683   3.926  14.958 -0.3670 -1.0858  1.1104
11811TIP3   OH256847   1.117   3.434   4.721  0.0666 -0.1248 -0.7522
11811TIP3    H156848   1.029   3.399   4.704 -0.4375  1.0799 -0.7375
11811TIP3    H256849   1.107   3.528   4.711  1.1983  0.0880  0.0161
11812TIP3   OH256850   3.402   4.839   3.421 -0.1851 -0.5878 -0.0290
11812TIP3    H156851   3.478   4.794   3.458 -0.0818 -0.0152  0.4672
11812TIP3    H256852   3.349   4.768   3.384  0.7082 -0.9716 -0.6294
11813TIP3   OH256853   3.168   2.480   4.393  0.2710 -0.5572  0.9136
11813TIP3    H156854   3.156   2.559   4.446  1.2468 -0.2428  0.6717
11813TIP3    H256855   3.084   2.469   4.349  0.9011  1.8726 -1.1120
11814TIP3   OH256856   5.211   5.816   2.194  0.1830 -0.7898 -0.7519
11814TIP3    H156857   5.239   5.902   2.163 -0.1912 -0.5587 -0.4675
11814TIP3    H256858   5.288   5.760   2.184  1.1832  0.1232  1.1925
11815TIP3   OH256859   2.509   4.555  14.606  0.6648  0.0430 -0.5797
11815TIP3    H156860   2.448   4.622  14.635  1.0217 -0.7432  2.3549
11815TIP3    H256861   2.574   4.602  14.553  0.9294  2.0621  1.3842
11816TIP3   OH256862   1.127   6.198   5.130  0.1658  0.1582  0.2718
11816TIP3    H156863   1.163   6.198   5.219  1.9257 -1.6192 -0.3727
11816TIP3    H256864   1.040   6.160   5.140  0.0811  0.5975  1.3221
11817TIP3   OH256865   5.175   6.715   4.523  0.5125  0.1247 -0.2059
11817TIP3    H156866   5.128   6.683   4.600  1.3534 -0.4881  0.0753
11817TIP3    H256867   5.213   6.798   4.551 -0.4738  0.6770 -0.4709
11818TIP3   OH256868   2.765   5.301  11.842  0.5689  0.4314  0.5142
11818TIP3    H156869   2.841   5.247  11.822 -0.9418 -1.5071 -0.3603
11818TIP3    H256870   2.696   5.238  11.865 -0.9172  2.0715  0.7930
11819TIP3   OH256871   0.281   6.069  10.937 -0.4258  0.0361  0.0983
11819TIP3    H156872   0.358   6.026  10.899 -0.2568 -0.0654  0.5574
11819TIP3    H256873   0.294   6.162  10.919 -0.1207  0.0347  0.3098
11820TIP3   OH256874   2.677   4.769   0.675  0.7779  0.9974 -0.3591
11820TIP3    H156875   2.670   4.788   0.582  0.6865 -1.1195 -0.8340
11820TIP3    H256876   2.767   4.790   0.698  0.4556  2.7775 -0.5781
11821TIP3   OH256877   0.998   2.963   0.891  0.2125 -0.1393 -0.5064
11821TIP3    H156878   1.087   2.996   0.886  0.8357 -1.5834  0.4210
11821TIP3    H256879   0.978   2.934   0.802  1.1674 -1.0319 -0.4444
11822TIP3   OH256880   3.151   4.612   3.964  0.0850 -0.2839 -0.6713
11822TIP3    H156881   3.142   4.550   3.891  1.4810  2.0923 -3.0674
11822TIP3    H256882   3.124   4.696   3.926 -0.2027  0.8745  1.9433
11823TIP3   OH256883   6.143   3.064  17.149  0.0569  0.4886  0.2539
11823TIP3    H156884   6.237   3.073  17.167  0.6260 -0.2903 -2.0321
11823TIP3    H256885   6.129   3.115  17.069 -1.5802  0.9438  0.7968
11824TIP3   OH256886   1.938   2.465   0.675 -0.4032 -0.8855  0.3145
11824TIP3    H156887   1.982   2.384   0.698  1.1480 -0.2732 -0.3919
11824TIP3    H256888   2.002   2.534   0.690 -1.1462  0.0583 -0.6011
11825TIP3   OH256889   2.723   5.769   1.511  0.1323 -0.3217  0.4693
11825TIP3    H156890   2.651   5.801   1.565 -0.6648 -0.2538 -0.6222
11825TIP3    H256891   2.720   5.822   1.432 -0.5786 -2.3278 -0.9457
11826TIP3   OH256892   2.997   2.691   3.905 -0.4734  0.3442 -0.3554
11826TIP3    H156893   2.920   2.670   3.957 -0.1357  1.8187  0.7920
11826TIP3    H256894   3.068   2.702   3.969  0.4378  0.1391 -1.2964
11827TIP3   OH256895   5.474   0.370  14.848  0.1754  0.3573  0.2011
11827TIP3    H156896   5.453   0.339  14.760  0.0270 -2.6131  1.1892
11827TIP3    H256897   5.554   0.323  14.872  0.4130  1.3843  1.5585
11828TIP3   OH256898   0.067   6.217  15.780 -0.0978 -0.6699 -0.5534
11828TIP3    H156899   0.137   6.260  15.829 -0.6125  0.2440 -0.5869
11828TIP3    H256900  -0.007   6.278  15.786 -1.1987 -2.0427  0.2820
11829TIP3   OH256901   1.147   6.343   0.189 -0.2782 -0.4601  0.1684
11829TIP3    H156902   1.140   6.335   0.284  0.6100  0.1797  0.3063
11829TIP3    H256903   1.086   6.413   0.166 -0.5573 -0.6752  0.2583
11830TIP3   OH256904   1.884   0.004   2.310 -0.1278 -0.2671  0.5059
11830TIP3    H156905   1.858  -0.048   2.386 -0.1103 -0.9158  0.0741
11830TIP3    H256906   1.978  -0.014   2.300 -0.3279 -0.9172 -0.2314
11831TIP3   OH256907   6.584   1.419   3.997 -0.4846 -0.1637  0.0032
11831TIP3    H156908   6.585   1.324   3.983 -1.3667 -0.4037  1.3546
11831TIP3    H256909   6.534   1.453   3.923 -0.2316 -0.7505 -0.4519
11832TIP3   OH256910   6.703   2.023  12.645  0.2510  0.2003 -0.2872
11832TIP3    H156911   6.688   1.932  12.621  1.0043  0.3680 -1.5063
11832TIP3    H256912   6.787   2.045  12.605 -0.6009  1.8593 -1.2963
11833TIP3   OH256913   2.701   3.891  11.434  0.2575 -0.4519  0.2869
11833TIP3    H156914   2.630   3.873  11.496  1.2367 -2.0412  1.0129
11833TIP3    H256915   2.781   3.873  11.484  1.1417  0.3557 -0.8017
11834TIP3   OH256916   1.968   5.161  17.190 -0.3203  0.7606 -0.5389
11834TIP3    H156917   2.032   5.228  17.213 -1.2006  1.5518 -0.3636
11834TIP3    H256918   1.907   5.159  17.264 -1.0871  0.7400 -1.1667
11835TIP3   OH256919   2.719   4.341   1.101 -0.4175 -0.3796 -0.1706
11835TIP3    H156920   2.673   4.262   1.131  0.2774 -1.1516 -1.0698
11835TIP3    H256921   2.811   4.315   1.099 -0.3099  0.0157 -1.7774
11836TIP3   OH256922   2.871   5.521   0.811 -0.1058  0.0033 -0.1389
11836TIP3    H156923   2.875   5.616   0.807 -1.7824  0.1435  0.6464
11836TIP3    H256924   2.844   5.493   0.724  1.3373  0.1500 -0.6552
11837TIP3   OH256925   5.336   5.532   2.424 -0.3136  0.3459 -0.2262
11837TIP3    H156926   5.321   5.498   2.336  1.8751  2.5581 -1.5769
11837TIP3    H256927   5.321   5.626   2.416  0.4600  0.6616  1.6239
11838TIP3   OH256928   6.406   1.534   0.803  0.0483 -0.2837 -0.4976
11838TIP3    H156929   6.417   1.548   0.709  0.4854  0.2218 -0.3800
11838TIP3    H256930   6.342   1.463   0.810 -0.2884 -0.0535 -1.1674
11839TIP3   OH256931   3.008   6.201   2.919  0.5634 -0.3441  0.8685
11839TIP3    H156932   3.083   6.184   2.977  2.6798 -2.6062 -2.2258
11839TIP3    H256933   3.043   6.258   2.850 -0.3828 -1.7784 -0.8711
11840TIP3   OH256934   2.505   2.746   6.925 -0.3838  0.4281  0.1652
11840TIP3    H156935   2.594   2.760   6.892  0.6132 -0.8274  2.1661
11840TIP3    H256936   2.477   2.832   6.955  0.9671  0.4724  1.3706
11841TIP3   OH256937   6.089   0.650   4.340  0.2757 -0.1459 -0.0906
11841TIP3    H156938   6.146   0.696   4.278 -0.5431  0.6823 -0.2570
11841TIP3    H256939   6.075   0.713   4.411 -1.0831 -0.0060 -0.4483
11842TIP3   OH256940   4.690   4.317  15.991 -0.1146 -0.0257  0.1749
11842TIP3    H156941   4.709   4.357  16.075  1.0550  1.3120 -0.6914
11842TIP3    H256942   4.614   4.365  15.958  0.6116  0.7791 -0.3702
11843TIP3   OH256943   4.156   4.776   0.712 -0.0459  0.6299  0.4088
11843TIP3    H156944   4.200   4.829   0.646 -0.1297 -0.4988 -0.5882
11843TIP3    H256945   4.064   4.776   0.686 -0.1256  0.3895  0.6815
11844TIP3   OH256946   6.290   6.764  16.701  0.4270 -0.3273  0.2573
11844TIP3    H156947   6.196   6.781  16.710  0.0481 -1.0086 -1.8761
11844TIP3    H256948   6.314   6.723  16.785 -1.7295 -2.3150  0.0258
11845TIP3   OH256949   6.333   5.880   2.733  0.6377  0.4646 -0.0045
11845TIP3    H156950   6.359   5.967   2.700  1.9746 -0.0798 -0.4684
11845TIP3    H256951   6.258   5.855   2.679  0.6488  1.0582 -0.3105
11846TIP3   OH256952   1.741   0.357  12.656  0.2000 -0.2982 -0.2099
11846TIP3    H156953   1.820   0.354  12.709 -0.2843 -1.4823  0.4897
11846TIP3    H256954   1.679   0.409  12.708  0.5555  0.8106 -0.8522
11847TIP3   OH256955   4.565   1.083  15.744 -0.5652  0.7243 -0.0635
11847TIP3    H156956   4.513   1.006  15.765 -0.8126  0.9525  0.1655
11847TIP3    H256957   4.566   1.086  15.648 -1.0734  0.7846 -0.0686
11848TIP3   OH256958   5.381   5.967  15.712 -0.3799  0.2124  0.3824
11848TIP3    H156959   5.303   6.021  15.712  0.5208  1.5565  0.3517
11848TIP3    H256960   5.380   5.923  15.797  0.1699  2.2856  1.5296
11849TIP3   OH256961   1.626   5.638   0.638  0.1017  0.2753 -0.1888
11849TIP3    H156962   1.592   5.608   0.554 -2.0181  0.0117  0.6924
11849TIP3    H256963   1.602   5.731   0.642  1.1102  0.5486 -0.2875
11850TIP3   OH256964   2.466   6.669   4.906 -0.0803  0.7698  0.0356
11850TIP3    H156965   2.527   6.740   4.924 -0.9718  1.8409 -1.0561
11850TIP3    H256966   2.515   6.608   4.850  0.0758  1.4976 -0.6275
11851TIP3   OH256967   3.155   2.861  16.522 -0.2934  0.1541  0.2692
11851TIP3    H156968   3.152   2.866  16.617 -3.5509  1.2522  0.2470
11851TIP3    H256969   3.124   2.772  16.502  2.5681 -0.9120  0.1557
11852TIP3   OH256970   6.184   4.489  16.653 -0.0582 -0.0757  0.1251
11852TIP3    H156971   6.192   4.404  16.610 -0.0727  0.4779 -0.9915
11852TIP3    H256972   6.100   4.486  16.698 -0.5583 -0.2650 -0.8009
11853TIP3   OH256973   0.451   4.007  12.996 -0.0820  0.2259 -0.3164
11853TIP3    H156974   0.481   4.018  13.086 -1.1629  0.5612  0.0106
11853TIP3    H256975   0.519   4.049  12.943  0.2627  0.5582  0.3764
11854TIP3   OH256976   3.192   2.680  14.399  0.2863 -0.3281  0.3573
11854TIP3    H156977   3.210   2.674  14.493 -0.1475 -0.5926  0.4235
11854TIP3    H256978   3.279   2.679  14.359  0.4773 -0.1634  0.7562
11855TIP3   OH256979   4.586   6.442  14.139 -0.1151 -0.5292 -0.0879
11855TIP3    H156980   4.494   6.445  14.165 -0.2566 -2.6245 -0.1106
11855TIP3    H256981   4.609   6.349  14.146  1.5817 -0.2693 -1.4876
11856TIP3   OH256982   1.770   6.238   5.482 -0.1206  0.2437  0.0067
11856TIP3    H156983   1.741   6.146   5.481 -0.1349  0.2502 -0.9269
11856TIP3    H256984   1.852   6.238   5.434 -0.1231  0.7242 -0.0012
11857TIP3   OH256985   5.548   3.537   3.320 -0.0355  0.1280 -0.2208
11857TIP3    H156986   5.474   3.475   3.318 -0.5576  0.7290  0.0125
11857TIP3    H256987   5.584   3.535   3.231 -1.8628  1.6216 -1.0673
11858TIP3   OH256988   4.221   1.782   5.068  0.3222 -0.0624  0.2617
11858TIP3    H156989   4.191   1.698   5.102  2.3227 -0.9853 -0.1371
11858TIP3    H256990   4.209   1.776   4.974 -0.0816  0.3428  0.2834
11859TIP3   OH256991   4.570   2.125   2.837 -0.2000 -0.0788  0.1497
11859TIP3    H156992   4.556   2.041   2.881 -0.1445 -0.1196  0.0883
11859TIP3    H256993   4.657   2.152   2.865 -0.1245 -0.1520 -0.0158
11860TIP3   OH256994   2.086   1.300   4.760  0.3639  0.1396 -0.4069
11860TIP3    H156995   1.996   1.274   4.781  0.5165  1.0831  1.7318
11860TIP3    H256996   2.129   1.219   4.732 -0.5606 -0.8326  0.8410
11861TIP3   OH256997   6.757   5.369   2.987  0.2280  0.2331 -0.0466
11861TIP3    H156998   6.800   5.431   2.927  0.8119 -0.7759 -0.6923
11861TIP3    H256999   6.664   5.385   2.975  0.3700  0.9591 -0.2330
11862TIP3   OH257000   6.357   2.503   1.491 -0.2721  0.3566 -0.1793
11862TIP3    H157001   6.363   2.457   1.408  0.5058 -1.2878  0.7346
11862TIP3    H257002   6.383   2.593   1.471  1.5185 -0.3783 -1.4208
11863TIP3   OH257003   0.264   6.029  13.397  0.3225 -0.2850  0.4967
11863TIP3    H157004   0.349   6.005  13.432  0.1419 -0.4693  0.8101
11863TIP3    H257005   0.214   5.947  13.396  0.6185 -0.4899 -1.0491
11864TIP3   OH257006   3.288   6.680   4.901  0.1908  0.2760  0.5844
11864TIP3    H157007   3.308   6.754   4.843  0.2871  0.7571  1.2250
11864TIP3    H257008   3.275   6.720   4.987 -0.8456 -0.3275  0.7222
11865TIP3   OH257009   3.174   6.397  15.302 -0.3262 -0.6209  0.9404
11865TIP3    H157010   3.092   6.354  15.277 -0.3253 -0.5029  0.7347
11865TIP3    H257011   3.216   6.419  15.219 -0.3002 -0.2659  1.0469
11866TIP3   OH257012   6.576   1.625  14.008 -0.1721  0.2628 -0.0439
11866TIP3    H157013   6.671   1.637  14.003 -0.1826  0.2679 -0.2287
11866TIP3    H257014   6.541   1.685  13.942 -0.2127 -1.0895 -1.3089
11867TIP3   OH257015   2.458   4.613  16.325  1.0016 -0.4789  0.0292
11867TIP3    H157016   2.513   4.541  16.352  0.1517 -1.1322  0.0667
11867TIP3    H257017   2.498   4.691  16.365  1.5185 -1.0164  0.5706
11868TIP3   OH257018   1.407   2.690   0.019  0.1399 -0.8217  0.0702
11868TIP3    H157019   1.340   2.739   0.067  1.3762  0.2565  0.7941
11868TIP3    H257020   1.398   2.600   0.049 -1.4514 -0.8577 -0.4222
11869TIP3   OH257021   5.661   0.210   0.025 -0.5046  0.1735 -0.1582
11869TIP3    H157022   5.569   0.210   0.001  0.1045  1.0387 -2.7576
11869TIP3    H257023   5.674   0.293   0.072 -1.1614 -0.3210  0.9458
11870TIP3   OH257024   4.806   0.480  12.642  0.5824  0.5153  0.3056
11870TIP3    H157025   4.794   0.385  12.644  3.4625  0.0764  0.2398
11870TIP3    H257026   4.800   0.502  12.549  2.0779  0.0107  0.0583
11871TIP3   OH257027   3.681   1.084  16.215 -0.4361  0.4002  0.4743
11871TIP3    H157028   3.760   1.031  16.223 -0.5821  0.1958  0.5932
11871TIP3    H257029   3.684   1.143  16.290  0.8629  2.1239 -0.8518
11872TIP3   OH257030   5.656   4.838   1.722 -0.2894 -0.0791 -0.6053
11872TIP3    H157031   5.668   4.746   1.746 -1.2171 -0.4762 -1.6093
11872TIP3    H257032   5.650   4.884   1.806  1.3823 -0.7446 -0.0790
11873TIP3   OH257033   2.948   4.371   6.647 -0.0041 -0.4091  0.1237
11873TIP3    H157034   3.030   4.331   6.618  1.1862  2.1574 -0.3175
11873TIP3    H257035   2.923   4.321   6.724  3.8336  0.6729  2.3482
11874TIP3   OH257036   6.593   0.686   1.225  0.2250 -0.1093 -0.1506
11874TIP3    H157037   6.621   0.595   1.209  0.8921 -0.3828  2.2532
11874TIP3    H257038   6.529   0.704   1.156  1.3749 -1.7953 -1.7416
11875TIP3   OH257039   3.563   3.004  13.145 -0.8145 -0.2915  0.0921
11875TIP3    H157040   3.534   3.001  13.237  1.7122  0.8309  1.0275
11875TIP3    H257041   3.617   2.925  13.136  1.1590  0.9552  0.4694
11876TIP3   OH257042   6.642   5.219   0.081 -0.2070  0.4688  0.4488
11876TIP3    H157043   6.643   5.243  -0.012  0.4916  0.9557  0.5730
11876TIP3    H257044   6.732   5.235   0.110 -0.3981  0.2099  1.1817
11877TIP3   OH257045   2.217   1.830  15.613 -0.2703  0.0581  0.2424
11877TIP3    H157046   2.194   1.923  15.618  3.7152  1.2457 -0.2521
11877TIP3    H257047   2.268   1.822  15.533 -1.2459 -2.8439 -0.2191
11878TIP3   OH257048   4.640   3.366  13.836 -0.2272  0.1015  0.5502
11878TIP3    H157049   4.670   3.283  13.801  0.9660  0.8732 -0.3460
11878TIP3    H257050   4.670   3.366  13.927  0.3137 -0.1979  0.3756
11879TIP3   OH257051   5.353   5.402  11.760  0.0400  0.3111  0.2898
11879TIP3    H157052   5.373   5.492  11.734 -0.5811  0.4121  0.1338
11879TIP3    H257053   5.328   5.409  11.852  2.0484 -0.0190  0.9139
11880TIP3   OH257054   2.276   1.163  13.939 -0.1609 -0.8329 -0.6268
11880TIP3    H157055   2.363   1.201  13.932 -0.5422  0.3508  0.4927
11880TIP3    H257056   2.218   1.228  13.900 -0.6481 -1.0784 -0.3300
11881TIP3   OH257057   2.750   1.819  16.338 -0.0450  0.2355 -0.4604
11881TIP3    H157058   2.751   1.913  16.319  1.4171  0.0514 -1.4897
11881TIP3    H257059   2.831   1.786  16.297 -0.8429 -1.5711 -0.6569
11882TIP3   OH257060   6.702   6.740  14.856 -0.1106 -0.1758  0.3054
11882TIP3    H157061   6.796   6.750  14.839 -0.6280  0.5958 -2.6738
11882TIP3    H257062   6.675   6.822  14.896  0.1386  0.5172 -0.8992
11883TIP3   OH257063   4.300   6.435   0.713 -0.8467 -0.3612  0.4216
11883TIP3    H157064   4.264   6.395   0.634 -0.4700  0.2436 -0.0696
11883TIP3    H257065   4.379   6.480   0.683 -0.5529 -0.3440  1.1952
11884TIP3   OH257066   5.997   5.267  13.731  0.1876 -0.0566  0.2701
11884TIP3    H157067   6.034   5.195  13.783 -0.0989 -0.0066  0.5539
11884TIP3    H257068   5.995   5.341  13.792  1.5236  0.5128 -0.3465
11885TIP3   OH257069   4.555   5.954  13.439  0.0707 -0.4781  0.3610
11885TIP3    H157070   4.516   5.872  13.468 -0.0127 -0.9738 -1.0858
11885TIP3    H257071   4.481   6.004  13.404  0.0724  0.3548  1.4769
11886TIP3   OH257072   0.631   3.496   0.182  0.2142  0.0687  0.4497
11886TIP3    H157073   0.675   3.480   0.265  1.5138 -0.6582 -0.3347
11886TIP3    H257074   0.674   3.435   0.121 -0.8812  0.4023 -0.6881
11887TIP3   OH257075   2.261   3.174   1.730  0.2283  0.2783  0.6998
11887TIP3    H157076   2.300   3.258   1.705  0.9221  0.3363  1.8854
11887TIP3    H257077   2.184   3.166   1.674  1.8363  0.2105 -1.6599
11888TIP3   OH257078   2.792   0.265  14.359  0.5222 -0.4094  0.4637
11888TIP3    H157079   2.780   0.177  14.395  0.7858  0.4881  2.9099
11888TIP3    H257080   2.842   0.312  14.426  1.8213  1.1671 -1.5016
11889TIP3   OH257081   1.877   1.307   3.946 -0.0683  0.1930  0.4190
11889TIP3    H157082   1.849   1.301   3.855 -0.7925  2.0159  0.4916
11889TIP3    H257083   1.972   1.313   3.941 -0.1585  1.1624 -0.2772
11890TIP3   OH257084   2.944   3.827   4.883  0.6143  0.1914  0.1680
11890TIP3    H157085   3.020   3.807   4.937  0.5378  0.4488  0.3755
11890TIP3    H257086   2.870   3.825   4.943  0.2413 -1.4829 -0.2959
11891TIP3   OH257087   6.348   4.706   2.125  0.5257 -0.1241 -0.2399
11891TIP3    H157088   6.278   4.707   2.190  1.2252 -0.3449  0.5368
11891TIP3    H257089   6.311   4.751   2.049 -1.2006 -2.1203 -0.6640
11892TIP3   OH257090   5.053   1.021   4.165 -0.2569  0.4474 -0.2521
11892TIP3    H157091   5.102   1.065   4.095 -1.6419 -0.4354 -1.8423
11892TIP3    H257092   5.120   0.996   4.228  1.0744  1.1514 -1.3219
11893TIP3   OH257093   1.455   5.097  10.678 -0.0967 -0.4139 -0.0614
11893TIP3    H157094   1.432   5.078  10.587 -0.7284 -1.1451  0.2354
11893TIP3    H257095   1.533   5.044  10.695  0.1470 -0.1138 -0.2347
11894TIP3   OH257096   6.574   6.347   4.347 -0.0664 -0.2826 -0.0985
11894TIP3    H157097   6.527   6.326   4.267 -0.5017 -0.7993  0.2859
11894TIP3    H257098   6.600   6.439   4.337  1.6486 -0.8972 -1.7029
11895TIP3   OH257099   2.380   2.140   5.584  0.2876  0.3666  0.0996
11895TIP3    H157100   2.416   2.082   5.651  1.7615  1.2731  0.1466
11895TIP3    H257101   2.287   2.148   5.606  0.1139 -1.6935  0.2575
11896TIP3   OH257102   3.761   2.222  13.820 -0.2742 -0.4107  0.3234
11896TIP3    H157103   3.819   2.201  13.893 -0.0049  1.0665  0.5568
11896TIP3    H257104   3.735   2.136  13.785  1.5930 -1.1078  0.5524
11897TIP3   OH257105   0.077   1.302   3.028  0.1304 -0.2286  0.4618
11897TIP3    H157106   0.142   1.289   2.958  1.5937  1.7437  1.3316
11897TIP3    H257107   0.031   1.382   3.002 -0.3017 -0.2866  1.0470
11898TIP3   OH257108   3.146   1.415   5.561  0.5915  0.3243 -0.5493
11898TIP3    H157109   3.216   1.363   5.521  0.5310  0.2907 -0.6125
11898TIP3    H257110   3.175   1.428   5.651  1.2301  1.2961 -0.8766
11899TIP3   OH257111   5.901   3.669  12.563  0.1852  0.6120 -0.6915
11899TIP3    H157112   5.814   3.709  12.556  0.2860  0.7163 -1.3638
11899TIP3    H257113   5.892   3.583  12.523 -0.2181 -0.3905  1.3985
11900TIP3   OH257114   0.902   1.720  15.217  0.0482  0.1377  0.2069
11900TIP3    H157115   0.899   1.786  15.286 -2.1955  0.5645 -0.2174
11900TIP3    H257116   0.882   1.638  15.261  3.1579 -0.4241  0.7920
11901TIP3   OH257117   2.833   0.566  11.809 -0.6250 -0.2051 -0.3376
11901TIP3    H157118   2.814   0.533  11.897  1.5456  0.7089  0.5432
11901TIP3    H257119   2.746   0.581  11.770 -1.6605 -0.0280  1.8704
11902TIP3   OH257120   6.275   3.531  15.474  0.2896  0.0101  0.1466
11902TIP3    H157121   6.214   3.470  15.434 -0.1332  0.5316 -0.0202
11902TIP3    H257122   6.290   3.597  15.406  0.0618  0.5636  0.6291
11903TIP3   OH257123   6.778   3.103  14.652  0.3828 -0.0399  0.5814
11903TIP3    H157124   6.820   3.089  14.567  0.8827  1.6576  0.5083
11903TIP3    H257125   6.845   3.082  14.716  0.4644  0.0462  0.5243
11904TIP3   OH257126   1.377   4.442  16.298 -0.8994 -0.2705 -0.4341
11904TIP3    H157127   1.438   4.506  16.334 -1.5605  0.0708  0.0932
11904TIP3    H257128   1.424   4.359  16.302 -1.1400 -0.3597  1.7766
11905TIP3   OH257129   1.733   2.982  15.611  0.1953 -0.2368 -0.9315
11905TIP3    H157130   1.652   2.976  15.661  0.2808  1.9610 -0.4527
11905TIP3    H257131   1.713   2.937  15.528 -1.2024 -0.4981 -0.4793
11906TIP3   OH257132   2.853   5.009  16.732  0.2967  0.4993 -0.1196
11906TIP3    H157133   2.940   4.978  16.755 -0.1112 -0.9447 -0.4390
11906TIP3    H257134   2.865   5.055  16.649  0.8337  0.7496  0.0931
11907TIP3   OH257135   1.270   5.372  13.778 -0.0223 -0.3829 -0.0087
11907TIP3    H157136   1.188   5.325  13.767 -0.3768  0.1409  0.3283
11907TIP3    H257137   1.288   5.408  13.691 -1.2040  1.1562  0.3215
11908TIP3   OH257138   4.896   3.575   3.737  0.0218  0.4239 -0.5457
11908TIP3    H157139   4.981   3.539   3.714 -0.0548 -0.5006  0.5395
11908TIP3    H257140   4.838   3.499   3.740 -0.4413  0.8029  0.4922
11909TIP3   OH257141   0.655   4.532   5.522 -0.2300  0.1015 -0.4352
11909TIP3    H157142   0.660   4.458   5.461  0.1643 -0.0070 -0.2690
11909TIP3    H257143   0.745   4.548   5.549 -0.4420 -0.1082  0.4361
11910TIP3   OH257144   1.592   5.577   6.263  0.2772 -0.2640  0.5305
11910TIP3    H157145   1.640   5.514   6.208  1.8084 -0.0070  1.5231
11910TIP3    H257146   1.528   5.524   6.310  0.3985 -0.8056  0.0975
11911TIP3   OH257147   1.313   2.311  13.396 -0.0156 -0.1090 -0.1786
11911TIP3    H157148   1.307   2.338  13.304  3.3782  1.4076 -0.1029
11911TIP3    H257149   1.326   2.216  13.392 -1.4165 -0.2980 -1.1186
11912TIP3   OH257150   0.624   6.212   0.837 -0.0001  0.0335 -0.4841
11912TIP3    H157151   0.662   6.131   0.803  0.9976 -0.0395  0.7444
11912TIP3    H257152   0.671   6.229   0.918  0.8784  2.6473 -1.4327
11913TIP3   OH257153   2.682   4.145  16.755 -0.0830 -0.1121 -0.6695
11913TIP3    H157154   2.639   4.211  16.809  3.1185  1.9377 -0.3809
11913TIP3    H257155   2.725   4.194  16.685  2.2054 -1.8557 -0.6206
11914TIP3   OH257156   6.656   0.181   3.948 -0.1077  0.2219  0.0455
11914TIP3    H157157   6.591   0.196   3.880 -0.5747  0.9075  0.6326
11914TIP3    H257158   6.663   0.086   3.954  0.2599  0.1451 -1.2510
11915TIP3   OH257159   3.444   0.706   4.182  0.6523  0.3830  0.2595
11915TIP3    H157160   3.509   0.772   4.158  0.4764  0.9696  1.3067
11915TIP3    H257161   3.441   0.646   4.108  0.3613  1.8953 -1.0145
11916TIP3   OH257162   2.244   4.282   2.331  0.4804  0.3798 -0.6696
11916TIP3    H157163   2.297   4.283   2.251 -0.9041 -2.6583 -1.7483
11916TIP3    H257164   2.288   4.220   2.388 -1.2889 -1.4720 -1.2200
11917TIP3   OH257165   6.535   3.095   1.071 -0.5788 -0.6134 -0.3790
11917TIP3    H157166   6.587   3.166   1.032  0.3337 -1.5917 -0.9954
11917TIP3    H257167   6.576   3.081   1.157 -3.0167  2.0133  1.3814
11918TIP3   OH257168   1.737   1.585   2.436 -0.1818 -0.2124  0.0661
11918TIP3    H157169   1.666   1.526   2.460 -2.1415  0.8813 -2.5457
11918TIP3    H257170   1.783   1.540   2.366 -0.9491  0.7381 -1.1069
11919TIP3   OH257171   4.187   3.854  17.140 -0.6637 -0.3297  0.3041
11919TIP3    H157172   4.205   3.761  17.158 -0.2754 -0.4686 -0.7299
11919TIP3    H257173   4.107   3.872  17.189 -0.6364 -1.1597  0.6799
11920TIP3   OH257174   6.426   2.006  15.321  0.4228  0.1938 -0.2103
11920TIP3    H157175   6.508   2.032  15.363 -0.0104  1.2765  0.0118
11920TIP3    H257176   6.400   2.083  15.270 -0.4701 -0.1119 -0.2374
11921TIP3   OH257177   2.280   6.489   6.597  0.4444 -0.2928  0.2914
11921TIP3    H157178   2.343   6.417   6.601  0.5262 -0.2226  0.2676
11921TIP3    H257179   2.201   6.450   6.561  0.4237 -0.4178  0.4693
11922TIP3   OH257180   3.794   3.522   2.274  0.5993 -0.0332  0.1903
11922TIP3    H157181   3.825   3.574   2.349 -0.7510  0.1682  0.6484
11922TIP3    H257182   3.728   3.578   2.233  2.5961  0.6505 -2.3070
11923TIP3   OH257183   1.445   1.720   3.185 -0.4642  0.3500  0.0814
11923TIP3    H157184   1.422   1.801   3.139 -0.5960  0.0540 -0.3680
11923TIP3    H257185   1.519   1.746   3.241  0.5308  0.4284 -1.2071
11924TIP3   OH257186   4.372   1.886   1.131  0.6729  1.0728  0.1871
11924TIP3    H157187   4.329   1.837   1.061  1.6187 -1.3344  1.1904
11924TIP3    H257188   4.359   1.978   1.108 -1.7146  0.3952 -1.4824
11925TIP3   OH257189   5.532   6.058   2.120 -0.1195 -0.0449 -0.2161
11925TIP3    H157190   5.443   6.092   2.126  0.7756  2.1942  2.6023
11925TIP3    H257191   5.525   5.967   2.147 -1.6309 -0.0938 -0.7155
11926TIP3   OH257192   4.265   3.794   2.101  0.2886  0.0065  0.1809
11926TIP3    H157193   4.360   3.798   2.088  0.6240 -3.6045  0.5314
11926TIP3    H257194   4.253   3.805   2.195  0.1387  1.9481 -0.0211
11927TIP3   OH257195   1.911   2.789  11.158 -0.4758  0.2868  0.2705
11927TIP3    H157196   1.827   2.834  11.151 -0.9578 -0.3543  1.6574
11927TIP3    H257197   1.921   2.769  11.251  1.3392  0.5661  0.1774
11928TIP3   OH257198   6.779   2.378   1.760  0.1328 -0.4837  0.1426
11928TIP3    H157199   6.740   2.346   1.678 -1.8617 -0.5600  1.0749
11928TIP3    H257200   6.873   2.367   1.746 -0.1660 -1.0041 -1.9318
11929TIP3   OH257201   0.651   6.612   2.000  0.2982 -0.6634 -0.3674
11929TIP3    H157202   0.577   6.640   2.053  1.1829 -0.2648  0.6880
11929TIP3    H257203   0.645   6.516   1.998 -1.1616 -0.5962 -1.6869
11930TIP3   OH257204   5.736   0.914   4.746 -0.2933  0.3766  0.1162
11930TIP3    H157205   5.657   0.925   4.693  0.5291  0.8282 -1.0750
11930TIP3    H257206   5.708   0.930   4.836 -1.5051  0.7728 -0.3157
11931TIP3   OH257207   0.978   2.889   0.644 -0.1435  0.2446  0.4069
11931TIP3    H157208   0.904   2.850   0.598  0.8680 -1.7760  0.3670
11931TIP3    H257209   1.047   2.894   0.578  0.0128  1.3379  0.6408
11932TIP3   OH257210   1.158   5.263  11.164 -0.7979 -0.8246 -0.7850
11932TIP3    H157211   1.127   5.173  11.179  3.6320 -2.7303 -1.5766
11932TIP3    H257212   1.202   5.259  11.079  1.4786  1.4570  0.1741
11933TIP3   OH257213   6.483   6.217  12.022 -0.4283  0.2949  0.0341
11933TIP3    H157214   6.529   6.164  11.957  1.8468  0.1535  1.6352
11933TIP3    H257215   6.432   6.153  12.072 -0.4119  0.1055 -0.1878
11934TIP3   OH257216   0.383   2.539   2.232 -0.1982 -0.5452  0.3028
11934TIP3    H157217   0.384   2.448   2.204  0.3267 -0.6323  0.5864
11934TIP3    H257218   0.309   2.545   2.292 -2.0693 -0.0817 -1.9036
11935TIP3   OH257219   1.397   6.690  11.736  0.3855  0.2717 -0.8188
11935TIP3    H157220   1.451   6.662  11.810  0.3893  1.6664 -0.2588
11935TIP3    H257221   1.386   6.611  11.683  3.0026 -0.0874 -0.9769
11936TIP3   OH257222   2.076   1.591  12.561  0.0636 -0.2553  0.3028
11936TIP3    H157223   2.081   1.675  12.607 -0.5324 -0.8770  1.5376
11936TIP3    H257224   2.137   1.600  12.488 -0.8364  1.6803 -0.2796
11937TIP3   OH257225   3.867   6.486   1.467  0.0488 -0.1987  0.3497
11937TIP3    H157226   3.838   6.548   1.400  1.1580 -0.9463 -0.8786
11937TIP3    H257227   3.921   6.538   1.526  1.1315  0.0190 -0.7737
11938TIP3   OH257228   2.984   6.033   0.977  0.3392 -0.6265  0.2556
11938TIP3    H157229   3.070   6.042   0.936  0.2219 -0.1658  0.1005
11938TIP3    H257230   2.935   6.109   0.946  0.4014  0.0106  1.6215
11939TIP3   OH257231   3.944   2.847  13.882  0.0306 -0.1336  0.2700
11939TIP3    H157232   3.933   2.806  13.797 -1.0597 -1.3896  0.9827
11939TIP3    H257233   3.975   2.935  13.862  0.8122 -0.7435 -1.3673
11940TIP3   OH257234   2.854   1.107  16.631 -0.6747 -0.1416  0.4626
11940TIP3    H157235   2.899   1.074  16.553 -0.9914  0.2771  0.0978
11940TIP3    H257236   2.924   1.144  16.685 -0.5820  0.6276 -0.1619
11941TIP3   OH257237   5.767   0.040  10.837  1.2011  0.2274  0.1422
11941TIP3    H157238   5.724  -0.029  10.786 -2.2720  0.3569  2.5062
11941TIP3    H257239   5.752   0.120  10.787  1.5734 -0.1696 -0.6185
11942TIP3   OH257240   1.877   1.269  12.192 -0.0159  0.0232  0.2655
11942TIP3    H157241   1.903   1.181  12.222 -0.1935 -0.0212  0.2920
11942TIP3    H257242   1.945   1.327  12.227 -0.7877  0.1160  1.6984
11943TIP3   OH257243   4.138   6.191  15.127  0.1728  0.0395  0.6378
11943TIP3    H157244   4.110   6.218  15.039  3.8314  2.3929 -0.0423
11943TIP3    H257245   4.163   6.099  15.117  0.2572  0.1871 -0.7258
11944TIP3   OH257246   3.639   3.276   5.806  0.1562 -0.0622  0.1773
11944TIP3    H157247   3.647   3.181   5.821 -0.1915  0.2166  2.4226
11944TIP3    H257248   3.646   3.285   5.711  0.7635 -2.2829 -0.0604
11945TIP3   OH257249   0.043   0.861   3.683  0.0308  0.2781  1.3511
11945TIP3    H157250  -0.029   0.836   3.625  0.4795  0.4342  0.7147
11945TIP3    H257251   0.013   0.837   3.770 -0.7274  0.1962  1.0752
11946TIP3   OH257252   0.696   4.593  16.852  0.5574  0.1596  0.0257
11946TIP3    H157253   0.690   4.504  16.817  2.0521  0.1503 -0.2659
11946TIP3    H257254   0.717   4.647  16.775  2.0114  0.4063  0.5598
11947TIP3   OH257255   5.847   3.113   0.495  0.8288 -0.4361 -0.9014
11947TIP3    H157256   5.889   3.195   0.521 -1.2908  0.7822 -1.0733
11947TIP3    H257257   5.758   3.120   0.530  0.1003 -1.9501 -2.3289
11948TIP3   OH257258   6.702   6.066   6.359  0.1136 -0.4931 -0.3811
11948TIP3    H157259   6.611   6.095   6.359  0.3283  0.3928  1.6893
11948TIP3    H257260   6.751   6.139   6.320  0.1701  0.1130  0.7728
11949TIP3   OH257261   6.474   0.437  15.233 -0.0729  0.0110 -0.6807
11949TIP3    H157262   6.475   0.508  15.169  0.5326 -0.8585 -1.6552
11949TIP3    H257263   6.548   0.458  15.292  2.3329 -1.5123 -2.9396
11950TIP3   OH257264   6.360   2.743   1.287  0.3723 -0.2201 -0.3689
11950TIP3    H157265   6.372   2.721   1.194 -1.1553 -1.4143 -0.3256
11950TIP3    H257266   6.266   2.758   1.296  0.7576  1.8469  0.6145
11951TIP3   OH257267   1.359   2.864   3.103  0.2238  0.0752  0.1130
11951TIP3    H157268   1.296   2.791   3.103 -0.3365  0.5198 -1.1266
11951TIP3    H257269   1.327   2.922   3.034  2.1126  0.2256 -0.6899
11952TIP3   OH257270   4.418   6.666  14.073 -0.6305 -0.7648  0.2685
11952TIP3    H157271   4.364   6.590  14.052 -0.5272 -0.9053  0.5065
11952TIP3    H257272   4.499   6.653  14.024 -0.7170 -0.6750  0.1010
11953TIP3   OH257273   2.600   0.803   3.807  0.1177 -0.0247 -0.4302
11953TIP3    H157274   2.560   0.890   3.816  1.9542  0.8010  0.2957
11953TIP3    H257275   2.535   0.743   3.843 -0.2683  1.3228  1.2623
11954TIP3   OH257276   1.136   5.548  15.052 -0.7171  0.1851  0.2833
11954TIP3    H157277   1.048   5.518  15.029  0.1929 -1.1463 -1.7590
11954TIP3    H257278   1.135   5.642  15.030 -1.5913  0.1645  0.1925
11955TIP3   OH257279   2.270   2.768   6.625  0.6794 -0.0015  0.7854
11955TIP3    H157280   2.187   2.731   6.597  0.8310 -0.0542  0.3966
11955TIP3    H257281   2.317   2.695   6.666  1.1069 -0.3233 -0.2638
11956TIP3   OH257282   4.798   2.103  17.157 -0.0378  0.6239  0.7772
11956TIP3    H157283   4.854   2.043  17.207  0.0139  0.3794  0.4289
11956TIP3    H257284   4.859   2.159  17.109 -0.0871  0.7462  0.8581
11957TIP3   OH257285   5.760   5.672   4.981 -0.3114 -0.2353  0.5772
11957TIP3    H157286   5.842   5.717   4.960 -1.2163  1.5508  0.6562
11957TIP3    H257287   5.786   5.598   5.036  1.3497 -0.5001 -0.4787
11958TIP3   OH257288   0.698   5.952   1.828  0.4074  0.5059 -0.5169
11958TIP3    H157289   0.606   5.968   1.809 -0.7154 -1.2477  2.7177
11958TIP3    H257290   0.713   5.861   1.802  1.3500  0.8464 -1.2470
11959TIP3   OH257291   4.921   6.596  10.882  0.0428  0.4586  0.0362
11959TIP3    H157292   4.845   6.584  10.825  0.6945  0.6427 -0.8894
11959TIP3    H257293   4.922   6.690  10.900 -0.0721  0.4233  0.2339
11960TIP3   OH257294   5.674   0.621  15.701  0.7761 -0.5534  0.2300
11960TIP3    H157295   5.648   0.713  15.705  1.3728 -0.3730  0.1180
11960TIP3    H257296   5.679   0.602  15.607 -1.0443 -1.2090  0.2276
11961TIP3   OH257297   1.404   2.452   0.158 -0.3766  0.3639 -0.0821
11961TIP3    H157298   1.316   2.424   0.133 -1.4324  2.3084  1.2059
11961TIP3    H257299   1.398   2.472   0.251  1.8012 -0.6951  0.3627
11962TIP3   OH257300   0.780   2.110  15.789  0.3549 -0.4234 -0.3382
11962TIP3    H157301   0.862   2.065  15.808  1.2965  1.0423 -0.7679
11962TIP3    H257302   0.777   2.182  15.851 -0.3082 -0.1117 -0.7187
11963TIP3   OH257303   3.205   1.970   5.254 -1.2649 -0.1077  1.0613
11963TIP3    H157304   3.245   2.053   5.282 -0.6862  0.1383 -0.4160
11963TIP3    H257305   3.206   1.916   5.333 -1.2860  1.1400  1.9659
11964TIP3   OH257306   0.553   4.432   1.148 -0.1739  0.1532  0.4313
11964TIP3    H157307   0.535   4.526   1.151 -0.1060  0.1437  1.5916
11964TIP3    H257308   0.509   4.402   1.068 -0.7079  1.0598  0.3661
11965TIP3   OH257309   5.532   4.003  12.193 -0.2311 -0.1596  0.1285
11965TIP3    H157310   5.499   4.073  12.250 -0.5472  0.5612 -0.9055
11965TIP3    H257311   5.502   4.028  12.105  2.1702 -0.0098 -0.7283
11966TIP3   OH257312   6.690   3.460   0.500  0.4426 -0.9584  0.0662
11966TIP3    H157313   6.628   3.485   0.568 -0.2081  0.4864 -0.9910
11966TIP3    H257314   6.637   3.419   0.432  0.7430 -0.5008 -0.4633
11967TIP3   OH257315   1.296   6.077   1.062  0.6262  0.3577 -0.4339
11967TIP3    H157316   1.272   5.999   1.011  1.7467  0.0637 -0.5452
11967TIP3    H257317   1.235   6.077   1.135  0.3532 -0.4089 -0.6463
11968TIP3   OH257318   2.200   5.901  13.427 -0.1676 -0.3233  0.4110
11968TIP3    H157319   2.261   5.854  13.369 -0.2656 -1.8247  1.4684
11968TIP3    H257320   2.154   5.961  13.369  0.6113 -0.8881 -0.8517
11969TIP3   OH257321   0.934   0.733  15.611 -0.0590 -0.4446  0.4843
11969TIP3    H157322   1.009   0.764  15.663  2.1068 -2.1782 -1.3673
11969TIP3    H257323   0.934   0.639  15.625 -2.3230 -0.4275  0.8480
11970TIP3   OH257324   4.903   5.446   3.976 -0.5785  0.1363 -0.4411
11970TIP3    H157325   4.959   5.472   4.048  2.2222 -0.3029 -2.2963
11970TIP3    H257326   4.866   5.528   3.943 -0.2093  0.5581  0.1727
11971TIP3   OH257327   0.304   5.657  12.676  0.1074 -0.2015 -0.0158
11971TIP3    H157328   0.380   5.611  12.712  1.6259  2.5390  0.5963
11971TIP3    H257329   0.249   5.675  12.752  1.1165  1.6662  0.3475
11972TIP3   OH257330   4.301   5.239   3.703  0.0142 -0.1017  0.0761
11972TIP3    H157331   4.299   5.214   3.795  0.7372 -0.3649  0.0251
11972TIP3    H257332   4.303   5.335   3.705  4.0474 -0.0570  0.4923
11973TIP3   OH257333   4.331   5.454   0.094 -0.3112  0.8090 -0.4512
11973TIP3    H157334   4.285   5.372   0.075  0.0826  0.7147 -1.0050
11973TIP3    H257335   4.419   5.442   0.060  0.2358  0.8864  0.8526
11974TIP3   OH257336   2.676   2.029   3.906  0.3236  0.0029 -0.3613
11974TIP3    H157337   2.644   2.075   3.829 -1.6239 -0.6686 -0.0335
11974TIP3    H257338   2.722   2.095   3.957  0.7320  0.6947 -1.5789
11975TIP3   OH257339   4.476   2.788   2.075 -0.1711 -0.5144  0.3793
11975TIP3    H157340   4.497   2.840   2.153 -0.8731 -2.2727  1.7965
11975TIP3    H257341   4.400   2.736   2.101 -1.5888  0.1504 -2.1022
11976TIP3   OH257342   5.043   0.238   5.160 -0.5398 -0.0884  0.3016
11976TIP3    H157343   5.096   0.301   5.210 -1.0901 -1.5403  2.8843
11976TIP3    H257344   5.077   0.244   5.071  2.5956  0.5021  1.4147
11977TIP3   OH257345   0.473   2.152  15.779 -0.3552 -0.0418  1.2738
11977TIP3    H157346   0.463   2.134  15.685  0.9187 -0.7553  1.2579
11977TIP3    H257347   0.567   2.150  15.794 -0.4554  1.4993  2.3182
11978TIP3   OH257348   1.256   4.607   0.574 -0.3796  0.3228 -0.0476
11978TIP3    H157349   1.276   4.514   0.576 -0.8957  0.2136  1.7057
11978TIP3    H257350   1.164   4.612   0.601 -0.5192  1.3091 -0.6497
11979TIP3   OH257351   0.198   3.970  12.819 -0.0410  0.0820 -0.1869
11979TIP3    H157352   0.155   4.054  12.834 -0.6571 -0.3262  0.3544
11979TIP3    H257353   0.285   3.993  12.785 -0.3821  0.9221 -0.4936
11980TIP3   OH257354   1.920   1.897  13.247 -0.4319  0.1909  0.0038
11980TIP3    H157355   1.990   1.885  13.183 -0.2160  1.0585  0.0676
11980TIP3    H257356   1.915   1.992  13.260 -2.2943  0.2514 -0.7782
11981TIP3   OH257357   6.393   4.432   5.250 -0.2484  0.0778 -0.5591
11981TIP3    H157358   6.477   4.423   5.294 -0.6669 -0.2466  0.1981
11981TIP3    H257359   6.409   4.495   5.180  0.5365  0.2909 -0.2007
11982TIP3   OH257360   4.812   0.517  13.632  0.8653 -0.0508 -0.3954
11982TIP3    H157361   4.864   0.548  13.557  1.4643 -1.8444 -0.7723
11982TIP3    H257362   4.868   0.453  13.675  0.5801  1.0260  1.7098
11983TIP3   OH257363   3.139   3.821  11.866  0.3242 -0.0220 -0.2070
11983TIP3    H157364   3.044   3.811  11.874  0.3264  0.6907  0.8519
11983TIP3    H257365   3.151   3.905  11.823  0.4876 -0.0735 -0.2650
11984TIP3   OH257366   4.054   0.556   3.328 -0.5412  0.0167  0.2313
11984TIP3    H157367   3.976   0.513   3.295 -1.5423  1.3883  0.7185
11984TIP3    H257368   4.057   0.640   3.282  0.0365  0.4334  0.9994
11985TIP3   OH257369   2.588   0.650  11.748  0.1623 -0.2916 -0.5579
11985TIP3    H157370   2.536   0.595  11.690  1.1849 -0.3766 -1.4168
11985TIP3    H257371   2.539   0.732  11.753 -0.3273 -0.5555 -0.9199
11986TIP3   OH257372   1.251   2.785  16.385 -0.4122 -0.1539 -0.0862
11986TIP3    H157373   1.228   2.768  16.294 -0.4207  3.3800 -0.8946
11986TIP3    H257374   1.344   2.763  16.390  0.1657  1.6406 -1.6414
11987TIP3   OH257375   5.488   6.502   4.592  0.0646  0.1122 -0.3884
11987TIP3    H157376   5.412   6.446   4.607 -0.2275 -0.0154 -2.1420
11987TIP3    H257377   5.454   6.591   4.603 -0.4862  0.0759 -1.6909
11988TIP3   OH257378   3.097   3.401  14.302  0.0393  0.1663 -0.3498
11988TIP3    H157379   3.062   3.326  14.350  0.5010  0.3303  0.2541
11988TIP3    H257380   3.021   3.455  14.282 -0.1205  0.2637  0.4929
11989TIP3   OH257381   5.291   2.715   1.254  0.0591 -0.2417  0.0934
11989TIP3    H157382   5.201   2.685   1.262 -1.4717  4.0447  2.8864
11989TIP3    H257383   5.284   2.797   1.205  2.3202  0.5288  0.9334
11990TIP3   OH257384   3.473   2.656  11.466 -0.3101 -0.8041 -0.1127
11990TIP3    H157385   3.395   2.664  11.521  0.5158  1.5396  0.8524
11990TIP3    H257386   3.543   2.696  11.518  0.5480  1.4497 -2.7602
11991TIP3   OH257387   6.146   2.111   2.933  0.0553  0.4195  0.1685
11991TIP3    H157388   6.190   2.033   2.965  1.9747  0.4517 -2.0681
11991TIP3    H257389   6.123   2.161   3.011 -1.6893 -2.5391  1.6905
11992TIP3   OH257390   1.694   0.101   2.885 -0.5269  0.2111  0.7547
11992TIP3    H157391   1.634   0.175   2.892 -1.0869 -0.1242 -0.4387
11992TIP3    H257392   1.646   0.034   2.838  0.7451 -0.0953 -0.1683
11993TIP3   OH257393   5.259   0.850  14.106 -0.0160 -0.5807  0.1437
11993TIP3    H157394   5.171   0.877  14.133  1.0905  1.2161  2.2991
11993TIP3    H257395   5.267   0.881  14.016 -0.7993  1.5003  0.7101
11994TIP3   OH257396   4.663   3.749  15.848 -0.2467  0.1716  0.6614
11994TIP3    H157397   4.708   3.815  15.795 -0.4937  0.6287  1.0139
11994TIP3    H257398   4.655   3.789  15.934  0.1632 -0.5718  1.0546
11995TIP3   OH257399   5.128   3.586   3.632  0.0843 -0.1953 -0.0027
11995TIP3    H157400   5.133   3.680   3.617 -2.1743  0.2043  1.2411
11995TIP3    H257401   5.195   3.568   3.697  0.4861  0.5618 -0.2002
11996TIP3   OH257402   6.203   1.302  13.080 -0.1433 -0.2969  0.1322
11996TIP3    H157403   6.241   1.318  12.994  0.0960  1.6525  0.5430
11996TIP3    H257404   6.184   1.390  13.114  1.0258 -0.9061  2.6024
11997TIP3   OH257405   0.733   2.910   5.474  0.3223  0.3020  0.0952
11997TIP3    H157406   0.777   2.870   5.549 -1.7300  0.1273  1.2835
11997TIP3    H257407   0.683   2.839   5.434  0.6855  0.5951 -0.9023
11998TIP3   OH257408   4.321   1.583  10.939  0.3143 -0.2710 -0.7070
11998TIP3    H157409   4.240   1.558  10.895  0.6287  0.1392 -1.5493
11998TIP3    H257410   4.378   1.612  10.868  0.8135  0.4711 -0.0151
11999TIP3   OH257411   6.371   1.734   5.736  0.3329 -0.6123  0.5017
11999TIP3    H157412   6.352   1.675   5.663  1.3157 -0.8671  0.4290
11999TIP3    H257413   6.460   1.765   5.719  0.2036  0.0988  1.0752
12000TIP3   OH257414   0.054   5.422   3.248  0.5096  0.4122 -0.2142
12000TIP3    H157415  -0.006   5.465   3.309  0.7526  2.1922 -1.1557
12000TIP3    H257416   0.006   5.420   3.165  0.9561 -0.1118 -0.4686
12001TIP3   OH257417   2.073   3.063  11.121  0.2385 -0.0239 -0.4963
12001TIP3    H157418   2.079   3.148  11.077 -0.0691  0.1069 -0.2864
12001TIP3    H257419   2.137   3.069  11.192 -0.4477  0.3883  0.1025
12002TIP3   OH257420   2.570   5.687  12.733  0.8397 -0.3509 -0.8627
12002TIP3    H157421   2.641   5.651  12.679  0.9450 -0.7741 -0.4457
12002TIP3    H257422   2.605   5.769  12.767  0.2957  0.6093 -2.5060
12003TIP3   OH257423   4.080   6.700  11.597  0.4905 -0.0515  0.1222
12003TIP3    H157424   4.011   6.728  11.657 -0.3414 -0.6637 -0.5343
12003TIP3    H257425   4.126   6.781  11.574  0.4208  0.2691  1.0805
12004TIP3   OH257426   2.035   3.040   6.319 -0.5763 -0.0509  0.7371
12004TIP3    H157427   2.048   3.115   6.261 -0.5852 -0.4096  0.2635
12004TIP3    H257428   1.970   3.070   6.382 -0.7265  0.2772  0.4329
12005TIP3   OH257429   3.754   3.211  13.145  1.1537 -0.2065  0.3612
12005TIP3    H157430   3.706   3.129  13.134  2.6973 -1.1385  0.2466
12005TIP3    H257431   3.690   3.271  13.182  0.7633 -2.3583  3.6066
12006TIP3   OH257432   1.815   2.652   4.992  0.1762 -0.1746  0.8820
12006TIP3    H157433   1.775   2.730   5.031  0.6083  0.6348 -0.2549
12006TIP3    H257434   1.800   2.583   5.057 -0.3321  0.8122  1.8528
12007TIP3   OH257435   3.370   6.153  15.776  0.4604 -0.4592  0.0022
12007TIP3    H157436   3.303   6.217  15.752 -0.8892 -1.6509  0.4385
12007TIP3    H257437   3.325   6.091  15.834  2.1356 -0.8930  0.9229
12008TIP3   OH257438   6.282   1.637  12.064  0.1696 -0.0234  0.0230
12008TIP3    H157439   6.330   1.709  12.022 -0.1844  0.3543  0.2606
12008TIP3    H257440   6.267   1.574  11.994  0.6158  0.0638 -0.1533
12009TIP3   OH257441   3.827   0.588   0.912 -0.2818  0.2610 -0.0224
12009TIP3    H157442   3.847   0.680   0.896 -1.4138  0.7539  1.2400
12009TIP3    H257443   3.912   0.544   0.909  0.7019  1.8255  2.3075
12010TIP3   OH257444   4.711   0.987   6.680 -0.0284 -0.1949 -0.0726
12010TIP3    H157445   4.734   1.049   6.749  0.8275  1.0614 -1.4343
12010TIP3    H257446   4.781   0.922   6.682  0.9088  0.7655 -0.8215
12011TIP3   OH257447   0.010   1.647  16.265  0.0459  0.4686  0.0291
12011TIP3    H157448   0.095   1.604  16.268 -0.3160 -0.2006  2.0071
12011TIP3    H257449  -0.041   1.595  16.203  0.2584 -0.7540  0.8435
12012TIP3   OH257450   6.143   2.820  15.856 -0.0596  0.5949  0.2410
12012TIP3    H157451   6.211   2.776  15.906 -1.8836 -2.1307  0.5569
12012TIP3    H257452   6.102   2.880  15.918 -0.5437 -0.7725  1.3084
12013TIP3   OH257453   2.950   1.572  12.578  0.0008 -0.6230  0.4160
12013TIP3    H157454   3.000   1.609  12.650 -0.0019 -0.4188  0.3131
12013TIP3    H257455   2.878   1.634  12.564 -0.3379 -0.9604  0.6265
12014TIP3   OH257456   0.851   0.904   2.070 -0.5427  0.1886  0.2500
12014TIP3    H157457   0.913   0.864   2.132  0.2836 -0.7683 -1.1311
12014TIP3    H257458   0.790   0.834   2.048 -0.4374  0.3169 -0.4873
12015TIP3   OH257459   5.689   4.003   2.348 -0.9019 -0.0365  0.0765
12015TIP3    H157460   5.595   4.003   2.330 -0.8950 -0.6457 -0.0048
12015TIP3    H257461   5.706   3.916   2.385 -0.1603 -0.3956 -1.0506
12016TIP3   OH257462   1.388   3.551   5.164  0.4144 -0.1929  0.3087
12016TIP3    H157463   1.327   3.557   5.091  0.1178 -3.0279  0.2264
12016TIP3    H257464   1.475   3.550   5.124  0.4281  1.3468  0.2553
12017TIP3   OH257465   1.133   2.212   5.779 -0.4664  0.4315  0.0222
12017TIP3    H157466   1.208   2.246   5.827 -0.5870  0.5259  0.1436
12017TIP3    H257467   1.060   2.266   5.808 -0.2560  1.6487 -1.5380
12018TIP3   OH257468   2.918   0.463   2.908 -0.2733 -0.1069 -0.2244
12018TIP3    H157469   2.894   0.538   2.962 -0.2476  0.8544 -1.4924
12018TIP3    H257470   2.835   0.433   2.872 -0.3460 -1.0186  0.6532
12019TIP3   OH257471   0.939   0.645  13.619 -0.3162  0.8637  0.1306
12019TIP3    H157472   0.928   0.552  13.601  0.7975  0.3348  1.9861
12019TIP3    H257473   0.923   0.687  13.534 -1.6404 -0.9098 -0.5745
12020TIP3   OH257474   3.717   3.459  11.542 -0.0348 -0.4452  0.0478
12020TIP3    H157475   3.623   3.469  11.524 -0.2525  1.8294  1.9905
12020TIP3    H257476   3.760   3.517  11.479  0.1170 -1.6532 -0.9880
12021TIP3   OH257477   2.754   5.134   2.935 -0.5652  1.0905 -0.2273
12021TIP3    H157478   2.730   5.052   2.893  1.2432  1.1214 -1.4022
12021TIP3    H257479   2.728   5.202   2.872 -2.2982  1.4955  0.8491
12022TIP3   OH257480   0.912   4.853  13.110  0.0476 -0.3560  0.1499
12022TIP3    H157481   0.866   4.811  13.037  0.7124 -0.1392 -0.4057
12022TIP3    H257482   0.869   4.938  13.120 -0.2195 -0.4941  0.1866
12023TIP3   OH257483   6.746   1.328  14.789 -0.1414 -0.3367  0.0022
12023TIP3    H157484   6.684   1.401  14.790 -0.0142 -0.2319  0.2617
12023TIP3    H257485   6.738   1.289  14.876  0.4685 -0.0606  0.1874
12024TIP3   OH257486   0.011   5.730   0.803 -0.6155  0.1279 -0.3070
12024TIP3    H157487   0.084   5.668   0.798 -1.3668 -0.7434 -0.8726
12024TIP3    H257488  -0.067   5.675   0.804 -1.3277  1.0834 -1.2767
12025TIP3   OH257489   5.617   4.865   4.966 -0.4256  0.2157  0.0379
12025TIP3    H157490   5.700   4.906   4.989 -0.4831  0.6133 -0.4402
12025TIP3    H257491   5.639   4.774   4.947 -0.6940 -0.8124  3.8679
12026TIP3   OH257492   2.758   2.117   3.455 -0.1129  0.5566  0.4002
12026TIP3    H157493   2.682   2.085   3.406 -0.5544 -0.6801  1.8012
12026TIP3    H257494   2.803   2.176   3.394  0.3197 -2.1430 -2.1666
12027TIP3   OH257495   3.268   1.982   4.958 -0.6125 -0.0476  0.1108
12027TIP3    H157496   3.317   1.966   5.039  0.7458 -0.7669 -0.8210
12027TIP3    H257497   3.323   2.043   4.909 -1.2923  0.1638 -0.4020
12028TIP3   OH257498   1.938   1.784   5.595  0.0946  0.2448 -0.1757
12028TIP3    H157499   2.000   1.737   5.539  0.7068 -0.5992  1.1561
12028TIP3    H257500   1.855   1.740   5.580 -0.0462  0.8776 -1.3874
12029TIP3   OH257501   5.341   0.009  11.745 -0.5656 -0.0265 -0.1649
12029TIP3    H157502   5.326  -0.023  11.834 -0.9793 -0.1159 -0.2677
12029TIP3    H257503   5.414   0.070  11.754 -0.9109  0.3187  0.3109
12030TIP3   OH257504   2.047   2.680   4.855 -0.7773 -0.4836 -0.2070
12030TIP3    H157505   2.080   2.591   4.844 -0.4197 -0.5020  0.9035
12030TIP3    H257506   1.958   2.669   4.888 -1.2733 -0.4221 -1.4688
12031TIP3   OH257507   5.337   3.434   2.814 -0.2167 -0.2919 -0.0193
12031TIP3    H157508   5.247   3.439   2.783 -0.4014 -2.8929 -0.1556
12031TIP3    H257509   5.331   3.384   2.895  1.0665 -0.1084  0.2030
12032TIP3   OH257510   2.226   5.714  15.936  0.3488  0.6616 -0.2678
12032TIP3    H157511   2.184   5.792  15.974  2.0227  1.4190  0.1254
12032TIP3    H257512   2.170   5.641  15.964 -0.4071  1.5620  0.6693
12033TIP3   OH257513   4.553   6.335  14.838  0.0501 -0.1809  0.5530
12033TIP3    H157514   4.626   6.325  14.778  0.4701 -0.0324  1.0355
12033TIP3    H257515   4.542   6.249  14.877 -0.7449 -0.4953 -0.3125
12034TIP3   OH257516   1.333   6.456  11.612 -0.1677 -0.6999 -0.2444
12034TIP3    H157517   1.343   6.456  11.517 -0.8935  0.5908 -0.3441
12034TIP3    H257518   1.240   6.475  11.626  0.4146  1.8908  0.7116
12035TIP3   OH257519   4.524   3.998   3.318 -0.8805  0.2291 -0.2804
12035TIP3    H157520   4.575   3.993   3.237  1.1924  2.1342  0.7888
12035TIP3    H257521   4.529   4.090   3.344 -2.6889 -0.0586  1.2978
12036TIP3   OH257522   5.542   0.740  16.271 -0.5236 -0.1260 -0.1163
12036TIP3    H157523   5.603   0.701  16.333 -0.3298 -0.4888 -0.5319
12036TIP3    H257524   5.522   0.826  16.308  0.5287  0.1518 -0.1629
12037TIP3   OH257525   6.395   4.852  15.835 -0.4930 -0.2215 -0.5007
12037TIP3    H157526   6.357   4.776  15.792 -0.4760  0.0829 -1.0680
12037TIP3    H257527   6.474   4.818  15.878 -1.1506 -0.7606  0.3078
12038TIP3   OH257528   2.995   3.202  14.459  0.3882  0.2302 -0.5602
12038TIP3    H157529   2.921   3.220  14.517 -0.5690  0.6181 -1.8423
12038TIP3    H257530   3.072   3.201  14.516 -0.6193 -0.3102  0.8324
12039TIP3   OH257531   3.645   0.829   1.562 -0.2755  0.1307  0.6471
12039TIP3    H157532   3.735   0.833   1.594 -0.4869 -0.0554  1.2935
12039TIP3    H257533   3.596   0.788   1.634 -0.6805 -0.7963 -0.1243
12040TIP3   OH257534   4.402   1.764  15.466 -0.2807  0.4673 -0.7193
12040TIP3    H157535   4.496   1.779  15.455 -0.4974  2.7404  0.0254
12040TIP3    H257536   4.387   1.678  15.428  2.1463 -0.0698 -0.6030
12041TIP3   OH257537   4.715   6.566   2.723  0.3173 -0.0876 -0.5097
12041TIP3    H157538   4.799   6.540   2.687 -0.2253  0.4090 -2.2562
12041TIP3    H257539   4.662   6.486   2.722  0.5649 -0.2645  0.0265
12042TIP3   OH257540   2.739   3.393  13.786  0.0554 -0.1966 -0.3561
12042TIP3    H157541   2.783   3.457  13.730 -0.1931  0.7506  0.5019
12042TIP3    H257542   2.681   3.345  13.727  2.9122 -2.2295 -1.7519
12043TIP3   OH257543   1.627   5.740   1.131  0.2067 -0.1137  0.6429
12043TIP3    H157544   1.617   5.819   1.185  1.0582 -0.1268  0.8386
12043TIP3    H257545   1.579   5.672   1.179  0.4245  0.0250  1.0639
12044TIP3   OH257546   3.848   0.315  14.874 -0.1229  0.0650  0.4568
12044TIP3    H157547   3.851   0.404  14.837 -0.8664  0.5225  1.4454
12044TIP3    H257548   3.913   0.317  14.945  1.4693 -0.8789 -0.9118
12045TIP3   OH257549   0.110   1.262   2.565 -0.1534 -0.3093  0.6302
12045TIP3    H157550   0.081   1.250   2.474  0.3979 -2.3670  0.6699
12045TIP3    H257551   0.072   1.188   2.612  2.0388 -1.0105  1.4216
12046TIP3   OH257552   4.339   1.639  14.793 -0.5084 -0.1327  0.5564
12046TIP3    H157553   4.287   1.662  14.870  0.0934  0.7195  0.7297
12046TIP3    H257554   4.313   1.550  14.771 -1.5845  0.0685  0.9990
12047TIP3   OH257555   5.504   1.316   3.353 -0.0145  0.3392  0.0872
12047TIP3    H157556   5.520   1.410   3.342 -0.7352  0.6520  1.4569
12047TIP3    H257557   5.581   1.274   3.314  0.3661  1.4920 -0.4573
12048TIP3   OH257558   2.743   4.620  13.543  0.0777 -0.1886 -0.2571
12048TIP3    H157559   2.693   4.688  13.588 -0.4898 -0.8797  0.1739
12048TIP3    H257560   2.783   4.568  13.613 -0.3133 -0.9055 -0.5538
12049TIP3   OH257561   6.684   1.056   5.315 -0.5108 -0.8200  0.0393
12049TIP3    H157562   6.667   1.150   5.318 -4.3042 -1.3636  0.7301
12049TIP3    H257563   6.779   1.049   5.304 -0.0854  3.0415 -0.1311
12050TIP3   OH257564   3.500   2.379  15.122 -0.0416  0.2773  0.2076
12050TIP3    H157565   3.494   2.378  15.218 -2.4332 -1.2731  0.0957
12050TIP3    H257566   3.521   2.289  15.098 -1.4652  0.1782 -0.7822
12051TIP3   OH257567   3.722   4.980  11.860  0.3259  0.8789 -0.0493
12051TIP3    H157568   3.711   4.910  11.924  0.3149  0.7242 -0.2183
12051TIP3    H257569   3.643   5.034  11.869  0.5027  1.0755  0.3313
12052TIP3   OH257570   4.072   2.677   2.334 -0.5677 -0.0991  0.2949
12052TIP3    H157571   4.020   2.611   2.380 -0.0012 -0.4491  0.4478
12052TIP3    H257572   4.120   2.722   2.404 -1.0488  0.5680  0.2050
12053TIP3   OH257573   0.679   3.133  16.867 -0.7953 -0.2036  0.3997
12053TIP3    H157574   0.699   3.041  16.889  1.6968  0.7577  2.8162
12053TIP3    H257575   0.693   3.180  16.949 -0.1153  2.6063 -1.2039
12054TIP3   OH257576   2.116   2.360  16.430 -0.5247 -0.4656  0.3676
12054TIP3    H157577   2.197   2.352  16.380 -1.3363 -0.1989 -1.0375
12054TIP3    H257578   2.127   2.300  16.504  0.3265 -1.6040 -0.6533
12055TIP3   OH257579   3.379   2.033   2.108  0.1357 -0.0644 -0.7897
12055TIP3    H157580   3.363   1.971   2.036  1.3093 -0.3139 -0.8586
12055TIP3    H257581   3.295   2.039   2.153 -0.0649 -1.5671 -0.9036
12056TIP3   OH257582   3.727   5.415   1.958 -0.5652  0.3532  0.2100
12056TIP3    H157583   3.707   5.340   1.903 -0.2946  0.7364 -0.4219
12056TIP3    H257584   3.649   5.427   2.012 -0.9231  0.1097 -0.2521
12057TIP3   OH257585   2.489   2.877   2.963 -0.1305 -0.1547  0.3698
12057TIP3    H157586   2.490   2.838   3.051 -1.8474  0.8820  0.9145
12057TIP3    H257587   2.451   2.809   2.907 -0.6829 -0.2101  0.7966
12058TIP3   OH257588   5.859   0.683   0.499 -0.9087  0.7032  0.0065
12058TIP3    H157589   5.819   0.728   0.574 -2.2403 -0.5034  0.0824
12058TIP3    H257590   5.851   0.590   0.521 -0.8714  0.3496 -1.4016
12059TIP3   OH257591   5.072   4.952  11.070 -0.2177 -0.0117  0.6488
12059TIP3    H157592   5.081   5.044  11.047 -2.3659  0.0013 -0.4283
12059TIP3    H257593   5.112   4.905  10.997  1.5399  0.0117  1.5400
12060TIP3   OH257594   3.629   4.213  10.439  0.3779 -0.1371  0.3491
12060TIP3    H157595   3.659   4.267  10.366  0.9243 -0.1778  0.5380
12060TIP3    H257596   3.550   4.257  10.472  0.3407  0.0791 -0.0313
12061TIP3   OH257597   4.347   6.460   2.890 -0.0248 -1.2491 -0.0041
12061TIP3    H157598   4.331   6.473   2.797  2.6060  0.0947 -0.3696
12061TIP3    H257599   4.293   6.525   2.934 -1.0646 -1.7072 -0.5697
12062TIP3   OH257600   0.879   3.383  12.631  0.3073 -0.5716 -0.0570
12062TIP3    H157601   0.800   3.394  12.684 -0.7577 -2.0580 -1.2536
12062TIP3    H257602   0.878   3.457  12.570  1.3795  0.9794  1.7102
12063TIP3   OH257603   6.391   2.018   3.608 -0.4329 -0.1490 -0.4533
12063TIP3    H157604   6.371   2.096   3.660 -0.3924 -0.6078  0.2545
12063TIP3    H257605   6.440   2.052   3.533 -1.5383  0.6639 -0.8401
12064TIP3   OH257606   4.341   3.132  12.743  0.4178 -0.2401  0.3792
12064TIP3    H157607   4.302   3.167  12.823 -1.6667  1.3039 -1.1849
12064TIP3    H257608   4.320   3.038  12.746 -0.2731 -0.0777  1.3055
12065TIP3   OH257609   3.206   5.189  13.962  0.2887  0.3445 -0.0588
12065TIP3    H157610   3.218   5.237  14.044 -2.0355  1.2450 -0.1740
12065TIP3    H257611   3.269   5.229  13.902  1.3593  0.3148  0.9992
12066TIP3   OH257612   3.113   2.959   6.596  0.3764 -0.1782  0.4846
12066TIP3    H157613   3.048   3.022   6.564  1.4496 -0.1082 -1.7636
12066TIP3    H257614   3.063   2.880   6.614 -0.6797  0.6303  1.2179
12067TIP3   OH257615   2.152   3.604  12.962  0.7059  1.3728 -0.4508
12067TIP3    H157616   2.071   3.656  12.961 -0.0718  0.2926  1.1565
12067TIP3    H257617   2.206   3.647  13.029 -0.1623 -0.0857  1.2916
12068TIP3   OH257618   6.509   5.010   4.544  0.8381  0.0673  0.0740
12068TIP3    H157619   6.524   5.090   4.494 -2.5272  0.6284 -0.3082
12068TIP3    H257620   6.497   4.941   4.479 -2.0316  0.5053 -0.0128
12069TIP3   OH257621   1.547   0.433   4.874  0.4211 -0.0612 -0.3543
12069TIP3    H157622   1.605   0.465   4.806  0.5005  0.4802 -0.0407
12069TIP3    H257623   1.563   0.339   4.878  0.2498 -0.1402 -1.2344
12070TIP3   OH257624   5.033   0.404  11.448  0.2283 -0.2529 -0.2174
12070TIP3    H157625   5.074   0.326  11.485 -1.1457 -0.2365  1.4227
12070TIP3    H257626   4.964   0.427  11.509  0.3317  2.0522 -0.8602
12071TIP3   OH257627   6.015   0.245   6.637  0.5444 -0.4645  0.0250
12071TIP3    H157628   6.015   0.283   6.725  0.1830 -2.1337  0.7899
12071TIP3    H257629   5.946   0.291   6.590  0.5856  0.2885  0.6856
12072TIP3   OH257630   1.372   5.490   2.343 -0.3561 -0.2618 -0.2530
12072TIP3    H157631   1.352   5.434   2.268 -0.4638 -0.3995 -0.1220
12072TIP3    H257632   1.394   5.429   2.413  1.7933 -0.1076 -0.7232
12073TIP3   OH257633   3.884   2.525  13.093  0.5120 -0.0516  0.7134
12073TIP3    H157634   3.968   2.570  13.100  0.3664  0.1338  1.3601
12073TIP3    H257635   3.863   2.500  13.183  1.3028 -2.7684  0.2318
12074TIP3   OH257636   3.396   2.398  15.382 -0.0272  0.4810 -0.5465
12074TIP3    H157637   3.302   2.398  15.368 -0.3105  0.9361  1.1031
12074TIP3    H257638   3.409   2.344  15.460  0.8230  2.0646  0.4834
12075TIP3   OH257639   5.600   0.612  14.761 -0.5495 -0.5679 -0.1313
12075TIP3    H157640   5.556   0.528  14.771  1.8066 -1.6736  2.1304
12075TIP3    H257641   5.604   0.648  14.850 -0.6805  1.5398 -0.9216
12076TIP3   OH257642   1.103   0.388  16.690 -0.0400  0.0877  0.2187
12076TIP3    H157643   1.066   0.323  16.749  0.2744 -1.2118 -0.9695
12076TIP3    H257644   1.116   0.465  16.745 -3.0514  0.1230  1.0167
12077TIP3   OH257645   4.970   0.549  13.406 -0.8320  0.1609  0.6185
12077TIP3    H157646   4.943   0.561  13.315  2.0190  1.1633 -0.1714
12077TIP3    H257647   5.040   0.484  13.402 -1.6975 -0.9721  2.3535
12078TIP3   OH257648   1.252   3.333  12.645  0.4860 -0.2078 -0.4289
12078TIP3    H157649   1.303   3.308  12.722 -0.0256 -1.0080 -0.3460
12078TIP3    H257650   1.307   3.306  12.570  0.3392 -0.7645 -0.3403
12079TIP3   OH257651   5.636   0.917   0.413  0.1130  0.0471  0.3556
12079TIP3    H157652   5.594   1.002   0.430 -1.6871 -0.6519 -0.3272
12079TIP3    H257653   5.572   0.869   0.361  0.4917 -2.2647  1.8889
12080TIP3   OH257654   0.761   3.534  12.080 -0.1415 -0.1302  0.5120
12080TIP3    H157655   0.771   3.626  12.054  1.5591 -0.1983  0.7862
12080TIP3    H257656   0.709   3.495  12.011  0.9831  0.5610 -0.7637
12081TIP3   OH257657   6.485   3.278  16.503 -0.1950 -0.2349 -0.3246
12081TIP3    H157658   6.469   3.239  16.417  0.3067 -0.5242 -0.2939
12081TIP3    H257659   6.436   3.222  16.564  0.0871 -0.5030 -0.3409
12082TIP3   OH257660   2.649   6.537  10.713  0.2577 -0.2939 -0.5324
12082TIP3    H157661   2.560   6.514  10.688  0.4436 -0.2735 -1.2360
12082TIP3    H257662   2.690   6.567  10.632  0.6407  0.5481 -0.0436
12083TIP3   OH257663   0.824   6.519   2.863  0.3092 -0.3315  0.2053
12083TIP3    H157664   0.770   6.593   2.834 -2.9262 -2.1823  0.9921
12083TIP3    H257665   0.846   6.472   2.783  0.7785  0.4390 -0.1270
12084TIP3   OH257666   5.888   2.535  12.633  0.2577 -0.6142 -0.0207
12084TIP3    H157667   5.978   2.553  12.658  0.9789 -1.3670 -1.8821
12084TIP3    H257668   5.855   2.474  12.698  0.7416  0.4125  1.2239
12085TIP3   OH257669   5.734   6.006  16.518 -0.5659  0.3992  0.0470
12085TIP3    H157670   5.751   6.060  16.441 -0.4982 -0.5716 -0.6302
12085TIP3    H257671   5.676   6.059  16.573  1.2049  2.0653  0.4335
12086TIP3   OH257672   5.981   1.361  14.930  0.8221  0.0180 -0.2813
12086TIP3    H157673   5.934   1.388  14.851  1.0089 -1.0082 -0.7600
12086TIP3    H257674   5.929   1.395  15.002 -0.5207 -0.8768 -0.8043
12087TIP3   OH257675   5.196   2.396   3.828 -0.4042  0.2062  0.4055
12087TIP3    H157676   5.158   2.418   3.913 -1.9422  0.2611 -0.2731
12087TIP3    H257677   5.156   2.312   3.804 -2.4113  1.6331 -1.6403
12088TIP3   OH257678   6.130   2.291   6.321  0.4684 -0.7624  0.1524
12088TIP3    H157679   6.218   2.295   6.283  0.3269 -1.2806 -0.2376
12088TIP3    H257680   6.096   2.380   6.311  1.0439 -0.4905  0.5457
12089TIP3   OH257681   4.174   4.165   5.861 -0.2994  0.8947 -0.3382
12089TIP3    H157682   4.248   4.213   5.822  0.7778 -1.2464 -1.0669
12089TIP3    H257683   4.130   4.231   5.916  0.9478  2.7592 -1.4442
12090TIP3   OH257684   4.649   6.613   4.537  0.1607  0.7732  0.2041
12090TIP3    H157685   4.744   6.618   4.527  0.2213  0.6652  0.6987
12090TIP3    H257686   4.627   6.685   4.595 -0.2271  1.5985 -0.9378
12091TIP3   OH257687   1.798   4.844  15.110  0.5121  0.0043  0.1369
12091TIP3    H157688   1.848   4.912  15.065  1.6398  0.3536  1.8188
12091TIP3    H257689   1.740   4.892  15.170 -1.5016 -0.4215 -1.3442
12092TIP3   OH257690   0.651   1.990   3.033  0.2102 -0.2340 -0.3133
12092TIP3    H157691   0.569   2.037   3.043  0.1147  0.3025 -2.8973
12092TIP3    H257692   0.634   1.902   3.066 -0.9900  0.2538  0.3921
12093TIP3   OH257693   4.470   1.367  12.989  0.2281 -0.1992 -0.6755
12093TIP3    H157694   4.524   1.444  12.974  0.8433 -0.5706 -0.4115
12093TIP3    H257695   4.523   1.311  13.046  0.1386 -1.1881 -1.5435
12094TIP3   OH257696   1.050   2.761  13.169  0.2018 -0.1442 -0.1911
12094TIP3    H157697   1.092   2.845  13.187  1.5333 -0.5383 -1.3029
12094TIP3    H257698   1.084   2.735  13.084  0.3681 -2.1483  0.4429
12095TIP3   OH257699   5.293   6.322  15.877  0.2018 -0.3494 -0.0325
12095TIP3    H157700   5.212   6.281  15.846  0.9949 -2.1101  0.1007
12095TIP3    H257701   5.270   6.362  15.960 -0.7792  0.1359 -0.5168
12096TIP3   OH257702   2.272   0.646   2.585  0.2047  0.3609 -0.0634
12096TIP3    H157703   2.349   0.696   2.614  0.3833  0.8588 -1.3056
12096TIP3    H257704   2.198   0.697   2.616  0.3165 -0.6109  1.9769
12097TIP3   OH257705   4.145   0.789  15.342 -0.3974  0.3961  0.3640
12097TIP3    H157706   4.070   0.728  15.342 -1.9998  2.1885  2.7566
12097TIP3    H257707   4.174   0.791  15.433  2.2715  0.2245 -0.4015
12098TIP3   OH257708   3.234   2.556   1.712  0.1212  0.3693  0.0564
12098TIP3    H157709   3.168   2.488   1.725  1.1549 -0.9532 -1.2521
12098TIP3    H257710   3.184   2.633   1.686 -1.1435  0.4134  2.3367
12099TIP3   OH257711   4.947   6.536   3.485 -0.3309 -0.1717 -0.2329
12099TIP3    H157712   4.914   6.525   3.396 -0.8045 -0.5531 -0.0167
12099TIP3    H257713   4.947   6.448   3.522  1.9751 -0.3682 -0.5673
12100TIP3   OH257714   6.209   3.763  14.408 -0.6577  0.0176  0.1478
12100TIP3    H157715   6.286   3.706  14.412  0.7192  1.3727 -3.4254
12100TIP3    H257716   6.144   3.712  14.359  0.0228  0.8252 -1.6811
12101TIP3   OH257717   5.197   4.028   5.275 -0.3842 -0.3992  0.0751
12101TIP3    H157718   5.219   4.112   5.235  0.9419 -2.1355 -3.2927
12101TIP3    H257719   5.103   4.033   5.293 -0.7786  1.1358 -2.0004
12102TIP3   OH257720   1.497   2.497  16.490 -0.4993 -0.2858  0.1088
12102TIP3    H157721   1.546   2.535  16.562  0.9732 -0.8337 -0.5739
12102TIP3    H257722   1.408   2.530  16.502 -0.0439  0.5147  1.5278
12103TIP3   OH257723   5.538   5.739   5.140  0.6149  0.6476 -0.6398
12103TIP3    H157724   5.622   5.743   5.095  0.1195  2.9091 -1.4400
12103TIP3    H257725   5.560   5.744   5.233  1.3757  1.2305 -0.8479
12104TIP3   OH257726   3.432   4.070  15.610  0.5734  0.4575 -0.1794
12104TIP3    H157727   3.448   4.125  15.687 -0.9793  0.5679  0.0906
12104TIP3    H257728   3.352   4.022  15.631  1.2971 -1.1169 -0.8575
12105TIP3   OH257729   6.202   6.128   0.809 -0.3496 -0.2579  0.1154
12105TIP3    H157730   6.292   6.105   0.832  0.8854  2.7727 -1.2442
12105TIP3    H257731   6.188   6.088   0.723 -0.1417 -0.3544  0.1260
12106TIP3   OH257732   1.164   1.568   0.617  0.0244 -0.8888 -0.5735
12106TIP3    H157733   1.084   1.520   0.600 -0.5754 -0.7337  1.4863
12106TIP3    H257734   1.137   1.643   0.671  1.4837 -0.6275 -0.1317
12107TIP3   OH257735   2.259   0.234  12.447  0.0068  0.4071 -0.5202
12107TIP3    H157736   2.347   0.208  12.419  0.0200  0.5807 -0.6368
12107TIP3    H257737   2.272   0.318  12.490  0.1521 -0.3382  0.9717
12108TIP3   OH257738   5.143   3.178  11.042 -0.3554 -0.4344  0.0142
12108TIP3    H157739   5.138   3.176  10.947  0.1144 -1.0662  0.0024
12108TIP3    H257740   5.144   3.086  11.069 -3.9319 -0.3877  0.8381
12109TIP3   OH257741   2.306   2.799   1.413  0.2351 -0.0267  0.0798
12109TIP3    H157742   2.270   2.736   1.351 -0.3121 -0.4774  0.8309
12109TIP3    H257743   2.268   2.773   1.498 -1.1832  2.1903  0.1877
12110TIP3   OH257744   2.612   1.540  16.999  0.5372  0.5476 -0.5975
12110TIP3    H157745   2.583   1.464  16.950  0.6811  0.6305 -0.8129
12110TIP3    H257746   2.535   1.567  17.050  0.5223  0.1897 -0.4334
12111TIP3   OH257747   2.117   3.348  13.389  0.2082 -0.0868  0.6822
12111TIP3    H157748   2.098   3.255  13.400 -1.3361  0.2989  1.4964
12111TIP3    H257749   2.036   3.393  13.413  0.8047  1.4675 -0.0376
12112TIP3   OH257750   1.653   2.415  12.968  0.7972 -0.1699  0.1170
12112TIP3    H157751   1.699   2.333  12.950  0.6650  0.2941 -2.7565
12112TIP3    H257752   1.720   2.474  13.002  2.1317  0.0607 -2.6808
12113TIP3   OH257753   1.785   1.523  12.883  0.4045  0.2219 -0.2630
12113TIP3    H157754   1.789   1.569  12.966 -2.9804  0.5663 -0.1518
12113TIP3    H257755   1.821   1.585  12.819  3.4140 -0.1926  0.8279
12114TIP3   OH257756   0.636   4.082   2.873  0.4486  0.6487 -1.3692
12114TIP3    H157757   0.644   4.139   2.950  0.9269  1.1597 -1.7989
12114TIP3    H257758   0.556   4.031   2.890  0.6811  0.5812 -0.4192
12115TIP3   OH257759   5.999   3.166   6.581 -0.3832 -0.1026 -0.3412
12115TIP3    H157760   6.063   3.103   6.549  0.6485  0.6424  0.1949
12115TIP3    H257761   5.971   3.132   6.666  0.3609  0.2721  0.0629
12116TIP3   OH257762   3.688   1.900  17.210  0.5316 -0.1476  0.1888
12116TIP3    H157763   3.637   1.880  17.132 -0.2955  2.2098  0.0424
12116TIP3    H257764   3.779   1.891  17.182  0.2408 -1.1253 -0.5022
12117TIP3   OH257765   3.553   6.236  15.374  0.2741  0.1135  0.1561
12117TIP3    H157766   3.556   6.195  15.461  0.3600 -0.7802 -0.2564
12117TIP3    H257767   3.643   6.234  15.343  0.4023  1.2818  0.4195
12118TIP3   OH257768   3.226   1.612   0.104 -0.3984  0.2030 -0.1083
12118TIP3    H157769   3.147   1.601   0.050 -0.1962  0.4617 -0.4640
12118TIP3    H257770   3.229   1.706   0.123 -1.1632 -0.0622  1.4372
12119TIP3   OH257771   0.065   4.333  17.103 -0.0886 -0.4742  0.4524
12119TIP3    H157772   0.086   4.415  17.147  3.1550 -1.4929  1.0853
12119TIP3    H257773   0.045   4.272  17.174 -0.6228 -0.6972  0.1163
12120TIP3   OH257774   2.277   3.391   0.039 -0.1367 -0.0976 -0.4129
12120TIP3    H157775   2.279   3.360   0.129  1.4262 -1.2836 -0.8067
12120TIP3    H257776   2.356   3.353  -0.001 -2.1921 -1.9738 -3.0284
12121TIP3   OH257777   3.022   4.191   3.343 -0.4303  0.0619 -0.0710
12121TIP3    H157778   3.030   4.206   3.438  0.1078 -0.2531 -0.0574
12121TIP3    H257779   3.113   4.193   3.311 -0.6712  1.0218 -0.7222
12122TIP3   OH257780   6.073   5.812   5.262 -0.2482  0.0146  0.1117
12122TIP3    H157781   5.983   5.826   5.232 -0.3957 -3.5443 -1.6617
12122TIP3    H257782   6.117   5.773   5.187  2.0815 -0.6276  1.7042
12123TIP3   OH257783   3.123   5.642   3.452 -0.2250 -0.0136 -0.0571
12123TIP3    H157784   3.088   5.676   3.535  0.8502  2.1890 -0.4362
12123TIP3    H257785   3.057   5.579   3.422 -1.6068  0.6408  1.4772
12124TIP3   OH257786   0.401   3.021   5.542  0.0744 -0.0679  0.4631
12124TIP3    H157787   0.448   2.949   5.585  1.6074  0.0256 -0.9465
12124TIP3    H257788   0.441   3.101   5.579 -0.2610  0.0337  0.6050
12125TIP3   OH257789   4.841   3.896  13.310 -0.2189 -0.7199  0.4385
12125TIP3    H157790   4.869   3.836  13.241  0.2016 -0.4498  0.3683
12125TIP3    H257791   4.845   3.982  13.270 -0.6676 -0.6295  0.5884
12126TIP3   OH257792   1.981   1.898  17.132  0.2470 -0.1370 -0.7735
12126TIP3    H157793   1.971   1.964  17.063  0.4927 -0.7539 -1.4016
12126TIP3    H257794   1.916   1.831  17.111 -1.0117  0.5661  0.6731
12127TIP3   OH257795   4.819   5.070  13.784 -0.2830 -0.2109  0.2482
12127TIP3    H157796   4.833   5.161  13.756 -0.2675 -0.6153 -1.1171
12127TIP3    H257797   4.724   5.057  13.773 -0.2457 -0.4355  0.2026
12128TIP3   OH257798   3.560   3.580  11.055  0.4875  0.4109  0.8160
12128TIP3    H157799   3.542   3.560  10.963  0.1140 -0.9981  1.1688
12128TIP3    H257800   3.632   3.642  11.052 -1.0822  2.3280 -0.4911
12129TIP3   OH257801   3.340   3.637  12.655  0.9355 -0.5991 -0.1562
12129TIP3    H157802   3.309   3.564  12.602 -1.1648  0.3522 -0.3335
12129TIP3    H257803   3.387   3.693  12.593 -1.0161  0.2215 -0.9931
12130TIP3   OH257804   6.411   6.678  15.610 -0.0839  0.3721 -0.2257
12130TIP3    H157805   6.327   6.717  15.586 -0.3626  0.9051  1.4916
12130TIP3    H257806   6.393   6.585  15.618  0.2627 -0.0001 -2.9797
12131TIP3   OH257807   3.401   4.436  12.563 -0.2601  0.2129 -0.7335
12131TIP3    H157808   3.408   4.499  12.491  0.7329 -0.4024 -1.2057
12131TIP3    H257809   3.370   4.355  12.521  1.2068 -0.4177 -0.6613
12132TIP3   OH257810   1.205   6.252   0.468  0.1696  0.0244 -0.3294
12132TIP3    H157811   1.122   6.206   0.463 -1.1594  2.3646 -2.7828
12132TIP3    H257812   1.262   6.205   0.406 -0.1613 -0.0883 -0.5494
12133TIP3   OH257813   5.392   2.837   2.039  0.0421  0.3562 -0.1585
12133TIP3    H157814   5.327   2.795   1.982  1.2446  0.8361 -1.9665
12133TIP3    H257815   5.455   2.877   1.978  1.0230  1.4888  1.5213
12134TIP3   OH257816   4.290   1.357  14.713  0.1318 -0.6375 -0.0617
12134TIP3    H157817   4.282   1.262  14.725  1.8335 -0.6333  1.4802
12134TIP3    H257818   4.211   1.381  14.664 -1.1440 -2.5979  0.8820
12135TIP3   OH257819   2.193   6.670   3.073  0.0108  0.2203  0.0496
12135TIP3    H157820   2.115   6.680   3.018  0.5594  1.4859 -0.5409
12135TIP3    H257821   2.159   6.657   3.161 -0.8745 -0.3098 -0.3586
12136TIP3   OH257822   1.363   5.528  14.745  0.2579 -0.5266 -0.7589
12136TIP3    H157823   1.268   5.525  14.752  0.3492  0.1873  2.8720
12136TIP3    H257824   1.389   5.438  14.726 -1.1031 -1.3512  1.0354
12137TIP3   OH257825   3.964   5.851   5.725  0.1851 -0.0695  0.2792
12137TIP3    H157826   3.971   5.847   5.820 -1.4713 -3.0371  0.3749
12137TIP3    H257827   4.035   5.794   5.693  1.9003  2.3041 -0.4373
12138TIP3   OH257828   3.511   0.796  16.482 -0.2160 -0.4905 -0.5102
12138TIP3    H157829   3.489   0.817  16.391 -0.7624 -1.8318 -0.7108
12138TIP3    H257830   3.603   0.822  16.490 -0.3113  0.1563 -1.2688
12139TIP3   OH257831   1.827   6.046   5.905 -0.0487  0.0903 -0.1137
12139TIP3    H157832   1.819   5.963   5.859 -0.7137 -0.4425  0.9293
12139TIP3    H257833   1.875   6.102   5.845  0.3877 -1.0381 -0.8420
12140TIP3   OH257834   0.146   0.375  15.033  0.0873  0.4796 -0.0012
12140TIP3    H157835   0.116   0.464  15.013  0.6594  0.5379 -0.6186
12140TIP3    H257836   0.237   0.385  15.059 -0.1554  0.1922  1.0079
12141TIP3   OH257837   6.533   4.410   4.642  0.3291  0.2080  0.4081
12141TIP3    H157838   6.539   4.365   4.727  2.0525 -1.0957 -0.3564
12141TIP3    H257839   6.601   4.478   4.646  2.0831 -1.3906 -0.7492
12142TIP3   OH257840   4.776   2.572   0.260 -0.5091 -0.4529 -0.0276
12142TIP3    H157841   4.768   2.527   0.176 -2.1341  0.2523 -0.2883
12142TIP3    H257842   4.761   2.503   0.325  0.3796 -0.9274 -0.3012
12143TIP3   OH257843   4.398   3.930   0.222  0.2767  0.0784 -0.4078
12143TIP3    H157844   4.451   3.898   0.148  1.2194  0.3676  0.1198
12143TIP3    H257845   4.318   3.879   0.218 -0.6657  1.5643 -2.9315
12144TIP3   OH257846   0.067   4.167  16.495  0.7362  0.4436 -0.5314
12144TIP3    H157847   0.039   4.099  16.433  0.9203 -0.1663  0.0407
12144TIP3    H257848   0.161   4.154  16.503  0.8458  1.0660 -0.7633
12145TIP3   OH257849   0.200   0.497  16.537 -0.2319  0.1158 -0.0633
12145TIP3    H157850   0.194   0.553  16.615  4.8688  1.5128 -0.3052
12145TIP3    H257851   0.244   0.418  16.567 -1.1289 -0.7663 -0.9939
12146TIP3   OH257852   0.862   2.023   5.203 -0.3455 -0.3356  0.2461
12146TIP3    H157853   0.909   2.103   5.225  1.5271 -0.9713 -1.1331
12146TIP3    H257854   0.857   1.975   5.285  2.6310 -0.7766  0.2811
12147TIP3   OH257855   0.700   4.487   2.275 -0.0677  0.2468 -0.1291
12147TIP3    H157856   0.747   4.527   2.202 -0.5535 -2.0634 -1.8203
12147TIP3    H257857   0.760   4.420   2.308 -1.0544 -0.8450 -0.4911
12148TIP3   OH257858   3.016   2.509  16.224  0.3726  0.4912 -0.3510
12148TIP3    H157859   3.011   2.598  16.259  0.1762  0.2061  0.3745
12148TIP3    H257860   3.061   2.459  16.292 -1.5522 -0.4570  0.2982
12149TIP3   OH257861   1.472   3.132  15.056 -0.6762  0.3399  0.4452
12149TIP3    H157862   1.566   3.119  15.068 -0.6720  0.7598  0.9148
12149TIP3    H257863   1.434   3.044  15.061 -0.1324 -0.0688 -1.6046
12150TIP3   OH257864   0.635   5.358  15.338  0.2275  0.2458 -0.0080
12150TIP3    H157865   0.705   5.295  15.319  0.6782  0.7574 -0.0445
12150TIP3    H257866   0.603   5.331  15.425 -0.0971 -0.4978 -0.3481
12151TIP3   OH257867   3.500   2.454  16.338 -0.5002 -0.6507  0.1689
12151TIP3    H157868   3.585   2.457  16.295  0.1310  1.5651  1.3928
12151TIP3    H257869   3.494   2.366  16.375  1.1272 -0.9355 -0.1841
12152TIP3   OH257870   1.109   2.229   4.997  0.2070  0.3634  0.6922
12152TIP3    H157871   1.162   2.295   4.951  0.2968  0.5403  1.0488
12152TIP3    H257872   1.174   2.172   5.039  0.1311  0.0284  0.3635
12153TIP3   OH257873   2.495   5.179  12.318 -0.0895 -0.2802 -0.3495
12153TIP3    H157874   2.415   5.198  12.366  1.0154  0.7189  1.1973
12153TIP3    H257875   2.476   5.100  12.268 -1.8829 -0.3035  0.3293
12154TIP3   OH257876   3.029   4.969   2.408  0.1826  0.0355  0.2142
12154TIP3    H157877   3.002   4.937   2.494  0.7796  0.9108  0.7446
12154TIP3    H257878   3.096   4.908   2.379  0.9210  0.4763  0.9647
12155TIP3   OH257879   1.525   4.849  11.752  0.4278  0.5932 -0.5411
12155TIP3    H157880   1.568   4.933  11.760  0.9292  0.3229 -0.3718
12155TIP3    H257881   1.592   4.784  11.773  0.1877  0.1236 -1.1626
12156TIP3   OH257882   5.201   2.462   3.555  0.3709 -0.3097 -0.6455
12156TIP3    H157883   5.235   2.419   3.633  0.4718 -0.9497 -1.0336
12156TIP3    H257884   5.278   2.488   3.505  0.3332  1.0337 -0.0587
12157TIP3   OH257885   2.666   5.744  13.865 -0.2738  0.2426 -0.2402
12157TIP3    H157886   2.729   5.699  13.809 -0.1428  0.6621 -0.4340
12157TIP3    H257887   2.661   5.833  13.830  0.7650  0.8911  1.1626
12158TIP3   OH257888   4.069   6.638   1.620  0.2281 -0.1051  0.0196
12158TIP3    H157889   4.163   6.652   1.634 -0.0704  1.6694  0.4837
12158TIP3    H257890   4.027   6.714   1.661 -1.3088  0.0026 -1.6297
12159TIP3   OH257891   3.231   5.996   0.372 -0.0951 -0.2437  0.0548
12159TIP3    H157892   3.197   5.943   0.444  1.7306  0.2928  1.4009
12159TIP3    H257893   3.212   6.086   0.397 -0.4453 -0.0903 -0.7161
12160TIP3   OH257894   5.597   1.867   2.036  0.1862  0.3173 -0.0721
12160TIP3    H157895   5.669   1.803   2.036  0.7558  0.9484 -0.1630
12160TIP3    H257896   5.563   1.866   1.947 -0.0150 -0.0802  0.0044
12161TIP3   OH257897   5.111   2.931  11.189 -0.7430 -0.3253 -1.0770
12161TIP3    H157898   5.024   2.950  11.225  0.1073  2.7236 -0.3726
12161TIP3    H257899   5.156   2.882  11.258 -0.8573  0.9111 -0.0987
12162TIP3   OH257900   1.684   5.437   0.820  0.0887 -0.5052 -0.3129
12162TIP3    H157901   1.726   5.367   0.771  1.9536  1.0326 -1.0733
12162TIP3    H257902   1.667   5.505   0.755 -1.1186  0.0000  0.5008
12163TIP3   OH257903   2.945   1.066  12.151 -0.1352  0.1730  0.2403
12163TIP3    H157904   2.933   0.972  12.138  0.7312  0.0201  0.4666
12163TIP3    H257905   2.857   1.103  12.144 -1.1106 -1.1019  3.7065
12164TIP3   OH257906   1.418   4.249  14.889 -0.0789 -0.1854  0.7727
12164TIP3    H157907   1.423   4.341  14.865 -0.7413 -0.4544 -0.5241
12164TIP3    H257908   1.505   4.228  14.924  0.4959  0.6245 -0.1156
12165TIP3   OH257909   1.271   4.729  11.703 -0.4409  0.3708 -0.1978
12165TIP3    H157910   1.300   4.640  11.682  0.4902  0.9904 -1.7203
12165TIP3    H257911   1.350   4.782  11.699 -1.2538  1.5856 -1.2609
12166TIP3   OH257912   3.525   4.215  13.073  0.0925 -0.0396  0.2164
12166TIP3    H157913   3.577   4.233  13.151 -0.8959 -1.4212  1.2462
12166TIP3    H257914   3.585   4.166  13.015  0.7564  0.7844  0.1890
12167TIP3   OH257915   2.559   4.784  13.721  0.1104  0.4711 -1.2448
12167TIP3    H157916   2.473   4.804  13.760  0.5135  0.2353 -0.1975
12167TIP3    H257917   2.554   4.819  13.632 -1.1119  0.3693 -1.2331
12168TIP3   OH257918   4.750   3.338  16.462 -0.1712 -0.4933  0.2532
12168TIP3    H157919   4.707   3.375  16.385 -2.4726 -1.5493  0.9489
12168TIP3    H257920   4.711   3.252  16.474  0.3462 -0.5068  2.4128
12169TIP3   OH257921   1.320   6.572  16.929  0.5767 -0.5238  0.1747
12169TIP3    H157922   1.230   6.567  16.897  1.0470 -1.2341 -1.1009
12169TIP3    H257923   1.318   6.529  17.014 -0.4238  0.1345  0.5086
12170TIP3   OH257924   4.751   5.613   2.870  0.3453  0.5357  0.1395
12170TIP3    H157925   4.811   5.672   2.915  1.2069 -0.1159 -0.1278
12170TIP3    H257926   4.709   5.563   2.940  0.7817  0.3708  0.2878
12171TIP3   OH257927   5.472   3.108  13.825  0.1895 -0.8719  0.1429
12171TIP3    H157928   5.545   3.168  13.810  0.4920 -0.9638  1.1861
12171TIP3    H257929   5.478   3.044  13.754  1.0971 -0.8537  0.1980
12172TIP3   OH257930   4.204   2.920   4.048  0.0713 -0.4067 -0.3976
12172TIP3    H157931   4.227   3.006   4.082  0.0139  0.1660 -1.7339
12172TIP3    H257932   4.285   2.869   4.055  0.7645  0.4570 -1.6480
12173TIP3   OH257933   0.667   1.885  12.180 -0.2418  0.1924 -0.1010
12173TIP3    H157934   0.760   1.871  12.196 -0.2984  0.8235  0.8546
12173TIP3    H257935   0.627   1.883  12.267 -0.9262  1.2477 -0.3736
12174TIP3   OH257936   2.310   1.372  14.562 -0.9951 -0.1817  0.3291
12174TIP3    H157937   2.304   1.468  14.562  1.0216 -0.0063 -0.5668
12174TIP3    H257938   2.371   1.352  14.633 -1.1566 -0.7872  0.2977
12175TIP3   OH257939   5.830   4.443   5.804 -0.3781  0.1700 -0.2460
12175TIP3    H157940   5.875   4.360   5.816 -2.1347 -1.1024 -1.8486
12175TIP3    H257941   5.797   4.466   5.891  0.2502 -0.7389  0.2402
12176TIP3   OH257942   4.583   3.678   4.659 -0.5388  0.0108  0.4694
12176TIP3    H157943   4.494   3.705   4.637 -0.2331  0.8073  0.1824
12176TIP3    H257944   4.589   3.689   4.754 -0.5740  0.4841  0.4185
12177TIP3   OH257945   5.534   6.247   0.704  0.2190  0.5798 -0.4557
12177TIP3    H157946   5.490   6.163   0.692 -0.9041  1.1519 -0.4357
12177TIP3    H257947   5.464   6.313   0.697  1.0887  1.5216 -0.5725
12178TIP3   OH257948   1.503   6.181  13.017 -0.1914 -0.7607  0.5698
12178TIP3    H157949   1.481   6.129  13.094 -1.4410 -0.1247  0.6737
12178TIP3    H257950   1.418   6.203  12.978  0.3817 -0.2390 -0.4329
12179TIP3   OH257951   4.192   4.566   2.598 -0.3166 -0.4301  0.0574
12179TIP3    H157952   4.161   4.553   2.508 -2.4798  0.3060  0.6326
12179TIP3    H257953   4.117   4.542   2.653 -0.0171  1.7814  1.5532
12180TIP3   OH257954   2.806   0.807  15.688  0.2874  0.0548 -0.1124
12180TIP3    H157955   2.751   0.837  15.760 -0.5197 -0.7225 -0.3895
12180TIP3    H257956   2.810   0.712  15.699  1.6419  0.0992 -0.0609
12181TIP3   OH257957   5.640   1.261   2.599 -0.5535 -0.1617  0.3119
12181TIP3    H157958   5.722   1.236   2.556  1.2222 -0.0168  3.2805
12181TIP3    H257959   5.629   1.353   2.577 -1.6178 -0.8560 -2.4739
12182TIP3   OH257960   1.816   1.422   3.119 -0.1942 -0.3579 -0.0729
12182TIP3    H157961   1.751   1.421   3.049  1.0654 -0.4526 -1.2863
12182TIP3    H257962   1.765   1.434   3.199 -1.8268 -1.6989 -0.8381
12183TIP3   OH257963   5.080   5.023  16.487  0.1915 -0.2777  0.6300
12183TIP3    H157964   5.027   4.957  16.443  2.4721 -2.9408  1.5820
12183TIP3    H257965   5.092   5.092  16.422 -2.3699 -0.7010 -0.3884
12184TIP3   OH257966   4.260   6.073   0.914  0.1714 -0.0881  0.4927
12184TIP3    H157967   4.229   6.042   0.999  2.8043  1.3336  2.1063
12184TIP3    H257968   4.311   6.151   0.934  2.3348 -0.6584 -2.1855
12185TIP3   OH257969   3.620   1.572  16.754 -0.6327 -0.0071 -0.1276
12185TIP3    H157970   3.706   1.606  16.729 -1.6760  1.0785 -2.5467
12185TIP3    H257971   3.612   1.594  16.847  1.4928  0.2570  0.0531
12186TIP3   OH257972   4.075   0.861  16.638 -0.0061 -1.3020 -0.0986
12186TIP3    H157973   4.170   0.861  16.622 -0.0590 -1.0182 -0.4187
12186TIP3    H257974   4.066   0.820  16.724  0.4115 -1.2967 -0.0469
12187TIP3   OH257975   0.222   2.138  12.806  0.0844  0.1018  0.7167
12187TIP3    H157976   0.188   2.227  12.820  0.3042  0.0923  1.3868
12187TIP3    H257977   0.279   2.146  12.730  0.0750  0.5311  0.7505
12188TIP3   OH257978   0.349   2.685   0.643  0.4030  0.5908  0.3709
12188TIP3    H157979   0.304   2.741   0.705 -1.6336  0.3666 -0.8088
12188TIP3    H257980   0.379   2.611   0.695 -1.2643  0.4004  1.1383
12189TIP3   OH257981   3.025   0.359  12.411  0.0317  0.3553 -0.0753
12189TIP3    H157982   2.984   0.313  12.484 -1.2690  1.0644 -0.3255
12189TIP3    H257983   3.112   0.320  12.403 -0.2402 -0.5273  1.1012
12190TIP3   OH257984   1.771   3.077  16.625 -0.0424 -0.0742  0.0884
12190TIP3    H157985   1.718   3.154  16.647 -1.0317 -0.8983  0.6934
12190TIP3    H257986   1.733   3.006  16.677  1.5358 -0.7544  0.3762
12191TIP3   OH257987   5.613   5.245  13.678 -0.7155  0.2436 -0.4183
12191TIP3    H157988   5.615   5.262  13.584  2.2213  0.5549 -0.4181
12191TIP3    H257989   5.706   5.247  13.704 -1.4852  3.7000  3.0909
12192TIP3   OH257990   2.463   3.436   1.573  0.1277 -0.4413  0.5502
12192TIP3    H157991   2.538   3.495   1.576  0.3964 -0.8114  1.7595
12192TIP3    H257992   2.389   3.489   1.601 -0.0116 -0.1734 -0.2892
12193TIP3   OH257993   5.527   0.050  16.007 -0.1456 -0.1400 -0.1347
12193TIP3    H157994   5.520  -0.044  16.025  1.6205 -0.1499  0.6642
12193TIP3    H257995   5.544   0.055  15.913 -1.1347 -0.5488 -0.3498
12194TIP3   OH257996   3.967   5.848   5.994 -0.2201 -0.1461  0.1411
12194TIP3    H157997   3.990   5.801   6.074  0.3362 -0.6401 -0.3009
12194TIP3    H257998   4.019   5.928   5.998 -0.1849 -0.1756  0.2690
12195TIP3   OH257999   0.327   3.816  14.361 -0.0081  0.1475  0.0995
12195TIP3    H158000   0.360   3.900  14.391  0.9862 -0.5580  1.0219
12195TIP3    H258001   0.318   3.763  14.440 -2.1654 -0.1179 -0.2569
12196TIP3   OH258002   4.560   0.804   6.254 -0.2800  0.4637  0.6039
12196TIP3    H158003   4.560   0.867   6.326  0.3890  0.8788  0.2527
12196TIP3    H258004   4.498   0.736   6.282 -1.7157  1.7075  0.5980
12197TIP3   OH258005   2.393   3.840   2.344  0.0031 -0.2692  0.3726
12197TIP3    H158006   2.460   3.784   2.304 -0.3417  0.5117 -1.3821
12197TIP3    H258007   2.377   3.909   2.279 -0.9893  0.7598  1.6526
12198TIP3   OH258008   2.336   6.272   4.224  0.8152 -0.1286  0.3411
12198TIP3    H158009   2.366   6.358   4.251 -2.2114  0.7772  1.1826
12198TIP3    H258010   2.364   6.213   4.294  2.1407  0.2663  0.1782
12199TIP3   OH258011   1.642   6.568  14.176  0.1535  0.6670 -0.1517
12199TIP3    H158012   1.679   6.551  14.089 -0.1984  0.2218 -0.2141
12199TIP3    H258013   1.550   6.544  14.168  0.0589  0.8837  0.2706
12200TIP3   OH258014   3.534   0.777  15.667 -0.3871  0.0113  0.2922
12200TIP3    H158015   3.453   0.729  15.683  0.7235 -1.7173  0.9430
12200TIP3    H258016   3.604   0.714  15.684  1.1274  1.6071  0.3123
12201TIP3   OH258017   1.563   4.518  14.879  0.5071  0.3898 -0.5416
12201TIP3    H158018   1.645   4.560  14.853 -0.5448  2.4012 -0.7855
12201TIP3    H258019   1.565   4.518  14.974 -0.5111  3.3999 -0.4035
12202TIP3   OH258020   2.294   5.979  10.551 -0.1581 -0.1140 -0.5006
12202TIP3    H158021   2.366   6.039  10.535  0.3559 -0.2525  1.1161
12202TIP3    H258022   2.299   5.959  10.645 -2.4765  0.1211 -0.2454
12203TIP3   OH258023   4.567   5.279  15.946  0.5557  0.3768  0.0688
12203TIP3    H158024   4.593   5.349  15.885  0.0133  1.5124  1.1053
12203TIP3    H258025   4.632   5.210  15.932  0.6686  0.7487 -1.5213
12204TIP3   OH258026   3.489   1.472   2.407  0.1129 -0.6903  0.2986
12204TIP3    H158027   3.584   1.464   2.411  0.1359 -0.3202  0.5278
12204TIP3    H258028   3.461   1.403   2.347  0.5514 -0.5924 -0.0202
12205TIP3   OH258029   0.291   1.009  15.083 -0.0457 -0.6505  0.0865
12205TIP3    H158030   0.310   1.103  15.087 -0.2278 -0.5145 -1.4826
12205TIP3    H258031   0.249   0.989  15.166 -0.1905  0.7003  0.3606
12206TIP3   OH258032   2.737   2.368  12.942 -0.4086  0.4140  0.0672
12206TIP3    H158033   2.776   2.295  12.895 -2.0209 -0.4212 -0.0427
12206TIP3    H258034   2.698   2.328  13.020  0.7042  1.5134  1.2334
12207TIP3   OH258035   5.743   6.251   1.057 -0.4498 -0.3505  0.1833
12207TIP3    H158036   5.703   6.337   1.057 -0.9891 -0.5885 -0.5625
12207TIP3    H258037   5.760   6.232   1.149  0.0312  0.7079  0.3147
12208TIP3   OH258038   4.287   6.014   1.200  0.1647 -0.0178  0.1986
12208TIP3    H158039   4.256   5.933   1.242  0.3489 -0.1316  0.1190
12208TIP3    H258040   4.381   6.016   1.220  0.9087 -1.5968 -2.6400
12209TIP3   OH258041   0.383   4.600  16.440 -0.1325  0.0103  0.4132
12209TIP3    H158042   0.476   4.620  16.425 -0.0888 -0.6810 -0.3240
12209TIP3    H258043   0.336   4.675  16.404  0.1044 -0.1899 -0.3392
12210TIP3   OH258044   2.977   5.758  14.834  0.2554  0.2420  0.3083
12210TIP3    H158045   2.939   5.691  14.777  1.0344 -0.7273  0.8824
12210TIP3    H258046   2.915   5.767  14.906  0.5390 -0.4978  0.6571
12211TIP3   OH258047   6.125   4.452   3.794  0.1698  0.0779  0.1885
12211TIP3    H158048   6.059   4.456   3.725 -0.2521  0.6655  0.6083
12211TIP3    H258049   6.100   4.377   3.847  0.2126 -0.0865 -0.0262
12212TIP3   OH258050   3.712   1.273  12.404 -0.2924  0.1940  0.0309
12212TIP3    H158051   3.689   1.193  12.358  0.2527 -0.7050  1.2549
12212TIP3    H258052   3.629   1.307  12.437 -0.6836  0.8316 -1.5125
12213TIP3   OH258053   2.153   1.926  16.433  0.3017  0.5373 -0.1363
12213TIP3    H158054   2.077   1.969  16.395  1.1219  0.9923 -1.3192
12213TIP3    H258055   2.151   1.837  16.398  1.1773  1.0188 -1.4943
12214TIP3   OH258056   5.012   6.778  16.622 -0.0910  0.0469 -0.3672
12214TIP3    H158057   5.009   6.844  16.691 -0.8008  0.8706 -1.1474
12214TIP3    H258058   5.105   6.764  16.605  0.1194 -0.7639  1.2782
12215TIP3   OH258059   3.487   3.306   3.307  0.3766 -0.7396 -0.1104
12215TIP3    H158060   3.413   3.249   3.286 -0.1917  0.0039 -0.1780
12215TIP3    H258061   3.521   3.271   3.389 -1.5420  0.2938  1.2157
12216TIP3   OH258062   2.500   2.462   1.976  0.2002 -0.3719 -0.0717
12216TIP3    H158063   2.541   2.515   1.907  1.5047  0.8820  1.5717
12216TIP3    H258064   2.448   2.525   2.026 -1.1145 -1.3487 -0.1673
12217TIP3   OH258065   3.649   4.091   6.165 -0.3160  0.5785 -0.3332
12217TIP3    H158066   3.711   4.150   6.122  0.0976  0.5877  0.2585
12217TIP3    H258067   3.692   4.068   6.247 -1.3206  1.0226  0.3389
12218TIP3   OH258068   0.855   4.886   3.506 -0.8838  0.2695 -0.0923
12218TIP3    H158069   0.882   4.935   3.429  0.2948  0.4199  0.4027
12218TIP3    H258070   0.779   4.935   3.540 -0.3314  1.2032 -0.1614
12219TIP3   OH258071   5.585   6.159  11.374 -0.0932 -0.2260 -0.1567
12219TIP3    H158072   5.655   6.184  11.314  0.6061  0.5235  0.9174
12219TIP3    H258073   5.581   6.064  11.368  2.6941 -0.5647  1.4698
12220TIP3   OH258074   4.552   6.722   2.367  0.4689 -0.0242  0.1552
12220TIP3    H158075   4.579   6.758   2.283 -0.1848  0.4243  0.1267
12220TIP3    H258076   4.529   6.631   2.348  0.8066 -0.0676 -0.0493
12221TIP3   OH258077   5.466   3.365   4.390 -0.1587  0.1691 -0.4562
12221TIP3    H158078   5.544   3.396   4.435  0.3994 -0.6892 -0.7973
12221TIP3    H258079   5.474   3.270   4.390 -0.2333  0.1150 -2.1589
12222TIP3   OH258080   2.141   0.987  15.376  0.4165  0.2720  0.4554
12222TIP3    H158081   2.132   0.894  15.398  2.4425  0.3376  1.7652
12222TIP3    H258082   2.103   1.033  15.450  1.7720  0.4683  1.0535
12223TIP3   OH258083   0.791   4.395  11.235  1.1468 -0.2829 -0.5067
12223TIP3    H158084   0.855   4.442  11.182  0.5866  0.0374 -0.9131
12223TIP3    H258085   0.744   4.340  11.173  1.4167 -0.9628 -0.1190
12224TIP3   OH258086   1.540   0.457   0.404 -0.3946  0.1813 -0.1385
12224TIP3    H158087   1.545   0.496   0.317  0.3925 -1.5924 -0.9330
12224TIP3    H258088   1.565   0.528   0.464 -0.0799  1.1860 -1.4227
12225TIP3   OH258089   3.349   6.288   0.171  0.4397  0.4710  0.2256
12225TIP3    H158090   3.424   6.244   0.131 -0.2721 -0.5013 -0.0565
12225TIP3    H258091   3.293   6.311   0.096  0.6785  1.6437  0.3873
12226TIP3   OH258092   1.921   0.796  15.239 -0.1403  0.3707 -0.3952
12226TIP3    H158093   1.904   0.832  15.326 -1.1625 -0.6052 -0.1623
12226TIP3    H258094   2.015   0.801  15.228  0.3826 -2.0196  1.9466
12227TIP3   OH258095   2.436   1.048   5.845 -0.3102  0.2258 -0.3782
12227TIP3    H158096   2.473   1.083   5.764  0.2826  3.4682  1.1430
12227TIP3    H258097   2.365   1.108   5.867 -1.3467 -1.3764  0.8652
12228TIP3   OH258098   6.286   1.813  14.231 -0.0823  0.2798 -0.5217
12228TIP3    H158099   6.363   1.792  14.283 -0.6595 -1.5974 -0.3554
12228TIP3    H258100   6.311   1.791  14.141 -0.1843  0.3436 -0.5659
12229TIP3   OH258101   6.042   6.512   2.534 -0.7143  0.3036 -0.4388
12229TIP3    H158102   5.981   6.502   2.461 -1.4004 -0.2602  0.1856
12229TIP3    H258103   6.041   6.605   2.554  0.8879  0.7741 -2.3035
12230TIP3   OH258104   5.183   4.926  13.111 -0.1610  0.1589 -0.4638
12230TIP3    H158105   5.249   4.983  13.152  0.4089 -1.5369  1.0927
12230TIP3    H258106   5.101   4.950  13.153  0.0677 -0.1155  0.1473
12231TIP3   OH258107   5.405   5.508  15.903 -0.1595 -0.2243 -0.3713
12231TIP3    H158108   5.430   5.429  15.856 -0.6125 -0.9851  0.6376
12231TIP3    H258109   5.330   5.482  15.957  1.3178  0.1394  2.0238
12232TIP3   OH258110   2.822   4.460   1.425  0.2323  0.2678  0.0373
12232TIP3    H158111   2.847   4.535   1.478 -1.6153  0.9296  0.0473
12232TIP3    H258112   2.749   4.420   1.472 -1.7636  1.1219 -2.1012
12233TIP3   OH258113   3.743   1.955  16.165 -0.3535 -0.3560  0.0168
12233TIP3    H158114   3.699   1.929  16.246 -1.6957 -0.5397 -0.7334
12233TIP3    H258115   3.743   2.051  16.167  0.4911 -0.3700  0.6825
12234TIP3   OH258116   4.435   0.045  15.920 -1.4422 -0.4768  0.1634
12234TIP3    H158117   4.475   0.130  15.902 -2.3386 -0.2896 -1.0399
12234TIP3    H258118   4.385   0.025  15.842 -1.4233 -2.0253  0.5208
12235TIP3   OH258119   4.401   4.958   4.279 -0.2064 -0.7918  0.3331
12235TIP3    H158120   4.345   4.881   4.283 -1.4318  0.1019  0.9038
12235TIP3    H258121   4.354   5.025   4.328  1.1465  0.1359  0.4239
12236TIP3   OH258122   0.252   1.075   3.415  1.2690  0.0880  0.2369
12236TIP3    H158123   0.199   1.151   3.393  0.6443 -0.0376  1.2198
12236TIP3    H258124   0.311   1.064   3.341  0.1457  0.4352 -0.7499
12237TIP3   OH258125   1.700   2.109  11.740 -0.2323 -0.0011 -0.4878
12237TIP3    H158126   1.611   2.141  11.752  0.0867  0.2170  1.8108
12237TIP3    H258127   1.756   2.185  11.753  0.3375 -0.3992 -0.5384
12238TIP3   OH258128   2.094   6.026  13.218 -0.3342  0.0238 -0.0494
12238TIP3    H158129   2.012   6.053  13.176 -0.3732  0.3701  0.2473
12238TIP3    H258130   2.153   6.007  13.146 -0.9593 -1.1272 -0.2836
12239TIP3   OH258131   2.276   0.029  14.313 -0.0159 -0.1797 -0.5792
12239TIP3    H158132   2.341   0.096  14.292  0.8071 -1.6393 -3.2317
12239TIP3    H258133   2.263  -0.018  14.230  0.4078 -4.1294  1.3368
12240TIP3   OH258134   5.743   6.666  16.793  0.2593 -0.1174 -0.4395
12240TIP3    H158135   5.822   6.671  16.740 -0.5652 -0.2283 -1.7271
12240TIP3    H258136   5.747   6.580  16.835 -0.1984 -1.0458 -2.2059
12241TIP3   OH258137   2.945   6.597   3.779 -0.8405  0.6826 -0.1525
12241TIP3    H158138   3.001   6.659   3.731 -1.4761  1.4711  0.1038
12241TIP3    H258139   2.881   6.652   3.823 -0.2555 -0.0190  1.6597
12242TIP3   OH258140   0.248   5.405   6.259  0.2755  0.3902 -0.1025
12242TIP3    H158141   0.251   5.383   6.166 -0.4843 -1.6227  0.3058
12242TIP3    H258142   0.340   5.403   6.287  0.4199  0.0500 -0.5943
12243TIP3   OH258143   5.626   2.257   0.212 -0.1418  0.0790  0.4751
12243TIP3    H158144   5.705   2.285   0.259 -0.5251 -0.0244  1.1906
12243TIP3    H258145   5.578   2.338   0.195 -0.2729  0.0594  0.7546
12244TIP3   OH258146   3.673   4.088   1.066 -0.1455 -0.1083  0.1474
12244TIP3    H158147   3.613   4.163   1.056  1.2990  1.1096  0.2436
12244TIP3    H258148   3.712   4.100   1.152  0.5370 -0.6484 -0.0826
12245TIP3   OH258149   6.214   5.135   5.863  0.7694  0.1969 -0.4366
12245TIP3    H158150   6.274   5.074   5.819 -0.7263 -1.2388 -0.6036
12245TIP3    H258151   6.234   5.126   5.956  2.2848  1.4077 -0.6134
12246TIP3   OH258152   5.179   5.589   1.215 -0.1034  0.0646  0.4583
12246TIP3    H158153   5.103   5.531   1.223 -0.2761  0.2743  0.3552
12246TIP3    H258154   5.244   5.537   1.167 -0.1018 -0.1919  0.7382
12247TIP3   OH258155   1.238   2.281  12.671  0.2734  0.1560 -1.1618
12247TIP3    H158156   1.182   2.312  12.600 -0.4202  1.0796 -0.2386
12247TIP3    H258157   1.209   2.192  12.688 -0.9688  0.6315 -0.6762
12248TIP3   OH258158   6.589   1.522  11.860  0.6196 -0.0557 -0.5026
12248TIP3    H158159   6.588   1.430  11.888  0.4762  0.1757  0.2705
12248TIP3    H258160   6.680   1.550  11.873  1.2894 -0.7573 -3.0539
12249TIP3   OH258161   3.000   5.251   1.676 -0.2768  0.0950  0.2505
12249TIP3    H158162   3.024   5.179   1.734  0.3753 -0.1810 -0.3397
12249TIP3    H258163   2.928   5.216   1.624 -0.4728  0.1366  0.4956
12250TIP3   OH258164   5.640   3.259  11.914  0.1383  0.0419  0.3445
12250TIP3    H158165   5.549   3.281  11.894  0.4210  2.0191  0.9487
12250TIP3    H258166   5.690   3.336  11.885  1.5387 -0.7037  0.6756
12251TIP3   OH258167   1.634   0.013  15.682  0.2032 -0.8150  0.3780
12251TIP3    H158168   1.642   0.108  15.678  0.1035 -0.8634 -2.1543
12251TIP3    H258169   1.724  -0.019  15.677  0.1216 -0.8545 -1.7188
12252TIP3   OH258170   1.431   2.048  14.463 -0.1437 -0.7646 -0.4650
12252TIP3    H158171   1.340   2.072  14.479 -0.1727 -1.1079 -0.1085
12252TIP3    H258172   1.438   2.044  14.368 -0.5864 -1.0573 -0.4873
12253TIP3   OH258173   6.221   5.661   5.060 -0.5496  0.2653 -0.0010
12253TIP3    H158174   6.315   5.668   5.042 -0.4149  1.4882  0.9957
12253TIP3    H258175   6.178   5.680   4.977  0.0385 -2.9233 -1.1895
12254TIP3   OH258176   5.609   4.634   4.187  0.0215 -0.4460 -0.2175
12254TIP3    H158177   5.623   4.565   4.253  1.6756 -1.3238 -1.3830
12254TIP3    H258178   5.698   4.658   4.160 -0.5541  1.7053 -0.3362
12255TIP3   OH258179   4.982   4.977   1.639  0.1571 -0.4876 -0.3498
12255TIP3    H158180   4.909   5.038   1.645 -0.2784 -0.9073 -1.1734
12255TIP3    H258181   5.031   4.990   1.720  1.5219  2.7488 -1.5396
12256TIP3   OH258182   5.241   2.742   3.907 -0.5730 -0.5389 -0.4223
12256TIP3    H158183   5.242   2.651   3.876  0.3176 -0.2612 -1.2494
12256TIP3    H258184   5.208   2.792   3.833 -0.7245 -0.1472 -0.0898
12257TIP3   OH258185   1.925   5.964  15.451  0.0147 -0.1320 -0.3639
12257TIP3    H158186   1.844   5.947  15.499 -0.5620  1.7811 -0.5951
12257TIP3    H258187   1.957   5.877  15.427 -0.4983 -1.0796  2.0940
12258TIP3   OH258188   0.179   2.515   3.435 -0.4064 -0.2381 -0.1515
12258TIP3    H158189   0.116   2.542   3.370 -1.6917  1.3617  1.6529
12258TIP3    H258190   0.262   2.554   3.407 -0.2682 -1.7970 -2.1689
12259TIP3   OH258191   3.149   1.756   2.140  0.5691  0.5157 -0.0246
12259TIP3    H158192   3.218   1.711   2.189  1.6680  1.0126 -1.0564
12259TIP3    H258193   3.068   1.714   2.168  1.4612 -1.5614 -0.3440
12260TIP3   OH258194   6.173   2.996  15.149 -0.4397 -0.7488  0.4433
12260TIP3    H158195   6.228   2.946  15.210  0.1173 -1.9533 -0.9791
12260TIP3    H258196   6.219   3.079  15.139  0.8408 -1.5141 -0.2686
12261TIP3   OH258197   4.806   1.561   5.775  0.2293 -0.2035  1.1802
12261TIP3    H158198   4.716   1.579   5.749  0.8447  1.8067  0.2933
12261TIP3    H258199   4.815   1.599   5.862  1.0811  2.6602 -0.0560
12262TIP3   OH258200   5.233   5.881   5.396  0.0982  0.1954 -0.3899
12262TIP3    H158201   5.175   5.823   5.349 -0.2101  0.9647 -0.9842
12262TIP3    H258202   5.283   5.927   5.328  0.5891  0.3629  0.0715
12263TIP3   OH258203   6.570   3.435   4.465 -0.1616  0.1737 -0.3326
12263TIP3    H158204   6.579   3.465   4.375  2.4950  1.4504  0.2783
12263TIP3    H258205   6.557   3.514   4.516 -4.2072 -0.6840  0.2897
12264TIP3   OH258206   6.026   0.407  13.832 -0.0892  0.1338 -0.2239
12264TIP3    H158207   6.071   0.341  13.780 -0.9421 -1.4155  0.9058
12264TIP3    H258208   6.092   0.438  13.894 -0.1916 -1.1595  0.5598
12265TIP3   OH258209   6.637   4.227   5.148 -0.3806  0.0803  0.5300
12265TIP3    H158210   6.633   4.297   5.212 -3.0286  0.2284  0.3160
12265TIP3    H258211   6.586   4.155   5.187 -1.3613 -0.1182 -1.0135
12266TIP3   OH258212   2.043   3.512  16.195  1.0707 -0.2047  0.1608
12266TIP3    H158213   2.097   3.478  16.267  1.7750  1.8312  0.6695
12266TIP3    H258214   2.105   3.554  16.136  0.1531  1.5395  0.3713
12267TIP3   OH258215   5.764   4.703  14.079  0.1596  0.0253  0.1376
12267TIP3    H158216   5.796   4.646  14.149  0.3349 -1.8323 -1.4012
12267TIP3    H258217   5.799   4.665  13.998 -2.3605  0.4346 -1.2398
12268TIP3   OH258218   2.033   1.407   2.638  0.0258  0.3497 -0.1906
12268TIP3    H158219   1.941   1.414   2.613  0.2664  1.2371 -0.8460
12268TIP3    H258220   2.073   1.355   2.568  0.0180 -0.1043  0.1347
12269TIP3   OH258221   4.624   2.692  13.676 -0.1164  0.5385  0.4064
12269TIP3    H158222   4.696   2.751  13.700 -0.1231  1.1424 -0.9333
12269TIP3    H258223   4.545   2.737  13.707  0.0288  0.1986  1.2817
12270TIP3   OH258224   1.251   6.361  17.215 -0.0902 -0.1682 -0.5434
12270TIP3    H158225   1.335   6.406  17.208  0.1139 -0.6648 -1.5304
12270TIP3    H258226   1.241   6.342  17.308  0.8701 -0.0654 -0.4109
12271TIP3   OH258227   1.171   2.059  14.113 -0.1334  0.5485 -0.7317
12271TIP3    H158228   1.216   2.011  14.183 -1.2164  0.6090  0.0350
12271TIP3    H258229   1.240   2.106  14.067  0.5593  0.8900  0.6120
12272TIP3   OH258230   3.121   3.338  15.329  0.2857  0.5873  0.1814
12272TIP3    H158231   3.088   3.415  15.283 -2.1004 -0.4771 -0.0321
12272TIP3    H258232   3.100   3.265  15.271  1.7134 -0.3478  0.7774
12273TIP3   OH258233   2.505   1.127  12.598 -0.0638  0.1206  0.2622
12273TIP3    H158234   2.473   1.090  12.515  0.5069 -1.4373  0.7003
12273TIP3    H258235   2.544   1.211  12.573 -0.1114 -0.2155 -1.0074
12274TIP3   OH258236   0.170   5.438  11.832 -0.6618  0.9598  0.0438
12274TIP3    H158237   0.179   5.488  11.914  0.3973  1.7133 -0.4990
12274TIP3    H258238   0.233   5.366  11.841 -2.7605 -0.8352  1.1651
12275TIP3   OH258239   3.629   0.183  13.388  0.3041  0.1224 -0.0732
12275TIP3    H158240   3.587   0.147  13.466 -0.2041  0.4845 -0.1750
12275TIP3    H258241   3.582   0.144  13.314  0.1178  0.5539 -0.1870
12276TIP3   OH258242   0.238   5.918  12.011  0.6768  0.0833 -0.0031
12276TIP3    H158243   0.233   6.013  12.000  0.9036  0.0493 -0.4084
12276TIP3    H258244   0.183   5.882  11.942  1.3193 -0.1013 -0.4281
12277TIP3   OH258245   5.255   3.833   1.338 -0.0332 -0.0089  0.1949
12277TIP3    H158246   5.202   3.759   1.307  1.8149 -0.9131 -1.0027
12277TIP3    H258247   5.244   3.833   1.433 -0.9376 -1.1351  0.1082
12278TIP3   OH258248   5.582   0.683   0.574  0.4131 -0.1461 -0.0834
12278TIP3    H158249   5.606   0.739   0.648  2.2047 -0.9064 -0.0525
12278TIP3    H258250   5.612   0.731   0.497 -0.4736  0.1378 -0.2706
12279TIP3   OH258251   4.087   4.770   3.466 -0.4785 -0.1800 -0.4175
12279TIP3    H158252   4.101   4.685   3.424  1.2468 -0.1116 -0.0666
12279TIP3    H258253   4.120   4.758   3.555  1.3503  1.2874 -0.8335
12280TIP3   OH258254   0.640   6.151   1.566  0.4179  0.2684 -0.7119
12280TIP3    H158255   0.553   6.176   1.534  0.9416  1.9574 -0.9116
12280TIP3    H258256   0.623   6.083   1.631 -1.0984  1.0293 -0.2721
12281TIP3   OH258257   1.420   5.345   2.594 -0.0276 -0.6966  0.1977
12281TIP3    H158258   1.331   5.314   2.613 -0.1917  0.3986  1.3283
12281TIP3    H258259   1.477   5.280   2.634 -0.3119 -1.1895 -0.1808
12282TIP3   OH258260   3.408   2.076  13.570  0.2052  0.1796 -0.3246
12282TIP3    H158261   3.458   2.030  13.503  0.0851  0.0012 -0.2903
12282TIP3    H258262   3.450   2.163  13.575 -1.6463  1.3437 -2.8132
12283TIP3   OH258263   2.929   4.062   1.156 -0.2575 -0.4775 -0.6148
12283TIP3    H158264   2.858   4.026   1.102 -0.6992  0.3327 -0.5773
12283TIP3    H258265   3.003   4.004   1.138 -1.2399 -2.0841  0.2920
12284TIP3   OH258266   0.894   4.563   3.152 -0.0041  0.4459  0.0175
12284TIP3    H158267   0.864   4.492   3.207  0.5569 -0.2885 -0.5956
12284TIP3    H258268   0.950   4.616   3.209  0.7784 -0.4480  0.0970
12285TIP3   OH258269   3.608   1.400   6.154  0.1334 -0.7068  0.4335
12285TIP3    H158270   3.567   1.449   6.226 -0.9739 -0.5966 -0.2436
12285TIP3    H258271   3.580   1.310   6.168 -1.9503 -0.3652 -1.0410
12286TIP3   OH258272   2.589   2.060  12.992  0.0527  0.3178  0.3411
12286TIP3    H158273   2.522   1.996  13.016  0.1111 -0.2137 -0.8389
12286TIP3    H258274   2.540   2.137  12.963 -0.0310  0.3798  0.6469
12287TIP3   OH258275   2.922   2.434   4.744  0.0453  0.2005  0.0841
12287TIP3    H158276   2.984   2.480   4.800  1.7459 -0.2280 -1.3549
12287TIP3    H258277   2.968   2.355   4.716 -1.3706 -0.4307 -0.5731
12288TIP3   OH258278   3.165   4.061   1.458  0.1809  0.4726 -0.6050
12288TIP3    H158279   3.089   4.115   1.477  0.5464  0.2102  1.9583
12288TIP3    H258280   3.142   3.974   1.490  2.1961  0.8228  2.1989
12289TIP3   OH258281   6.242   4.824   1.911 -0.3294  0.0802 -0.0648
12289TIP3    H158282   6.232   4.758   1.842  2.2806 -0.7125  0.1703
12289TIP3    H258283   6.284   4.898   1.867  0.9873 -0.2762  0.5411
12290TIP3   OH258284   1.762   0.829   1.342  0.7657  0.1730  0.3015
12290TIP3    H158285   1.710   0.877   1.277 -1.4380  0.6075  2.2364
12290TIP3    H258286   1.702   0.762   1.376  1.9303 -0.2136  1.6869
12291TIP3   OH258287   1.296   0.961   2.120  0.0907 -1.0062  0.2915
12291TIP3    H158288   1.339   1.041   2.091 -0.7728 -0.3121  0.8850
12291TIP3    H258289   1.361   0.892   2.105  1.4482  0.0096  1.2488
12292TIP3   OH258290   4.453   0.728  13.399  0.2638 -0.0333 -0.4064
12292TIP3    H158291   4.535   0.682  13.384  0.1521 -0.3087 -0.1836
12292TIP3    H258292   4.395   0.662  13.436 -0.3904 -0.1176 -1.5405
12293TIP3   OH258293   0.121   1.413  14.147  0.1435  0.4969  0.4145
12293TIP3    H158294   0.048   1.358  14.176  1.6453 -0.6965  2.1375
12293TIP3    H258295   0.083   1.500  14.138 -2.3599 -0.6797 -2.5107
12294TIP3   OH258296   6.394   3.153  16.958  0.4552 -0.1228  0.4645
12294TIP3    H158297   6.382   3.142  17.053  0.9547 -1.5728  0.3836
12294TIP3    H258298   6.477   3.111  16.939 -1.1266 -2.8080 -1.0778
12295TIP3   OH258299   1.554   5.146   3.716  0.2701 -0.4562  0.5487
12295TIP3    H158300   1.605   5.204   3.772  0.7693  0.0634 -0.4325
12295TIP3    H258301   1.509   5.204   3.655  1.6025 -1.1127 -1.1409
12296TIP3   OH258302   6.406   1.091  16.005  0.1533 -0.0270 -0.2374
12296TIP3    H158303   6.403   1.182  16.032 -0.9846  0.0768 -0.6884
12296TIP3    H258304   6.369   1.090  15.917  0.3389 -0.8935 -0.3213
12297TIP3   OH258305   1.433   5.416   0.559  0.2251 -0.1249 -0.4999
12297TIP3    H158306   1.380   5.492   0.587  1.1185  0.5483 -0.5871
12297TIP3    H258307   1.369   5.349   0.537 -0.6787  1.2658 -2.3637
12298TIP3   OH258308   5.279   6.192  11.995  0.2902  0.0190 -0.5446
12298TIP3    H158309   5.306   6.283  11.982 -0.2473  0.3399  0.4630
12298TIP3    H258310   5.287   6.179  12.090  0.7249 -1.1008 -0.7253
12299TIP3   OH258311   3.485   4.810   0.311 -0.1616 -0.3019  0.0767
12299TIP3    H158312   3.549   4.753   0.269 -0.5265 -0.8064  0.2036
12299TIP3    H258313   3.499   4.895   0.270  2.6011  0.3886  2.0786
12300TIP3   OH258314   3.364   2.607  15.087 -0.2753  0.0794 -0.0153
12300TIP3    H158315   3.397   2.523  15.118  0.9021  0.3300 -0.5446
12300TIP3    H258316   3.413   2.673  15.137  1.3045  0.4831 -1.9472
12301TIP3   OH258317   5.883   4.647   5.640 -1.0895  0.0650  0.2591
12301TIP3    H158318   5.834   4.570   5.670 -0.2334 -0.3606  0.6081
12301TIP3    H258319   5.972   4.633   5.674 -1.1941  1.8084  1.3946
12302TIP3   OH258320   2.772   1.185   4.836  0.1323 -0.2925 -0.2668
12302TIP3    H158321   2.855   1.144   4.859 -0.2806 -2.0069 -1.5915
12302TIP3    H258322   2.772   1.186   4.740 -0.2255  2.2000 -0.3029
12303TIP3   OH258323   6.009   5.893  14.445  0.0148 -0.4374 -0.6413
12303TIP3    H158324   6.088   5.930  14.484  1.1626 -1.5433 -1.7955
12303TIP3    H258325   5.954   5.868  14.519 -0.2958  2.4005  0.1775
12304TIP3   OH258326   3.991   3.471   4.098  0.3080 -0.2282 -0.0153
12304TIP3    H158327   3.941   3.396   4.066 -1.7601  0.7477  0.7024
12304TIP3    H258328   3.952   3.546   4.054  1.7732  0.5148 -0.0838
12305TIP3   OH258329   2.547   1.780   4.954  0.0632  0.0081 -0.2181
12305TIP3    H158330   2.521   1.811   4.867  0.4787  0.2822 -0.2481
12305TIP3    H258331   2.634   1.741   4.941  0.5822  0.9650  0.2518
12306TIP3   OH258332   6.579   0.247   1.758 -0.1414 -0.2413  0.6587
12306TIP3    H158333   6.673   0.253   1.743 -0.2058  1.9559  0.8571
12306TIP3    H258334   6.551   0.176   1.701  1.1534  1.2461 -2.0168
12307TIP3   OH258335   0.859   6.759   2.609  0.0729 -0.8366 -0.4348
12307TIP3    H158336   0.855   6.664   2.597  0.7120 -0.8738 -0.3526
12307TIP3    H258337   0.902   6.792   2.530  0.4108 -0.6737 -0.1849
12308TIP3   OH258338   3.646   6.029  11.067 -0.1428  0.0757  0.5835
12308TIP3    H158339   3.695   5.992  10.993  0.4625 -1.3661  1.6430
12308TIP3    H258340   3.696   6.107  11.093 -0.9587  1.2299 -1.1652
12309TIP3   OH258341   0.024   0.482   1.273  0.6579 -0.2290  0.3191
12309TIP3    H158342  -0.019   0.524   1.348  2.2003 -1.5248  2.0365
12309TIP3    H258343   0.041   0.392   1.303  1.5543 -0.7095 -1.5078
12310TIP3   OH258344   0.116   2.028  15.546  0.3632 -0.1026  0.4680
12310TIP3    H158345   0.154   1.969  15.611  0.3479  1.0619  1.5891
12310TIP3    H258346   0.165   2.110  15.556  1.1686 -0.2308 -1.8447
12311TIP3   OH258347   5.814   5.607  17.153 -0.8120 -0.4829 -0.3268
12311TIP3    H158348   5.775   5.596  17.240  1.9857 -0.9587  0.9779
12311TIP3    H258349   5.838   5.699  17.149 -0.6073 -0.5396 -0.4235
12312TIP3   OH258350   6.209   0.090   4.726 -0.1349  0.5759  0.5250
12312TIP3    H158351   6.264   0.158   4.764  1.8892  0.7387 -2.3614
12312TIP3    H258352   6.204   0.112   4.633 -1.7424 -1.7151 -0.0164
12313TIP3   OH258353   5.364   5.388  12.069 -0.5954  0.7189  0.0521
12313TIP3    H158354   5.347   5.461  12.129  0.3379 -0.2057  1.4945
12313TIP3    H258355   5.298   5.323  12.092 -0.0969  0.2725  0.2352
12314TIP3   OH258356   0.144   4.993  15.245 -0.3000 -0.4061  0.2595
12314TIP3    H158357   0.081   4.924  15.265  0.2963 -0.2317  3.2428
12314TIP3    H258358   0.091   5.070  15.226 -0.9573 -1.1396 -0.9407
12315TIP3   OH258359   5.422   5.740   0.687 -0.8525  0.3460 -0.6984
12315TIP3    H158360   5.404   5.820   0.736 -0.0404  0.7282 -0.9915
12315TIP3    H258361   5.423   5.769   0.595 -0.1163  0.0971 -0.7735
12316TIP3   OH258362   2.250   0.382   2.939  0.3084 -0.3075  0.0231
12316TIP3    H158363   2.215   0.354   3.024 -0.3124 -0.7086 -0.3597
12316TIP3    H258364   2.318   0.445   2.961 -1.0647  0.9601  0.7755
12317TIP3   OH258365   5.621   2.375  11.996  0.2626 -0.8129  0.2816
12317TIP3    H158366   5.670   2.442  11.949 -0.9487 -0.7840 -0.9900
12317TIP3    H258367   5.638   2.294  11.948 -0.2421 -0.9596  0.3434
12318TIP3   OH258368   4.451   2.924   3.570 -0.2116 -0.1188 -0.4502
12318TIP3    H158369   4.394   2.995   3.599  0.7202  0.2687  0.5105
12318TIP3    H258370   4.414   2.846   3.611 -0.1545  0.1056  0.0411
12319TIP3   OH258371   5.393   6.066   4.032 -0.2833 -0.2785 -0.1362
12319TIP3    H158372   5.391   6.041   4.124 -1.0418 -2.3501 -0.6696
12319TIP3    H258373   5.307   6.042   3.998  0.1008  0.1208 -1.4778
12320TIP3   OH258374   4.458   4.454   5.416 -0.2249  0.0806  0.0643
12320TIP3    H158375   4.492   4.410   5.338  2.6983 -0.6003  1.5993
12320TIP3    H258376   4.440   4.383   5.477 -1.8283  0.6580  0.3101
12321TIP3   OH258377   5.518   3.389   0.702  0.0831 -0.5314  0.7308
12321TIP3    H158378   5.511   3.325   0.631 -0.6501 -1.3057  1.4851
12321TIP3    H258379   5.514   3.337   0.782  3.0564  0.0911  1.4185
12322TIP3   OH258380   3.252   1.809   5.475 -0.5764 -0.7567 -0.2559
12322TIP3    H158381   3.228   1.863   5.550  3.1908  1.0097 -0.0833
12322TIP3    H258382   3.336   1.769   5.499 -1.5559 -4.0903 -1.7436
12323TIP3   OH258383   0.677   0.093  17.090  0.6127 -0.0498  0.6688
12323TIP3    H158384   0.705   0.178  17.124  0.4059 -0.4326  1.8368
12323TIP3    H258385   0.746   0.032  17.116  0.2257 -0.4310  0.8227
12324TIP3   OH258386   6.541   3.787   4.336  0.4440  0.2980 -0.1396
12324TIP3    H158387   6.492   3.855   4.289  1.2316  0.9883  0.0216
12324TIP3    H258388   6.620   3.774   4.284  0.7263  0.1563  0.3191
12325TIP3   OH258389   2.294   2.261   0.044  0.5087  0.2005 -0.0625
12325TIP3    H158390   2.342   2.199  -0.011  0.4889 -0.6116  0.7940
12325TIP3    H258391   2.202   2.244   0.026  0.4319 -1.2767  1.4079
12326TIP3   OH258392   1.526   5.198  12.045  0.3729 -0.3545  0.1606
12326TIP3    H158393   1.462   5.128  12.032  0.5759 -0.3522 -0.8974
12326TIP3    H258394   1.606   5.152  12.069 -0.0124 -0.3540  1.5689
12327TIP3   OH258395   6.788   1.451   4.910 -0.0169 -0.1526 -0.9118
12327TIP3    H158396   6.855   1.488   4.852  0.4329 -1.0760 -1.0077
12327TIP3    H258397   6.725   1.410   4.850  0.9782 -1.9993 -0.7598
12328TIP3   OH258398   2.258   6.020  14.255 -0.2969  0.0134  0.2913
12328TIP3    H158399   2.274   5.935  14.215  0.3056  1.1692 -2.1090
12328TIP3    H258400   2.212   6.000  14.336 -1.5569 -2.5329 -0.9289
12329TIP3   OH258401   5.544   2.761  12.388 -0.3482 -0.6654  0.2385
12329TIP3    H158402   5.452   2.736  12.402 -0.3178  0.0280  1.9854
12329TIP3    H258403   5.587   2.741  12.472  0.1256  3.0163  1.0390
12330TIP3   OH258404   3.290   0.920   5.201 -0.2602  0.2057 -0.3954
12330TIP3    H158405   3.374   0.890   5.166 -0.2349 -0.9631  0.5863
12330TIP3    H258406   3.227   0.856   5.167 -0.5859  0.4456 -0.2411
12331TIP3   OH258407   5.576   3.453  11.273  0.2161  0.3636 -0.1792
12331TIP3    H158408   5.494   3.407  11.255 -0.3623  1.5366 -0.6255
12331TIP3    H258409   5.610   3.475  11.187 -0.1677  1.8817  0.0401
12332TIP3   OH258410   6.237   5.845  10.741 -0.3123  0.2068 -0.5732
12332TIP3    H158411   6.259   5.779  10.806  2.4486  0.0018 -1.5554
12332TIP3    H258412   6.307   5.839  10.676 -2.3511  1.1111 -3.0427
12333TIP3   OH258413   1.311   1.641  17.113  0.3455 -0.0790 -0.0385
12333TIP3    H158414   1.327   1.653  17.206 -0.2342  0.1622  0.0304
12333TIP3    H258415   1.371   1.703  17.070  1.2935 -0.8598  0.1292
12334TIP3   OH258416   5.056   3.794  12.389  0.4220  0.0872 -0.6629
12334TIP3    H158417   5.069   3.705  12.422 -0.7490  0.4527  0.8646
12334TIP3    H258418   5.122   3.803  12.320  0.9877 -1.7346 -0.4200
12335TIP3   OH258419   2.518   2.361  14.885 -0.0708  0.1676  0.2821
12335TIP3    H158420   2.528   2.416  14.807 -0.2759  1.3077  1.0481
12335TIP3    H258421   2.461   2.411  14.943 -1.2590 -1.3752  0.5259
12336TIP3   OH258422   6.448   1.214  13.184 -0.8228 -0.2551 -0.0244
12336TIP3    H158423   6.360   1.238  13.155 -0.7729 -0.4866 -0.3742
12336TIP3    H258424   6.481   1.293  13.227 -0.7484  0.2422 -0.9580
12337TIP3   OH258425   6.562   2.172   3.432  0.3223  0.4996  0.2826
12337TIP3    H158426   6.655   2.164   3.411  0.0974  1.5310 -1.2652
12337TIP3    H258427   6.541   2.264   3.417 -1.0137  0.2280  0.3146
12338TIP3   OH258428   3.429   2.607   5.026  0.1305 -0.0578 -0.1149
12338TIP3    H158429   3.361   2.656   5.072  0.7452  0.3136  0.4087
12338TIP3    H258430   3.510   2.657   5.040  0.0896  1.0828 -3.0874
12339TIP3   OH258431   5.889   3.848   3.727 -0.2644  0.6698 -0.5769
12339TIP3    H158432   5.912   3.757   3.705  0.6722  1.1118 -1.4914
12339TIP3    H258433   5.797   3.856   3.704 -0.0793  0.2452 -1.5108
12340TIP3   OH258434   6.326   1.961   4.493 -0.2834 -0.0170  0.3869
12340TIP3    H158435   6.338   2.053   4.471  2.0190 -0.0343  1.3068
12340TIP3    H258436   6.232   1.946   4.482 -0.2888  1.5995 -2.8316
12341TIP3   OH258437   3.988   6.590   2.935  0.1736  0.2654  0.2643
12341TIP3    H158438   4.016   6.676   2.904 -0.3599  0.5131  0.4655
12341TIP3    H258439   4.004   6.531   2.861  1.1618  0.4020  0.3484
12342TIP3   OH258440   6.119   4.582   0.553 -0.2579  0.6330  0.0248
12342TIP3    H158441   6.059   4.507   0.559  1.2763 -0.6636 -0.2631
12342TIP3    H258442   6.128   4.597   0.459  1.2138 -0.3297 -0.0091
12343TIP3   OH258443   4.506   0.596   3.873  0.0036  0.0636 -0.3197
12343TIP3    H158444   4.474   0.513   3.908  1.0616 -0.3516 -0.2736
12343TIP3    H258445   4.428   0.643   3.846 -0.5751 -1.3019 -1.1377
12344TIP3   OH258446   0.788   0.877   2.439 -0.0679  0.0719 -0.1826
12344TIP3    H158447   0.859   0.940   2.434 -0.0190 -0.0244 -0.7755
12344TIP3    H258448   0.775   0.863   2.533  0.0302  0.8321 -0.0524
12345TIP3   OH258449   2.505   0.246   6.332  0.1304 -0.4643 -0.2523
12345TIP3    H158450   2.498   0.294   6.415 -0.2259 -0.2728 -0.3881
12345TIP3    H258451   2.523   0.314   6.267 -0.2631 -0.5284 -0.4308
12346TIP3   OH258452   3.421   2.824  16.166  0.0780 -0.0747 -0.8657
12346TIP3    H158453   3.334   2.860  16.151  0.6202  1.0456 -1.4147
12346TIP3    H258454   3.430   2.754  16.102 -0.2074  0.1717 -1.1736
12347TIP3   OH258455   0.601   5.814   1.055  1.1483  0.2711  0.5028
12347TIP3    H158456   0.669   5.758   1.018  0.9286 -0.8416  1.7209
12347TIP3    H258457   0.522   5.792   1.004  1.2276 -0.0033  0.4946
12348TIP3   OH258458   1.316   2.097  16.383 -0.5180  0.4605  0.2400
12348TIP3    H158459   1.399   2.055  16.402 -0.4742 -0.7111 -2.1443
12348TIP3    H258460   1.328   2.138  16.298 -2.2779  0.5296 -0.0237
12349TIP3   OH258461   5.070   1.578  12.314  0.2840  0.0171  0.1862
12349TIP3    H158462   5.055   1.671  12.296 -1.1109 -0.2424 -0.0961
12349TIP3    H258463   5.100   1.542  12.231 -0.6147 -0.0591 -0.1182
12350TIP3   OH258464   3.698   0.103  15.950 -0.1811 -0.5512 -0.0742
12350TIP3    H158465   3.759   0.031  15.967  0.9179 -0.2787 -2.4525
12350TIP3    H258466   3.722   0.170  16.015  1.8208 -0.6296 -0.6494
12351TIP3   OH258467   4.271   3.206   5.469  0.0987  0.2874 -0.9833
12351TIP3    H158468   4.262   3.301   5.477  0.7390  0.2872 -0.1273
12351TIP3    H258469   4.334   3.194   5.397  1.1483  0.5629 -0.1308
12352TIP3   OH258470   2.183   4.521   4.596  0.9048  0.1603 -0.4252
12352TIP3    H158471   2.272   4.516   4.629  0.9089  1.6795 -0.1460
12352TIP3    H258472   2.173   4.442   4.542  2.4632  0.0641 -0.6121
12353TIP3   OH258473   3.311   2.740   5.661  0.0998  0.0235 -0.2310
12353TIP3    H158474   3.401   2.770   5.648  0.4250 -0.9148 -0.1841
12353TIP3    H258475   3.271   2.747   5.575 -0.1550  1.5569 -0.0338
12354TIP3   OH258476   4.370   0.359  14.778 -0.2983  0.5678  0.2668
12354TIP3    H158477   4.332   0.272  14.788  0.5784  0.4189  3.0423
12354TIP3    H258478   4.296   0.419  14.790 -0.4716  0.2399  0.8305
12355TIP3   OH258479   1.031   5.390  10.890 -0.1530 -0.7029  0.1085
12355TIP3    H158480   0.951   5.417  10.935  1.0619  1.0067  1.3628
12355TIP3    H258481   1.007   5.390  10.798 -1.3823  0.6803  0.3764
12356TIP3   OH258482   3.315   3.122   0.021 -0.5724 -0.3914 -0.0140
12356TIP3    H158483   3.312   3.053   0.087 -1.2314 -1.9783 -1.6094
12356TIP3    H258484   3.225   3.156   0.018 -0.7271 -0.8261 -0.5598
12357TIP3   OH258485   3.652   2.192  14.941  0.0113  0.5116  0.2028
12357TIP3    H158486   3.652   2.099  14.963 -1.9576  0.1609 -0.9968
12357TIP3    H258487   3.571   2.204  14.891  0.4654  2.7794 -0.0724
12358TIP3   OH258488   0.035   0.672  11.821  0.6286  0.2956  0.4376
12358TIP3    H158489  -0.000   0.651  11.734 -0.0023  0.6364  0.6045
12358TIP3    H258490  -0.015   0.617  11.881 -0.3559  1.5263  0.7781
12359TIP3   OH258491   2.670   5.380  14.039 -0.2723 -0.1033  0.2239
12359TIP3    H158492   2.618   5.459  14.026  0.3706  0.0020 -2.1467
12359TIP3    H258493   2.605   5.312  14.057 -0.8837  0.7819  1.5193
12360TIP3   OH258494   0.674   5.065  15.282  0.5294  0.0787  0.1294
12360TIP3    H158495   0.596   5.011  15.264  1.5848 -0.8101 -2.0761
12360TIP3    H258496   0.742   5.029  15.225  1.3830  3.6040 -1.3419
12361TIP3   OH258497   2.444   5.281  14.724  0.2372  0.7352  0.0981
12361TIP3    H158498   2.475   5.253  14.638 -0.9988 -0.6676  0.0671
12361TIP3    H258499   2.378   5.216  14.748 -1.1028  2.3819  1.1036
12362TIP3   OH258500   0.470   3.702  15.270  0.1635 -0.0632  0.0456
12362TIP3    H158501   0.459   3.620  15.222  1.2937  0.3308 -0.9549
12362TIP3    H258502   0.545   3.744  15.228 -1.0515  2.0060 -0.1979
12363TIP3   OH258503   4.011   4.070   5.621  0.4203  0.5594  0.0868
12363TIP3    H158504   4.077   4.117   5.672  1.1253  1.2962 -1.4294
12363TIP3    H258505   4.055   3.991   5.592 -1.0512 -1.6876  3.4234
12364TIP3   OH258506   3.884   4.733   1.757  0.2017 -0.8063 -0.4120
12364TIP3    H158507   3.961   4.679   1.775  0.2789 -1.0390 -1.3818
12364TIP3    H258508   3.920   4.813   1.717  0.2109  0.5995  2.1930
12365TIP3   OH258509   3.630   1.186  14.635  0.4766 -0.7167  0.2193
12365TIP3    H158510   3.536   1.188  14.654  0.5700  0.4647  0.6261
12365TIP3    H258511   3.644   1.100  14.594 -0.2589 -2.1850  2.8061
12366TIP3   OH258512   6.270   6.079  15.124 -1.1280  0.0358  0.0600
12366TIP3    H158513   6.302   6.005  15.071 -0.5812  0.6797 -0.5302
12366TIP3    H258514   6.325   6.078  15.203 -1.8165 -0.8102  0.5428
12367TIP3   OH258515   4.691   2.577  15.735  0.0585  0.3749 -0.3047
12367TIP3    H158516   4.689   2.557  15.642 -0.4402  0.6882 -0.3627
12367TIP3    H258517   4.649   2.662  15.743 -1.2982 -0.3260  0.3810
12368TIP3   OH258518   5.948   2.110   5.678  0.1345  0.7218  0.2879
12368TIP3    H158519   5.869   2.059   5.696  1.3269 -1.3965 -0.2199
12368TIP3    H258520   6.011   2.047   5.646  2.7918  1.9151  2.6859
12369TIP3   OH258521   3.741   1.354  15.624 -0.4979 -0.0628 -0.3455
12369TIP3    H158522   3.755   1.446  15.643 -1.6880 -0.1406  1.1304
12369TIP3    H258523   3.819   1.327  15.575 -1.0660  2.1851 -2.6967
12370TIP3   OH258524   6.381   4.607   1.011  0.4224 -0.0459 -0.0080
12370TIP3    H158525   6.372   4.701   1.030 -1.0393 -0.2071  0.2103
12370TIP3    H258526   6.379   4.601   0.916  2.6140  0.3040 -0.1232
12371TIP3   OH258527   1.591   1.616   3.650  0.4575  0.9823  0.7418
12371TIP3    H158528   1.506   1.632   3.608  0.6348 -2.9245 -1.4932
12371TIP3    H258529   1.570   1.565   3.729  0.6814 -1.4777 -0.6998
12372TIP3   OH258530   0.129   3.827   0.267 -0.1681  0.2191  0.4134
12372TIP3    H158531   0.156   3.753   0.213 -0.8577 -1.2146  1.9137
12372TIP3    H258532   0.125   3.901   0.207  1.2586 -0.7872 -1.0110
12373TIP3   OH258533   3.196   2.034  16.384 -0.1945  0.0139  0.3064
12373TIP3    H158534   3.174   2.087  16.307  3.1186  2.3139  0.6993
12373TIP3    H258535   3.116   2.034  16.436 -1.5926  1.0562 -1.6811
12374TIP3   OH258536   2.149   6.323   1.376 -0.0089 -0.6706 -0.0293
12374TIP3    H158537   2.239   6.341   1.400  1.1425 -1.8816 -2.9529
12374TIP3    H258538   2.124   6.397   1.319 -0.7562 -0.5230  0.4703
12375TIP3   OH258539   1.688   3.016  14.740  0.0470  0.2996  0.0779
12375TIP3    H158540   1.774   3.058  14.730 -0.0449  0.7185  1.0175
12375TIP3    H258541   1.678   3.004  14.834 -0.6072 -0.4295 -0.0823
12376TIP3   OH258542   5.852   3.463   3.871 -0.6078  0.1827  0.4335
12376TIP3    H158543   5.918   3.518   3.830  0.0226 -1.1849 -0.4676
12376TIP3    H258544   5.787   3.447   3.802 -0.2858 -0.9627  0.3693
12377TIP3   OH258545   0.489   0.490  10.688 -0.2938  0.2863  0.1880
12377TIP3    H158546   0.583   0.504  10.677 -0.2091 -0.7685 -0.6110
12377TIP3    H258547   0.458   0.568  10.733  0.6032  1.7264 -1.5454
12378TIP3   OH258548   4.668   6.278   2.434 -0.3861 -0.3944  0.0552
12378TIP3    H158549   4.612   6.205   2.407 -0.9089 -1.2240  3.0685
12378TIP3    H258550   4.751   6.262   2.388 -1.1115 -1.7604 -0.8573
12379TIP3   OH258551   1.875   6.397   4.784  0.1407 -0.1109 -0.2550
12379TIP3    H158552   1.784   6.388   4.811  0.2500  0.6755  0.3980
12379TIP3    H258553   1.871   6.440   4.699 -0.0810  0.1934 -0.0900
12380TIP3   OH258554   1.484   2.789  11.318 -0.3337 -0.6250 -0.1484
12380TIP3    H158555   1.474   2.758  11.228 -1.1451 -0.1165 -0.2385
12380TIP3    H258556   1.548   2.729  11.356  0.3372 -0.5928 -1.1792
12381TIP3   OH258557   3.517   2.511   0.740 -0.2605  0.2411 -0.3418
12381TIP3    H158558   3.607   2.545   0.743 -0.2759  0.2523  0.1012
12381TIP3    H258559   3.462   2.589   0.730 -0.4335  0.6082  2.6853
12382TIP3   OH258560   5.970   0.331  10.683  0.3070 -0.7504 -0.2760
12382TIP3    H158561   6.015   0.253  10.651 -1.5415 -1.4488 -1.3434
12382TIP3    H258562   5.884   0.328  10.641 -0.9540  0.2348  2.0674
12383TIP3   OH258563   6.009   1.687  14.908 -0.1503 -0.2300 -0.6992
12383TIP3    H158564   6.014   1.704  14.814  0.4670  1.9387 -0.3144
12383TIP3    H258565   6.075   1.619  14.923 -0.9658 -1.3727 -1.9423
12384TIP3   OH258566   4.283   6.284  12.589 -0.6089  0.2779  0.2617
12384TIP3    H158567   4.211   6.229  12.618  0.6767 -0.3460  2.5881
12384TIP3    H258568   4.357   6.223  12.578 -0.1810  1.0081 -1.2108
12385TIP3   OH258569   5.998   4.942  15.616  0.7174 -0.0434 -0.0498
12385TIP3    H158570   5.916   4.940  15.567  2.6112 -0.9274 -3.5143
12385TIP3    H258571   5.977   4.900  15.699 -1.9881 -1.7213 -1.4252
12386TIP3   OH258572   6.291   1.502   0.545 -0.0592 -0.8984  0.8197
12386TIP3    H158573   6.232   1.557   0.597  0.3924 -0.1006  0.4983
12386TIP3    H258574   6.348   1.564   0.500 -1.0464 -1.5184 -1.3862
12387TIP3   OH258575   3.479   5.062  13.315 -0.3438 -0.1309 -0.6676
12387TIP3    H158576   3.553   5.097  13.267  0.3122  1.5046  1.4198
12387TIP3    H258577   3.404   5.075  13.256  0.6886 -0.0676 -2.0253
12388TIP3   OH258578   4.086   2.036   3.203  0.1982 -0.0713  0.4408
12388TIP3    H158579   3.991   2.045   3.213 -0.0770  0.7727 -2.0761
12388TIP3    H258580   4.100   2.043   3.108  2.8291  0.3598  0.7968
12389TIP3   OH258581   6.257   1.237  12.064  0.1560 -0.0632 -0.3548
12389TIP3    H158582   6.210   1.175  12.120  0.4463 -0.0189 -0.0572
12389TIP3    H258583   6.261   1.318  12.116 -1.4480  0.6643 -1.2811
12390TIP3   OH258584   6.120   4.876   4.409  0.0450  0.1049  0.1052
12390TIP3    H158585   6.209   4.850   4.388  0.3491  1.0092  0.2325
12390TIP3    H258586   6.065   4.822   4.352  0.6878 -0.2441 -0.1883
12391TIP3   OH258587   3.139   1.263   0.306 -0.3331  0.0911  0.0209
12391TIP3    H158588   3.200   1.189   0.300 -1.2605 -0.7681  0.7521
12391TIP3    H258589   3.111   1.278   0.216  0.1408 -0.2093 -0.1817
12392TIP3   OH258590   0.313   3.478   3.570 -0.1487 -0.2136  0.7382
12392TIP3    H158591   0.273   3.477   3.484  1.2862 -0.4136  0.0428
12392TIP3    H258592   0.395   3.430   3.559 -0.8043 -1.9558  2.6712
12393TIP3   OH258593   0.607   1.088   0.998  0.0595 -0.1439 -0.0286
12393TIP3    H158594   0.692   1.047   0.979  0.8799  1.0357  0.9260
12393TIP3    H258595   0.563   1.025   1.054  0.1545 -0.9123 -0.7872
12394TIP3   OH258596   0.272   1.855  14.436 -0.8177  0.3817  0.3642
12394TIP3    H158597   0.201   1.905  14.398 -0.3921 -1.0701 -2.6824
12394TIP3    H258598   0.352   1.896  14.402 -0.0295  2.0452  3.7872
12395TIP3   OH258599   6.687   3.542   0.047 -0.3862  0.2316  0.0199
12395TIP3    H158600   6.768   3.531   0.097  0.1775  0.3705 -0.8415
12395TIP3    H258601   6.634   3.601   0.101 -0.1048 -0.2055  0.8032
12396TIP3   OH258602   6.569   6.320   0.892  0.0137  0.3218 -0.0009
12396TIP3    H158603   6.659   6.323   0.924 -0.1855 -0.1841  0.6194
12396TIP3    H258604   6.560   6.399   0.839  0.3822  1.1226  1.0963
12397TIP3   OH258605   0.266   3.885  15.273  0.6312 -0.0280  0.3594
12397TIP3    H158606   0.331   3.818  15.251 -2.3112 -3.4799  1.2319
12397TIP3    H258607   0.268   3.889  15.369 -0.5599 -0.3429  0.4029
12398TIP3   OH258608   1.571   5.022   1.043 -0.8387 -0.6098 -0.3112
12398TIP3    H158609   1.602   5.048   1.129 -2.8215 -1.2543  0.6824
12398TIP3    H258610   1.606   4.934   1.030  0.5316 -0.0170 -0.7780
12399TIP3   OH258611   0.087   6.690  16.911 -0.4721 -0.0967  0.7151
12399TIP3    H158612   0.001   6.681  16.952 -0.4208 -4.1392  0.3206
12399TIP3    H258613   0.147   6.642  16.970  1.1588  0.9584 -0.0087
12400TIP3   OH258614   6.226   4.682   4.902  0.0421  0.5692  0.6758
12400TIP3    H158615   6.227   4.748   4.833 -1.6175  0.7773  0.8007
12400TIP3    H258616   6.186   4.605   4.861 -2.4920  1.2097  1.7690
12401TIP3   OH258617   6.618   6.487   4.658  0.6053 -0.0892  0.3627
12401TIP3    H158618   6.651   6.435   4.584  0.3520 -0.6760  0.6526
12401TIP3    H258619   6.540   6.530   4.623  0.3981 -0.4867  0.3261
12402TIP3   OH258620   5.926   4.331   5.125 -0.8829 -0.1737 -0.3717
12402TIP3    H158621   5.915   4.415   5.169 -1.9402  0.3993 -1.6566
12402TIP3    H258622   6.007   4.295   5.161 -0.5393  1.2760  0.3725
12403TIP3   OH258623   0.724   1.635  16.972  0.2074 -0.3134 -0.0449
12403TIP3    H158624   0.715   1.545  16.942 -0.6118  0.0056 -0.7825
12403TIP3    H258625   0.650   1.681  16.933  0.7166  0.7212  0.1827
12404TIP3   OH258626   0.543   2.917   5.229 -0.6316 -0.8529 -0.0135
12404TIP3    H158627   0.449   2.931   5.228 -0.6576 -0.7133  1.6812
12404TIP3    H258628   0.563   2.877   5.144 -2.0125  0.2725 -0.9042
12405TIP3   OH258629   6.083   5.578  14.556 -0.2167 -0.1573 -0.2061
12405TIP3    H158630   6.038   5.652  14.514  0.6357 -0.2979 -1.4087
12405TIP3    H258631   6.027   5.556  14.631 -1.8138  0.0880 -1.2705
12406TIP3   OH258632   6.479   5.354   2.920 -0.1242  0.9658  0.5955
12406TIP3    H158633   6.431   5.354   3.002 -0.7063  0.0444  0.2771
12406TIP3    H258634   6.446   5.430   2.872 -3.0652 -0.8593 -0.5814
12407TIP3   OH258635   6.252   4.255   4.943 -0.2215 -0.6612 -0.0682
12407TIP3    H158636   6.333   4.301   4.962 -1.1137  0.6508  0.6771
12407TIP3    H258637   6.223   4.220   5.027 -1.3175  0.4105  0.0316
12408TIP3   OH258638   1.426   1.564   1.083 -0.1434 -0.5124  0.0816
12408TIP3    H158639   1.422   1.550   0.988 -0.0016 -0.6387  0.0931
12408TIP3    H258640   1.335   1.568   1.111 -0.2030 -1.5393  0.0896
12409TIP3   OH258641   0.194   2.971   2.358 -0.7107 -0.0189  0.0369
12409TIP3    H158642   0.266   3.000   2.302 -1.5532  1.1235 -0.4990
12409TIP3    H258643   0.199   3.027   2.435  1.0409 -2.2233  1.6632
12410TIP3   OH258644   2.408   5.298   4.314  0.0097  0.0407  0.9058
12410TIP3    H158645   2.374   5.338   4.233 -0.5874 -1.1230  0.5539
12410TIP3    H258646   2.371   5.209   4.314  1.6785 -0.7039  1.3961
12411TIP3   OH258647   6.351   1.264   0.757  0.1253  0.2067  0.1435
12411TIP3    H158648   6.315   1.258   0.668 -3.4096 -0.8622  1.4872
12411TIP3    H258649   6.430   1.211   0.754 -0.2067 -0.2677 -2.2270
12412TIP3   OH258650   4.200   0.556   1.050  0.4178 -0.0637  0.4391
12412TIP3    H158651   4.117   0.573   1.094 -0.7169 -0.4693 -1.4297
12412TIP3    H258652   4.253   0.511   1.116 -1.1113 -0.4584  1.4625
12413TIP3   OH258653   6.140   6.217  16.532  0.3038 -0.1378  0.8314
12413TIP3    H158654   6.155   6.300  16.488 -0.2727 -0.9167 -0.9008
12413TIP3    H258655   6.119   6.241  16.622 -2.5269  1.8048 -0.2208
12414TIP3   OH258656   3.185   6.384   3.437  0.2016  0.4466 -0.0445
12414TIP3    H158657   3.174   6.384   3.532  1.9825  1.7027  0.1994
12414TIP3    H258658   3.104   6.424   3.404  0.6797  2.5573  1.1489
12415TIP3   OH258659   3.347   1.584  16.334 -1.3661 -0.2124  0.6025
12415TIP3    H158660   3.253   1.571  16.350 -1.3373 -0.1296  0.8330
12415TIP3    H258661   3.386   1.591  16.421 -1.1208 -0.4072  0.5079
12416TIP3   OH258662   0.216   0.347   0.230  0.4499 -0.1589  0.0505
12416TIP3    H158663   0.229   0.442   0.235  2.2402 -0.3038 -0.9681
12416TIP3    H258664   0.225   0.317   0.321 -1.0487  0.7110  0.5210
12417TIP3   OH258665   2.071   1.800  12.239 -0.4735 -0.0836  0.0686
12417TIP3    H158666   2.126   1.836  12.170 -1.5113  0.2669 -0.6002
12417TIP3    H258667   2.129   1.743  12.290  0.1790 -0.7492 -1.3899
12418TIP3   OH258668   0.761   6.049   6.114 -0.2896  0.1892 -0.8316
12418TIP3    H158669   0.846   6.093   6.104  0.1401 -0.5922 -0.6716
12418TIP3    H258670   0.772   5.993   6.191  0.1409 -2.3303 -2.5986
12419TIP3   OH258671   2.214   1.748   3.798  0.2163 -0.2627  0.3105
12419TIP3    H158672   2.280   1.813   3.822  0.5900  0.2333 -1.8499
12419TIP3    H258673   2.244   1.713   3.714 -1.8820 -0.5595 -0.3751
12420TIP3   OH258674   4.895   3.656  14.252  0.0327 -0.2912 -0.2722
12420TIP3    H158675   4.927   3.571  14.222  2.0159  0.1658  0.3844
12420TIP3    H258676   4.857   3.696  14.173 -0.5402 -1.5854 -0.6783
12421TIP3   OH258677   2.778   6.428   1.004 -0.0144 -0.6022 -0.4075
12421TIP3    H158678   2.825   6.510   1.019 -1.4339  0.1415  0.1934
12421TIP3    H258679   2.833   6.361   1.044  0.8228  0.1419 -0.2776
12422TIP3   OH258680   6.056   2.495   0.601  0.1422 -0.0241 -0.1671
12422TIP3    H158681   6.115   2.508   0.527  1.0155  2.3048  0.8406
12422TIP3    H258682   5.979   2.548   0.579  0.5477  0.9480  0.7037
12423TIP3   OH258683   3.048   4.833   2.922 -0.4617  0.5922  0.4877
12423TIP3    H158684   3.003   4.824   2.838 -0.8649  0.6668  0.6926
12423TIP3    H258685   2.985   4.801   2.987 -0.1389  0.4926  0.7605
12424TIP3   OH258686   5.904   2.045  14.459  0.0574 -0.2998  0.1267
12424TIP3    H158687   5.842   2.011  14.524 -0.2386 -1.1756 -0.6056
12424TIP3    H258688   5.987   2.005  14.483 -0.1763 -1.1144 -0.3911
12425TIP3   OH258689   4.321   6.068   0.188  0.0059  0.5695  0.1082
12425TIP3    H158690   4.236   6.107   0.208 -0.4066  0.0666 -0.6096
12425TIP3    H258691   4.309   6.029   0.101  0.6842 -0.3366  0.4109
12426TIP3   OH258692   0.199   5.291   1.021 -0.6816 -0.6975 -0.0066
12426TIP3    H158693   0.248   5.309   0.941 -1.5616 -0.2812 -0.4718
12426TIP3    H258694   0.218   5.199   1.040  1.2854 -0.2147  0.5761
12427TIP3   OH258695   4.009   4.714  13.086  0.2445  0.1846  0.6043
12427TIP3    H158696   4.017   4.796  13.036 -1.9770 -0.2062 -0.5350
12427TIP3    H258697   4.080   4.659  13.053 -0.8426  0.1263 -1.9062
12428TIP3   OH258698   6.111   1.903  14.587 -0.7655 -0.2648  0.3946
12428TIP3    H158699   6.068   1.821  14.611 -0.7112 -0.3394  0.2335
12428TIP3    H258700   6.127   1.947  14.671 -1.2731 -0.1776  0.4492
12429TIP3   OH258701   1.528   6.240  17.196  0.0094 -0.1760 -0.0994
12429TIP3    H158702   1.550   6.327  17.229 -1.4133  0.9960 -2.0279
12429TIP3    H258703   1.555   6.243  17.104 -0.7409 -1.5306 -0.3815
12430TIP3   OH258704   6.005   2.001  16.227  0.6183 -0.1882 -0.0033
12430TIP3    H158705   6.017   2.096  16.225  4.1324 -0.5090  0.4066
12430TIP3    H258706   6.000   1.975  16.134  3.5213  0.1344 -0.3471
12431TIP3   OH258707   1.652   2.391  14.941 -0.0825  0.0240 -0.8415
12431TIP3    H158708   1.574   2.423  14.896  0.4279  1.8557 -0.5324
12431TIP3    H258709   1.653   2.297  14.925 -2.4319 -0.0653 -0.6857
12432TIP3   OH258710   2.250   3.263   5.787 -0.4459  0.8927 -0.1820
12432TIP3    H158711   2.158   3.235   5.792 -0.4163 -0.7967 -4.5811
12432TIP3    H258712   2.248   3.339   5.728  0.9613  1.0402 -0.0619
12433TIP3   OH258713   3.289   4.047  11.285  0.4660  0.1278  0.1686
12433TIP3    H158714   3.358   3.992  11.248  1.2119  0.8698  0.4135
12433TIP3    H258715   3.208   4.000  11.268  0.7746  0.3561 -2.2854
12434TIP3   OH258716   0.497   3.000  14.245 -0.5998 -0.6629  0.3642
12434TIP3    H158717   0.418   2.948  14.256 -1.2017  0.4524  1.5663
12434TIP3    H258718   0.476   3.062  14.175 -1.1006  0.1514  1.2122
12435TIP3   OH258719   3.849   6.294   2.378 -0.0382 -0.6133  0.5809
12435TIP3    H158720   3.842   6.259   2.467 -1.0741 -1.1674  0.3012
12435TIP3    H258721   3.797   6.374   2.379 -1.0515 -1.2433  0.1898
12436TIP3   OH258722   3.940   2.932   6.296 -0.7881 -0.2406 -0.4019
12436TIP3    H158723   3.855   2.899   6.324 -1.4728 -0.0485 -2.1351
12436TIP3    H258724   3.926   3.026   6.283  0.6041  0.4785  2.5004
12437TIP3   OH258725   2.707   4.400   3.182  0.2250 -0.0562  0.2278
12437TIP3    H158726   2.642   4.375   3.247  0.8194 -2.4209 -0.0275
12437TIP3    H258727   2.656   4.440   3.112 -0.9875 -1.7813  0.0664
12438TIP3   OH258728   4.209   2.981   5.075  0.7055  0.5475  0.4926
12438TIP3    H158729   4.259   3.035   5.014  0.1812  0.0800 -0.3562
12438TIP3    H258730   4.120   3.016   5.071  0.7642  0.8282  1.3663
12439TIP3   OH258731   2.868   5.810   0.866  0.5214 -0.2308  0.8371
12439TIP3    H158732   2.790   5.853   0.903  0.6731  0.7345  0.0674
12439TIP3    H258733   2.941   5.865   0.894  0.6764  0.2852 -0.5258
12440TIP3   OH258734   6.399   6.392   0.023 -0.0806 -0.3521 -0.3214
12440TIP3    H158735   6.338   6.464   0.005  0.5120  0.0430 -0.7669
12440TIP3    H258736   6.366   6.320  -0.030 -0.8129 -0.4940  0.3050
12441TIP3   OH258737   3.632   5.378  14.481 -0.3578 -0.0006 -0.3698
12441TIP3    H158738   3.595   5.296  14.513  1.4971 -1.0323 -0.7349
12441TIP3    H258739   3.594   5.389  14.394  0.9392 -1.6296 -1.2076
12442TIP3   OH258740   5.375   3.523  16.542  0.0718 -0.2237 -0.2927
12442TIP3    H158741   5.319   3.446  16.531  1.2174 -1.7365  2.9553
12442TIP3    H258742   5.446   3.510  16.479 -0.2630 -1.3586 -0.4629
12443TIP3   OH258743   4.259   1.747   3.065 -0.1637 -0.3492 -0.0737
12443TIP3    H158744   4.314   1.705   2.998 -0.9677 -0.1031 -0.9198
12443TIP3    H258745   4.216   1.673   3.109 -1.8129 -0.4777 -1.7671
12444TIP3   OH258746   0.920   5.761   0.267  0.7363  0.1557  0.1257
12444TIP3    H158747   0.924   5.668   0.245 -0.2589  0.2868 -0.6555
12444TIP3    H258748   0.993   5.801   0.219  2.0228 -0.4012  1.5398
12445TIP3   OH258749   2.090   2.907  13.856 -0.5256 -0.5582  0.5107
12445TIP3    H158750   2.143   2.972  13.901 -0.7254 -0.2657  0.3277
12445TIP3    H258751   2.146   2.829  13.852 -0.2234 -0.3478  0.5857
12446TIP3   OH258752   0.045   1.701   5.914 -0.4654 -0.0977 -0.0283
12446TIP3    H158753   0.099   1.778   5.897  1.3410 -1.1928  0.5869
12446TIP3    H258754   0.029   1.703   6.009  1.8581 -1.8474  0.4818
12447TIP3   OH258755   1.149   5.251  12.817  0.2072  0.5854  0.1750
12447TIP3    H158756   1.214   5.184  12.795 -0.5318  0.2176 -0.9808
12447TIP3    H258757   1.095   5.211  12.884 -1.0119 -0.5177 -1.3903
12448TIP3   OH258758   5.116   5.722  16.614  0.1416  0.4696 -0.0966
12448TIP3    H158759   5.046   5.658  16.617 -0.5133  1.1675 -0.1406
12448TIP3    H258760   5.106   5.772  16.695  0.4832  0.6810 -0.1824
12449TIP3   OH258761   0.535   2.149  12.159  0.7705 -0.1233 -0.2818
12449TIP3    H158762   0.584   2.069  12.175  0.8031 -0.4023 -1.6604
12449TIP3    H258763   0.456   2.120  12.112 -0.2136  0.4398  0.9570
12450TIP3   OH258764   4.166   2.712   3.482  0.5956 -0.0016 -0.0378
12450TIP3    H158765   4.158   2.802   3.452  0.5453 -0.4779 -1.5543
12450TIP3    H258766   4.208   2.718   3.567  1.2793  1.4117 -0.4529
12451TIP3   OH258767   2.429   1.374   0.208 -0.0474  0.5051  0.0590
12451TIP3    H158768   2.357   1.331   0.162  0.5427  0.5928 -1.0010
12451TIP3    H258769   2.415   1.467   0.192  0.5213  0.4997 -0.5277
12452TIP3   OH258770   4.504   6.559   0.580 -0.0754  0.1280 -0.1015
12452TIP3    H158771   4.582   6.612   0.564  0.5100 -0.6250  0.1632
12452TIP3    H258772   4.475   6.531   0.493  0.4406 -0.2577 -0.1573
12453TIP3   OH258773   1.833   2.847   2.663 -0.3163  0.4585  0.1974
12453TIP3    H158774   1.850   2.865   2.755  0.9697  0.8595 -0.0919
12453TIP3    H258775   1.746   2.808   2.661  0.4149 -1.3892  1.7923
12454TIP3   OH258776   5.551   4.618   2.455  0.4077  0.1928 -0.6158
12454TIP3    H158777   5.557   4.539   2.402 -0.0249 -0.6598  0.5603
12454TIP3    H258778   5.602   4.599   2.533  0.8020  1.3123 -0.5784
12455TIP3   OH258779   5.704   2.311  15.049  0.2389 -0.6560 -0.4855
12455TIP3    H158780   5.753   2.341  14.972  0.2310 -0.1470 -0.3005
12455TIP3    H258781   5.613   2.337  15.032  0.0535 -1.4770 -0.7690
12456TIP3   OH258782   0.340   5.972  14.818 -0.3189 -0.5364 -0.6120
12456TIP3    H158783   0.386   5.930  14.745  0.9796  1.1202 -0.8192
12456TIP3    H258784   0.309   5.899  14.872  1.4374 -1.7679 -1.1734
12457TIP3   OH258785   3.529   4.029  12.225 -0.3402 -0.1547 -0.2939
12457TIP3    H158786   3.470   3.975  12.173 -1.5289 -0.3090  1.1704
12457TIP3    H258787   3.539   4.110  12.174  0.0124 -0.9990 -1.6204
12458TIP3   OH258788   4.329   5.638   3.200 -0.1441 -0.3180 -0.0345
12458TIP3    H158789   4.286   5.552   3.200  0.6290 -0.7192 -1.0439
12458TIP3    H258790   4.308   5.675   3.115 -0.9909  0.7934  0.6170
12459TIP3   OH258791   2.201   0.258   1.534 -0.5532 -0.6662  0.5647
12459TIP3    H158792   2.200   0.203   1.456 -1.0289 -0.5328  0.4755
12459TIP3    H258793   2.294   0.267   1.556 -0.3147  0.4225 -0.7783
12460TIP3   OH258794   5.001   2.862  16.613  0.4114 -0.0626  0.0598
12460TIP3    H158795   5.061   2.794  16.643 -0.1613 -0.1532  1.0396
12460TIP3    H258796   4.956   2.822  16.538  0.6667 -0.4452  0.1040
12461TIP3   OH258797   0.935   4.625   4.599  0.1885 -0.2156 -0.1189
12461TIP3    H158798   1.027   4.613   4.621 -0.0069 -0.7405  0.4588
12461TIP3    H258799   0.935   4.655   4.508  0.8859 -1.1283 -0.4343
12462TIP3   OH258800   2.838   3.547  16.191  0.3673 -0.3399  0.6823
12462TIP3    H158801   2.798   3.463  16.216 -0.2824 -0.3833 -0.4494
12462TIP3    H258802   2.769   3.611  16.202 -0.4611 -0.5677 -2.3135
12463TIP3   OH258803   6.339   0.151   2.313 -0.2123  0.1380  0.5056
12463TIP3    H158804   6.427   0.184   2.299  0.0238 -0.7711 -0.2275
12463TIP3    H258805   6.282   0.211   2.264  0.1770 -0.3076 -0.5123
12464TIP3   OH258806   0.151   6.583   2.468  0.0755  0.2749 -0.0073
12464TIP3    H158807   0.223   6.568   2.530  1.0127  0.9345 -0.8852
12464TIP3    H258808   0.094   6.507   2.478 -0.0529  0.5867  1.9784
12465TIP3   OH258809   3.419   1.394   3.777  0.3806  0.1413 -0.3778
12465TIP3    H158810   3.336   1.435   3.751  0.3560 -0.0156 -0.5492
12465TIP3    H258811   3.463   1.460   3.829  0.9740  0.9432 -1.8311
12466TIP3   OH258812   1.031   3.494   1.110 -1.2297 -0.2417 -0.6084
12466TIP3    H158813   0.997   3.425   1.167 -1.5935 -0.1274 -0.6830
12466TIP3    H258814   0.968   3.565   1.119 -1.0600 -0.0636 -0.8252
12467TIP3   OH258815   1.477   0.700  14.271  0.5789 -0.4144 -0.5666
12467TIP3    H158816   1.558   0.739  14.236  0.4428 -0.5365 -1.0249
12467TIP3    H258817   1.407   0.757  14.237  0.4481 -0.5145 -0.4636
12468TIP3   OH258818   6.261   4.729   5.825  1.1063  0.0110  0.7429
12468TIP3    H158819   6.351   4.721   5.857  1.2659  1.5639  0.7629
12468TIP3    H258820   6.251   4.822   5.807  0.3364 -0.4782 -1.6955
12469TIP3   OH258821   5.896   6.129  14.988  0.7208 -0.1987 -0.2085
12469TIP3    H158822   5.964   6.166  14.931  0.3973 -1.0087 -1.1309
12469TIP3    H258823   5.930   6.043  15.013  0.3792 -0.2872 -0.0471
12470TIP3   OH258824   5.757   6.454  11.562  0.3782  0.0305 -0.8062
12470TIP3    H158825   5.730   6.528  11.615 -2.0317 -1.0580 -0.3773
12470TIP3    H258826   5.724   6.473  11.474  0.0896 -0.3427 -0.7829
12471TIP3   OH258827   2.731   4.622  11.914  0.0779 -0.1182 -0.2484
12471TIP3    H158828   2.826   4.614  11.911  0.2005  1.2399 -1.7056
12471TIP3    H258829   2.701   4.587  11.831 -0.9019 -2.1779  0.9128
12472TIP3   OH258830   5.128   3.421  12.200  0.3009  0.1475  0.1327
12472TIP3    H158831   5.100   3.498  12.250  0.4391  1.4775 -1.6965
12472TIP3    H258832   5.215   3.401  12.235  0.4628  1.1460  0.3529
12473TIP3   OH258833   3.878   5.804   0.501  0.0782 -0.2413 -0.8069
12473TIP3    H158834   3.888   5.822   0.407 -0.1169  1.5929 -0.5050
12473TIP3    H258835   3.968   5.798   0.534  0.3324  3.5063 -0.3913
12474TIP3   OH258836   1.233   5.312  12.312  0.6027 -0.7408 -0.1483
12474TIP3    H158837   1.215   5.231  12.266 -0.0586 -0.9929  0.5386
12474TIP3    H258838   1.176   5.310  12.389  0.0007  0.7157 -0.5129
12475TIP3   OH258839   2.563   2.290  16.413 -0.0730  0.0892 -0.2090
12475TIP3    H158840   2.577   2.306  16.507  0.5380 -1.3250 -0.0421
12475TIP3    H258841   2.641   2.242  16.385 -0.9154 -0.7875 -1.1165
12476TIP3   OH258842   4.977   5.476  17.121 -0.1793  0.4917  0.1260
12476TIP3    H158843   5.046   5.497  17.057 -0.5499  2.6488  0.3600
12476TIP3    H258844   5.023   5.469  17.204  0.0500 -0.4709 -0.0667
12477TIP3   OH258845   1.556   1.985  14.192 -0.0562  0.3746  0.4535
12477TIP3    H158846   1.515   2.072  14.190 -1.1053 -0.1064  0.6435
12477TIP3    H258847   1.484   1.924  14.206  0.3246 -0.7634 -2.0648
12478TIP3   OH258848   2.948   6.510  11.383  0.0226 -0.2904 -0.1331
12478TIP3    H158849   2.937   6.605  11.379 -2.0803 -0.4676  0.0466
12478TIP3    H258850   2.936   6.480  11.293 -1.3327 -0.5220  0.1053
12479TIP3   OH258851   2.319   3.114   5.411 -0.4917 -0.2277  0.6770
12479TIP3    H158852   2.367   3.086   5.489  1.2032  1.2664  0.2316
12479TIP3    H258853   2.271   3.192   5.439 -1.5627 -0.8634  0.7164
12480TIP3   OH258854   3.344   5.737  15.641  0.8650 -0.1651 -0.1281
12480TIP3    H158855   3.421   5.759  15.589  0.3148 -0.9633 -1.3158
12480TIP3    H258856   3.378   5.718  15.728  1.6209  3.0948  0.4291
12481TIP3   OH258857   5.382   4.589  16.914  0.0670  0.2798  0.3557
12481TIP3    H158858   5.460   4.543  16.945 -0.2300  0.0658  0.8022
12481TIP3    H258859   5.409   4.680  16.905  0.3604  0.2093  0.5298
12482TIP3   OH258860   6.600   0.321  16.307  0.2192 -0.8208  0.3668
12482TIP3    H158861   6.535   0.363  16.251  0.9149 -0.9450 -0.5542
12482TIP3    H258862   6.577   0.350  16.396  0.5856  1.4199 -0.1946
12483TIP3   OH258863   3.293   3.440   0.209 -0.2796 -0.4040 -0.1374
12483TIP3    H158864   3.215   3.433   0.154 -0.0677 -1.0374 -0.3653
12483TIP3    H258865   3.272   3.390   0.288 -0.3146 -0.0916  0.0553
12484TIP3   OH258866   5.042   0.031   5.780 -0.2177 -0.0274 -0.1496
12484TIP3    H158867   5.091   0.110   5.761 -1.3828  0.6756 -0.2786
12484TIP3    H258868   4.986   0.054   5.854  1.5905 -1.6264  1.8822
12485TIP3   OH258869   0.083   2.597  16.404 -0.0532 -0.8895  0.3261
12485TIP3    H158870   0.174   2.590  16.373 -0.1365 -1.2229  0.1510
12485TIP3    H258871   0.033   2.620  16.326 -0.2509 -1.6393  0.2245
12486TIP3   OH258872   0.029   1.266   6.317  0.2595  0.6681 -0.6084
12486TIP3    H158873   0.107   1.245   6.266 -0.1322 -2.7606 -0.0478
12486TIP3    H258874   0.050   1.238   6.406 -1.4509 -0.0103 -0.3742
12487TIP3   OH258875   2.272   1.024   5.434  0.1126  0.5039 -0.2899
12487TIP3    H158876   2.264   1.046   5.341 -1.1262  1.4304  0.0075
12487TIP3    H258877   2.186   0.988   5.457  0.6919 -0.5432  0.2979
12488TIP3   OH258878   1.826   0.468   5.385  0.5622 -0.3596  0.1896
12488TIP3    H158879   1.839   0.462   5.479  0.0671 -1.7954  0.1914
12488TIP3    H258880   1.838   0.561   5.365  0.9397 -0.0758  1.6139
12489TIP3   OH258881   3.714   6.040  14.319  0.1158  0.1798  0.0057
12489TIP3    H158882   3.673   6.010  14.401  1.4340 -0.7239  0.3807
12489TIP3    H258883   3.808   6.029  14.335  0.3760 -0.7537 -1.9009
12490TIP3   OH258884   1.573   5.928  16.228  0.3416  0.0242  0.1037
12490TIP3    H158885   1.601   6.019  16.223  1.2401 -0.2902 -0.7913
12490TIP3    H258886   1.485   5.932  16.266  1.7638  0.9774  3.6601
12491TIP3   OH258887   2.388   2.153   2.539 -0.4652  0.3296 -0.0508
12491TIP3    H158888   2.454   2.112   2.595  0.3777  1.5328 -0.1227
12491TIP3    H258889   2.374   2.240   2.578  0.7423  1.5313 -2.1044
12492TIP3   OH258890   6.563   0.571  15.722 -0.3107  0.2478 -0.0695
12492TIP3    H158891   6.492   0.507  15.721 -0.1544  0.0807 -0.7893
12492TIP3    H258892   6.586   0.580  15.815  0.3629 -1.5217 -0.0142
12493TIP3   OH258893   3.165   0.561  12.623  0.7773  0.5391  0.1296
12493TIP3    H158894   3.079   0.588  12.656  0.7677  0.3645  0.2535
12493TIP3    H258895   3.151   0.470  12.595  0.2626  1.2792 -2.2463
12494TIP3   OH258896   1.054   0.080   3.236 -0.0478 -0.5132  0.0081
12494TIP3    H158897   1.101   0.122   3.164 -0.1614 -0.0316  0.2165
12494TIP3    H258898   1.103   0.106   3.314 -0.0702 -0.8356  0.1304
12495TIP3   OH258899   4.096   5.709  11.940 -0.2181  0.1016 -0.0395
12495TIP3    H158900   4.108   5.803  11.954 -0.8531  0.1025  0.5670
12495TIP3    H258901   4.159   5.686  11.871  0.5291  0.8053  0.3952
12496TIP3   OH258902   5.012   3.650   1.392  0.0091 -0.7166 -0.2989
12496TIP3    H158903   4.989   3.605   1.473  0.5807  1.1001  0.9221
12496TIP3    H258904   4.937   3.705   1.373  0.5670  0.1542 -0.0325
12497TIP3   OH258905   5.508   2.564   5.736 -0.8543  0.5703  0.5326
12497TIP3    H158906   5.524   2.549   5.643 -1.7259  3.1955 -0.1299
12497TIP3    H258907   5.417   2.540   5.749 -0.7052  0.1121  0.7390
12498TIP3   OH258908   4.063   1.057  11.670 -0.5901  0.0850  0.0247
12498TIP3    H158909   4.113   1.094  11.597  0.9091  0.8406  1.3723
12498TIP3    H258910   4.019   0.981  11.633 -1.1295  1.3221 -2.0431
12499TIP3   OH258911   4.662   1.879   3.959  0.7026  0.4110  0.5235
12499TIP3    H158912   4.677   1.971   3.980 -0.8463  0.3546  2.2289
12499TIP3    H258913   4.570   1.864   3.984  0.8713 -1.5480  0.1392
12500TIP3   OH258914   4.814   3.853  12.604 -0.0855 -0.7074  0.5612
12500TIP3    H158915   4.742   3.884  12.549 -2.0695 -3.0408  1.6340
12500TIP3    H258916   4.837   3.767  12.567 -0.1585 -1.4595  2.1803
12501TIP3   OH258917   5.754   6.395  11.115 -0.2577  0.1114 -0.1321
12501TIP3    H158918   5.698   6.447  11.173 -0.4137 -0.4730  0.2454
12501TIP3    H258919   5.837   6.443  11.113 -0.4807  0.5081  0.0124
12502TIP3   OH258920   1.055   5.122   3.810  0.2201  0.5401  0.2532
12502TIP3    H158921   1.122   5.092   3.871  1.6655  0.8814 -1.0994
12502TIP3    H258922   1.005   5.187   3.860  2.4748  2.1191  0.6072
12503TIP3   OH258923   1.045   0.924  13.198  0.3383 -0.0613  0.6435
12503TIP3    H158924   1.127   0.940  13.152  0.4182  0.9175  1.1035
12503TIP3    H258925   1.044   0.988  13.269 -0.1846 -0.9575  1.4829
12504TIP3   OH258926   5.628   5.702  15.873 -0.4283  0.5475 -0.1899
12504TIP3    H158927   5.595   5.616  15.848  0.5507 -0.1387  0.8047
12504TIP3    H258928   5.646   5.746  15.789 -1.1777 -0.1113 -0.7080
12505TIP3   OH258929   2.686   0.363  11.538 -0.4878 -0.3044 -0.0396
12505TIP3    H158930   2.678   0.284  11.484 -1.6045 -0.5371  0.4482
12505TIP3    H258931   2.748   0.419  11.490 -0.5546 -0.9974 -0.9544
12506TIP3   OH258932   1.320   5.363  13.216  0.1054  0.2784 -0.3045
12506TIP3    H158933   1.284   5.447  13.187  1.0849  0.4713 -1.0206
12506TIP3    H258934   1.249   5.301  13.204 -0.4025  0.8803 -0.4578
12507TIP3   OH258935   1.886   5.217   1.400 -0.1309  0.6349 -0.2649
12507TIP3    H158936   1.956   5.279   1.418 -0.3563  0.6115  0.7427
12507TIP3    H258937   1.911   5.176   1.317  0.8060  0.9616 -0.1559
12508TIP3   OH258938   3.844   0.770   0.392  0.7037  0.5270  0.2626
12508TIP3    H158939   3.821   0.785   0.484 -1.1348 -0.4184  0.0031
12508TIP3    H258940   3.897   0.691   0.393  0.0113  0.0586  0.4502
12509TIP3   OH258941   2.098   5.013  12.242  0.1451 -0.0170  0.0135
12509TIP3    H158942   2.045   4.943  12.280  0.2484 -1.4146 -2.2531
12509TIP3    H258943   2.070   5.017  12.151  2.5447  0.5521 -0.7594
12510TIP3   OH258944   4.520   1.202   6.395  0.3013 -0.2506  0.6343
12510TIP3    H158945   4.484   1.114   6.404  0.6528 -0.5025 -0.2780
12510TIP3    H258946   4.446   1.260   6.411  0.2050 -0.6892  1.8646
12511TIP3   OH258947   3.522   6.783   3.613 -0.0151 -0.0296 -0.3543
12511TIP3    H158948   3.611   6.773   3.647 -0.1576 -1.9658 -0.4467
12511TIP3    H258949   3.474   6.708   3.647 -1.1512  0.0124 -1.7376
12512TIP3   OH258950   6.550   0.578   3.029  0.1609 -0.0886  0.2522
12512TIP3    H158951   6.561   0.629   2.948  0.0251 -0.9718 -0.3397
12512TIP3    H258952   6.455   0.567   3.037  0.1867 -0.1901  0.4133
12513TIP3   OH258953   4.125   6.606   3.422 -0.2392  0.4279  0.3533
12513TIP3    H158954   4.036   6.600   3.455  0.3775 -0.0913  1.9823
12513TIP3    H258955   4.118   6.664   3.345 -2.1620 -0.6499 -0.3490
12514TIP3   OH258956   1.935   6.558   4.560 -0.9351 -0.2364  0.1376
12514TIP3    H158957   1.909   6.537   4.471 -0.6363 -0.8462  0.1895
12514TIP3    H258958   2.031   6.555   4.558 -0.8899  0.7682  0.2382
12515TIP3   OH258959   1.851   4.620   4.793  0.1597  0.1074  0.1597
12515TIP3    H158960   1.759   4.594   4.796  0.4440 -0.8681  1.8126
12515TIP3    H258961   1.863   4.676   4.869  0.9576  0.1084  0.0461
12516TIP3   OH258962   3.465   2.801  11.211  0.2131  0.3466  0.2715
12516TIP3    H158963   3.433   2.733  11.151 -2.6639  0.8756  1.0486
12516TIP3    H258964   3.470   2.757  11.296 -1.8686  1.0687  0.8217
12517TIP3   OH258965   6.417   0.475   4.084 -0.4381  0.4110  0.0181
12517TIP3    H158966   6.331   0.517   4.094 -0.3802  0.5748 -0.1541
12517TIP3    H258967   6.397   0.387   4.052 -0.6283 -0.1675  1.6381
12518TIP3   OH258968   4.614   6.347  11.795  0.2046  0.0130  0.3752
12518TIP3    H158969   4.674   6.276  11.772  0.6672  1.4502 -3.6658
12518TIP3    H258970   4.671   6.416  11.828  0.0046 -0.5858  2.0836
12519TIP3   OH258971   6.712   6.394  11.999  0.2222 -0.7878 -0.2919
12519TIP3    H158972   6.727   6.375  11.906  1.8221 -3.1699  0.3527
12519TIP3    H258973   6.635   6.341  12.022  0.8982 -1.6321  0.0975
12520TIP3   OH258974   1.935   3.769  15.699 -0.2893 -0.3983  0.2435
12520TIP3    H158975   1.859   3.764  15.642 -0.2646 -0.0206  0.1710
12520TIP3    H258976   1.928   3.855  15.741  0.6652  0.1153 -0.5915
12521TIP3   OH258977   4.002   5.673   2.993  0.1125  0.0258 -0.0024
12521TIP3    H158978   3.986   5.636   3.080 -0.9146 -0.4415 -0.3630
12521TIP3    H258979   4.092   5.704   2.996 -0.6377  2.3171  2.0538
12522TIP3   OH258980   2.202   0.613   1.741  0.1966  0.5523 -0.8514
12522TIP3    H158981   2.144   0.562   1.796 -0.0516  0.2221 -1.4066
12522TIP3    H258982   2.145   0.677   1.699  0.2644  0.3623 -1.2381
12523TIP3   OH258983   3.373   5.107   0.531  0.2328 -0.3029 -0.6733
12523TIP3    H158984   3.305   5.132   0.468 -1.3424 -0.1747  0.9754
12523TIP3    H258985   3.326   5.054   0.596  1.9358 -1.0025  0.0437
12524TIP3   OH258986   4.403   5.153  15.057 -0.3227 -0.1332  0.3178
12524TIP3    H158987   4.403   5.078  15.116 -0.3854 -0.1569  0.2880
12524TIP3    H258988   4.455   5.123  14.982 -1.1173 -0.4797 -0.1094
12525TIP3   OH258989   3.771   2.613   0.684 -0.2150  0.1024  0.3907
12525TIP3    H158990   3.752   2.702   0.715 -1.3832 -0.1522  0.4485
12525TIP3    H258991   3.866   2.611   0.673 -0.2953  1.7686 -0.8938
12526TIP3   OH258992   6.301   2.000  17.051  0.2161  0.1195 -0.1094
12526TIP3    H158993   6.383   2.011  17.003  0.5826  0.5653  0.6093
12526TIP3    H258994   6.260   1.923  17.010  1.2944 -0.5090 -0.0486
12527TIP3   OH258995   1.430   2.936   4.534  0.4768  0.0536 -0.3006
12527TIP3    H158996   1.515   2.928   4.491  0.0433  0.7791 -1.3358
12527TIP3    H258997   1.426   2.862   4.594  2.0697  0.3113  0.1774
12528TIP3   OH258998   0.612   5.985   3.347 -0.3191  0.1551  0.0491
12528TIP3    H158999   0.701   5.998   3.378  0.1568 -0.2203 -1.1103
12528TIP3    H259000   0.597   5.891   3.355 -1.0604  0.3444  1.3361
12529TIP3   OH259001   3.531   6.757   2.440 -0.4177 -0.0246 -0.0325
12529TIP3    H159002   3.518   6.717   2.354 -1.5847 -0.9303  0.5283
12529TIP3    H259003   3.447   6.744   2.485  0.3958 -0.2254  1.4961
12530TIP3   OH259004   4.232   2.400   4.859 -0.0528 -0.2547  0.8740
12530TIP3    H159005   4.186   2.317   4.875  1.2671 -1.5751 -1.6096
12530TIP3    H259006   4.324   2.377   4.864  0.3392  0.9231 -0.4071
12531TIP3   OH259007   2.678   6.537  16.222  0.6113  0.1799 -0.4605
12531TIP3    H159008   2.585   6.515  16.227  0.5351  0.2501 -1.4829
12531TIP3    H259009   2.720   6.472  16.279  0.2230 -1.7163 -2.2347
12532TIP3   OH259010   0.189   2.668   1.518 -0.0438  0.3807  0.3655
12532TIP3    H159011   0.101   2.644   1.548  0.7254 -0.2406  2.2412
12532TIP3    H259012   0.248   2.621   1.576  1.5553  0.7740 -0.8727
12533TIP3   OH259013   4.141   4.058   0.460 -0.4402  0.3423 -0.1689
12533TIP3    H159014   4.147   4.152   0.477 -0.5345  0.8372 -2.5422
12533TIP3    H259015   4.048   4.043   0.439 -0.0289  0.2122 -2.0966
12534TIP3   OH259016   2.827   3.123   4.850 -0.1712 -0.5566 -0.5011
12534TIP3    H159017   2.836   3.029   4.832  1.6760 -0.1224 -2.2131
12534TIP3    H259018   2.823   3.129   4.945 -0.3096 -2.3707 -0.3672
12535TIP3   OH259019   0.813   4.903  15.091  0.5574  0.1294  0.5717
12535TIP3    H159020   0.831   4.810  15.074 -0.4334 -0.3757  2.0740
12535TIP3    H259021   0.871   4.950  15.030 -0.5843 -1.4582 -1.9387
12536TIP3   OH259022   6.156   6.427  14.238 -0.3751 -0.3012  0.1903
12536TIP3    H159023   6.164   6.427  14.142  0.4510 -0.4463  0.2519
12536TIP3    H259024   6.245   6.414  14.269 -0.4902  0.7877  1.0071
12537TIP3   OH259025   6.146   4.382  15.783 -0.4011  0.1227  0.0096
12537TIP3    H159026   6.161   4.354  15.692 -1.1128  1.7192 -0.6296
12537TIP3    H259027   6.227   4.357  15.828 -0.4881 -1.7725 -0.7619
12538TIP3   OH259028   2.868   5.285   4.460 -0.3529 -0.3120 -0.3669
12538TIP3    H159029   2.890   5.313   4.548 -0.0074  1.1498 -0.8945
12538TIP3    H259030   2.934   5.325   4.404  1.0630 -3.3774 -1.0862
12539TIP3   OH259031   3.583   5.280   4.851  0.0278 -0.1463 -0.0320
12539TIP3    H159032   3.664   5.234   4.828 -0.4817 -0.6998 -0.7681
12539TIP3    H259033   3.574   5.349   4.785 -0.0821 -0.0550  0.0759
12540TIP3   OH259034   3.720   4.182   4.760 -0.5179 -0.0379  0.6448
12540TIP3    H159035   3.813   4.201   4.751 -0.8144  0.5958 -1.7418
12540TIP3    H259036   3.689   4.242   4.829  1.0358 -1.2375  2.4906
12541TIP3   OH259037   4.862   5.181   4.183  0.1616  0.2238 -0.4802
12541TIP3    H159038   4.848   5.129   4.262  0.2910 -1.2374 -1.3834
12541TIP3    H259039   4.902   5.262   4.215  0.9946 -0.6775  0.8669
12542TIP3   OH259040   0.804   0.767  14.209 -0.0900  0.4391  0.6937
12542TIP3    H159041   0.884   0.766  14.262  2.4627 -0.8640 -2.7988
12542TIP3    H259042   0.751   0.695  14.245  1.5929 -0.5162  1.4029
12543TIP3   OH259043   4.524   6.038   5.824 -0.1662  0.0917  0.1435
12543TIP3    H159044   4.485   6.024   5.738  0.6529  0.9391 -0.3762
12543TIP3    H259045   4.466   6.102   5.866 -0.7455 -0.5609  0.3596
12544TIP3   OH259046   2.473   2.486   1.414 -0.6047  0.1186 -0.3364
12544TIP3    H159047   2.466   2.525   1.327 -1.1678  0.6069 -0.0812
12544TIP3    H259048   2.461   2.393   1.401  0.2401  0.0791 -0.8990
12545TIP3   OH259049   2.377   5.330   2.701  0.0697  0.4226  0.6317
12545TIP3    H159050   2.344   5.411   2.662  1.1070 -0.4628 -2.2895
12545TIP3    H259051   2.298   5.281   2.724 -0.7063  0.2127 -2.1724
12546TIP3   OH259052   5.503   2.633   1.008  0.2914  0.0068  0.3636
12546TIP3    H159053   5.481   2.550   1.050 -1.3133  0.4707  0.5051
12546TIP3    H259054   5.598   2.640   1.018  0.1981 -0.7794  2.2705
12547TIP3   OH259055   0.890   5.263   5.095 -0.1912  0.2710 -0.0820
12547TIP3    H159056   0.944   5.196   5.054  0.6371  1.8537 -1.6950
12547TIP3    H259057   0.951   5.334   5.117 -1.3320  1.3665 -0.3386
12548TIP3   OH259058   5.386   6.021  14.331  0.5159  0.4468 -0.5235
12548TIP3    H159059   5.466   6.042  14.284 -0.2004  1.0409 -1.5065
12548TIP3    H259060   5.316   6.042  14.270 -0.4015  0.1384  0.3976
12549TIP3   OH259061   4.747   4.223   0.041 -0.4929  0.8573  0.1960
12549TIP3    H159062   4.759   4.129   0.055  1.8442  1.0439 -0.1649
12549TIP3    H259063   4.714   4.256   0.125 -1.9955 -0.3538  0.1163
12550TIP3   OH259064   1.691   2.598  11.343  0.4942  0.2194  0.2919
12550TIP3    H159065   1.696   2.584  11.248  0.3296 -0.8882  0.4317
12550TIP3    H259066   1.616   2.545  11.370 -1.4229  2.8769  0.6297
12551TIP3   OH259067   6.569   3.921  14.411 -0.0638 -0.2217  0.0803
12551TIP3    H159068   6.572   3.858  14.483  0.1973 -0.0597  0.2155
12551TIP3    H259069   6.647   3.901  14.359 -0.2713 -0.3618 -0.1812
12552TIP3   OH259070   6.022   6.763  16.679 -0.5089  0.2220 -0.3418
12552TIP3    H159071   5.996   6.853  16.696  1.0246  0.8089 -0.9213
12552TIP3    H259072   5.995   6.747  16.589  0.1799  0.4846 -0.6010
12553TIP3   OH259073   4.983   6.237  16.191 -0.2634  0.3417 -0.2214
12553TIP3    H159074   5.044   6.209  16.123  0.2156 -2.6837  1.2655
12553TIP3    H259075   4.899   6.248  16.146  0.0657 -1.4590 -1.3720
12554TIP3   OH259076   2.848   6.003   2.771 -0.3126 -0.1725  0.2418
12554TIP3    H159077   2.906   5.934   2.735  0.3188  1.1045 -1.3227
12554TIP3    H259078   2.906   6.057   2.824 -0.4733  0.0594  0.1792
12555TIP3   OH259079   0.405   5.833  13.035 -0.1245  0.6084  0.3249
12555TIP3    H159080   0.314   5.813  13.015  0.4837 -2.4594  0.2002
12555TIP3    H259081   0.443   5.857  12.950 -0.3680 -0.0608  0.0220
12556TIP3   OH259082   0.497   5.570  16.017  0.4093  0.2716  0.0318
12556TIP3    H159083   0.442   5.507  16.064 -0.5165  0.9123 -0.1484
12556TIP3    H259084   0.583   5.564  16.058 -0.2991  0.5953  1.6180
12557TIP3   OH259085   5.243   3.727   0.338  0.3255 -0.1325 -0.3131
12557TIP3    H159086   5.251   3.647   0.390 -0.3557 -0.7303 -1.1108
12557TIP3    H259087   5.272   3.797   0.397  0.7511 -0.9420  0.4514
12558TIP3   OH259088   2.986   2.398   3.675 -0.0867  0.3504  0.1740
12558TIP3    H159089   2.941   2.425   3.595 -1.4928 -0.1869  0.7521
12558TIP3    H259090   2.921   2.348   3.724  0.9044  0.2180  1.4216
12559TIP3   OH259091   2.356   0.050   1.055 -0.0074 -0.1446 -0.1675
12559TIP3    H159092   2.355   0.118   0.987  0.7991  0.3076  0.2568
12559TIP3    H259093   2.445   0.016   1.052 -0.3538 -1.0634 -0.2425
12560TIP3   OH259094   4.829   4.609   5.547 -0.2814 -0.0290  0.4735
12560TIP3    H159095   4.736   4.602   5.530  0.0853  0.0472 -1.8590
12560TIP3    H259096   4.847   4.703   5.543  0.2377 -0.1696 -1.4790
12561TIP3   OH259097   1.348   5.788   5.150  0.1820  0.2258 -0.0115
12561TIP3    H159098   1.432   5.785   5.105  0.3900  1.0183  0.3041
12561TIP3    H259099   1.284   5.761   5.083  0.4792  1.4422 -0.8192
12562TIP3   OH259100   2.676   3.856  16.117 -0.3646 -0.0815 -0.4413
12562TIP3    H159101   2.693   3.884  16.207 -1.7582  2.6611 -0.9177
12562TIP3    H259102   2.749   3.893  16.067 -0.7489  0.3212 -0.7128
12563TIP3   OH259103   0.566   0.491  16.415 -0.1554 -0.4908 -0.7373
12563TIP3    H159104   0.516   0.432  16.360  2.7245 -1.0274 -3.0450
12563TIP3    H259105   0.654   0.452  16.419  0.1630  0.1386  3.3750
12564TIP3   OH259106   0.246   5.432   3.847 -0.0605 -0.1730 -0.0666
12564TIP3    H159107   0.183   5.496   3.880 -0.2016 -1.0219  1.4062
12564TIP3    H259108   0.247   5.445   3.752 -1.0048  1.1538  0.0843
12565TIP3   OH259109   0.432   4.623   2.120 -0.6661 -0.5273 -0.6301
12565TIP3    H159110   0.456   4.714   2.140  0.1171 -0.5359 -1.4623
12565TIP3    H259111   0.421   4.582   2.206 -1.1784  0.3888 -0.2458
12566TIP3   OH259112   4.122   2.550  11.559 -0.6767 -0.1099 -1.0637
12566TIP3    H159113   4.037   2.581  11.590 -0.0885  1.1446 -0.6321
12566TIP3    H259114   4.160   2.626  11.515  1.1733  0.0882  0.7430
12567TIP3   OH259115   0.676   1.673   1.922 -0.6014 -0.1814  0.4593
12567TIP3    H159116   0.626   1.595   1.946  0.1962 -0.6257  0.7159
12567TIP3    H259117   0.660   1.735   1.993  0.3758 -0.8615  1.2843
12568TIP3   OH259118   3.428   0.816   0.937 -0.2444  0.0337  0.9422
12568TIP3    H159119   3.355   0.869   0.969 -0.8665  0.1733 -0.6550
12568TIP3    H259120   3.485   0.879   0.893  1.1425  0.0121  2.5968
12569TIP3   OH259121   4.151   5.618  16.476  0.0614  0.7146  0.2493
12569TIP3    H159122   4.088   5.598  16.406  0.8326  3.2049 -1.2987
12569TIP3    H259123   4.236   5.614  16.432  0.7890  0.1364  1.6509
12570TIP3   OH259124   4.902   2.752   4.204  0.8323 -0.2927 -0.0321
12570TIP3    H159125   4.985   2.785   4.170  1.5365 -0.6440  1.2568
12570TIP3    H259126   4.915   2.748   4.299 -0.2570 -1.4627  0.0957
12571TIP3   OH259127   1.051   2.308   6.759 -0.7653 -0.0719 -0.2536
12571TIP3    H159128   1.141   2.335   6.777 -0.6746  0.6622 -1.7026
12571TIP3    H259129   0.997   2.382   6.786 -0.8912 -0.2205 -0.0861
12572TIP3   OH259130   0.282   1.670  11.787  0.3561  0.2740 -0.0829
12572TIP3    H159131   0.345   1.695  11.719  0.8336 -1.9613 -0.5259
12572TIP3    H259132   0.227   1.604  11.746 -0.5228  0.2045  1.1621
12573TIP3   OH259133   1.548   4.845   2.980  0.3345  0.3410  0.4453
12573TIP3    H159134   1.509   4.856   3.067  1.5555 -0.7816  1.1755
12573TIP3    H259135   1.642   4.845   2.996  0.6002  0.7106 -0.9738
12574TIP3   OH259136   5.108   4.433   2.132 -0.7122 -0.1174  0.1430
12574TIP3    H159137   5.036   4.416   2.192 -0.8461 -1.5740 -0.3980
12574TIP3    H259138   5.147   4.514   2.164 -1.7894  0.0066  1.2063
12575TIP3   OH259139   2.764   3.272  12.512 -0.1997 -0.0804 -0.0635
12575TIP3    H159140   2.847   3.226  12.517  0.3578  0.9780  0.8593
12575TIP3    H259141   2.728   3.248  12.427  0.6184 -1.2599 -0.0914
12576TIP3   OH259142   2.445   6.788   3.142 -0.3895 -0.0295 -0.3226
12576TIP3    H159143   2.499   6.721   3.100  1.8078  0.6880  1.1685
12576TIP3    H259144   2.356   6.764   3.118  0.1668 -4.0226  0.7522
12577TIP3   OH259145   2.384   5.868   0.020  0.1645  0.1451 -0.5168
12577TIP3    H159146   2.399   5.775   0.037 -1.2870 -0.1673 -0.8221
12577TIP3    H259147   2.394   5.910   0.105  1.6160 -0.1648 -0.5146
12578TIP3   OH259148   2.831   5.500  17.198 -0.4743  0.4969 -0.3071
12578TIP3    H159149   2.888   5.432  17.235 -1.4994 -1.1005 -1.5345
12578TIP3    H259150   2.754   5.500  17.255  0.1041  1.6775  0.5250
12579TIP3   OH259151   5.762   3.045  13.974 -0.0178 -0.0481 -0.3255
12579TIP3    H159152   5.669   3.025  13.984 -0.1321  0.2571 -0.7412
12579TIP3    H259153   5.766   3.106  13.900  0.5035  0.0106 -0.2560
12580TIP3   OH259154   0.588   1.463  14.642  0.0054  0.1939 -0.1957
12580TIP3    H159155   0.646   1.432  14.573 -0.0812 -1.0885  0.2893
12580TIP3    H259156   0.525   1.392  14.655 -0.5332  0.7967  0.5680
12581TIP3   OH259157   0.320   3.158  14.029 -0.3817  0.2654 -0.0496
12581TIP3    H159158   0.278   3.074  14.012  0.4053 -0.2230  0.3434
12581TIP3    H259159   0.388   3.164  13.961 -0.5008  0.6298 -0.1371
12582TIP3   OH259160   1.067   1.829  10.442 -0.5485  0.0487  0.0690
12582TIP3    H159161   1.080   1.769  10.515  1.5885  0.0665 -0.2288
12582TIP3    H259162   1.138   1.892  10.450  0.2599 -0.4193 -2.4625
12583TIP3   OH259163   4.374   2.065   4.766 -0.3862 -0.3214 -0.7686
12583TIP3    H159164   4.379   2.106   4.679 -2.9346 -0.4290 -1.0348
12583TIP3    H259165   4.405   2.133   4.826  0.2304  0.2018 -1.6512
12584TIP3   OH259166   0.603   2.546  11.758  0.1923  0.2854  0.1971
12584TIP3    H159167   0.674   2.604  11.785 -0.2675  1.2261 -0.5580
12584TIP3    H259168   0.574   2.504  11.839  0.4980  1.1488  0.7644
12585TIP3   OH259169   1.731   2.405   6.915  0.0417  0.2421  0.4854
12585TIP3    H159170   1.656   2.394   6.856  1.5877 -0.0100 -1.5397
12585TIP3    H259171   1.808   2.398   6.858  1.6355  0.3153  2.5063
12586TIP3   OH259172   1.430   4.201   5.505  0.0688  0.3295  1.0771
12586TIP3    H159173   1.430   4.110   5.536 -3.0847 -0.5842 -1.0593
12586TIP3    H259174   1.478   4.198   5.422  0.4971  0.7792  1.3025
12587TIP3   OH259175   5.917   4.032   2.190 -0.1686  0.0048 -0.0417
12587TIP3    H159176   5.975   4.016   2.264 -1.6835 -1.2680  0.9613
12587TIP3    H259177   5.830   4.006   2.223 -1.1544  1.0298 -1.7279
12588TIP3   OH259178   0.196   0.849  11.624  0.0626  0.0257  0.2069
12588TIP3    H159179   0.259   0.817  11.689  0.5091 -0.6857 -0.5481
12588TIP3    H259180   0.132   0.778  11.617 -0.1173  0.2046  0.0417
12589TIP3   OH259181   2.815   1.601   3.320  0.3327  0.3120 -0.1354
12589TIP3    H159182   2.863   1.564   3.246  0.6282 -1.3230  0.8042
12589TIP3    H259183   2.882   1.624   3.384 -0.0188 -0.9854  0.7518
12590TIP3   OH259184   3.023   0.235   3.053  0.3680 -0.4144 -0.2737
12590TIP3    H159185   3.097   0.270   3.004 -0.4176 -0.8582 -1.8727
12590TIP3    H259186   2.953   0.300   3.041 -0.1273 -0.9855 -0.5644
12591TIP3   OH259187   1.297   0.226   5.359  0.3577  0.0854 -0.4532
12591TIP3    H159188   1.372   0.253   5.412 -0.1457  1.0023 -0.1774
12591TIP3    H259189   1.270   0.306   5.314 -0.8742 -0.0500 -0.0144
12592TIP3   OH259190   2.694   2.264   3.701 -0.0188  0.4761  0.3397
12592TIP3    H159191   2.619   2.323   3.696  0.7946  1.5067 -0.3338
12592TIP3    H259192   2.709   2.236   3.611 -0.9511 -1.5482  0.7602
12593TIP3   OH259193   1.490   2.552  12.767  0.4102 -0.7161 -0.1025
12593TIP3    H159194   1.403   2.517  12.790 -0.1090  0.1112 -0.7503
12593TIP3    H259195   1.548   2.516  12.833 -0.5185 -0.8674  0.6604
12594TIP3   OH259196   3.155   1.534  11.215  0.0849  0.4353 -0.6702
12594TIP3    H159197   3.186   1.489  11.136 -1.1820  0.0005 -0.9354
12594TIP3    H259198   3.233   1.579  11.248  1.2550 -1.3986 -0.7610
12595TIP3   OH259199   2.454   5.722   4.877 -0.1050 -0.4401 -0.1748
12595TIP3    H159200   2.517   5.698   4.946  1.1228  2.7717 -0.0130
12595TIP3    H259201   2.502   5.711   4.795 -0.0723 -0.1254 -0.2006
12596TIP3   OH259202   2.464   0.544   0.530  0.3133 -1.1666  0.2536
12596TIP3    H159203   2.456   0.476   0.464  1.1768 -1.8217  0.7899
12596TIP3    H259204   2.445   0.626   0.484  0.9722 -1.5996 -0.8213
12597TIP3   OH259205   3.958   2.216  13.172 -0.3417  0.4348 -0.1621
12597TIP3    H159206   4.016   2.149  13.207 -0.9453  0.4899  0.9828
12597TIP3    H259207   3.992   2.234  13.084 -0.4451 -1.6714 -0.6697
12598TIP3   OH259208   3.881   2.458   4.048  0.1876 -0.0839 -0.6887
12598TIP3    H159209   3.860   2.474   3.956  1.5743 -0.4232 -1.0974
12598TIP3    H259210   3.948   2.389   4.045  1.5307  1.1027  0.4545
12599TIP3   OH259211   1.186   0.324   3.084 -0.6168  0.4765 -0.3611
12599TIP3    H159212   1.103   0.360   3.117 -0.8969 -0.7890  0.4274
12599TIP3    H259213   1.159   0.255   3.023 -0.1797 -0.4553  0.4679
12600TIP3   OH259214   0.945   2.437  11.844 -0.1677 -0.1387 -0.0760
12600TIP3    H159215   0.966   2.530  11.836  0.8964 -0.2197  1.4125
12600TIP3    H259216   0.986   2.396  11.768  2.0689  0.2126  0.8711
12601TIP3   OH259217   1.707   5.314   6.201 -0.3804  0.5209 -0.5859
12601TIP3    H159218   1.653   5.282   6.273 -0.8897 -1.8752 -1.9180
12601TIP3    H259219   1.790   5.266   6.211 -0.1337  0.8348 -1.0872
12602TIP3   OH259220   1.188   1.711  16.727  0.2525  0.1732 -0.3099
12602TIP3    H159221   1.095   1.732  16.715 -0.2119 -0.5361  1.6746
12602TIP3    H259222   1.210   1.658  16.651 -0.4709  1.7295 -1.7003
12603TIP3   OH259223   2.131   6.564  15.416  0.0335  0.6287  0.0934
12603TIP3    H159224   2.069   6.636  15.431  0.7768  1.4128 -0.5005
12603TIP3    H259225   2.199   6.578  15.482  0.5911  0.9597 -0.5427
12604TIP3   OH259226   6.484   3.350   0.376  0.2106  0.3091  0.1404
12604TIP3    H159227   6.519   3.261   0.364  1.1318  0.5868  0.6695
12604TIP3    H259228   6.402   3.337   0.424  0.6583 -0.2265  0.7872
12605TIP3   OH259229   1.162   0.803   3.126  0.4543 -0.2483 -0.1487
12605TIP3    H159230   1.213   0.732   3.088 -0.4304  0.0569 -2.0178
12605TIP3    H259231   1.228   0.862   3.164  1.3573 -0.8564 -0.7263
12606TIP3   OH259232   4.931   2.180   0.495 -0.3812 -0.0647 -0.2469
12606TIP3    H159233   4.875   2.125   0.549  0.0343  0.1573  0.4186
12606TIP3    H259234   4.954   2.254   0.551 -0.0323  0.2271 -0.7643
12607TIP3   OH259235   3.894   2.627   5.389  0.1379 -0.5866  0.1858
12607TIP3    H159236   3.811   2.611   5.345  0.3952 -0.5237 -0.3225
12607TIP3    H259237   3.870   2.674   5.469 -0.1343  2.1984 -1.3772
12608TIP3   OH259238   4.207   0.910   6.065  0.1634 -0.3504 -0.4004
12608TIP3    H159239   4.167   0.834   6.107 -0.8616  0.3308 -0.1281
12608TIP3    H259240   4.231   0.878   5.978 -0.3637 -0.9633 -0.3298
12609TIP3   OH259241   5.480   2.396  12.753  0.0921  0.3987 -0.6344
12609TIP3    H159242   5.519   2.388  12.666 -0.6638  0.2567 -0.9738
12609TIP3    H259243   5.405   2.454  12.740 -0.1731  0.1756 -0.1262
12610TIP3   OH259244   6.688   4.562   6.297 -0.0249 -0.0645  0.1804
12610TIP3    H159245   6.680   4.481   6.247 -0.5751 -0.0087  0.1726
12610TIP3    H259246   6.631   4.624   6.252  0.1528  0.2397  0.3708
12611TIP3   OH259247   2.216   3.088   6.092  0.3605  0.4826 -0.6724
12611TIP3    H159248   2.243   3.092   6.001  0.5197  2.1315 -0.5766
12611TIP3    H259249   2.131   3.044   6.090  1.3284 -1.4832 -1.3508
12612TIP3   OH259250   5.758   0.988   2.250 -0.5792 -0.2080  1.0622
12612TIP3    H159251   5.738   1.005   2.342 -0.0903 -1.1733  1.3633
12612TIP3    H259252   5.812   1.062   2.223  0.4426 -0.5923  1.9689
12613TIP3   OH259253   1.066   2.843  16.604 -0.3776  0.0049  0.0669
12613TIP3    H159254   1.085   2.823  16.512  1.9713 -1.4913  0.7983
12613TIP3    H259255   1.129   2.910  16.628 -2.1105  1.6771  0.2040
12614TIP3   OH259256   1.801   4.836   4.142  0.2612  0.0497 -0.3281
12614TIP3    H159257   1.748   4.770   4.187 -1.2560  1.2967 -0.1980
12614TIP3    H259258   1.869   4.859   4.205  0.2587 -0.7261 -0.0285
12615TIP3   OH259259   5.874   5.159  10.731 -0.1283 -0.4620 -0.1614
12615TIP3    H159260   5.878   5.205  10.647  1.0631  1.4284  0.8256
12615TIP3    H259261   5.934   5.209  10.787 -0.1282 -2.2549  1.5268
12616TIP3   OH259262   3.142   6.508   4.709  0.7667 -0.0512 -0.8144
12616TIP3    H159263   3.050   6.532   4.714  1.1387  1.2761 -0.0160
12616TIP3    H259264   3.188   6.574   4.760  2.0726 -1.2486 -0.3618
12617TIP3   OH259265   4.272   2.194  14.503  0.0458 -0.5552 -0.3497
12617TIP3    H159266   4.271   2.286  14.476 -1.1787  0.3565  2.3641
12617TIP3    H259267   4.181   2.176  14.526  0.6505 -1.7058  1.3193
12618TIP3   OH259268   3.074   0.308  12.776 -0.6757 -0.1884  0.4643
12618TIP3    H159269   2.999   0.249  12.785 -0.5189 -0.4756 -0.1123
12618TIP3    H259270   3.144   0.253  12.742 -0.6015  0.3814 -0.3365
12619TIP3   OH259271   1.749   1.039   3.502  0.1989  0.0102 -0.3269
12619TIP3    H159272   1.773   1.129   3.477 -1.4375  0.3230 -0.8894
12619TIP3    H259273   1.774   0.986   3.426  1.7128 -0.1364  0.2363
12620TIP3   OH259274   2.483   5.038   1.042 -0.1955 -0.5272 -0.2914
12620TIP3    H159275   2.496   5.125   1.004  0.1006  0.3497  1.7144
12620TIP3    H259276   2.415   4.998   0.988 -1.9310  1.7958  0.0451
12621TIP3   OH259277   2.223   5.836   2.311 -0.0026 -0.4536  0.0772
12621TIP3    H159278   2.237   5.929   2.326  0.4947 -0.2613 -1.3858
12621TIP3    H259279   2.139   5.832   2.266  1.7325 -0.2366 -3.5361
12622TIP3   OH259280   4.221   6.344  16.516  0.5893  0.3100 -0.1656
12622TIP3    H159281   4.203   6.256  16.483 -1.2280  0.7415 -0.4492
12622TIP3    H259282   4.174   6.402  16.455  1.1058  1.4186  0.4636
12623TIP3   OH259283   3.403   3.839   1.674 -0.3353 -0.1875  0.2407
12623TIP3    H159284   3.353   3.766   1.710  0.3091 -0.6576  0.1821
12623TIP3    H259285   3.444   3.804   1.595 -0.6333  0.4522 -0.2075
12624TIP3   OH259286   4.516   3.070   1.908 -0.4401 -0.4470 -0.2116
12624TIP3    H159287   4.426   3.088   1.881 -0.1462  0.2720 -0.7504
12624TIP3    H259288   4.507   3.012   1.983 -1.4853  2.2670  1.9495
12625TIP3   OH259289   2.290   2.024  13.655 -0.6398 -0.1736  0.0076
12625TIP3    H159290   2.295   2.117  13.633  2.9258 -0.1556  0.2553
12625TIP3    H259291   2.274   2.022  13.749  3.0586  0.5068  0.8249
12626TIP3   OH259292   3.030   0.430  13.146 -0.1635 -0.0370  0.2190
12626TIP3    H159293   2.946   0.408  13.187  0.4893 -2.3408  0.4726
12626TIP3    H259294   3.066   0.346  13.119  2.6539  0.7179  1.2509
12627TIP3   OH259295   1.817   0.083   5.869 -0.0275 -0.5837 -0.2217
12627TIP3    H159296   1.727   0.057   5.853  0.0280 -1.4594  0.7621
12627TIP3    H259297   1.859   0.004   5.906  0.9706 -0.0177 -0.0978
12628TIP3   OH259298   2.152   2.939   2.438  0.4877  0.6175 -0.4838
12628TIP3    H159299   2.114   3.008   2.384  1.3866  2.8769  1.5836
12628TIP3    H259300   2.213   2.894   2.380 -1.2237  0.5084 -2.3013
12629TIP3   OH259301   5.397   2.937  14.428 -0.4354  0.4228 -0.1586
12629TIP3    H159302   5.330   2.903  14.369 -1.7183 -0.1769  1.5387
12629TIP3    H259303   5.358   2.930  14.515  1.7201  0.3780  0.8798
12630TIP3   OH259304   5.891   4.585  13.863 -0.3335  0.5064  0.0145
12630TIP3    H159305   5.854   4.541  13.785  0.7597  0.3951 -0.4520
12630TIP3    H259306   5.985   4.569  13.857 -0.2053  0.7395  1.2256
12631TIP3   OH259307   0.484   0.060  15.598  0.4722 -0.0344  0.1369
12631TIP3    H159308   0.494   0.006  15.519 -2.7319 -0.7793  0.0974
12631TIP3    H259309   0.529   0.010  15.666  0.4963 -1.0359 -0.5796
12632TIP3   OH259310   2.523   4.473   4.717  0.2477 -0.2530  0.3197
12632TIP3    H159311   2.474   4.400   4.755 -0.3907 -0.0760 -0.1327
12632TIP3    H259312   2.480   4.551   4.753 -0.0097 -0.0923 -0.3302
12633TIP3   OH259313   0.090   2.780   2.977  0.5609  0.2695  0.1188
12633TIP3    H159314   0.068   2.859   3.025  1.9933  0.5693  0.3300
12633TIP3    H259315   0.006   2.743   2.951 -0.2177  0.5912  2.0373
12634TIP3   OH259316   4.446   6.222   3.411 -0.1911  0.2468  0.0047
12634TIP3    H159317   4.411   6.142   3.371  0.2459  1.6007 -3.4103
12634TIP3    H259318   4.379   6.288   3.393 -0.2912  0.8483  2.2871
12635TIP3   OH259319   2.728   0.918  15.425 -0.1360 -0.0370  0.2648
12635TIP3    H159320   2.763   0.866  15.353 -1.1371  0.7453 -0.8437
12635TIP3    H259321   2.758   0.874  15.505 -0.0955 -1.6906 -0.6284
12636TIP3   OH259322   2.706   1.342  16.710 -0.8014  0.1540  0.2703
12636TIP3    H159323   2.753   1.262  16.686 -2.2492 -0.7865  0.3767
12636TIP3    H259324   2.772   1.399  16.748  0.2095 -1.1790  0.5876
12637TIP3   OH259325   5.520   2.792  16.244 -0.5285  0.0863  0.0094
12637TIP3    H159326   5.488   2.717  16.294 -1.2677  0.5377  0.2167
12637TIP3    H259327   5.471   2.790  16.162 -0.6955  0.4616  0.0990
12638TIP3   OH259328   6.695   0.195  13.590  0.3553  0.5257 -0.1515
12638TIP3    H159329   6.635   0.183  13.664 -0.7720  0.7162 -1.0104
12638TIP3    H259330   6.645   0.243  13.525  1.1682 -0.0428 -1.2400
12639TIP3   OH259331   0.650   2.175  11.287 -0.2006 -0.2562 -0.2015
12639TIP3    H159332   0.710   2.101  11.278 -1.4602 -1.2397 -0.9630
12639TIP3    H259333   0.667   2.229  11.210  0.3046 -0.0823  0.0342
12640TIP3   OH259334   5.240   2.811  14.213  0.0269 -0.2727  0.1897
12640TIP3    H159335   5.248   2.717  14.196  1.0382 -0.0459 -0.7396
12640TIP3    H259336   5.292   2.852  14.143 -1.8650  1.0602 -0.5142
12641TIP3   OH259337   0.284   1.979  12.106 -0.0306 -0.4561  0.0610
12641TIP3    H159338   0.290   2.023  12.021 -1.4593  0.3448  0.3464
12641TIP3    H259339   0.260   1.888  12.084 -1.6809  0.0425 -0.3834
12642TIP3   OH259340   6.568   2.842  11.514  0.3962 -0.1245 -0.1122
12642TIP3    H159341   6.525   2.911  11.564  0.7922  0.3508 -0.4161
12642TIP3    H259342   6.602   2.887  11.436  0.0777 -0.7867 -0.6482
12643TIP3   OH259343   0.834   5.887   5.660  0.0769  0.5255  0.1228
12643TIP3    H159344   0.848   5.794   5.677 -0.4078  0.5307  0.5554
12643TIP3    H259345   0.746   5.892   5.623  0.5619  0.6794 -1.0614
12644TIP3   OH259346   3.732   1.280  11.733  0.9577 -0.2495  0.3141
12644TIP3    H159347   3.760   1.193  11.761 -0.6717 -1.1240 -0.6157
12644TIP3    H259348   3.737   1.334  11.812  3.2370 -0.8056  0.6339
12645TIP3   OH259349   1.033   2.324  10.526  0.2458  0.1250 -0.2123
12645TIP3    H159350   1.105   2.364  10.477  0.7455 -1.9528 -1.2979
12645TIP3    H259351   0.956   2.374  10.500  0.9626  0.9792 -0.7603
12646TIP3   OH259352   2.911   4.748   5.318  0.0464 -0.0515  0.5698
12646TIP3    H159353   2.935   4.660   5.349 -1.7947 -0.6862  0.2954
12646TIP3    H259354   2.960   4.758   5.236  0.2569 -0.8516  0.5846
12647TIP3   OH259355   1.931   2.365  15.146 -0.2878 -0.2944 -0.7691
12647TIP3    H159356   1.855   2.309  15.157  0.5451 -1.6092 -1.5335
12647TIP3    H259357   1.925   2.397  15.056 -0.6237  0.6768 -0.4176
12648TIP3   OH259358   0.893   3.067   4.752  0.1804  0.0694 -0.0339
12648TIP3    H159359   0.808   3.024   4.760  0.3027 -0.3233 -0.7260
12648TIP3    H259360   0.924   3.077   4.842 -0.2055 -0.5896  0.1788
12649TIP3   OH259361   2.117   0.401  16.954 -0.1891  0.1392  0.1329
12649TIP3    H159362   2.177   0.381  16.882 -1.4345  0.5465 -1.0449
12649TIP3    H259363   2.152   0.483  16.991 -0.6641  1.0501 -1.3305
12650TIP3   OH259364   5.373   0.002   1.618  0.3222 -0.1709 -0.0917
12650TIP3    H159365   5.380   0.017   1.712 -2.0361  0.0983  0.1100
12650TIP3    H259366   5.421  -0.078   1.602 -0.3526 -0.9584  1.5937
12651TIP3   OH259367   0.417   0.465  13.138 -0.2870 -0.1145  0.6608
12651TIP3    H159368   0.469   0.419  13.203  0.6099  0.1286  0.1242
12651TIP3    H259369   0.398   0.551  13.177  3.0802  1.3836 -0.6279
12652TIP3   OH259370   1.714   6.250   1.657 -0.1837 -0.3744 -0.4598
12652TIP3    H159371   1.784   6.315   1.667  0.3569 -1.0238  0.0161
12652TIP3    H259372   1.673   6.272   1.573  1.9168 -1.2522 -1.7915
12653TIP3   OH259373   6.108   4.719  11.696  0.5413 -0.1227  0.4061
12653TIP3    H159374   6.066   4.781  11.755  0.5341  0.3468 -0.0921
12653TIP3    H259375   6.036   4.671  11.655  0.2437  2.5103 -2.5032
12654TIP3   OH259376   6.616   0.273  13.307 -0.6366 -0.1757  0.4374
12654TIP3    H159377   6.652   0.320  13.232  0.7149 -1.0823  0.4679
12654TIP3    H259378   6.576   0.195  13.268 -0.8052 -0.1586  0.5788
12655TIP3   OH259379   5.484   6.616  15.393 -0.8075  0.5944 -0.1613
12655TIP3    H159380   5.520   6.536  15.355  2.0606  1.8647 -0.4602
12655TIP3    H259381   5.394   6.594  15.417  0.0784 -2.9255  0.5354
12656TIP3   OH259382   5.600   5.878  11.377 -0.2569  0.1995 -0.3051
12656TIP3    H159383   5.592   5.863  11.283  0.9031 -0.0213 -0.3930
12656TIP3    H259384   5.688   5.847  11.399 -0.5460  0.1520  0.8761
12657TIP3   OH259385   4.321   2.413   3.777 -0.4735 -0.0851  0.4815
12657TIP3    H159386   4.264   2.345   3.814 -0.7326 -0.0787  0.0989
12657TIP3    H259387   4.410   2.379   3.787 -0.5387 -0.0718  1.1394
12658TIP3   OH259388   4.293   3.789  11.544  0.5031  0.4377 -0.2421
12658TIP3    H159389   4.363   3.842  11.507  2.4154 -1.4088  0.5284
12658TIP3    H259390   4.281   3.718  11.481  1.3051 -0.7588  0.8912
12659TIP3   OH259391   1.299   5.038   1.838  0.1289  0.6932  0.5130
12659TIP3    H159392   1.301   4.957   1.787  0.0938  0.8346  0.2868
12659TIP3    H259393   1.207   5.051   1.859  0.0782  0.9186  0.1575
12660TIP3   OH259394   2.715   4.958  15.143 -0.0078 -0.2508 -0.5965
12660TIP3    H159395   2.639   4.924  15.190 -0.2090  1.7364  0.6611
12660TIP3    H259396   2.768   5.000  15.211  0.3160  1.6853 -1.9583
12661TIP3   OH259397   0.289   1.593  11.123  0.1608 -0.6069  0.0776
12661TIP3    H159398   0.368   1.558  11.082  0.2930  0.0298 -0.2213
12661TIP3    H259399   0.227   1.606  11.051 -0.1718 -0.9769  0.2930
12662TIP3   OH259400   5.902   2.718   0.497 -0.2459 -0.2944 -0.0768
12662TIP3    H159401   5.830   2.726   0.560 -0.4257  1.1385 -0.4335
12662TIP3    H259402   5.861   2.682   0.419 -0.1031 -1.6858  0.4600
12663TIP3   OH259403   0.363   1.216  15.348  0.3938  0.7646 -0.1565
12663TIP3    H159404   0.394   1.244  15.262 -0.3645  1.2791 -0.2705
12663TIP3    H259405   0.363   1.296  15.401 -1.0881  0.8593 -0.2713
12664TIP3   OH259406   0.937   3.157   4.013  0.3030 -0.1465 -0.5896
12664TIP3    H159407   1.006   3.175   3.949  0.5461 -1.4000 -0.6921
12664TIP3    H259408   0.984   3.143   4.096  0.2458 -1.6783 -0.7957
12665TIP3   OH259409   1.634   2.043  17.203  0.2507 -0.0316  0.2859
12665TIP3    H159410   1.634   2.052  17.299 -0.3725  2.6346  0.1161
12665TIP3    H259411   1.691   2.113  17.172 -0.2273 -0.3112 -1.3248
12666TIP3   OH259412   0.580   1.671   0.533  0.2633 -0.4318 -0.3184
12666TIP3    H159413   0.501   1.635   0.492 -0.0464  0.2165 -0.2923
12666TIP3    H259414   0.594   1.615   0.610 -1.0846  0.4173  0.5797
12667TIP3   OH259415   6.701   1.992  13.509  0.4418  0.3127 -0.5929
12667TIP3    H159416   6.751   2.014  13.430 -0.7367 -0.2452 -1.5500
12667TIP3    H259417   6.612   2.021  13.488 -0.0951 -0.7764  0.1168
12668TIP3   OH259418   2.973   5.741  16.179  0.3890  0.3302 -1.1443
12668TIP3    H159419   2.889   5.787  16.174  0.9519  1.4484 -0.5894
12668TIP3    H259420   2.966   5.673  16.112 -0.8240  0.6243 -1.3554
12669TIP3   OH259421   3.084   5.560   4.575  0.3211 -0.3313  0.7884
12669TIP3    H159422   3.096   5.465   4.567  1.1180 -0.2233  0.6671
12669TIP3    H259423   3.104   5.579   4.667 -2.9400 -0.7028  1.7169
12670TIP3   OH259424   5.677   4.215   0.301 -0.2484 -0.0075  0.2239
12670TIP3    H159425   5.662   4.268   0.379 -0.1129  1.0198 -0.4334
12670TIP3    H259426   5.669   4.276   0.228 -2.9957 -1.4265 -0.8010
12671TIP3   OH259427   2.200   3.644   5.436  0.3385 -0.1449 -0.1898
12671TIP3    H159428   2.147   3.666   5.359 -0.7979  1.1790  0.9149
12671TIP3    H259429   2.273   3.706   5.434 -1.8911  2.8440  1.9276
12672TIP3   OH259430   5.345   6.404   2.658  0.3470  0.2625 -0.1758
12672TIP3    H159431   5.333   6.326   2.712  0.3255  0.8886  0.7442
12672TIP3    H259432   5.279   6.466   2.690  0.3526  0.6515 -0.9082
12673TIP3   OH259433   6.077   3.344   3.642  0.1888 -0.1388 -0.2844
12673TIP3    H159434   6.124   3.312   3.565  1.6033  0.4219  0.3049
12673TIP3    H259435   6.031   3.267   3.676 -0.2348 -0.4445 -1.5294
12674TIP3   OH259436   5.110   1.095  15.839  0.3030 -0.4253 -0.5372
12674TIP3    H159437   5.077   1.054  15.918  2.7466 -0.0125  0.8094
12674TIP3    H259438   5.060   1.177  15.831 -1.5930 -1.5559 -0.8190
12675TIP3   OH259439   0.495   1.783  15.777  0.1674  0.0838 -0.2025
12675TIP3    H159440   0.536   1.842  15.841  0.1113 -1.0961  0.9479
12675TIP3    H259441   0.473   1.841  15.703  0.0758  1.5150  0.8929
12676TIP3   OH259442   0.591   1.733  17.225  0.2866 -0.1823 -0.5829
12676TIP3    H159443   0.585   1.828  17.221  1.7869  0.0873  1.6738
12676TIP3    H259444   0.630   1.707  17.141  0.5680  1.2782 -0.9228
12677TIP3   OH259445   1.503   3.218  17.248  0.5654 -0.1477 -0.4939
12677TIP3    H159446   1.502   3.122  17.241  0.0558 -0.0631 -2.0221
12677TIP3    H259447   1.419   3.245  17.210  0.3556  0.8826  0.6569
12678TIP3   OH259448   4.018   5.516  12.686 -0.0570  0.2098  0.2749
12678TIP3    H159449   4.066   5.584  12.733  1.6712 -0.7454 -0.0253
12678TIP3    H259450   4.073   5.495  12.611 -1.2279 -0.5567 -0.4074
12679TIP3   OH259451   3.397   1.000   3.284  0.2534 -0.0133  0.2449
12679TIP3    H159452   3.314   1.047   3.290  0.2977 -0.0216  0.9623
12679TIP3    H259453   3.447   1.050   3.219 -0.4303 -0.2051 -0.4397
12680TIP3   OH259454   6.750   6.596  11.603 -0.0912 -0.0660  0.1214
12680TIP3    H159455   6.801   6.621  11.525 -1.4476  1.8264 -0.2289
12680TIP3    H259456   6.798   6.635  11.676  1.7299 -2.6726  0.4382
12681TIP3   OH259457   5.612   0.427  17.102 -0.1036  0.4550 -0.1798
12681TIP3    H159458   5.681   0.456  17.043 -1.6654  0.7456 -1.9407
12681TIP3    H259459   5.593   0.503  17.157  0.6942  0.4802  0.0830
12682TIP3   OH259460   0.477   4.885   2.170  0.3965  0.9217  0.2403
12682TIP3    H159461   0.453   4.913   2.258 -1.1714 -1.1645  0.5437
12682TIP3    H259462   0.565   4.921   2.157  1.3365  0.0639  3.2644
12683TIP3   OH259463   6.074   0.574  10.726 -0.2085 -0.4623  0.0287
12683TIP3    H159464   6.060   0.630  10.650  5.5326 -1.9395 -2.6629
12683TIP3    H259465   6.042   0.488  10.699  0.2702 -0.6210 -0.0477
12684TIP3   OH259466   6.270   4.793  11.467  0.2060 -0.0864  0.5870
12684TIP3    H159467   6.234   4.771  11.553 -0.8640  0.0153  0.1830
12684TIP3    H259468   6.335   4.726  11.450 -1.1605 -1.4370  0.5122
12685TIP3   OH259469   6.330   1.922   0.783 -0.5406 -0.3968  0.2755
12685TIP3    H159470   6.315   2.005   0.739  3.1215 -0.5385 -1.6199
12685TIP3    H259471   6.277   1.859   0.736  1.4751 -0.1116 -2.6393
12686TIP3   OH259472   1.354   1.754   5.102  0.6459  0.5346 -0.1050
12686TIP3    H159473   1.266   1.790   5.098 -1.2277 -3.5985 -1.7345
12686TIP3    H259474   1.404   1.807   5.040 -1.5383  1.1778 -1.4445
12687TIP3   OH259475   1.607   0.215  16.407  0.2713  0.1830 -0.1153
12687TIP3    H159476   1.544   0.285  16.388 -1.3935 -0.5840  2.0854
12687TIP3    H259477   1.587   0.190  16.498  2.5492 -1.3859  0.0279
12688TIP3   OH259478   0.708   4.329  15.686 -0.2865  0.1963  0.5960
12688TIP3    H159479   0.643   4.388  15.724  0.8806 -0.2158  3.4895
12688TIP3    H259480   0.783   4.384  15.668 -1.5476  0.8569 -3.6218
12689TIP3   OH259481   3.072   0.373  15.488 -0.2820 -0.6539  0.1030
12689TIP3    H159482   3.139   0.437  15.464 -0.7336  0.0034  0.5594
12689TIP3    H259483   3.040   0.338  15.405 -0.0853 -0.2295 -0.1509
12690TIP3   OH259484   1.060   6.776  11.777 -0.2585 -0.1560  0.0472
12690TIP3    H159485   1.122   6.746  11.711  1.2067  0.5872  1.0375
12690TIP3    H259486   1.111   6.782  11.858 -1.0010  2.7388  0.4197
12691TIP3   OH259487   4.456   0.894   6.903  0.3542  0.5060 -0.6095
12691TIP3    H159488   4.549   0.909   6.923  0.1425  0.1903  0.7086
12691TIP3    H259489   4.410   0.958   6.956 -0.2400 -0.2409 -0.2117
12692TIP3   OH259490   3.411   5.292  13.787  0.7846  0.3426  0.3177
12692TIP3    H159491   3.408   5.386  13.768 -0.5864 -0.0492 -1.8205
12692TIP3    H259492   3.418   5.250  13.701 -0.3334 -1.5593  1.0813
12693TIP3   OH259493   5.725   2.511  11.079 -0.3161 -0.0021  0.3866
12693TIP3    H159494   5.785   2.447  11.116  0.9201  0.7479 -0.2656
12693TIP3    H259495   5.682   2.465  11.007  0.4724 -0.1340 -0.0025
12694TIP3   OH259496   6.656   3.338  14.222 -0.3765  0.1606 -0.2053
12694TIP3    H159497   6.657   3.395  14.145  1.3314  0.5935  0.0832
12694TIP3    H259498   6.717   3.267  14.200 -0.5398 -0.1836  0.4156
12695TIP3   OH259499   1.410   2.988   3.821 -0.6096  0.3496  0.1112
12695TIP3    H159500   1.362   2.907   3.800  0.6788 -1.0496  2.1628
12695TIP3    H259501   1.469   2.962   3.892  2.2844  2.2804 -1.4150
12696TIP3   OH259502   3.392   0.527   2.309  0.4653 -0.4623 -0.2284
12696TIP3    H159503   3.325   0.553   2.247 -0.9660 -0.8040  1.1055
12696TIP3    H259504   3.344   0.487   2.382  1.9974  0.5150  1.4146
12697TIP3   OH259505   5.505   3.449   2.606  0.3056 -0.3187  0.3838
12697TIP3    H159506   5.444   3.452   2.679 -0.3451  1.3350 -0.1850
12697TIP3    H259507   5.516   3.356   2.588 -0.9214 -0.6938  1.4234
12698TIP3   OH259508   1.975   0.995   4.508  0.1393  0.2652 -1.0386
12698TIP3    H159509   2.044   1.000   4.441  1.0146  2.3424 -0.0465
12698TIP3    H259510   2.020   1.010   4.591 -1.5960  2.7831 -0.4484
12699TIP3   OH259511   0.484   2.355   1.451  0.0474  0.0115  0.0879
12699TIP3    H159512   0.549   2.346   1.381  1.9925  2.5880  1.4027
12699TIP3    H259513   0.404   2.385   1.407  0.5056 -0.6735 -1.2591
12700TIP3   OH259514   1.432   5.315  17.072  0.3426 -0.9812  0.2508
12700TIP3    H159515   1.371   5.388  17.078  1.8040  0.2721  0.7459
12700TIP3    H259516   1.501   5.347  17.014  0.4719 -2.4000 -0.4105
12701TIP3   OH259517   0.801   2.634  15.235 -0.2258 -0.3674  0.5576
12701TIP3    H159518   0.875   2.573  15.238 -0.9060 -1.1931  2.5849
12701TIP3    H259519   0.821   2.693  15.163  1.2459 -2.0144 -0.4676
12702TIP3   OH259520   4.743   3.882   3.467  0.0469 -0.1483 -0.1910
12702TIP3    H159521   4.716   3.831   3.544 -0.5131  3.1220  2.0071
12702TIP3    H259522   4.664   3.889   3.414  0.1590 -1.5895 -0.5646
12703TIP3   OH259523   0.541   1.780   2.238 -0.1598  0.3980  0.0469
12703TIP3    H159524   0.524   1.852   2.177  3.2702  0.5121 -1.0139
12703TIP3    H259525   0.611   1.813   2.295  1.4095 -1.9531 -0.3583
12704TIP3   OH259526   3.007   2.722  12.799  0.2592 -0.0736 -0.0133
12704TIP3    H159527   2.991   2.662  12.726  0.1607 -0.3240  0.2149
12704TIP3    H259528   3.075   2.782  12.766 -0.1871  0.1671 -0.5089
12705TIP3   OH259529   5.791   3.631   5.590 -0.2725 -0.1303  1.0990
12705TIP3    H159530   5.728   3.685   5.543  0.2638 -0.2312  0.2378
12705TIP3    H259531   5.751   3.544   5.593  0.3666 -0.5313 -0.6414
12706TIP3   OH259532   5.573   6.649   6.459 -0.2967 -0.1858 -0.0280
12706TIP3    H159533   5.505   6.685   6.402  0.2649 -1.3784 -1.5284
12706TIP3    H259534   5.609   6.576   6.409 -0.8718 -2.3531  2.5587
12707TIP3   OH259535   6.334   1.475   5.556 -0.1052 -0.4866  0.1382
12707TIP3    H159536   6.428   1.493   5.558 -0.0364 -0.6927 -0.8614
12707TIP3    H259537   6.300   1.529   5.485 -0.9832  0.5863  1.3318
12708TIP3   OH259538   5.992   2.869   0.999  0.0860  0.3157 -0.0546
12708TIP3    H159539   6.068   2.928   1.001 -0.2404  0.7333  0.1572
12708TIP3    H259540   6.006   2.816   0.920 -1.2465  2.8908 -2.1816
12709TIP3   OH259541   3.443   6.298  14.246 -0.1045  0.0147  0.5377
12709TIP3    H159542   3.407   6.376  14.203 -2.6135 -1.4793 -0.3301
12709TIP3    H259543   3.409   6.303  14.336  0.4651  0.3356  0.7395
12710TIP3   OH259544   3.745   2.859   0.832 -0.0822  0.7237  0.0479
12710TIP3    H159545   3.834   2.847   0.867 -0.3008 -0.4750  0.2506
12710TIP3    H259546   3.689   2.858   0.910 -0.1764  3.2036  0.0961
12711TIP3   OH259547   3.499   2.726   1.255  0.2601 -0.8907 -0.5264
12711TIP3    H159548   3.548   2.728   1.337 -1.3366  0.4892  0.4653
12711TIP3    H259549   3.453   2.643   1.257  0.0009 -0.7382  0.1409
12712TIP3   OH259550   3.555   4.367  13.512  0.2807 -0.3755 -0.1267
12712TIP3    H159551   3.627   4.328  13.463  1.8062  3.9918 -1.8458
12712TIP3    H259552   3.486   4.380  13.447 -1.0226 -1.9327  0.8746
12713TIP3   OH259553   3.282   6.560  15.095 -0.3957 -0.5371 -0.2617
12713TIP3    H159554   3.291   6.595  15.184 -0.5195  1.6433 -1.0332
12713TIP3    H259555   3.231   6.627  15.049 -1.8061 -2.4034 -1.5592
12714TIP3   OH259556   5.802   4.846   2.833 -0.2707  0.0119  0.1848
12714TIP3    H159557   5.814   4.778   2.768  0.1867  1.4439 -1.3086
12714TIP3    H259558   5.713   4.877   2.821 -0.3783 -0.1118  0.6446
12715TIP3   OH259559   1.117   5.607   3.957 -0.5041  0.5162 -0.3493
12715TIP3    H159560   1.178   5.676   3.983  0.3861 -0.0202 -0.9553
12715TIP3    H259561   1.125   5.541   4.025  0.8071 -0.2694 -1.2161
12716TIP3   OH259562   2.738   4.080  11.767 -0.5142 -0.1778  0.6308
12716TIP3    H159563   2.801   4.031  11.819 -1.1045  2.4572  4.1747
12716TIP3    H259564   2.654   4.070  11.813 -1.6723  0.2816 -1.2449
12717TIP3   OH259565   0.822   4.674  14.538  0.0928  0.4412 -0.7287
12717TIP3    H159566   0.900   4.630  14.503  1.1995  2.7330 -1.3157
12717TIP3    H259567   0.848   4.702  14.626 -0.3058  0.6328 -0.6690
12718TIP3   OH259568   3.587   2.849  12.567 -0.3149 -0.3933  0.4139
12718TIP3    H159569   3.590   2.787  12.494 -0.9296 -0.3748  0.3726
12718TIP3    H259570   3.669   2.833  12.614  2.0403  2.1566 -2.3558
12719TIP3   OH259571   2.589   5.474   0.066 -0.1808 -0.7987  0.3438
12719TIP3    H159572   2.552   5.496   0.152  1.8781  1.7256  0.7455
12719TIP3    H259573   2.517   5.488   0.004 -0.0044  5.1916  0.9040
12720TIP3   OH259574   4.303   0.942  13.585  0.0609  0.0117  0.0963
12720TIP3    H159575   4.324   1.035  13.573  0.9272 -0.1631  0.2117
12720TIP3    H259576   4.381   0.895  13.556  0.6203 -0.5839  2.3671
12721TIP3   OH259577   0.227   5.334   4.565 -0.1449 -0.1726  0.2708
12721TIP3    H159578   0.238   5.239   4.562 -0.5343 -0.4062  3.3631
12721TIP3    H259579   0.140   5.347   4.603  0.5706  1.3968  1.4464
12722TIP3   OH259580   4.068   3.122  14.570  1.0162 -0.4375 -0.5386
12722TIP3    H159581   3.980   3.117  14.531  0.3653  0.1338  0.7840
12722TIP3    H259582   4.113   3.189  14.519 -0.5176  1.8358  0.8686
12723TIP3   OH259583   4.329   0.621   1.323  0.2767 -0.1893 -0.0395
12723TIP3    H159584   4.235   0.613   1.313  0.3601 -0.7820 -0.3952
12723TIP3    H259585   4.346   0.597   1.414  0.1245 -0.4578 -0.0810
12724TIP3   OH259586   5.017   4.599  16.657 -0.5245  0.1501 -0.6225
12724TIP3    H159587   4.932   4.636  16.633 -0.2903  0.2955 -1.2670
12724TIP3    H259588   5.079   4.672  16.647 -0.6466  0.7786  2.3294
12725TIP3   OH259589   4.320   0.260   2.627 -0.4425 -0.2672  0.0423
12725TIP3    H159590   4.353   0.178   2.591 -0.3276  0.1471 -0.8212
12725TIP3    H259591   4.398   0.316   2.634 -0.7321  0.2569 -0.7462
12726TIP3   OH259592   3.333   6.167   5.528 -0.1198 -0.5688  0.1591
12726TIP3    H159593   3.328   6.240   5.466  0.7345 -0.3697  0.3129
12726TIP3    H259594   3.251   6.120   5.516 -0.6360  0.3598 -0.0127
12727TIP3   OH259595   5.238   6.241   2.952  0.3466 -0.1613 -0.1539
12727TIP3    H159596   5.275   6.256   3.039  3.6421  0.7030 -1.5472
12727TIP3    H259597   5.198   6.325   2.928  1.1485  0.2162 -0.1982
12728TIP3   OH259598   3.956   5.106   3.252  0.3625 -0.0483 -0.4084
12728TIP3    H159599   3.901   5.177   3.219  0.4774 -0.0590 -0.6301
12728TIP3    H259600   4.041   5.148   3.268  0.6740 -0.2996 -1.3274
12729TIP3   OH259601   5.143   6.430  10.986  0.5226  0.3143  0.2495
12729TIP3    H159602   5.164   6.519  11.012 -1.8790  1.2058 -0.6094
12729TIP3    H259603   5.079   6.440  10.915 -0.2532 -2.0829  0.5183
12730TIP3   OH259604   0.192   2.157  11.427 -0.0286 -0.1032 -0.1416
12730TIP3    H159605   0.213   2.169  11.334 -1.0497  0.2121 -0.3441
12730TIP3    H259606   0.171   2.064  11.435  1.6807 -0.4921  0.1281
12731TIP3   OH259607   5.346   6.087  15.296  0.0120 -0.6908  0.5786
12731TIP3    H159608   5.351   6.103  15.202  1.1843  0.3787  0.8089
12731TIP3    H259609   5.274   6.143  15.326 -0.8058 -1.5330  0.2384
12732TIP3   OH259610   1.866   3.357   4.157 -0.0922  0.0726  0.2812
12732TIP3    H159611   1.787   3.411   4.168  1.6644  3.0573 -0.8416
12732TIP3    H259612   1.930   3.415   4.118  2.1604 -2.7723 -0.5862
12733TIP3   OH259613   3.517   5.215   5.116  0.6425  0.3008 -0.7362
12733TIP3    H159614   3.515   5.305   5.150 -1.1064  0.6830 -1.7602
12733TIP3    H259615   3.535   5.225   5.023 -1.9763 -0.1898 -1.3652
12734TIP3   OH259616   3.909   4.018  14.889  0.1131  0.5075 -0.0313
12734TIP3    H159617   3.921   3.927  14.864  0.1443  0.1391  1.2764
12734TIP3    H259618   3.991   4.044  14.930  0.1094  1.1311 -0.4020
12735TIP3   OH259619   6.460   2.156   2.249  0.1982  0.1377  0.5273
12735TIP3    H159620   6.530   2.204   2.205  0.9177 -2.6099 -1.5512
12735TIP3    H259621   6.501   2.116   2.325  0.3970  0.1450  0.4231
12736TIP3   OH259622   4.511   0.620   5.992 -0.4844  0.1538  0.0699
12736TIP3    H159623   4.485   0.550   6.051  0.4298 -0.2480  0.0243
12736TIP3    H259624   4.429   0.651   5.953 -0.9877 -0.2690  0.7689
12737TIP3   OH259625   1.129   3.767   3.033  0.3568 -0.5888  0.8678
12737TIP3    H159626   1.120   3.711   3.111  0.4792 -1.9698 -0.0644
12737TIP3    H259627   1.040   3.796   3.014  0.2981 -0.4141  1.4026
12738TIP3   OH259628   0.173   2.965   3.846  0.2399 -0.4457 -0.1257
12738TIP3    H159629   0.079   2.947   3.854  0.3365 -1.3090 -0.7919
12738TIP3    H259630   0.179   3.029   3.775  0.2360 -1.2827 -0.8921
12739TIP3   OH259631   0.344   2.709  14.518  0.2020  0.4800 -0.3724
12739TIP3    H159632   0.329   2.767  14.593  1.8907  1.4453 -0.7355
12739TIP3    H259633   0.419   2.655  14.544  1.2202  1.2607 -1.5562
12740TIP3   OH259634   5.239   5.339  12.825  0.4244  0.4858  0.4380
12740TIP3    H159635   5.168   5.348  12.889  0.5910  1.6399  0.4817
12740TIP3    H259636   5.202   5.373  12.743 -0.0019 -1.5724 -0.2855
12741TIP3   OH259637   6.028   5.828   1.255 -0.1415  0.8420 -0.0244
12741TIP3    H159638   5.938   5.830   1.289  0.0755  0.7373  0.5617
12741TIP3    H259639   6.018   5.840   1.160 -1.0277 -2.2699 -0.4263
12742TIP3   OH259640   1.182   0.991  13.681 -0.1998 -0.3539  0.2148
12742TIP3    H159641   1.122   0.917  13.690  0.7135 -0.9351  1.9265
12742TIP3    H259642   1.138   1.064  13.725  0.4154 -0.8635  1.7573
12743TIP3   OH259643   2.176   4.682  15.819  0.5312 -0.3219  0.7363
12743TIP3    H159644   2.216   4.629  15.888  1.8926 -0.2102  0.0506
12743TIP3    H259645   2.087   4.700  15.852  0.0602 -2.8403  1.0820
12744TIP3   OH259646   3.688   6.277  13.847 -0.1434 -0.3691 -1.0985
12744TIP3    H159647   3.644   6.199  13.813  2.2582 -1.8262 -1.0799
12744TIP3    H259648   3.736   6.246  13.924  0.0532  1.3731 -0.4711
12745TIP3   OH259649   3.468   1.479   0.114 -0.3668 -0.1157 -0.0326
12745TIP3    H159650   3.399   1.542   0.095  1.1648  2.6154  2.6206
12745TIP3    H259651   3.469   1.473   0.210  2.0871 -1.2391 -0.0513
12746TIP3   OH259652   0.599   3.090  15.629  0.4504 -0.2744 -0.1883
12746TIP3    H159653   0.638   3.009  15.661 -1.0277 -0.9444 -0.0216
12746TIP3    H259654   0.561   3.067  15.544  0.5084  0.3936 -0.4009
12747TIP3   OH259655   0.999   6.775  15.277  0.1823 -0.1829  0.6984
12747TIP3    H159656   0.976   6.822  15.357 -2.4232  2.0898 -1.2093
12747TIP3    H259657   1.002   6.842  15.209  0.2172 -2.2752 -1.5098
12748TIP3   OH259658   1.038   4.882  14.558  0.3239  0.0841  0.2532
12748TIP3    H159659   1.124   4.847  14.535  1.6044  2.6315  0.8383
12748TIP3    H259660   1.006   4.823  14.627  1.3753 -1.1313 -0.2462
12749TIP3   OH259661   4.938   1.282   2.223  0.3594 -0.9300 -0.0700
12749TIP3    H159662   4.869   1.227   2.260  0.7448 -0.6062  1.1767
12749TIP3    H259663   4.978   1.228   2.155 -0.8187 -1.2880 -0.4992
12750TIP3   OH259664   5.400   2.098   3.777  0.5418 -0.4748 -0.1903
12750TIP3    H159665   5.402   2.194   3.782  0.5183 -0.4314 -0.9129
12750TIP3    H259666   5.462   2.069   3.844 -0.5499 -0.0038  1.0620
12751TIP3   OH259667   1.658   4.920  10.763  0.4236  0.2716 -0.1818
12751TIP3    H159668   1.631   4.834  10.797 -1.2877  0.9435  0.2575
12751TIP3    H259669   1.684   4.903  10.672  1.8300 -0.9810  0.4007
12752TIP3   OH259670   1.109   6.194  16.558  0.3972 -0.9154 -0.1369
12752TIP3    H159671   1.152   6.201  16.643  0.3957  0.3723 -0.2301
12752TIP3    H259672   1.016   6.204  16.577  0.5447  2.4230 -0.5323
12753TIP3   OH259673   2.946   3.267   4.141 -0.7525  0.5302 -0.2713
12753TIP3    H159674   2.894   3.245   4.063 -0.5544 -1.7290  0.1696
12753TIP3    H259675   2.931   3.194   4.201  3.0429 -0.3924 -0.2072
12754TIP3   OH259676   1.855   2.036  12.083  0.3454 -0.4194 -0.0046
12754TIP3    H159677   1.839   1.964  12.022  1.9925  0.5869 -1.7561
12754TIP3    H259678   1.940   2.015  12.123 -0.0488 -0.3502  0.8980
12755TIP3   OH259679   2.290   2.488   3.860 -0.2561 -0.2213 -0.3712
12755TIP3    H159680   2.215   2.446   3.904  0.2902  0.2959  1.1189
12755TIP3    H259681   2.283   2.580   3.886 -0.0859  0.1709 -1.6664
12756TIP3   OH259682   1.678   6.669  14.681 -0.4521 -0.5646  0.9936
12756TIP3    H159683   1.586   6.655  14.705 -0.9515 -1.8594 -1.3621
12756TIP3    H259684   1.691   6.615  14.603  2.3310 -0.4014  1.2308
12757TIP3   OH259685   2.493   1.631  12.018 -0.2828 -0.5663 -0.2403
12757TIP3    H159686   2.482   1.565  12.086  1.3750 -0.6199  0.0140
12757TIP3    H259687   2.570   1.603  11.969 -0.4519  0.3737 -1.0852
12758TIP3   OH259688   2.387   5.611   3.220  0.1424  0.2132 -0.0196
12758TIP3    H159689   2.355   5.648   3.138 -0.3777  0.1988  0.1664
12758TIP3    H259690   2.308   5.574   3.261  0.8969 -2.7376 -1.0235
12759TIP3   OH259691   1.800   6.066   2.734  0.1806 -0.1177  0.3609
12759TIP3    H159692   1.756   5.983   2.717 -1.4104  1.1451 -2.3106
12759TIP3    H259693   1.890   6.051   2.704 -1.0036  0.0691 -4.1278
12760TIP3   OH259694   3.495   4.803  13.385 -0.0366 -0.0031  0.4294
12760TIP3    H159695   3.499   4.898  13.387 -1.0206  0.0520  0.3418
12760TIP3    H259696   3.408   4.783  13.350  0.9899 -0.9500 -1.7652
12761TIP3   OH259697   5.846   5.757   4.644 -0.8621  0.0316  0.7394
12761TIP3    H159698   5.779   5.749   4.575 -0.9214  2.2153  0.4540
12761TIP3    H259699   5.798   5.743   4.725 -2.0190  2.6380  0.6185
12762TIP3   OH259700   4.124   1.127  11.267  0.0269 -0.3770 -0.6321
12762TIP3    H159701   4.089   1.183  11.199 -0.8577  0.3736  0.4007
12762TIP3    H259702   4.171   1.186  11.325  0.2116 -0.8984 -0.2417
12763TIP3   OH259703   2.514   0.938  13.873 -0.9453  0.2406 -0.2886
12763TIP3    H159704   2.559   1.014  13.836  0.1257  0.4064  1.2858
12763TIP3    H259705   2.490   0.965  13.962 -1.1566 -1.0374  0.0598
12764TIP3   OH259706   5.344   0.481  12.480  0.3278  0.6482  0.2963
12764TIP3    H159707   5.317   0.392  12.502 -1.1055  0.3817 -2.2409
12764TIP3    H259708   5.432   0.488  12.517  1.1056 -2.3746 -0.6434
12765TIP3   OH259709   6.277   2.226  12.652 -0.1796 -0.0693  0.2070
12765TIP3    H159710   6.249   2.303  12.701 -0.7945  0.3775 -0.7995
12765TIP3    H259711   6.358   2.198  12.694 -0.3575  0.6674  1.0664
12766TIP3   OH259712   4.727   6.543   0.856 -0.6426  0.5729 -0.3309
12766TIP3    H159713   4.704   6.628   0.818 -1.0569  0.7668  0.3206
12766TIP3    H259714   4.797   6.509   0.801 -0.7357  1.1704 -0.8211
12767TIP3   OH259715   5.530   0.076   3.519 -0.5631  0.4168  0.0812
12767TIP3    H159716   5.600   0.036   3.570  0.0007 -1.1515 -1.8169
12767TIP3    H259717   5.573   0.111   3.441 -1.1774  4.0668  1.1620
12768TIP3   OH259718   3.348   3.104  13.013 -0.4337 -0.0630 -0.8076
12768TIP3    H159719   3.417   3.055  13.056 -2.3649 -1.1235  1.3029
12768TIP3    H259720   3.286   3.126  13.083 -1.7747  1.6740 -2.4129
12769TIP3   OH259721   1.229   2.914   0.495 -0.1231  0.7557  0.2370
12769TIP3    H159722   1.250   2.980   0.560 -2.2877 -0.8179  2.7107
12769TIP3    H259723   1.298   2.848   0.504  0.5967  1.3920 -0.4271
12770TIP3   OH259724   4.943   5.460   1.224 -0.0717 -0.1000 -0.3819
12770TIP3    H159725   4.872   5.436   1.284  0.3857  1.0356  0.6656
12770TIP3    H259726   4.899   5.471   1.139 -0.8539 -1.0321 -0.1179
12771TIP3   OH259727   4.562   0.846   4.939 -0.0184  0.3141 -0.4778
12771TIP3    H159728   4.593   0.854   4.849 -1.3251  0.4490 -0.9416
12771TIP3    H259729   4.546   0.937   4.966  0.8341  0.3065  0.0681
12772TIP3   OH259730   5.728   1.197   3.263 -0.2086  0.0882  0.0302
12772TIP3    H159731   5.712   1.110   3.300  0.5733  1.0970  3.0882
12772TIP3    H259732   5.818   1.217   3.289 -1.8403  3.7637  4.2457
12773TIP3   OH259733   2.049   5.956  16.015  0.3656 -0.3566  0.4761
12773TIP3    H159734   2.124   6.005  16.048  0.0842  1.4533 -1.3350
12773TIP3    H259735   1.989   5.952  16.090  0.7879  1.3325  0.9502
12774TIP3   OH259736   0.492   2.027   0.794 -0.1265  0.0509 -0.4233
12774TIP3    H159737   0.523   2.015   0.705  1.2977 -0.5573  0.1286
12774TIP3    H259738   0.539   2.104   0.826 -2.2594  1.6562 -0.8576
12775TIP3   OH259739   0.507   6.748   6.735  0.5405 -0.0396  0.2579
12775TIP3    H159740   0.423   6.711   6.764  0.5445 -0.7449 -0.5815
12775TIP3    H259741   0.483   6.830   6.692  0.0040 -1.2125 -1.8252
12776TIP3   OH259742   3.600   1.236  16.794  0.1021 -0.2542  0.3371
12776TIP3    H159743   3.612   1.329  16.780  2.6502 -0.1079  2.7369
12776TIP3    H259744   3.621   1.195  16.710 -1.1927  1.2529 -0.7799
12777TIP3   OH259745   1.384   3.674  11.497  0.3706 -0.2688 -0.3361
12777TIP3    H159746   1.411   3.643  11.583  0.1212 -3.2356 -1.2172
12777TIP3    H259747   1.466   3.687  11.449  0.4698 -0.1202 -0.1250
12778TIP3   OH259748   0.622   6.036  14.049  0.0288 -0.1113 -0.8075
12778TIP3    H159749   0.607   6.122  14.009 -0.1306  0.2754  0.0538
12778TIP3    H259750   0.619   5.974  13.976 -1.6665  0.4016 -1.2037
12779TIP3   OH259751   6.245   5.172   1.172 -0.0275 -0.2854  0.4778
12779TIP3    H159752   6.171   5.170   1.231 -0.5810 -1.6703 -0.2234
12779TIP3    H259753   6.253   5.082   1.139  1.2380  0.0890 -0.3303
12780TIP3   OH259754   1.285   1.358   6.238 -0.5636  0.1437 -0.8140
12780TIP3    H159755   1.303   1.320   6.324 -1.5092 -0.7894 -1.0185
12780TIP3    H259756   1.250   1.445   6.257  1.1096  0.7425 -0.3271
12781TIP3   OH259757   2.480   3.408   2.578 -0.6106  0.2557 -0.4870
12781TIP3    H159758   2.439   3.454   2.505  0.9064  2.7511  0.1549
12781TIP3    H259759   2.574   3.422   2.566  0.1415 -3.8766 -0.9662
12782TIP3   OH259760   6.382   5.554  11.918 -0.1962  0.0578  0.4177
12782TIP3    H159761   6.358   5.501  11.994  0.1659 -0.3960  0.2208
12782TIP3    H259762   6.418   5.492  11.855  1.0017  0.6339  0.5043
12783TIP3   OH259763   2.123   2.207  14.010 -0.4530 -0.4312 -0.8472
12783TIP3    H159764   2.035   2.175  14.030 -0.1320 -0.4424  0.6173
12783TIP3    H259765   2.134   2.283  14.067 -0.2193  0.7422 -2.3987
12784TIP3   OH259766   1.998   3.144  12.810  0.2510  0.6834 -0.4552
12784TIP3    H159767   1.907   3.144  12.780  0.4590  0.0885 -1.1279
12784TIP3    H259768   2.006   3.063  12.860  0.4075  0.7245 -0.4141
12785TIP3   OH259769   3.922   4.191   3.714 -0.5065 -0.3940 -0.5433
12785TIP3    H159770   3.858   4.165   3.781  0.6113 -0.4487  0.5424
12785TIP3    H259771   3.914   4.286   3.710  0.8928 -0.1299  1.2975
12786TIP3   OH259772   3.922   6.656  13.196 -0.6063  0.6783  0.5667
12786TIP3    H159773   3.974   6.591  13.242 -1.4237  1.4406  2.6806
12786TIP3    H259774   3.923   6.733  13.253 -2.2657  1.4367 -0.3486
12787TIP3   OH259775   5.045   2.954  13.332 -0.3181 -0.0482 -0.0167
12787TIP3    H159776   4.964   2.981  13.288 -0.9560 -0.3621  0.9120
12787TIP3    H259777   5.035   2.860  13.345  0.8317 -0.3371 -1.1191
12788TIP3   OH259778   4.695   0.944  13.223  0.6413 -0.0112  0.4700
12788TIP3    H159779   4.765   0.881  13.205  2.2234  1.9477 -0.6625
12788TIP3    H259780   4.687   0.943  13.319  2.0655 -0.4695  0.6148
12789TIP3   OH259781   4.209   1.908  16.898  0.3296 -0.0490  0.3388
12789TIP3    H159782   4.265   1.846  16.944  1.4394  1.3402  0.9182
12789TIP3    H259783   4.269   1.962  16.848 -0.6240  0.5491 -0.1910
12790TIP3   OH259784   6.458   5.348  12.642  0.0795 -0.1285 -0.6868
12790TIP3    H159785   6.524   5.293  12.599 -0.4530 -0.2942 -1.3066
12790TIP3    H259786   6.495   5.366  12.729  0.3545 -1.3041 -0.5348
12791TIP3   OH259787   4.523   5.077  12.160 -0.0628  0.0571  0.7045
12791TIP3    H159788   4.517   5.160  12.114 -1.1972 -0.0430  0.6396
12791TIP3    H259789   4.522   5.011  12.091  0.4403 -0.0303  0.7759
12792TIP3   OH259790   3.265   5.760   5.591  0.0906  0.2395  0.3633
12792TIP3    H159791   3.326   5.707   5.540 -0.9090  0.0476 -0.6570
12792TIP3    H259792   3.273   5.727   5.680  0.5021 -0.6863 -0.0042
12793TIP3   OH259793   5.948   1.140   2.158  0.4747  0.3379  0.2925
12793TIP3    H159794   6.009   1.119   2.087  0.0632  2.2280 -0.6784
12793TIP3    H259795   5.997   1.120   2.238  0.7067 -2.4929 -0.4584
12794TIP3   OH259796   0.087   3.035   3.051 -0.4779  0.0778 -0.0459
12794TIP3    H159797   0.041   3.116   3.070  1.3498  1.3187 -0.5580
12794TIP3    H259798   0.126   3.050   2.964  1.3028 -0.6518  0.5818
12795TIP3   OH259799   2.518   0.747  14.913  0.3054  0.0528  0.3595
12795TIP3    H159800   2.585   0.809  14.941  0.4940 -0.2585  0.6018
12795TIP3    H259801   2.501   0.693  14.990 -1.5107  1.2557  0.8693
12796TIP3   OH259802   4.676   3.393   3.280  0.0090  0.0487  0.6191
12796TIP3    H159803   4.716   3.475   3.309  0.8694 -0.3243  0.5220
12796TIP3    H259804   4.688   3.393   3.185  1.0251 -0.6937  0.7298
12797TIP3   OH259805   6.369   2.700   6.207  0.6668  0.0872  0.1122
12797TIP3    H159806   6.357   2.794   6.192  1.1059  0.0677 -0.4050
12797TIP3    H259807   6.463   2.690   6.221  0.5108 -0.1626  1.0565
12798TIP3   OH259808   1.055   2.206   0.378  0.3015  0.0523  0.2262
12798TIP3    H159809   1.025   2.131   0.430  1.1445 -0.0468  0.5873
12798TIP3    H259810   1.146   2.186   0.357  0.1455  0.3508 -0.8363
12799TIP3   OH259811   3.111   2.251   1.444  0.1028 -0.6879 -0.6439
12799TIP3    H159812   3.106   2.347   1.440  0.9057 -0.6307 -0.5046
12799TIP3    H259813   3.098   2.222   1.354  1.9110 -0.3212 -1.0604
12800TIP3   OH259814   5.942   1.187  12.339 -0.5973 -0.0814  0.2961
12800TIP3    H159815   5.917   1.260  12.396 -1.6635 -0.1488 -0.0671
12800TIP3    H259816   6.006   1.138  12.390 -0.6994  0.4866  0.9909
12801TIP3   OH259817   0.967   4.180  11.974 -0.1536 -0.1258  0.2906
12801TIP3    H159818   0.923   4.264  11.958 -0.2852  0.0027  1.3040
12801TIP3    H259819   0.937   4.124  11.902  0.9608  1.0578 -1.1742
12802TIP3   OH259820   5.470   6.780   2.124 -0.2531 -0.4522  0.1572
12802TIP3    H159821   5.556   6.822   2.135 -0.6616  0.0766  1.4265
12802TIP3    H259822   5.491   6.689   2.105  0.5990 -0.2515  0.0592
12803TIP3   OH259823   4.359   5.419  10.846 -0.4097 -0.8011 -0.1899
12803TIP3    H159824   4.283   5.434  10.790 -0.1907 -0.7994 -0.4966
12803TIP3    H259825   4.326   5.368  10.919 -1.0283  0.5287  0.4959
12804TIP3   OH259826   5.343   2.477   4.534 -0.2318  0.2516  0.0920
12804TIP3    H159827   5.282   2.521   4.475 -0.6618 -2.0617 -1.2883
12804TIP3    H259828   5.299   2.477   4.619 -0.9451  0.9329 -0.2658
12805TIP3   OH259829   0.869   1.697  15.971  0.2671  0.3535  0.0584
12805TIP3    H159830   0.790   1.750  15.981 -2.3534 -3.0986 -0.2158
12805TIP3    H259831   0.876   1.682  15.877  2.0784  1.6624 -0.0471
12806TIP3   OH259832   6.554   2.278  11.879  1.0400 -0.0642 -0.1746
12806TIP3    H159833   6.521   2.340  11.813  0.9828  0.1458  0.0472
12806TIP3    H259834   6.643   2.308  11.897  0.9734  0.0216  0.0151
12807TIP3   OH259835   3.782   5.963  16.124  0.2271  1.3646 -0.0852
12807TIP3    H159836   3.758   6.012  16.202 -2.2490 -0.4364  0.4204
12807TIP3    H259837   3.710   5.977  16.063  1.1415  1.1197 -1.2739
12808TIP3   OH259838   4.423   5.114   1.392 -0.2586 -0.1476  0.0360
12808TIP3    H159839   4.373   5.188   1.357 -0.5236 -0.6933 -0.7766
12808TIP3    H259840   4.504   5.113   1.341  1.0256  1.2377  1.9058
12809TIP3   OH259841   5.044   1.408   0.478  0.4455  0.0798 -0.0229
12809TIP3    H159842   4.986   1.463   0.425  2.6238  0.9182 -1.6733
12809TIP3    H259843   5.074   1.466   0.549 -1.3267 -0.6184  1.3808
12810TIP3   OH259844   1.564   3.027   5.814 -0.0651 -0.0953 -0.3977
12810TIP3    H159845   1.524   3.053   5.731 -0.8783 -0.1582 -0.0315
12810TIP3    H259846   1.558   2.932   5.814 -0.4302 -0.0718 -0.0858
12811TIP3   OH259847   3.287   4.273   1.328 -0.2100 -0.1514 -0.0954
12811TIP3    H159848   3.240   4.200   1.369  0.7923 -0.9970 -0.3944
12811TIP3    H259849   3.234   4.350   1.347 -1.4464 -0.9960 -0.0091
12812TIP3   OH259850   0.983   6.727   4.143 -0.3815  0.4453  0.1702
12812TIP3    H159851   0.952   6.642   4.174  0.6189 -0.3845 -1.0174
12812TIP3    H259852   0.907   6.768   4.103 -0.6214 -0.3408 -0.1885
12813TIP3   OH259853   6.070   2.602   4.396  0.0189 -0.0923  0.0916
12813TIP3    H159854   6.113   2.625   4.479 -0.5647  1.1226  0.0712
12813TIP3    H259855   6.137   2.552   4.349  1.4133  1.6079  0.1258
12814TIP3   OH259856   3.600   2.374   1.755  0.2501  0.6228  0.2069
12814TIP3    H159857   3.557   2.292   1.779  0.1649  0.0829 -1.6102
12814TIP3    H259858   3.673   2.348   1.700  0.0162  1.7719 -0.6986
12815TIP3   OH259859   6.725   1.109   4.460 -1.2545  0.2147  0.2043
12815TIP3    H159860   6.731   1.073   4.372 -0.5522 -0.6505  0.5856
12815TIP3    H259861   6.639   1.151   4.463 -0.9337  1.0206 -1.1573
12816TIP3   OH259862   1.337   6.258  12.295 -0.0257  0.1361 -0.5856
12816TIP3    H159863   1.280   6.227  12.366 -1.3495  2.3383 -0.6132
12816TIP3    H259864   1.277   6.274  12.222  1.1494 -0.8581 -1.8314
12817TIP3   OH259865   1.412   1.894  16.011 -0.3777 -0.3259 -0.3703
12817TIP3    H159866   1.345   1.961  15.996 -1.0917 -0.6810  0.9813
12817TIP3    H259867   1.365   1.811  16.001 -0.7023 -0.5960  2.3995
12818TIP3   OH259868   4.623   3.221  15.364  0.1194  1.0861 -0.2823
12818TIP3    H159869   4.662   3.307  15.377  2.2821  0.3518 -1.3962
12818TIP3    H259870   4.599   3.192  15.453  1.4112  1.9261  0.3775
12819TIP3   OH259871   3.784   2.099  11.508 -0.1127  0.3202  0.4533
12819TIP3    H159872   3.837   2.160  11.559  0.5324  0.1108  0.0448
12819TIP3    H259873   3.696   2.138  11.507  1.0198  3.2973 -3.0466
12820TIP3   OH259874   3.207   2.331  12.647 -0.0481  0.4611  0.3307
12820TIP3    H159875   3.207   2.363  12.737 -1.7110  0.2122  0.4556
12820TIP3    H259876   3.274   2.263  12.645 -0.9321 -0.5045  1.7709
12821TIP3   OH259877   3.236   4.863   5.279  0.2116 -0.0141  0.1162
12821TIP3    H159878   3.160   4.888   5.332  0.5934 -1.8170  1.6105
12821TIP3    H259879   3.304   4.925   5.304 -0.5850  1.3322 -0.9004
12822TIP3   OH259880   2.203   1.763  11.027 -0.3879 -0.3315  0.0765
12822TIP3    H159881   2.122   1.719  11.001 -1.9474  2.4013 -0.0630
12822TIP3    H259882   2.233   1.806  10.947  0.2736  0.0161  0.5059
12823TIP3   OH259883   2.602   4.636  12.413  0.1645  0.1765 -0.3004
12823TIP3    H159884   2.658   4.603  12.483  0.2124  1.5573  0.3348
12823TIP3    H259885   2.662   4.655  12.341  0.4381  1.0309  0.1465
12824TIP3   OH259886   4.705   0.092   2.528  0.0456 -0.0783  0.3452
12824TIP3    H159887   4.777   0.093   2.592 -0.5268  3.2099  1.1044
12824TIP3    H259888   4.721   0.013   2.476  2.6531 -0.9082  2.1826
12825TIP3   OH259889   6.052   4.943  12.103 -0.2581  0.1418  0.0650
12825TIP3    H159890   6.054   4.963  12.196  1.2202  2.8676 -0.4297
12825TIP3    H259891   6.145   4.938  12.078 -0.6262 -0.6995 -1.2483
12826TIP3   OH259892   0.327   4.605   4.267 -0.2575  0.3314  0.3282
12826TIP3    H159893   0.386   4.575   4.337  0.5571 -0.5302 -0.6819
12826TIP3    H259894   0.248   4.552   4.277 -0.3231  0.5363  0.8801
12827TIP3   OH259895   4.239   2.917  11.839 -0.1746 -0.3287  0.1132
12827TIP3    H159896   4.251   2.846  11.902  0.3437 -1.4495 -1.1865
12827TIP3    H259897   4.155   2.897  11.796  1.5731 -2.2940 -2.7429
12828TIP3   OH259898   5.298   5.699  16.416 -0.3030  0.4308 -0.5567
12828TIP3    H159899   5.223   5.706  16.476 -0.5761  1.5110 -1.0023
12828TIP3    H259900   5.338   5.786  16.417  1.1068 -0.1839 -0.1512
12829TIP3   OH259901   3.080   5.342  15.871 -0.0103  0.0849  0.2340
12829TIP3    H159902   3.105   5.252  15.891 -1.9035 -0.3975  0.6168
12829TIP3    H259903   3.124   5.395  15.938  1.6270 -0.4516 -0.3738
12830TIP3   OH259904   5.472   4.763   2.104 -0.4144  0.1112  0.2575
12830TIP3    H159905   5.466   4.668   2.096  0.3529  0.1006 -0.2436
12830TIP3    H259906   5.386   4.790   2.134 -0.9939 -0.6285 -0.6972
12831TIP3   OH259907   4.742   3.996   4.057 -0.1201  0.0843  0.4614
12831TIP3    H159908   4.712   3.940   3.986 -0.7157  0.9370  0.0169
12831TIP3    H259909   4.776   4.074   4.012  0.7087  0.0764  1.0605
12832TIP3   OH259910   1.047   0.102   0.759 -0.1925  0.4775  0.1999
12832TIP3    H159911   0.958   0.138   0.755 -0.0811  0.6583 -1.9444
12832TIP3    H259912   1.094   0.162   0.818 -1.7797 -0.4662  2.5779
12833TIP3   OH259913   6.395   6.249   2.089 -0.2384  0.9686 -0.1391
12833TIP3    H159914   6.361   6.322   2.038 -3.7959  0.2759  0.9430
12833TIP3    H259915   6.339   6.246   2.167 -0.2068 -2.8049 -0.0692
12834TIP3   OH259916   0.339   2.727   4.756 -0.1616  0.0484 -0.4228
12834TIP3    H159917   0.381   2.769   4.681  2.0323  0.2880  0.8709
12834TIP3    H259918   0.322   2.798   4.818 -2.6511 -0.0208 -0.8945
12835TIP3   OH259919   1.608   0.830  13.629  0.1425 -0.3677 -0.7963
12835TIP3    H159920   1.623   0.912  13.581 -1.0087  0.4607  0.1918
12835TIP3    H259921   1.515   0.811  13.616  0.1375 -0.8863 -0.0594
12836TIP3   OH259922   1.096   3.125   0.066 -0.0128 -0.2149  0.2844
12836TIP3    H159923   1.119   3.078  -0.014  4.0986  1.5838  0.1529
12836TIP3    H259924   1.034   3.192   0.037 -1.2849 -1.7464 -0.6588
12837TIP3   OH259925   4.380   2.362  15.930 -0.3150 -0.0935 -0.1285
12837TIP3    H159926   4.319   2.320  15.991 -0.5770  0.4878  0.0264
12837TIP3    H259927   4.429   2.290  15.890 -0.3026 -0.4923  0.5989
12838TIP3   OH259928   5.024   6.546   6.413 -0.7812 -0.1099 -0.0187
12838TIP3    H159929   5.117   6.524   6.421 -0.1745  1.9577 -0.6201
12838TIP3    H259930   4.987   6.476   6.358  0.5149 -0.7366 -0.1216
12839TIP3   OH259931   2.406   5.247  12.039 -0.1589  0.0825  0.4179
12839TIP3    H159932   2.381   5.309  12.107 -0.0052 -1.6229  2.1338
12839TIP3    H259933   2.328   5.194  12.024 -0.2902  0.6396 -1.0024
12840TIP3   OH259934   4.891   4.668  11.285 -0.7607 -0.1039  0.0867
12840TIP3    H159935   4.883   4.592  11.227 -0.3562 -0.5557  0.6052
12840TIP3    H259936   4.957   4.723  11.243 -1.4514  0.2290 -0.5716
12841TIP3   OH259937   4.772   4.760  17.209 -0.2090  0.5547 -0.1281
12841TIP3    H159938   4.813   4.680  17.243 -0.7558  0.2221 -0.2367
12841TIP3    H259939   4.838   4.798  17.152 -0.0308  0.0473 -0.2675
12842TIP3   OH259940   2.522   2.338   1.026  0.4116  0.2454 -0.1481
12842TIP3    H159941   2.565   2.422   1.009  0.1770 -0.0574 -2.5879
12842TIP3    H259942   2.430   2.360   1.039  0.0667  0.2973 -2.3473
12843TIP3   OH259943   5.874   2.197   0.606  0.2841 -0.4444 -0.6445
12843TIP3    H159944   5.967   2.184   0.623  0.2354 -1.6278 -1.1598
12843TIP3    H259945   5.871   2.248   0.525  0.4736  2.4388  1.0091
12844TIP3   OH259946   4.544   3.785  14.065 -0.1761  0.1746 -0.0531
12844TIP3    H159947   4.638   3.791  14.082 -0.0410  0.3644 -0.8316
12844TIP3    H259948   4.504   3.835  14.136  0.3766  1.1068 -0.3809
12845TIP3   OH259949   3.018   4.279   0.220 -0.1104 -0.0995 -0.7366
12845TIP3    H159950   2.979   4.367   0.211 -0.2169  0.2163  1.9508
12845TIP3    H259951   2.950   4.220   0.189 -1.4307  0.6492  0.5575
12846TIP3   OH259952   2.488   3.242  16.406 -0.1311  0.1098  0.6698
12846TIP3    H159953   2.513   3.164  16.456  0.4881 -0.1926 -0.0889
12846TIP3    H259954   2.393   3.240  16.404 -0.0975 -1.3778 -0.4857
12847TIP3   OH259955   4.380   5.110  16.602 -0.5673 -0.1684  0.1963
12847TIP3    H159956   4.336   5.192  16.581 -0.3463  0.1472  0.9506
12847TIP3    H259957   4.362   5.096  16.695  0.7097 -0.1634  0.4523
12848TIP3   OH259958   0.784   1.379  14.208  0.0446  0.3558 -0.0781
12848TIP3    H159959   0.828   1.450  14.162  1.2145  0.0449  0.5092
12848TIP3    H259960   0.827   1.300  14.175 -1.1777 -0.0985 -0.6598
12849TIP3   OH259961   1.980   4.070  12.732  0.2216  0.2281 -0.1621
12849TIP3    H159962   1.906   4.031  12.780  1.4656 -0.4278  1.2974
12849TIP3    H259963   1.939   4.134  12.674 -1.4640  0.1623  0.8834
12850TIP3   OH259964   6.448   3.180  16.243  0.3014  0.4531  0.5640
12850TIP3    H159965   6.490   3.123  16.179  0.7051 -2.0869  2.8850
12850TIP3    H259966   6.437   3.263  16.198  0.3183 -1.2174 -2.8269
12851TIP3   OH259967   3.486   5.615   5.491  0.2878  0.0693  0.6706
12851TIP3    H159968   3.474   5.538   5.546  0.5292 -0.6209 -0.2401
12851TIP3    H259969   3.576   5.644   5.510  0.7555 -0.8118 -0.1651
12852TIP3   OH259970   0.981   0.611  14.033  0.4225 -0.1032 -0.2023
12852TIP3    H159971   1.033   0.546  14.080 -1.4014 -1.5738 -0.1140
12852TIP3    H259972   0.905   0.626  14.088 -0.6532 -0.1527 -1.6100
12853TIP3   OH259973   5.066   1.188   3.406  0.4816  0.1014 -0.0956
12853TIP3    H159974   5.126   1.213   3.336  1.2892  0.4638  0.6997
12853TIP3    H259975   5.121   1.142   3.469 -0.1393  0.1748  0.5111
12854TIP3   OH259976   3.387   4.445   3.486  0.3244  0.1247  0.5819
12854TIP3    H159977   3.416   4.354   3.490 -1.7436 -0.9409 -3.1259
12854TIP3    H259978   3.464   4.493   3.456  0.9481 -0.7226  0.7755
12855TIP3   OH259979   3.149   6.590  14.343  0.3050  0.0248  0.3489
12855TIP3    H159980   3.118   6.561  14.429 -0.1053  0.9199  0.5187
12855TIP3    H259981   3.083   6.559  14.282 -1.0075  1.8995  0.7063
12856TIP3   OH259982   5.589   5.622  12.361 -1.0625  0.1363  0.4430
12856TIP3    H159983   5.583   5.717  12.347 -0.9991  0.0214 -0.4485
12856TIP3    H259984   5.621   5.588  12.277 -1.8723 -0.7616  0.4820
12857TIP3   OH259985   1.045   6.461   6.194  0.3975  0.2940  0.4223
12857TIP3    H159986   1.130   6.431   6.225  0.1655  0.0233  0.7906
12857TIP3    H259987   1.008   6.510   6.267 -0.3250 -0.6941  0.7346
12858TIP3   OH259988   4.104   2.322  13.932 -0.4266 -0.0129 -0.0937
12858TIP3    H159989   4.064   2.400  13.970 -1.4529 -1.1983  1.3662
12858TIP3    H259990   4.188   2.313  13.977  0.2892  0.9316 -1.1870
12859TIP3   OH259991   5.505   0.742  12.133  0.3427  0.2437  0.3096
12859TIP3    H159992   5.538   0.791  12.058 -0.1074  0.0181 -0.0374
12859TIP3    H259993   5.567   0.762  12.203  0.7132  0.5309 -0.0928
12860TIP3   OH259994   5.116   0.662  16.785 -0.6019  0.1757  0.0262
12860TIP3    H159995   5.178   0.672  16.713  0.4365  0.1711  0.9025
12860TIP3    H259996   5.042   0.615  16.746  0.6386 -1.3057 -0.6398
12861TIP3   OH259997   5.433   3.499   5.584  0.6461  0.1760  0.0775
12861TIP3    H159998   5.424   3.447   5.664  1.9358  0.1041  0.1949
12861TIP3    H259999   5.485   3.445   5.525 -0.5384  0.1092 -0.9431
12862TIP3   OH260000   4.331   3.667   1.863 -0.1209  0.1278  0.3116
12862TIP3    H160001   4.278   3.717   1.802 -0.0729  0.4965  0.5695
12862TIP3    H260002   4.306   3.699   1.950 -2.1285 -2.2052  0.7046
12863TIP3   OH260003   1.316   0.397   5.846  0.5598 -0.4800 -0.3276
12863TIP3    H160004   1.304   0.341   5.923  1.0810  0.5267  0.5002
12863TIP3    H260005   1.232   0.439   5.833  0.8163  0.3079  0.4746
12864TIP3   OH260006   4.129   0.066   2.598  0.0670  0.0644 -0.4644
12864TIP3    H160007   4.180  -0.014   2.584  0.0723  0.1816 -1.1230
12864TIP3    H260008   4.193   0.131   2.625  0.1407 -0.0085 -0.4634
12865TIP3   OH260009   4.060   2.577  16.412  0.0856 -0.0159 -0.0737
12865TIP3    H160010   4.055   2.482  16.423 -0.5585  0.2082  1.9601
12865TIP3    H260011   4.122   2.589  16.340  0.8500 -1.9504  0.1918
12866TIP3   OH260012   5.817   1.294   5.397  0.0451  0.3873  0.0706
12866TIP3    H160013   5.881   1.346   5.446 -0.4184  1.0293  0.0074
12866TIP3    H260014   5.820   1.329   5.308 -1.0584  1.0898  0.2793
12867TIP3   OH260015   5.541   3.837   1.344 -0.0418 -0.1032  0.2306
12867TIP3    H160016   5.448   3.849   1.324 -0.1912  2.2742  2.0313
12867TIP3    H260017   5.543   3.811   1.436  1.0802 -0.9164  0.0024
12868TIP3   OH260018   5.654   4.283  13.496 -0.0869  0.5074 -0.0269
12868TIP3    H160019   5.571   4.323  13.520 -0.6934  0.6474 -2.0999
12868TIP3    H260020   5.715   4.357  13.489  0.2573  0.3940  1.5833
12869TIP3   OH260021   6.650   4.107  10.864 -0.0680 -0.1017  1.0345
12869TIP3    H160022   6.562   4.143  10.855  1.0816  2.6961 -0.3872
12869TIP3    H260023   6.684   4.104  10.774  0.5655 -3.3823  1.2603
12870TIP3   OH260024   5.002   5.414  11.781 -0.3238 -0.0937 -0.5374
12870TIP3    H160025   5.053   5.492  11.760  0.1656 -0.4997 -0.8836
12870TIP3    H260026   4.921   5.423  11.731 -0.4520  0.3896 -0.2500
12871TIP3   OH260027   6.247   2.349   4.706 -0.5589 -0.0930  0.3142
12871TIP3    H160028   6.327   2.401   4.712 -0.8497  0.3505  0.3911
12871TIP3    H260029   6.245   2.299   4.788 -0.1770 -0.3827  0.1527
12872TIP3   OH260030   6.573   0.257  17.081 -0.4910  0.4944  0.3870
12872TIP3    H160031   6.483   0.238  17.107 -1.2473  1.2734 -1.5066
12872TIP3    H260032   6.566   0.336  17.027  1.0540 -0.5692 -1.4725
12873TIP3   OH260033   1.993   4.356  16.904  0.2705  0.4036 -0.1534
12873TIP3    H160034   2.061   4.413  16.869  1.4170 -1.1603 -0.5885
12873TIP3    H260035   1.912   4.385  16.861  1.0668  0.7612 -1.4522
12874TIP3   OH260036   5.302   5.387   0.317 -0.8645  0.5709 -0.0481
12874TIP3    H160037   5.392   5.410   0.340 -1.2866  1.1100  1.1614
12874TIP3    H260038   5.310   5.309   0.262  0.3524  0.7838 -0.1880
12875TIP3   OH260039   2.975   4.977  14.313 -0.8205 -0.3899 -0.4048
12875TIP3    H160040   2.897   5.001  14.262 -0.2670  0.0652 -1.0586
12875TIP3    H260041   2.970   4.882  14.321 -1.1920 -0.4156 -0.8669
12876TIP3   OH260042   0.953   0.768  14.447 -0.3070  0.5941  0.2906
12876TIP3    H160043   0.953   0.848  14.500  0.2504 -0.2527  1.6326
12876TIP3    H260044   1.043   0.735  14.453 -0.7227 -0.5606  0.4521
12877TIP3   OH260045   0.076   0.267   0.675 -0.5055 -0.3935  0.1802
12877TIP3    H160046  -0.006   0.271   0.725 -0.5655  1.1087  0.0102
12877TIP3    H260047   0.054   0.214   0.598 -1.0667 -0.7409  0.5720
12878TIP3   OH260048   3.679   6.167  11.379 -0.1744 -0.0899  0.2204
12878TIP3    H160049   3.752   6.209  11.425  1.2066 -0.6278 -1.3957
12878TIP3    H260050   3.650   6.097  11.438  0.3478  0.3731  1.0422
12879TIP3   OH260051   3.934   4.285  16.936  0.2709 -0.0916  0.0397
12879TIP3    H160052   3.926   4.368  16.984 -1.7057  0.2569 -0.7834
12879TIP3    H260053   4.010   4.296  16.879  1.1718  0.4064  1.2974
12880TIP3   OH260054   0.518   1.555  15.901 -0.0957 -0.0068  0.0720
12880TIP3    H160055   0.437   1.509  15.882 -0.5404  0.8557 -0.1419
12880TIP3    H260056   0.518   1.630  15.842  0.4771  0.4347  0.6149
12881TIP3   OH260057   5.610   3.990   3.891  1.0704 -0.3091 -0.3422
12881TIP3    H160058   5.646   3.914   3.844 -0.7405 -0.4681 -1.6286
12881TIP3    H260059   5.562   4.038   3.823 -1.1509 -0.1979  1.1834
12882TIP3   OH260060   5.471   0.333  16.347  0.7868 -0.0175  0.1381
12882TIP3    H160061   5.541   0.356  16.408  1.1734 -1.7417  0.3998
12882TIP3    H260062   5.390   0.358  16.392  1.0869 -0.9369  1.2198
12883TIP3   OH260063   6.137   1.575   0.318 -0.0071 -0.1846  0.6396
12883TIP3    H160064   6.087   1.534   0.247 -0.8097  3.3950 -1.0573
12883TIP3    H260065   6.093   1.545   0.398 -3.4886  0.8634 -0.6873
12884TIP3   OH260066   1.826   0.319  14.237  0.2568 -0.0811 -0.7223
12884TIP3    H160067   1.775   0.248  14.198 -1.7532  0.1119  1.3572
12884TIP3    H260068   1.914   0.308  14.201 -0.7752 -1.5361 -3.0755
12885TIP3   OH260069   3.600   6.337   3.155 -0.3393  0.2149  0.1791
12885TIP3    H160070   3.610   6.381   3.071  2.2225 -2.5073 -1.1309
12885TIP3    H260071   3.587   6.407   3.218 -2.4290  2.3697 -2.4278
12886TIP3   OH260072   4.633   0.912  16.124  0.9089 -0.0130  0.6969
12886TIP3    H160073   4.699   0.952  16.067 -0.1709  0.7278 -0.0671
12886TIP3    H260074   4.675   0.833  16.157  1.5597 -0.4936 -1.1491
12887TIP3   OH260075   2.055   4.204   2.947  0.4236  0.2032  0.2420
12887TIP3    H160076   2.044   4.126   3.002  2.5810  0.0094  0.4887
12887TIP3    H260077   1.965   4.231   2.926 -0.4071 -1.9636  0.6651
12888TIP3   OH260078   5.436   2.671  13.867 -0.1707 -0.1563 -0.7422
12888TIP3    H160079   5.352   2.631  13.843  0.1033 -0.3903 -1.3200
12888TIP3    H260080   5.479   2.688  13.783 -0.8823  2.6955 -0.6123
12889TIP3   OH260081   6.222   4.653  13.756 -0.2936 -0.9412  0.1683
12889TIP3    H160082   6.212   4.633  13.849  1.1629 -2.9195 -0.0368
12889TIP3    H260083   6.299   4.710  13.752 -0.4795 -0.6893  0.2000
12890TIP3   OH260084   5.671   0.847  14.198 -0.4765  0.3019  0.0676
12890TIP3    H160085   5.712   0.870  14.114 -3.5884 -0.6139 -1.8736
12890TIP3    H260086   5.695   0.919  14.256  1.7387  1.0328 -1.5831
12891TIP3   OH260087   2.565   1.615   0.340  0.0511 -0.4071 -0.4206
12891TIP3    H160088   2.565   1.549   0.410  0.1999 -0.3144 -0.3330
12891TIP3    H260089   2.554   1.698   0.386 -0.5076 -0.3982 -0.5597
12892TIP3   OH260090   2.180   3.958  13.645  0.8791  0.9723 -0.4308
12892TIP3    H160091   2.252   3.934  13.586  0.2034 -1.0548 -0.5257
12892TIP3    H260092   2.119   3.885  13.638  0.8250  0.5563  2.8993
12893TIP3   OH260093   2.948   5.738  11.780 -0.6052  0.1638  0.2128
12893TIP3    H160094   2.877   5.692  11.825 -0.1565 -2.8049 -1.7870
12893TIP3    H260095   3.024   5.724  11.836 -0.7224 -0.6227  0.1948
12894TIP3   OH260096   6.264   3.112   3.530  0.7320 -0.0248  0.5624
12894TIP3    H160097   6.285   3.204   3.516  1.4486 -0.4369 -1.3561
12894TIP3    H260098   6.328   3.064   3.478 -0.7716 -1.5697  0.0275
12895TIP3   OH260099   3.179   2.360   2.819  0.6712  0.5659  0.6080
12895TIP3    H160100   3.159   2.428   2.755  1.5965  0.5538  0.2956
12895TIP3    H260101   3.151   2.398   2.903  0.9070  1.2209  0.4019
12896TIP3   OH260102   5.996   0.223   0.999 -0.2758 -0.2870  0.0035
12896TIP3    H160103   5.972   0.162   1.069 -2.2918  1.6609  1.1300
12896TIP3    H260104   6.056   0.284   1.041 -1.9025  1.2034  0.2614
12897TIP3   OH260105   0.062   1.535  15.446 -0.1973  0.0035  0.4319
12897TIP3    H160106   0.139   1.500  15.490  0.5069  1.4933  0.4590
12897TIP3    H260107   0.007   1.459  15.427  0.7032 -0.9382  1.5260
12898TIP3   OH260108   5.436   3.263   1.801 -0.4250  0.1249  0.1022
12898TIP3    H160109   5.482   3.223   1.727 -0.9800 -0.7578  0.2286
12898TIP3    H260110   5.346   3.230   1.794 -0.5749  0.3488  0.9415
12899TIP3   OH260111   5.347   0.660  15.303  0.2511  0.3795  0.0066
12899TIP3    H160112   5.270   0.636  15.251  1.4022  0.2978 -1.7592
12899TIP3    H260113   5.414   0.598  15.275  1.2423  1.0818  0.7685
12900TIP3   OH260114   6.141   1.909   4.238  0.0291  0.0978  0.4320
12900TIP3    H160115   6.137   2.004   4.243  0.7475  0.1956 -0.5158
12900TIP3    H260116   6.060   1.884   4.193  0.2407  0.3453 -0.1000
12901TIP3   OH260117   5.649   6.523   0.504  0.0527  0.3295 -0.0876
12901TIP3    H160118   5.584   6.582   0.543  0.1263 -0.5414  1.4063
12901TIP3    H260119   5.671   6.565   0.421 -0.7090  1.8387  0.4262
12902TIP3   OH260120   1.477   0.429  16.328  0.3118  0.9718 -0.2773
12902TIP3    H160121   1.497   0.453  16.238  1.5877  0.9796 -0.0027
12902TIP3    H260122   1.387   0.461  16.341 -0.1173  0.4385 -1.7063
12903TIP3   OH260123   3.290   1.047   0.243 -0.5345 -0.5746  0.5251
12903TIP3    H160124   3.309   1.009   0.157 -0.6174  0.1190  0.1949
12903TIP3    H260125   3.246   0.977   0.291 -3.2297 -0.0845 -1.0031
12904TIP3   OH260126   5.827   0.028   2.376  0.0618  0.4982 -0.4937
12904TIP3    H160127   5.840   0.115   2.339 -0.2042  0.5855 -0.3885
12904TIP3    H260128   5.906   0.011   2.427  0.8226  0.0175 -1.7912
12905TIP3   OH260129   5.381   4.012  16.659  0.2517 -0.0508 -0.1794
12905TIP3    H160130   5.418   3.933  16.619  0.3163 -0.1213  0.0182
12905TIP3    H260131   5.342   3.981  16.741  0.1855  0.1057 -0.1509
12906TIP3   OH260132   4.710   4.337   5.746 -0.5448 -0.0476  0.0604
12906TIP3    H160133   4.615   4.343   5.752 -0.8749 -2.6559 -1.0990
12906TIP3    H260134   4.731   4.251   5.783  1.0835 -0.4665 -1.6502
12907TIP3   OH260135   3.941   2.717  11.667 -0.1317  0.4313  0.2122
12907TIP3    H160136   3.934   2.786  11.601  0.7055  0.1036 -0.2392
12907TIP3    H260137   3.852   2.706  11.699 -0.1972  2.1478  0.7389
12908TIP3   OH260138   5.928   0.080  13.280  0.1874 -0.0619  0.3305
12908TIP3    H160139   5.959   0.163  13.315  0.8958 -1.0175  2.0956
12908TIP3    H260140   5.849   0.060  13.330 -0.1229 -0.3433 -0.2564
12909TIP3   OH260141   3.042   4.694  12.358 -0.1906  0.5793  0.3976
12909TIP3    H160142   3.063   4.718  12.448  0.8300  1.9761 -0.1783
12909TIP3    H260143   3.117   4.643  12.327 -0.8737 -0.5678  0.5426
12910TIP3   OH260144   5.297   1.375  15.915 -0.5806 -0.4328  0.3928
12910TIP3    H160145   5.324   1.310  15.980 -2.6084 -1.6518  0.1156
12910TIP3    H260146   5.238   1.433  15.963  1.3289  1.3790  0.6745
12911TIP3   OH260147   3.096   6.439   4.428 -0.5706  0.0528 -0.1055
12911TIP3    H160148   3.083   6.345   4.428  2.1876 -0.4391  0.9200
12911TIP3    H260149   3.091   6.465   4.520  0.0171  0.6380 -0.2231
12912TIP3   OH260150   6.242   1.449  12.253 -0.6114  0.1676  0.1672
12912TIP3    H160151   6.250   1.513  12.182  1.0480  0.1801  0.3230
12912TIP3    H260152   6.160   1.472  12.297 -0.5958  1.4987 -0.4427
12913TIP3   OH260153   2.175   3.552  13.839  0.1529  0.4281  0.3593
12913TIP3    H160154   2.231   3.477  13.819  1.7173  1.7672 -0.5865
12913TIP3    H260155   2.144   3.582  13.754 -2.0753 -0.2885  0.8712
12914TIP3   OH260156   4.044   4.195  14.415 -0.5637 -0.0198  0.3816
12914TIP3    H160157   4.079   4.283  14.397  1.4754 -0.9159 -0.3425
12914TIP3    H260158   4.034   4.192  14.510  3.4817 -0.3387  0.9711
12915TIP3   OH260159   0.054   6.046   6.596  0.2615  0.1323  0.6935
12915TIP3    H160160  -0.010   6.029   6.527  0.5592  0.6784  0.2709
12915TIP3    H260161   0.002   6.072   6.672 -0.0750 -0.6180  0.7247
12916TIP3   OH260162   6.656   4.876   0.840  0.0948  0.5520  0.5535
12916TIP3    H160163   6.592   4.882   0.769  0.4523  2.1116  0.3404
12916TIP3    H260164   6.604   4.890   0.920  0.0656  1.2372  0.4200
12917TIP3   OH260165   0.855   0.299  16.025 -0.1017 -0.4736 -0.2872
12917TIP3    H160166   0.873   0.290  15.931  0.3774 -0.7735 -0.1712
12917TIP3    H260167   0.773   0.251  16.038 -0.9625  0.7936 -0.8015
12918TIP3   OH260168   4.939   4.431   1.833 -0.2970  0.2673 -0.0552
12918TIP3    H160169   4.953   4.373   1.758 -3.5620 -1.0056  0.1880
12918TIP3    H260170   5.005   4.403   1.897 -0.4112 -1.7247 -0.7566
12919TIP3   OH260171   5.860   0.016  11.077  0.0834 -0.3996 -0.2900
12919TIP3    H160172   5.782  -0.000  11.131  0.0418  0.6942 -0.0090
12919TIP3    H260173   5.825   0.047  10.993  0.2041  2.9049  0.7587
12920TIP3   OH260174   4.475   4.888  13.097  0.1727 -0.8191 -0.4757
12920TIP3    H160175   4.505   4.975  13.068  0.0970 -0.4191  0.5948
12920TIP3    H260176   4.538   4.863  13.165  0.1786 -1.5973 -0.7658
12921TIP3   OH260177   4.179   4.463  12.300  0.2804  0.0183  0.2010
12921TIP3    H160178   4.095   4.457  12.345  0.6091  1.0198  0.9817
12921TIP3    H260179   4.217   4.375  12.307 -0.7508 -0.4869 -0.2980
12922TIP3   OH260180   1.001   0.862  15.031  0.1148  0.1107  0.3238
12922TIP3    H160181   0.919   0.813  15.040 -1.8351  2.3191 -2.9495
12922TIP3    H260182   1.052   0.810  14.969 -0.3298  0.3472 -0.2544
12923TIP3   OH260183   1.698   3.019   1.739 -0.5929 -0.0401 -0.0488
12923TIP3    H160184   1.678   3.106   1.704 -0.2650 -0.7365 -2.1027
12923TIP3    H260185   1.677   2.959   1.667 -0.5665 -1.6470  1.2349
12924TIP3   OH260186   2.441   5.244   3.726  0.0378 -0.5070 -0.1840
12924TIP3    H160187   2.464   5.302   3.799 -1.6255 -0.4837  0.3630
12924TIP3    H260188   2.406   5.166   3.768  1.7295 -1.7352 -0.9299
12925TIP3   OH260189   6.201   0.078  13.452 -0.0364 -0.2222 -0.3228
12925TIP3    H160190   6.130   0.015  13.464 -0.7935  1.1336  3.7475
12925TIP3    H260191   6.281   0.030  13.474 -0.1841 -0.6286 -0.6676
12926TIP3   OH260192   3.604   4.869   1.187 -0.2209  0.1557  0.0965
12926TIP3    H160193   3.657   4.875   1.267  0.7717  0.9170 -0.5858
12926TIP3    H260194   3.525   4.918   1.207  0.1181  0.5375  0.5366
12927TIP3   OH260195   3.188   3.028   2.808 -0.5851 -0.5186  0.9008
12927TIP3    H160196   3.094   3.039   2.800 -0.6381 -1.6960 -0.4819
12927TIP3    H260197   3.222   3.045   2.720  0.5424  0.2654  1.4615
12928TIP3   OH260198   0.019   1.257   5.850  0.1924 -1.0580 -0.1860
12928TIP3    H160199  -0.014   1.184   5.903 -2.1712 -0.9255 -1.3704
12928TIP3    H260200   0.055   1.215   5.772  3.3054 -1.2212  1.1849
12929TIP3   OH260201   0.430   4.105   2.472 -0.4135  0.4947 -0.2651
12929TIP3    H160202   0.349   4.153   2.489 -0.8638 -0.2514 -0.2483
12929TIP3    H260203   0.475   4.158   2.407 -1.8066 -0.0219 -1.7212
12930TIP3   OH260204   0.212   4.550  15.489  0.6063 -0.5847 -0.6518
12930TIP3    H160205   0.279   4.600  15.443  0.0480  0.8924  0.0918
12930TIP3    H260206   0.132   4.562  15.437  0.3415 -0.2133 -0.1692
12931TIP3   OH260207   0.999   5.468   4.803  0.7430 -0.0387 -0.1506
12931TIP3    H160208   1.075   5.410   4.798 -0.4610 -2.1609  2.8497
12931TIP3    H260209   0.935   5.429   4.744 -0.1476 -2.1311  2.0258
12932TIP3   OH260210   1.867   6.139   3.360 -0.3843 -0.1511 -0.1605
12932TIP3    H160211   1.793   6.123   3.418  0.3523 -0.5434  0.7146
12932TIP3    H260212   1.833   6.128   3.272 -1.6829  1.0503  0.1663
12933TIP3   OH260213   0.555   4.724   3.876  0.1569  0.7877 -0.3696
12933TIP3    H160214   0.498   4.744   3.951  1.0410 -0.0304  0.5449
12933TIP3    H260215   0.624   4.669   3.912  0.6458  0.4287 -1.7887
12934TIP3   OH260216   3.475   0.468   0.107  0.1672  0.1876  0.3506
12934TIP3    H160217   3.393   0.419   0.097  0.0041  0.5772 -0.2964
12934TIP3    H260218   3.512   0.436   0.189 -0.3561 -0.3989  0.3675
12935TIP3   OH260219   1.360   2.514  15.077  0.2852  0.6275 -0.5781
12935TIP3    H160220   1.274   2.520  15.036  0.3234  0.4825 -0.6823
12935TIP3    H260221   1.405   2.594  15.050  0.5232  0.2511 -1.3169
12936TIP3   OH260222   1.932   5.394   3.241 -0.1636 -0.2441  0.4329
12936TIP3    H160223   1.941   5.312   3.289  0.8695 -0.3476  0.0799
12936TIP3    H260224   2.020   5.432   3.241 -0.9677  1.7329  2.0949
12937TIP3   OH260225   5.475   6.082  11.796  0.7696 -0.1679  0.1011
12937TIP3    H160226   5.387   6.064  11.762  1.1686 -1.3658 -0.3383
12937TIP3    H260227   5.460   6.144  11.868 -0.4460 -0.4979  0.1626
12938TIP3   OH260228   3.535   4.027   4.959  0.0948  0.0819 -0.0418
12938TIP3    H160229   3.502   3.943   4.929  1.7425 -0.4955 -0.3354
12938TIP3    H260230   3.574   4.067   4.882  0.1989  0.6709  0.3103
12939TIP3   OH260231   0.049   1.875  10.616  0.2143 -0.3529 -0.8714
12939TIP3    H160232  -0.027   1.870  10.675  1.6280 -0.0032  1.0833
12939TIP3    H260233   0.035   1.955  10.565  0.2949  0.9501  1.0507
12940TIP3   OH260234   3.653   1.851   1.693 -0.1967  0.0798  0.6011
12940TIP3    H160235   3.557   1.854   1.693 -0.3318 -1.8418 -0.8698
12940TIP3    H260236   3.677   1.854   1.600  1.0269 -1.6505  0.8120
12941TIP3   OH260237   0.691   3.934   1.265  0.0363  0.0058  0.5368
12941TIP3    H160238   0.655   3.971   1.346 -0.3257  0.0667  0.3480
12941TIP3    H260239   0.784   3.919   1.285 -0.2079 -0.6716  1.2018
12942TIP3   OH260240   3.188   0.547   3.154  0.4682  0.3485  0.3892
12942TIP3    H160241   3.114   0.493   3.182 -1.2859  1.8583 -1.0615
12942TIP3    H260242   3.196   0.614   3.221  3.0871 -1.9124  2.5541
12943TIP3   OH260243   1.726   3.597  10.462 -0.1092  0.2960  0.5784
12943TIP3    H160244   1.703   3.689  10.457 -0.0954  0.2817  0.2629
12943TIP3    H260245   1.775   3.579  10.382  0.4749  0.1783  0.9548
12944TIP3   OH260246   6.347   6.510   2.566 -0.4655 -0.3518  0.0520
12944TIP3    H160247   6.253   6.496   2.578 -0.3205 -0.9282  0.6335
12944TIP3    H260248   6.354   6.571   2.493 -1.3217  0.5054  0.6679
12945TIP3   OH260249   4.834   0.636   2.834  0.0798 -0.3851 -0.0034
12945TIP3    H160250   4.887   0.666   2.907 -1.0940  1.5796  0.1015
12945TIP3    H260251   4.781   0.564   2.870 -0.3801  0.4578  1.0534
12946TIP3   OH260252   2.144   6.144  16.668  0.4923 -0.2644 -0.2556
12946TIP3    H160253   2.054   6.116  16.689  0.1174  1.0923  0.0635
12946TIP3    H260254   2.138   6.239  16.661  1.6720 -0.2572 -1.4990
12947TIP3   OH260255   1.711   0.989   1.884  0.3119  0.0850 -0.1961
12947TIP3    H160256   1.795   0.974   1.926  0.5848  0.6876 -0.5211
12947TIP3    H260257   1.725   1.065   1.828 -0.3400 -0.0494 -0.5526
12948TIP3   OH260258   4.541   4.283   3.382 -0.4078  0.3792 -0.7012
12948TIP3    H160259   4.446   4.287   3.389 -0.4603 -1.1080 -0.1063
12948TIP3    H260260   4.573   4.290   3.472 -0.1401 -1.9010 -0.5620
12949TIP3   OH260261   4.108   1.656  15.331 -0.0604 -0.0608 -0.0336
12949TIP3    H160262   4.198   1.660  15.300 -0.1510 -0.9931 -0.4554
12949TIP3    H260263   4.116   1.642  15.426  0.2146  2.2621  0.3430
12950TIP3   OH260264   6.198   5.473   4.602 -0.5391  0.2557  0.3482
12950TIP3    H160265   6.147   5.526   4.664 -0.6352  0.0334  0.4636
12950TIP3    H260266   6.259   5.424   4.658 -2.4715 -2.0687  0.6127
12951TIP3   OH260267   3.139   1.552   1.798 -0.2258 -0.2411  0.3558
12951TIP3    H160268   3.206   1.517   1.739  0.2185 -0.3760  0.9347
12951TIP3    H260269   3.138   1.646   1.780 -0.5902 -0.3703 -0.3610
12952TIP3   OH260270   5.015   4.495   1.096 -0.3466  0.1769  0.4138
12952TIP3    H160271   5.074   4.569   1.113 -0.6193  0.7929 -1.1909
12952TIP3    H260272   4.941   4.511   1.154 -0.4920  1.2807 -0.0511
12953TIP3   OH260273   1.446   6.597  14.805  0.4257  0.0805 -0.6213
12953TIP3    H160274   1.368   6.648  14.786  1.6139  1.7729 -1.2308
12953TIP3    H260275   1.439   6.519  14.750 -1.5229 -0.5655  0.4668
12954TIP3   OH260276   4.769   4.628  15.634 -0.3165  0.0090 -0.5042
12954TIP3    H160277   4.858   4.622  15.670  0.8380  1.9312 -2.7740
12954TIP3    H260278   4.730   4.702  15.680 -0.4800 -0.3000 -0.1283
12955TIP3   OH260279   3.445   5.913   0.612  0.2100  0.4796  0.2925
12955TIP3    H160280   3.438   5.906   0.517 -1.0488  0.3025  0.3822
12955TIP3    H260281   3.536   5.936   0.628  0.0654  2.1550 -1.0564
12956TIP3   OH260282   3.015   3.406   6.081  0.0992  0.1880 -0.1733
12956TIP3    H160283   3.104   3.372   6.090  0.3648  0.4323 -1.5676
12956TIP3    H260284   2.982   3.365   6.001 -1.0347  0.1137  0.3235
12957TIP3   OH260285   3.122   5.064  16.338  0.1907 -0.0285 -0.0801
12957TIP3    H160286   3.171   5.047  16.418 -0.2988  1.9061  0.6860
12957TIP3    H260287   3.187   5.099  16.277  0.3125 -0.2506 -0.0799
12958TIP3   OH260288   5.996   0.807   4.710  0.3226  0.5485 -0.3297
12958TIP3    H160289   5.909   0.846   4.721 -0.1992 -0.0758 -1.9123
12958TIP3    H260290   5.978   0.717   4.681  1.5035  0.4106 -0.6688
12959TIP3   OH260291   1.361   2.918  16.640  0.2857  0.7265 -0.3775
12959TIP3    H160292   1.413   2.957  16.570 -0.0950 -0.8090 -1.5717
12959TIP3    H260293   1.304   2.855  16.595 -1.0033  0.7508  1.1587
12960TIP3   OH260294   3.755   0.816  13.943  0.1784 -0.3380  0.4414
12960TIP3    H160295   3.705   0.764  14.006  0.5692 -0.2108  0.8701
12960TIP3    H260296   3.805   0.752  13.893  1.1415 -0.3649  1.3888
12961TIP3   OH260297   1.908   2.952   3.799  0.5436  0.3447 -0.1898
12961TIP3    H160298   1.820   2.959   3.762  0.1946 -0.5339  0.4315
12961TIP3    H260299   1.897   2.897   3.877  1.5888  0.4940  0.0794
12962TIP3   OH260300   0.391   2.361   6.828  0.1929  0.0890  0.4729
12962TIP3    H160301   0.468   2.330   6.780  1.0901  4.0218 -1.0285
12962TIP3    H260302   0.319   2.354   6.766 -0.1021 -1.0288  0.9259
12963TIP3   OH260303   5.601   4.975   1.965  0.4205  0.0625  0.3543
12963TIP3    H160304   5.554   5.048   2.007  0.1116 -0.6992  1.3762
12963TIP3    H260305   5.572   4.898   2.013 -0.8589 -1.0432 -1.9900
12964TIP3   OH260306   4.175   0.718  14.237  0.0552 -0.0217 -0.2237
12964TIP3    H160307   4.189   0.797  14.185  0.2461 -1.5880 -2.7177
12964TIP3    H260308   4.094   0.681  14.202  1.6857 -2.6372 -1.5417
12965TIP3   OH260309   0.867   5.048  13.357 -0.2034  0.3568 -0.0060
12965TIP3    H160310   0.863   5.086  13.445  0.2633 -1.1223  0.6750
12965TIP3    H260311   0.791   4.990  13.352  1.4560 -2.0176  0.6503
12966TIP3   OH260312   0.619   5.023  16.213  0.0540  0.4623  0.6111
12966TIP3    H160313   0.570   4.951  16.252 -0.9833  0.1737 -1.1047
12966TIP3    H260314   0.586   5.028  16.123  2.3875  0.9962 -0.2907
12967TIP3   OH260315   0.853   5.675   3.958  0.4603  0.3329  0.3490
12967TIP3    H160316   0.797   5.604   3.925 -0.1148  0.7427  0.4232
12967TIP3    H260317   0.942   5.642   3.947  0.2057 -0.3610  0.2844
12968TIP3   OH260318   3.871   5.129   5.057  0.1079  0.3411 -0.4024
12968TIP3    H160319   3.942   5.160   5.114  1.4714  1.9608 -2.8145
12968TIP3    H260320   3.868   5.034   5.072  0.4264  0.6577  2.2213
12969TIP3   OH260321   4.624   1.670  14.058 -0.0111 -0.3057  0.0495
12969TIP3    H160322   4.573   1.589  14.051 -1.6930  0.7022  0.3249
12969TIP3    H260323   4.607   1.716  13.976  0.5835 -0.0154  0.0848
12970TIP3   OH260324   6.563   2.957   6.662  0.3186 -0.1827  0.1288
12970TIP3    H160325   6.582   3.049   6.642  2.3485 -0.2208  1.6106
12970TIP3    H260326   6.622   2.907   6.606 -0.8028 -0.6422 -0.7004
12971TIP3   OH260327   5.228   0.005  11.997  0.4171 -0.3688 -0.7635
12971TIP3    H160328   5.263   0.092  11.982  0.7116 -0.1436  1.0246
12971TIP3    H260329   5.295  -0.040  12.049 -0.4683 -1.0682 -0.1898
12972TIP3   OH260330   2.162   5.709  13.166  0.8353  0.0338  0.1914
12972TIP3    H160331   2.107   5.767  13.113  2.4276  0.8891 -0.5839
12972TIP3    H260332   2.144   5.622  13.131  1.0485  0.4649 -1.0429
12973TIP3   OH260333   4.399   0.406  12.128 -0.3160  0.1485 -1.3829
12973TIP3    H160334   4.452   0.403  12.208 -1.5199 -1.6167 -0.5944
12973TIP3    H260335   4.399   0.316  12.096 -2.1968  0.2615 -1.7714
12974TIP3   OH260336   0.589   4.246   4.278 -0.5415 -0.2748  0.1740
12974TIP3    H160337   0.551   4.259   4.191 -2.2610 -0.6914  0.8234
12974TIP3    H260338   0.599   4.151   4.285 -2.2761 -0.4194  1.1453
12975TIP3   OH260339   2.997   3.500  14.607  0.2361  0.5156  0.0462
12975TIP3    H160340   2.988   3.587  14.568 -0.8292  0.6521  0.5655
12975TIP3    H260341   2.918   3.454  14.580 -0.0038  0.2591  1.1488
12976TIP3   OH260342   1.991   0.241  11.486 -0.3344 -0.5795  0.1819
12976TIP3    H160343   2.008   0.276  11.574 -0.6644  0.0393  0.0054
12976TIP3    H260344   1.896   0.233  11.480 -0.3208 -0.5267 -0.1505
12977TIP3   OH260345   3.468   4.146   5.556  0.7182 -0.0171 -0.0969
12977TIP3    H160346   3.432   4.225   5.597  2.2230  0.6043  0.0984
12977TIP3    H260347   3.560   4.167   5.543  0.6361 -0.8263 -2.3095
12978TIP3   OH260348   3.562   5.055   3.458  0.6090 -0.1741  0.7796
12978TIP3    H160349   3.652   5.024   3.457  0.0800 -1.8312  0.8372
12978TIP3    H260350   3.512   4.985   3.416 -0.9782 -0.4711  2.9824
12979TIP3   OH260351   4.053   4.498   2.347  0.5459  0.2069  0.0914
12979TIP3    H160352   4.029   4.481   2.256  1.5610 -1.6479  0.1415
12979TIP3    H260353   4.045   4.593   2.356  2.0925  0.6736 -2.4367
12980TIP3   OH260354   1.315   1.192   6.448 -0.1510 -0.3661  0.2913
12980TIP3    H160355   1.229   1.152   6.460 -0.0958 -0.6670 -0.2796
12980TIP3    H260356   1.326   1.248   6.525 -0.5678 -0.8415  0.7079
12981TIP3   OH260357   3.875   1.815  14.661  0.5519  0.4888  0.1781
12981TIP3    H160358   3.952   1.804  14.605  1.4351  2.7389  0.8407
12981TIP3    H260359   3.879   1.741  14.722  1.0088 -0.5513 -1.0536
12982TIP3   OH260360   0.330   6.532  16.678 -0.0145  0.3721 -0.3518
12982TIP3    H160361   0.238   6.530  16.653  0.1952  1.9757 -1.3709
12982TIP3    H260362   0.330   6.560  16.769 -0.5387 -0.1502 -0.1828
12983TIP3   OH260363   2.795   2.089   2.539 -0.1858 -0.0289 -0.7512
12983TIP3    H160364   2.757   2.119   2.457 -0.5501 -0.9627 -0.9434
12983TIP3    H260365   2.884   2.121   2.538 -0.9679  2.3480 -0.2243
12984TIP3   OH260366   3.007   2.041   3.092 -0.1193  0.4803  0.3262
12984TIP3    H160367   3.021   1.950   3.066 -1.4739  0.1570  0.6185
12984TIP3    H260368   3.054   2.092   3.027  0.0998 -0.4154 -0.2450
12985TIP3   OH260369   5.954   2.233   5.140 -0.1902 -0.4140 -0.0096
12985TIP3    H160370   5.948   2.196   5.229  1.3514 -1.0183 -0.1281
12985TIP3    H260371   5.984   2.323   5.153  2.9782 -1.3621  0.0327
12986TIP3   OH260372   5.506   2.239   2.274 -0.7024 -0.1768  0.0798
12986TIP3    H160373   5.523   2.188   2.353  1.0927 -0.3770 -0.3866
12986TIP3    H260374   5.563   2.201   2.208 -0.5217  1.3909 -0.7187
12987TIP3   OH260375   0.108   4.484  16.713  0.0035  0.7317  0.6184
12987TIP3    H160376   0.053   4.497  16.791 -0.8739 -1.2000  0.3760
12987TIP3    H260377   0.054   4.514  16.641  1.0177  3.0258  0.7381
12988TIP3   OH260378   3.077   6.110  12.378  0.5700  0.5270 -0.1062
12988TIP3    H160379   3.159   6.154  12.355  0.7540 -0.1759 -0.8218
12988TIP3    H260380   3.095   6.017  12.367  0.6616  0.0807  2.9288
12989TIP3   OH260381   3.462   3.585  15.965  0.6969  0.0606  0.3491
12989TIP3    H160382   3.433   3.558  16.052  0.8005  0.6157  0.5581
12989TIP3    H260383   3.533   3.647  15.981 -0.7365  1.9201 -0.0517
12990TIP3   OH260384   6.742   0.422   3.139 -0.0179  0.1455  0.3810
12990TIP3    H160385   6.679   0.484   3.101  0.0479 -0.1873 -0.2878
12990TIP3    H260386   6.754   0.453   3.228  0.1363  1.2004  0.0115
12991TIP3   OH260387   5.772   1.366  16.337 -0.4476 -0.0154 -0.5367
12991TIP3    H160388   5.752   1.277  16.367  0.3158 -0.6734 -1.8819
12991TIP3    H260389   5.721   1.376  16.257 -0.4939  0.7640 -0.4209
12992TIP3   OH260390   2.901   0.190   4.471  0.0167  0.2966 -0.2206
12992TIP3    H160391   2.839   0.173   4.542  0.9130  0.7651  0.7098
12992TIP3    H260392   2.915   0.285   4.473  0.2662  0.2802 -0.8373
12993TIP3   OH260393   0.874   0.142   5.143 -0.6134  0.2324 -0.3533
12993TIP3    H160394   0.831   0.155   5.059 -1.7654 -0.6204  0.0569
12993TIP3    H260395   0.895   0.230   5.174 -0.8580  0.5926 -1.1863
12994TIP3   OH260396   0.723   5.569  12.095  0.6274  1.0079 -0.2550
12994TIP3    H160397   0.760   5.625  12.026  0.3977  1.6759  0.1604
12994TIP3    H260398   0.768   5.597  12.175  0.7425  0.3738 -0.0947
12995TIP3   OH260399   2.527   1.403  14.410  0.0361  0.6620 -0.4072
12995TIP3    H160400   2.455   1.381  14.469  1.2062  0.1634  0.8932
12995TIP3    H260401   2.513   1.347  14.334 -1.2926  1.0411 -0.4678
12996TIP3   OH260402   1.342   3.335   3.665  0.3582 -0.7077 -0.1146
12996TIP3    H160403   1.423   3.385   3.669  0.5521 -1.0803  1.2139
12996TIP3    H260404   1.371   3.244   3.658  0.0323 -0.7527 -0.9087
12997TIP3   OH260405   4.742   4.681   1.517 -0.4920 -0.2925  0.5911
12997TIP3    H160406   4.738   4.777   1.520  0.9600 -0.2361  1.3993
12997TIP3    H260407   4.782   4.656   1.600  1.3222 -1.4426 -0.5623
12998TIP3   OH260408   3.785   4.290   1.262  0.1255  0.1710 -0.0474
12998TIP3    H160409   3.862   4.337   1.230  1.1914 -0.4463  1.4962
12998TIP3    H260410   3.762   4.335   1.343 -1.5221  0.7019 -0.7674
12999TIP3   OH260411   4.301   4.107  16.321  0.3876 -0.4979 -0.0674
12999TIP3    H160412   4.315   4.193  16.282  2.0243 -1.3332 -1.4621
12999TIP3    H260413   4.256   4.057  16.253  1.6616 -1.4443 -0.2609
13000TIP3   OH260414   5.114   6.544   1.780 -0.0584  0.1341  0.7651
13000TIP3    H160415   5.051   6.472   1.783 -1.5467  1.3583  0.0493
13000TIP3    H260416   5.071   6.612   1.728  0.4829  2.3086  2.9759
13001TIP3   OH260417   3.072   1.752  10.606  0.6330  0.0365  0.0054
13001TIP3    H160418   2.980   1.732  10.593  0.5293  0.4751  0.0630
13001TIP3    H260419   3.118   1.672  10.581  0.2494 -0.1181 -0.2016
13002TIP3   OH260420   1.246   6.317  12.960 -0.1362  0.1598  0.0562
13002TIP3    H160421   1.289   6.364  12.888  0.1849  0.7865  0.6485
13002TIP3    H260422   1.244   6.380  13.032  3.4378 -1.6990  2.0760
13003TIP3   OH260423   2.295   2.016  13.290 -0.5244  0.0870  0.2604
13003TIP3    H160424   2.217   2.071  13.301 -0.6659  0.1456 -0.9183
13003TIP3    H260425   2.269   1.931  13.324 -1.6650 -0.3409 -1.5210
13004TIP3   OH260426   1.538   2.236   4.616  0.1234 -0.0688  0.3100
13004TIP3    H160427   1.579   2.297   4.678  1.6657 -0.3464 -0.3793
13004TIP3    H260428   1.480   2.182   4.670  0.9585  0.1038  1.4160
13005TIP3   OH260429   2.973   5.466  15.629 -0.1048 -0.4286 -0.0461
13005TIP3    H160430   3.041   5.490  15.566 -0.8483 -1.9304 -1.4663
13005TIP3    H260431   3.019   5.416  15.696  0.5685  0.6072  0.2972
13006TIP3   OH260432   2.223   2.932   5.042  0.3669  0.2738 -0.3725
13006TIP3    H160433   2.283   2.940   5.116 -1.1292 -2.9055  1.4496
13006TIP3    H260434   2.254   2.855   4.994 -1.7149 -1.0500  0.2465
13007TIP3   OH260435   0.186   6.591   4.443  0.4684 -0.0217  0.7029
13007TIP3    H160436   0.202   6.550   4.358  0.8958  0.6992  0.4317
13007TIP3    H260437   0.274   6.608   4.478  0.3145  1.6268  0.3381
13008TIP3   OH260438   2.123   3.251  15.562  0.1652  0.5203 -0.5582
13008TIP3    H160439   2.034   3.245  15.526 -0.1735 -0.5058  0.3887
13008TIP3    H260440   2.112   3.301  15.643  0.6664  1.4503 -1.0484
13009TIP3   OH260441   0.780   0.473   0.685 -0.2163 -0.5006  0.0967
13009TIP3    H160442   0.738   0.433   0.761  0.2217 -1.4186 -0.1290
13009TIP3    H260443   0.863   0.425   0.675  0.5557  0.7894  0.0985
13010TIP3   OH260444   1.521   5.528  15.462  0.1479 -0.2401 -0.0296
13010TIP3    H160445   1.581   5.597  15.435  0.1609 -0.7981 -1.5221
13010TIP3    H260446   1.443   5.575  15.493  1.3835  0.4883  2.1372
13011TIP3   OH260447   0.405   2.089   3.131  0.1377  0.2332 -0.2604
13011TIP3    H160448   0.398   2.066   3.224  1.1054  0.4436 -0.1184
13011TIP3    H260449   0.348   2.165   3.120 -0.5855 -0.2690 -0.0163
13012TIP3   OH260450   6.274   1.440   1.182  0.0212 -0.2306 -0.2538
13012TIP3    H160451   6.295   1.378   1.252  0.7873 -0.4931 -0.7090
13012TIP3    H260452   6.224   1.388   1.119  0.0946 -0.2195 -0.3214
13013TIP3   OH260453   4.461   0.562   6.409  0.0856  0.1893  0.2595
13013TIP3    H160454   4.397   0.498   6.380  0.6793  0.0253 -0.7177
13013TIP3    H260455   4.545   0.526   6.382  0.3692  1.7925 -1.1776
13014TIP3   OH260456   3.935   4.475  12.452  0.3329 -0.5332 -0.0514
13014TIP3    H160457   3.888   4.414  12.508  0.2712 -1.3261 -0.9270
13014TIP3    H260458   3.900   4.561  12.474 -1.0045 -1.0254 -0.1612
13015TIP3   OH260459   3.353   2.526   1.093  0.2844  0.1109 -0.3818
13015TIP3    H160460   3.329   2.457   1.156 -0.0836  0.1285 -0.4998
13015TIP3    H260461   3.374   2.478   1.012 -1.2792  0.1959 -0.8764
13016TIP3   OH260462   2.139   5.537   2.891  0.2532 -0.4529  0.3745
13016TIP3    H160463   2.178   5.468   2.946 -0.0174 -0.3689  0.6788
13016TIP3    H260464   2.160   5.618   2.937 -1.8393 -0.5135  1.5635
13017TIP3   OH260465   6.710   2.699   1.228 -0.1255 -0.1039 -0.0926
13017TIP3    H160466   6.711   2.624   1.288 -1.2475  0.1755  0.3147
13017TIP3    H260467   6.782   2.683   1.168 -0.8203 -1.9352 -0.5164
13018TIP3   OH260468   6.357   4.511  11.040  0.2149 -0.5183  0.0929
13018TIP3    H160469   6.331   4.422  11.064  0.6295 -1.0106 -1.2263
13018TIP3    H260470   6.365   4.556  11.124  0.6760 -1.9104  0.8349
13019TIP3   OH260471   2.838   1.781  11.881  0.4666  0.1017  0.5511
13019TIP3    H160472   2.755   1.805  11.841  0.5963  0.7644  0.6733
13019TIP3    H260473   2.864   1.858  11.931  1.4846  0.1552 -0.0367
13020TIP3   OH260474   4.427   2.025   2.226 -0.4343  0.1224  0.1860
13020TIP3    H160475   4.336   2.038   2.251 -0.3934  1.4240 -0.2651
13020TIP3    H260476   4.436   1.930   2.214 -2.2667  0.1143 -1.7129
13021TIP3   OH260477   1.341   5.967   4.773  0.2885 -0.4766 -0.4984
13021TIP3    H160478   1.287   5.912   4.829  1.2362  0.0318  0.9545
13021TIP3    H260479   1.378   6.033   4.831 -0.7838  1.7494 -2.1629
13022TIP3   OH260480   3.229   6.738   2.299 -0.3492  0.0321  0.1892
13022TIP3    H160481   3.233   6.733   2.395 -1.3857 -0.8888  0.2007
13022TIP3    H260482   3.297   6.677   2.269 -0.0023  0.3438  0.3232
13023TIP3   OH260483   1.016   3.149  12.661  0.0451  0.2183 -0.3027
13023TIP3    H160484   0.970   3.231  12.641  0.5795  0.2145 -1.6825
13023TIP3    H260485   1.104   3.176  12.686  0.6204  0.0527 -1.9979
13024TIP3   OH260486   2.880   5.203   0.435 -0.4003 -0.4396 -1.0897
13024TIP3    H160487   2.912   5.151   0.362 -0.4618 -0.8431 -0.8356
13024TIP3    H260488   2.922   5.163   0.512  1.2551  1.2035 -1.0642
13025TIP3   OH260489   0.900   4.498   5.120 -0.0586  0.3050  0.6357
13025TIP3    H160490   0.985   4.455   5.112 -0.1261 -0.3020  2.6484
13025TIP3    H260491   0.842   4.445   5.065  0.7033  0.3353 -0.2265
13026TIP3   OH260492   5.627   3.360   3.708  0.4275 -0.1436  0.3716
13026TIP3    H160493   5.553   3.319   3.751 -1.7113  1.3137 -1.6907
13026TIP3    H260494   5.658   3.294   3.646  1.0454 -0.8195  1.3609
13027TIP3   OH260495   6.258   5.988   4.732  0.2756  1.1977 -0.1276
13027TIP3    H160496   6.164   6.002   4.737  0.4191  2.0029  0.3930
13027TIP3    H260497   6.291   6.060   4.678  0.8528  2.1810  1.4897
13028TIP3   OH260498   4.261   0.420  13.841 -0.6028 -0.2056  0.1378
13028TIP3    H160499   4.261   0.511  13.811  1.9942 -0.4607 -0.8534
13028TIP3    H260500   4.223   0.423  13.929  2.1415  2.3208  1.3671
13029TIP3   OH260501   1.551   4.056  15.378  0.0358 -0.0409 -0.0038
13029TIP3    H160502   1.592   3.999  15.314  0.7806 -0.7280  1.0610
13029TIP3    H260503   1.606   4.048  15.457 -1.9142 -0.7691  1.3747
13030TIP3   OH260504   2.891   3.394   4.560  0.2730 -0.1620 -0.2710
13030TIP3    H160505   2.804   3.428   4.577  0.5632  0.4143  0.0738
13030TIP3    H260506   2.882   3.299   4.571  0.0089  0.0091  1.2601
13031TIP3   OH260507   5.419   3.369   5.813  0.2376  0.3921 -0.1209
13031TIP3    H160508   5.376   3.285   5.796 -1.4785  0.6757  2.1846
13031TIP3    H260509   5.425   3.373   5.909 -1.1732  3.5053 -0.0419
13032TIP3   OH260510   3.384   1.804  15.833  0.0738 -0.4842  0.2075
13032TIP3    H160511   3.321   1.870  15.859  1.4254  1.2460 -0.6287
13032TIP3    H260512   3.456   1.813  15.895 -0.5430 -2.6078  1.3166
13033TIP3   OH260513   1.195   3.676  14.903 -0.7573 -0.2157  0.1184
13033TIP3    H160514   1.212   3.768  14.882 -0.5231 -0.0062  1.1520
13033TIP3    H260515   1.164   3.677  14.993 -2.1344 -1.0259 -0.3099
13034TIP3   OH260516   1.887   0.366  15.388  0.0250 -0.6667 -0.1012
13034TIP3    H160517   1.916   0.402  15.304  1.1548 -0.3443  0.3972
13034TIP3    H260518   1.812   0.310  15.367 -0.7454  0.7099 -1.0960
13035TIP3   OH260519   0.726   0.627  13.800  0.2419  0.0799  0.0496
13035TIP3    H160520   0.763   0.552  13.847  0.2784  0.7611  1.1571
13035TIP3    H260521   0.785   0.642  13.726 -0.0512 -1.2843 -0.4802
13036TIP3   OH260522   3.214   1.819   3.568 -0.2516 -0.4384 -0.2425
13036TIP3    H160523   3.146   1.866   3.520 -0.3171  0.8602  1.0808
13036TIP3    H260524   3.199   1.842   3.660  0.4432 -2.1310  0.3368
13037TIP3   OH260525   4.249   3.311   3.112  0.0474 -0.5036  0.1605
13037TIP3    H160526   4.320   3.277   3.166 -0.4105  1.5277  2.2281
13037TIP3    H260527   4.294   3.350   3.037  0.7316 -3.1073 -0.8711
13038TIP3   OH260528   5.277   2.137  10.954 -1.0520  0.0407 -0.3573
13038TIP3    H160529   5.218   2.126  10.880 -2.3964 -0.4003  0.7420
13038TIP3    H260530   5.330   2.057  10.955 -1.9874 -0.5889 -0.0333
13039TIP3   OH260531   4.024   3.611  15.219  0.0129  0.2525  0.0191
13039TIP3    H160532   3.937   3.586  15.187  0.3969 -0.1468 -0.7580
13039TIP3    H260533   4.067   3.528  15.238 -0.0702  0.4752  1.2531
13040TIP3   OH260534   4.137   4.664  11.370 -0.7631 -0.0369  0.3007
13040TIP3    H160535   4.043   4.667  11.355 -0.7143 -0.2366 -0.0855
13040TIP3    H260536   4.173   4.729  11.309 -0.7123  0.6606  1.0563
13041TIP3   OH260537   0.231   1.321   3.661 -0.3413  0.0882 -0.5739
13041TIP3    H160538   0.208   1.345   3.750  0.4687 -1.1372 -0.0087
13041TIP3    H260539   0.243   1.226   3.664 -1.4656 -0.1547 -2.2579
13042TIP3   OH260540   5.506   0.739  11.286 -0.2289 -0.0566 -0.2652
13042TIP3    H160541   5.472   0.693  11.208  1.3245  1.7425 -2.1109
13042TIP3    H260542   5.510   0.831  11.259  2.2252  0.3510  1.2566
13043TIP3   OH260543   6.626   5.397   1.360 -0.6625  0.7118 -0.2532
13043TIP3    H160544   6.710   5.363   1.327 -0.6791 -0.8664  1.1972
13043TIP3    H260545   6.600   5.463   1.295  0.9511  0.1611 -1.5417
13044TIP3   OH260546   2.001   5.561   1.411  0.2289 -0.0281  0.1009
13044TIP3    H160547   1.927   5.610   1.375  0.2176 -0.1284 -0.0144
13044TIP3    H260548   2.044   5.623   1.470  0.4092  0.2314 -0.2990
13045TIP3   OH260549   0.446   5.349   4.034  0.2008 -0.4469 -0.5920
13045TIP3    H160550   0.492   5.421   3.992  0.2430 -0.0635  0.1031
13045TIP3    H260551   0.377   5.325   3.972  0.6747 -0.3283 -1.1704
13046TIP3   OH260552   0.532   3.443  11.273 -0.5672 -0.3344  0.3134
13046TIP3    H160553   0.568   3.360  11.305 -2.9923 -1.2608  0.8423
13046TIP3    H260554   0.608   3.502  11.270  0.9774 -2.1427  1.2615
13047TIP3   OH260555   1.983   2.624  11.969 -0.0258  0.1137 -0.8509
13047TIP3    H160556   1.898   2.654  11.936  0.1695  0.1057 -1.3700
13047TIP3    H260557   1.996   2.672  12.051 -0.2356  0.5950 -1.1024
13048TIP3   OH260558   2.560   3.696  13.205 -0.2739 -0.4011 -0.5706
13048TIP3    H160559   2.471   3.671  13.181 -0.3459  0.5448 -1.3404
13048TIP3    H260560   2.606   3.613  13.217 -0.7996 -0.9006 -1.8796
13049TIP3   OH260561   4.590   3.609  14.804 -0.6840 -0.6998 -0.2491
13049TIP3    H160562   4.622   3.690  14.843 -0.0685 -1.2259  0.3744
13049TIP3    H260563   4.627   3.540  14.859 -2.2460 -1.3713 -0.0025
13050TIP3   OH260564   3.245   0.815  13.439 -0.5555  0.1495  0.4565
13050TIP3    H160565   3.299   0.743  13.407 -0.7842 -0.3145  1.0967
13050TIP3    H260566   3.155   0.782  13.434 -0.6109  0.1458  1.3723
13051TIP3   OH260567   6.088   3.895  10.577 -0.4477 -0.2376  0.0144
13051TIP3    H160568   6.044   3.979  10.567 -1.6572 -0.7557  0.7243
13051TIP3    H260569   6.156   3.911  10.642 -2.0319 -0.2593  1.7549
13052TIP3   OH260570   0.853   0.318  14.286  0.0695  0.7127 -0.3920
13052TIP3    H160571   0.884   0.237  14.246 -1.9970  0.0178 -0.7221
13052TIP3    H260572   0.928   0.377  14.282  0.7746 -0.2110 -2.8819
13053TIP3   OH260573   2.446   2.382   0.718 -0.8086  0.1164  0.2370
13053TIP3    H160574   2.467   2.301   0.763  2.7621  0.3278 -0.7240
13053TIP3    H260575   2.391   2.431   0.780  0.9910 -1.0260  2.9306
13054TIP3   OH260576   4.442   2.637  14.627 -0.6974  0.5148  0.2004
13054TIP3    H160577   4.388   2.694  14.572 -0.9367  0.0877 -0.0066
13054TIP3    H260578   4.501   2.593  14.565 -1.5271 -0.5989  0.1708
13055TIP3   OH260579   2.110   6.389  17.251  0.1626 -0.4084 -0.0656
13055TIP3    H160580   2.110   6.410  17.344  1.1281 -0.8508  0.0439
13055TIP3    H260581   2.202   6.382  17.228 -0.0416  0.3481 -1.2118
13056TIP3   OH260582   0.374   6.117  16.751 -0.0683 -0.2544 -0.4173
13056TIP3    H160583   0.445   6.077  16.802 -0.7422 -2.3023 -0.9851
13056TIP3    H260584   0.407   6.203  16.726  1.2532 -0.2040  1.3428
13057TIP3   OH260585   5.982   4.077  14.460 -0.8414 -0.1834  0.0126
13057TIP3    H160586   5.990   4.157  14.511 -1.3064  0.1437 -0.4158
13057TIP3    H260587   5.907   4.031  14.497 -0.1992 -0.7304  0.6602
13058TIP3   OH260588   2.762   2.209  12.186  0.0648 -0.4991 -0.1864
13058TIP3    H160589   2.850   2.206  12.223  0.3273  0.4274 -0.6857
13058TIP3    H260590   2.707   2.238  12.259  0.3617 -0.0013 -0.1490
13059TIP3   OH260591   3.160   2.932  12.695  0.6598 -0.5491 -0.0194
13059TIP3    H160592   3.234   2.992  12.687  0.5171 -0.4050 -0.2823
13059TIP3    H260593   3.083   2.989  12.693  0.5787 -0.5290  2.0489
13060TIP3   OH260594   3.836   2.604   3.018  0.1945 -0.5377  0.0123
13060TIP3    H160595   3.790   2.623   2.937 -0.0692  0.0611  0.3011
13060TIP3    H260596   3.902   2.673   3.025 -0.6367  0.1947  0.9620
13061TIP3   OH260597   1.722   3.381  15.066 -0.3582  0.0476  0.4193
13061TIP3    H160598   1.771   3.398  14.985  0.2437 -0.0082  0.7629
13061TIP3    H260599   1.785   3.337  15.123 -0.3578  1.2826  1.4135
13062TIP3   OH260600   1.903   6.233  12.748 -0.0912 -0.2774  0.7652
13062TIP3    H160601   1.897   6.312  12.693  2.7663 -0.0985  0.5500
13062TIP3    H260602   1.844   6.170  12.706  1.7571 -0.0571 -2.4767
13063TIP3   OH260603   4.506   1.185  11.698  0.0606 -1.0279 -0.1457
13063TIP3    H160604   4.423   1.156  11.737  0.8737 -1.0397  1.6656
13063TIP3    H260605   4.509   1.140  11.614 -0.8332 -2.6373  0.6277
13064TIP3   OH260606   0.585   4.212  11.987 -0.2679  0.3471  0.0783
13064TIP3    H160607   0.495   4.247  11.992  0.0672  1.5228 -1.4550
13064TIP3    H260608   0.604   4.208  11.894  0.5400 -1.9231  0.2941
13065TIP3   OH260609   1.858   1.704   4.937  0.6478  0.2313  0.0518
13065TIP3    H160610   1.941   1.674   4.901  1.5958  0.3240  2.0069
13065TIP3    H260611   1.839   1.642   5.008 -1.4164 -0.2928 -0.8783
13066TIP3   OH260612   1.406   1.500   0.809  0.4557 -0.2438  0.7054
13066TIP3    H160613   1.319   1.495   0.771  0.7461  2.0561 -0.4776
13066TIP3    H260614   1.465   1.502   0.733  1.4889 -1.0413  1.4598
13067TIP3   OH260615   2.453   0.351   3.915  0.1452  0.4246 -0.1752
13067TIP3    H160616   2.471   0.271   3.865 -0.9957  0.4598 -0.6748
13067TIP3    H260617   2.402   0.320   3.991 -1.6750  0.8143 -1.1767
13068TIP3   OH260618   1.516   0.134   3.251  0.0537  0.6077  0.2112
13068TIP3    H160619   1.548   0.086   3.174 -0.0491 -0.7623  0.9997
13068TIP3    H260620   1.584   0.199   3.269  1.0006 -0.3480  0.1300
13069TIP3   OH260621   0.024   4.752  14.474 -0.1977 -0.0701  0.4214
13069TIP3    H160622  -0.024   4.680  14.433 -1.6356  1.1248 -0.0856
13069TIP3    H260623   0.115   4.723  14.475 -0.6143 -1.5194 -0.5577
13070TIP3   OH260624   2.029   5.914   2.670  0.1234  0.0947 -0.0667
13070TIP3    H160625   2.104   5.929   2.727  0.8382  0.2771 -1.0435
13070TIP3    H260626   1.989   5.835   2.705  0.3226  0.4127  0.9205
13071TIP3   OH260627   6.391   2.022  12.237  0.0368  1.2260 -0.5476
13071TIP3    H160628   6.440   2.051  12.313 -0.8737  2.9661 -0.5803
13071TIP3    H260629   6.299   2.037  12.260 -0.2395  2.1302 -2.0958
13072TIP3   OH260630   1.909   0.599   0.694 -0.7229  0.3120 -0.4947
13072TIP3    H160631   1.895   0.506   0.711 -1.5190  0.4138 -0.5768
13072TIP3    H260632   1.980   0.624   0.754 -1.2807 -0.0904  0.3536
13073TIP3   OH260633   0.083   4.246  12.619 -0.1785 -0.1103  0.0979
13073TIP3    H160634   0.171   4.266  12.590 -0.4075  1.2982  0.2956
13073TIP3    H260635   0.029   4.255  12.541 -0.1846 -0.8541  0.0022
13074TIP3   OH260636   4.835   5.720   1.076  0.3315 -0.6200  0.1558
13074TIP3    H160637   4.892   5.792   1.048  0.0653 -0.3177  0.3750
13074TIP3    H260638   4.803   5.682   0.995  1.4174 -1.2674  0.0093
13075TIP3   OH260639   3.812   1.234   3.987 -0.1816  0.3815  0.3506
13075TIP3    H160640   3.734   1.247   4.041 -0.2113  0.4721  0.2851
13075TIP3    H260641   3.841   1.145   4.009 -1.0562 -0.1662 -0.5939
13076TIP3   OH260642   2.390   3.868   0.100 -0.0610 -0.0727 -0.1272
13076TIP3    H160643   2.341   3.948   0.085  0.9200  0.8727  1.4189
13076TIP3    H260644   2.335   3.817   0.160  1.8247  2.2322  3.9764
13077TIP3   OH260645   2.979   6.495   5.823 -0.2110  0.1770 -0.1897
13077TIP3    H160646   3.035   6.483   5.899 -0.0226  3.3148  0.2841
13077TIP3    H260647   3.036   6.477   5.748  1.2165  2.3439  0.3097
13078TIP3   OH260648   1.420   4.913  14.701  0.0593  0.6729  0.0617
13078TIP3    H160649   1.447   4.983  14.641  1.0659  0.3345  0.0892
13078TIP3    H260650   1.371   4.852  14.646  1.8363 -0.1518 -0.6991
13079TIP3   OH260651   0.276   4.349  11.124  0.6608  0.2100  0.1011
13079TIP3    H160652   0.328   4.426  11.146  0.8158 -0.0459  0.6451
13079TIP3    H260653   0.336   4.275  11.133 -0.2167 -0.3038  2.6320
13080TIP3   OH260654   6.765   1.785   5.023  0.2205  0.4831  0.3641
13080TIP3    H160655   6.678   1.822   5.009  0.6274  0.8809 -1.5231
13080TIP3    H260656   6.753   1.716   5.088 -1.4581  0.6440  0.2604
13081TIP3   OH260657   1.781   6.271  13.283 -0.3192  0.2947 -0.1238
13081TIP3    H160658   1.783   6.250  13.190 -0.0206  0.5256 -0.1722
13081TIP3    H260659   1.860   6.323  13.298 -0.9738  1.2951  0.0000
13082TIP3   OH260660   0.213   1.813  15.404 -0.0262  0.6400  0.0217
13082TIP3    H160661   0.163   1.738  15.437  1.2383 -0.2506  0.0183
13082TIP3    H260662   0.175   1.889  15.447  0.1347 -0.2623  1.8294
13083TIP3   OH260663   6.130   1.021   2.562  0.1006 -0.0736  0.2906
13083TIP3    H160664   6.164   1.041   2.475 -2.2402 -1.7137 -1.1207
13083TIP3    H260665   6.065   1.090   2.578  1.4396  0.9875  1.3861
13084TIP3   OH260666   4.520   5.473  11.411  0.5634  0.3595 -0.6484
13084TIP3    H160667   4.555   5.466  11.322 -0.0773 -2.8315 -0.7455
13084TIP3    H260668   4.427   5.491  11.400  0.1364 -1.6532 -0.7680
13085TIP3   OH260669   0.733   2.400  16.861  0.2908  0.3264  0.1398
13085TIP3    H160670   0.666   2.390  16.929 -0.0145  1.7180  0.0861
13085TIP3    H260671   0.690   2.454  16.794  0.6910 -0.7452 -1.0180
13086TIP3   OH260672   5.439   4.659   1.103 -0.4286 -0.1583 -0.2934
13086TIP3    H160673   5.390   4.637   1.023 -0.0613 -0.1238 -0.5299
13086TIP3    H260674   5.517   4.604   1.099  0.9332  1.7316 -1.3218
13087TIP3   OH260675   2.779   6.317   5.137 -0.0436 -0.4054 -0.2177
13087TIP3    H160676   2.786   6.346   5.228 -0.1426 -1.6368  0.1979
13087TIP3    H260677   2.865   6.281   5.116  0.0415  0.0533 -0.6886
13088TIP3   OH260678   4.853   4.462  11.108 -0.0393  0.0071 -0.0272
13088TIP3    H160679   4.789   4.480  11.039 -0.3729  2.6303  0.8203
13088TIP3    H260680   4.915   4.401  11.069 -0.6235  0.8316 -2.3997
13089TIP3   OH260681   0.207   3.973  16.212  0.3748 -0.3767  0.0159
13089TIP3    H160682   0.228   3.907  16.146  0.8829 -0.4071  0.2028
13089TIP3    H260683   0.241   4.055  16.176  0.2509 -0.3173  0.0360
13090TIP3   OH260684   5.890   4.338  15.837 -0.7895  0.0625 -0.2122
13090TIP3    H160685   5.856   4.422  15.803  0.9256  0.2427 -1.6080
13090TIP3    H260686   5.982   4.338  15.812 -0.3407 -1.5139  1.2854
13091TIP3   OH260687   6.630   5.241  11.543 -0.5203  0.5982  0.3818
13091TIP3    H160688   6.718   5.244  11.506  0.8453 -0.4202  3.2382
13091TIP3    H260689   6.582   5.180  11.487  0.8469  0.4671 -0.7016
13092TIP3   OH260690   1.496   1.837  17.069  0.6056 -0.2033 -0.3275
13092TIP3    H160691   1.470   1.857  16.979  0.7409 -0.3395 -0.3962
13092TIP3    H260692   1.542   1.915  17.099  3.2219 -1.2256 -1.3721
13093TIP3   OH260693   2.702   3.531   1.938  0.3934 -0.6193  0.2738
13093TIP3    H160694   2.725   3.601   1.876  0.4735 -0.7151  0.1933
13093TIP3    H260695   2.675   3.458   1.882  0.3715 -0.6733  0.3549
13094TIP3   OH260696   0.500   6.096   4.358 -0.1590 -0.1896 -0.2304
13094TIP3    H160697   0.406   6.079   4.356 -0.0958 -0.5895 -0.0144
13094TIP3    H260698   0.534   6.031   4.420  0.1072  0.6783  0.5540
13095TIP3   OH260699   4.066   0.082  16.325 -0.2324 -0.1065  0.2666
13095TIP3    H160700   4.058   0.177  16.332  0.9541  0.1072 -0.8894
13095TIP3    H260701   4.154   0.067  16.291 -1.1563 -1.4970 -1.7558
13096TIP3   OH260702   2.253   5.708  13.860  0.2681  0.5573 -0.3503
13096TIP3    H160703   2.259   5.631  13.804  0.5260  0.8497 -0.7288
13096TIP3    H260704   2.252   5.782  13.799  0.1394  0.8573  0.0126
13097TIP3   OH260705   2.611   6.152  12.988 -1.1312 -0.2056  0.0480
13097TIP3    H160706   2.696   6.115  12.964 -1.2449 -0.4897  0.0814
13097TIP3    H260707   2.612   6.240  12.950 -1.3829 -0.7137 -1.1893
13098TIP3   OH260708   6.759   3.867   5.110  0.1738  0.1401  0.1554
13098TIP3    H160709   6.675   3.831   5.137 -0.3547  0.3703 -1.1082
13098TIP3    H260710   6.779   3.824   5.027  0.0981  1.8277 -0.7952
13099TIP3   OH260711   6.440   1.321  16.317 -0.2743  0.0072 -0.1140
13099TIP3    H160712   6.381   1.344  16.245 -0.8568  3.2873  1.2491
13099TIP3    H260713   6.381   1.291  16.387 -0.2596  1.7879  0.7101
13100TIP3   OH260714   0.564   4.505   2.738 -0.4472  0.4398 -0.1927
13100TIP3    H160715   0.606   4.507   2.824  0.3246 -0.2313 -0.5468
13100TIP3    H260716   0.605   4.577   2.689  1.2565 -0.9984 -0.9620
13101TIP3   OH260717   0.831   3.347  14.315  0.1135 -0.3961  0.4728
13101TIP3    H160718   0.878   3.353  14.398  0.0547  1.0422  0.4270
13101TIP3    H260719   0.755   3.405  14.326 -0.0889 -0.4769 -0.4444
13102TIP3   OH260720   5.881   6.221   2.385 -0.6109  0.0851 -0.0243
13102TIP3    H160721   5.835   6.153   2.336 -2.8250  1.5494 -0.1338
13102TIP3    H260722   5.860   6.203   2.476 -3.6124  2.0606 -0.1680
13103TIP3   OH260723   4.628   0.958  12.697  0.3622  0.2542 -0.3706
13103TIP3    H160724   4.570   0.883  12.703  1.2576 -0.4738 -0.5184
13103TIP3    H260725   4.656   0.975  12.787  1.2301 -0.4708 -0.4933
13104TIP3   OH260726   0.713   2.253   3.443  0.7729 -0.7477 -0.3492
13104TIP3    H160727   0.661   2.282   3.517 -0.0635 -1.0104 -0.8232
13104TIP3    H260728   0.689   2.312   3.371  2.5278  0.3423 -0.1068
13105TIP3   OH260729   5.662   3.807  12.558  0.5247  0.1231 -0.2270
13105TIP3    H160730   5.569   3.794  12.539 -0.0531 -0.0354  2.3435
13105TIP3    H260731   5.693   3.865  12.488 -1.4485  0.0554 -1.2333
13106TIP3   OH260732   6.205   2.919   5.154  0.1104  0.1280  0.0803
13106TIP3    H160733   6.204   2.855   5.226 -0.6847  0.8802  0.7687
13106TIP3    H260734   6.227   2.868   5.077 -2.6128 -1.4512  0.2200
13107TIP3   OH260735   5.381   2.534   1.958  0.1865 -0.0857 -0.0643
13107TIP3    H160736   5.455   2.515   1.902 -0.4258  0.4419 -1.0818
13107TIP3    H260737   5.420   2.564   2.040  1.1012  1.7030 -1.1104
13108TIP3   OH260738   5.185   3.601  15.411  0.1050  0.4941 -0.3498
13108TIP3    H160739   5.177   3.540  15.337 -1.0340 -0.0996  0.2460
13108TIP3    H260740   5.207   3.685  15.370  2.6436 -0.4468 -1.1222
13109TIP3   OH260741   0.327   6.589  11.240  0.1282 -0.5745  0.1665
13109TIP3    H160742   0.232   6.588  11.234  0.0807  0.9233  0.2859
13109TIP3    H260743   0.351   6.682  11.233  1.5665 -0.9033  0.3132
13110TIP3   OH260744   2.738   2.278   1.815  0.3555 -0.5237 -0.4946
13110TIP3    H160745   2.647   2.300   1.796  0.0980  3.3053  3.5368
13110TIP3    H260746   2.787   2.316   1.742 -1.0889 -1.1439 -1.8567
13111TIP3   OH260747   1.720   0.528   3.948  0.2831  0.2656 -0.1892
13111TIP3    H160748   1.646   0.472   3.923 -0.7043  0.8501  1.2817
13111TIP3    H260749   1.715   0.601   3.887 -0.2901  0.2313 -0.1941
13112TIP3   OH260750   4.651   5.929   3.233 -0.5106  0.5566  0.3408
13112TIP3    H160751   4.557   5.947   3.235 -0.7806 -0.8104  1.9705
13112TIP3    H260752   4.662   5.853   3.289  1.5805  0.6476  0.1244
13113TIP3   OH260753   2.343   5.747  12.550  0.1803  0.0455 -0.0367
13113TIP3    H160754   2.398   5.728  12.625  0.3446 -2.0295 -0.6092
13113TIP3    H260755   2.396   5.721  12.474 -1.9630 -3.5639 -0.5508
13114TIP3   OH260756   1.595   1.547   5.772 -0.3368 -0.0159 -0.3368
13114TIP3    H160757   1.512   1.589   5.795  0.4288  0.7768  1.1517
13114TIP3    H260758   1.627   1.595   5.696  0.5175  2.2220  1.3293
13115TIP3   OH260759   6.173   0.920   3.004 -0.2859 -0.3959  0.4564
13115TIP3    H160760   6.103   0.985   2.996  0.3918  0.1636 -1.4177
13115TIP3    H260761   6.245   0.967   3.047  0.5087  0.4240 -1.6506
13116TIP3   OH260762   1.642   2.882  16.776 -0.4488 -0.5090 -0.3346
13116TIP3    H160763   1.552   2.866  16.746 -1.2034 -0.9101  1.9789
13116TIP3    H260764   1.641   2.859  16.869  1.6585  1.0048  0.1328
13117TIP3   OH260765   3.189   1.209   1.404 -0.0763  0.4077 -0.5811
13117TIP3    H160766   3.154   1.178   1.487  0.3691  0.9003 -0.2053
13117TIP3    H260767   3.150   1.151   1.338  1.4045 -1.5213  0.1531
13118TIP3   OH260768   4.308   4.706  16.744  0.5854  0.4447  0.5217
13118TIP3    H160769   4.389   4.656  16.734  1.6837  2.2458 -0.0444
13118TIP3    H260770   4.270   4.708  16.656 -1.7085 -2.8006  1.2174
13119TIP3   OH260771   5.853   1.480  13.211  0.6728 -0.3132 -0.0954
13119TIP3    H160772   5.875   1.543  13.142  0.9722 -0.3598 -0.0438
13119TIP3    H260773   5.797   1.530  13.271 -0.7546 -0.6635 -1.0800
13120TIP3   OH260774   4.979   0.888  11.729  0.2950  0.1614 -1.1460
13120TIP3    H160775   5.024   0.804  11.720 -0.9987 -0.7153  0.0361
13120TIP3    H260776   5.041   0.945  11.773  0.7772 -0.5661 -0.8672
13121TIP3   OH260777   0.076   0.037   2.391 -0.0408 -0.0941  0.4750
13121TIP3    H160778   0.083   0.108   2.456 -1.4340  0.1219  0.4093
13121TIP3    H260779   0.093  -0.042   2.442 -0.0983  0.1588  0.9012
13122TIP3   OH260780   4.461   5.640  12.807 -0.0413  0.1154 -0.0146
13122TIP3    H160781   4.485   5.641  12.900 -0.5274 -1.7547  0.1585
13122TIP3    H260782   4.391   5.576  12.801  1.8936 -1.9825 -2.1198
13123TIP3   OH260783   2.454   3.666   3.918  0.3827 -0.1434 -0.3201
13123TIP3    H160784   2.379   3.620   3.880 -0.6865  0.1474  1.2959
13123TIP3    H260785   2.518   3.598   3.936 -0.4034 -0.7463  0.2758
13124TIP3   OH260786   0.142   1.687   3.688  0.3133  0.1705  0.2439
13124TIP3    H160787   0.165   1.602   3.651 -1.7917  0.1532 -1.2192
13124TIP3    H260788   0.224   1.737   3.685  1.0254 -0.9739 -1.3031
13125TIP3   OH260789   5.369   3.418   2.325 -0.1630 -0.1456  0.1802
13125TIP3    H160790   5.406   3.345   2.276 -0.1260 -0.1497  0.2136
13125TIP3    H260791   5.441   3.448   2.381  0.8190  1.9423 -2.0625
13126TIP3   OH260792   4.723   0.705   5.108 -0.4095 -0.4048  0.3281
13126TIP3    H160793   4.665   0.766   5.063 -1.8944 -1.9971 -0.0314
13126TIP3    H260794   4.783   0.760   5.158 -1.9341  1.3186  0.3394
13127TIP3   OH260795   1.318   1.063   1.699 -1.0773  0.3701  0.6662
13127TIP3    H160796   1.362   1.118   1.634  1.0181 -0.0458  1.6224
13127TIP3    H260797   1.262   1.123   1.748 -0.5120  1.2352  0.2805
13128TIP3   OH260798   4.030   0.180   4.175  0.1476  0.5722  0.4274
13128TIP3    H160799   4.092   0.253   4.181 -0.4940  1.1787 -0.0657
13128TIP3    H260800   3.971   0.193   4.249  0.6621 -0.0676  0.9610
13129TIP3   OH260801   4.718   2.853   1.670  0.0274  0.2092 -0.2504
13129TIP3    H160802   4.772   2.781   1.638  0.0377  0.7499 -1.4940
13129TIP3    H260803   4.779   2.906   1.723  0.7930  0.8724 -1.7282
13130TIP3   OH260804   2.500   4.179   1.137  0.0174  0.3123 -0.3790
13130TIP3    H160805   2.419   4.156   1.181  0.4424 -0.2452  0.1210
13130TIP3    H260806   2.495   4.274   1.125 -0.5226  0.3331  0.0117
13131TIP3   OH260807   0.332   5.689  13.844  0.3284  0.2805  0.0875
13131TIP3    H160808   0.419   5.654  13.824  0.0697  0.1456 -0.8525
13131TIP3    H260809   0.328   5.691  13.939  1.5304  0.7015  0.1427
13132TIP3   OH260810   0.760   3.086   5.236  0.4904 -0.4219  0.1979
13132TIP3    H160811   0.828   3.069   5.301  1.6237 -2.0679 -1.3136
13132TIP3    H260812   0.693   3.021   5.254 -0.4357  0.7904  1.2868
13133TIP3   OH260813   2.841   1.367  16.249  0.6432  0.5545 -0.3015
13133TIP3    H160814   2.791   1.286  16.258  0.1033  0.8034 -0.9892
13133TIP3    H260815   2.902   1.350  16.177  0.6623  0.6927 -0.3188
13134TIP3   OH260816   4.632   5.798   5.082 -0.1416 -0.0378  0.0756
13134TIP3    H160817   4.563   5.732   5.085 -0.0879 -0.1845 -1.2423
13134TIP3    H260818   4.586   5.881   5.078 -0.2112  0.0696  2.1140
13135TIP3   OH260819   3.015   4.128  15.341  0.5492  0.0667  0.2403
13135TIP3    H160820   3.027   4.105  15.249  2.3663  1.5782  0.0506
13135TIP3    H260821   3.102   4.118  15.380 -0.1348 -0.2883  1.7471
13136TIP3   OH260822   2.006   3.576   4.698  0.2845 -0.4729  0.3534
13136TIP3    H160823   1.996   3.485   4.670 -0.8241 -0.8614  1.9200
13136TIP3    H260824   1.961   3.627   4.631  1.6396 -0.9539 -1.0029
13137TIP3   OH260825   4.300   4.446  12.602 -0.2728  0.0112  0.2476
13137TIP3    H160826   4.364   4.482  12.540 -0.9856 -0.3399 -0.7096
13137TIP3    H260827   4.225   4.422  12.548 -1.4900  1.0184  1.4336
13138TIP3   OH260828   2.754   5.292  12.319  0.3245  0.0466  0.2547
13138TIP3    H160829   2.661   5.275  12.331  0.4511  0.2529  1.7203
13138TIP3    H260830   2.781   5.229  12.252 -0.8807  0.0668 -0.2712
13139TIP3   OH260831   4.966   0.026   2.209 -0.2167 -0.1023  0.3160
13139TIP3    H160832   4.922  -0.056   2.233 -1.7414  0.8556  0.9881
13139TIP3    H260833   5.032  -0.000   2.145  0.3201 -2.0295  1.5906
13140TIP3   OH260834   1.955   0.653   4.957 -0.4835 -0.0077  0.3482
13140TIP3    H160835   1.953   0.558   4.944 -0.3762  0.0101  0.1979
13140TIP3    H260836   1.929   0.689   4.872 -0.8725  0.0909  0.5088
13141TIP3   OH260837   6.777   1.359   1.052 -0.1178  0.1305  0.2386
13141TIP3    H160838   6.758   1.281   1.001  1.7665  0.4586 -1.0431
13141TIP3    H260839   6.790   1.327   1.141  0.0779 -0.9450 -0.1691
13142TIP3   OH260840   2.091   6.232  13.587  0.4749 -0.2919  0.0590
13142TIP3    H160841   2.029   6.188  13.645 -0.4879 -0.7194 -1.2632
13142TIP3    H260842   2.177   6.214  13.626 -0.1926  0.1490  1.8101
13143TIP3   OH260843   5.553   3.818  12.811 -0.5617 -0.4667 -0.4312
13143TIP3    H160844   5.621   3.809  12.744 -2.0372 -1.8761 -1.8347
13143TIP3    H260845   5.532   3.911  12.811  0.2146 -0.2717 -1.1413
13144TIP3   OH260846   3.726   1.646   3.396  0.2222  0.8256 -0.1892
13144TIP3    H160847   3.722   1.699   3.476 -4.2901 -1.7242  1.6822
13144TIP3    H260848   3.673   1.694   3.333  1.9545  1.7793 -0.9600
13145TIP3   OH260849   0.637   0.408  15.667 -0.4015  0.3731  0.9256
13145TIP3    H160850   0.675   0.337  15.614 -2.1904 -1.6062  2.1247
13145TIP3    H260851   0.639   0.484  15.609  2.9539 -0.1902  0.0579
13146TIP3   OH260852   2.572   3.387  13.198  0.4699  0.0728 -0.2305
13146TIP3    H160853   2.618   3.398  13.115 -0.6947  1.6955 -0.6997
13146TIP3    H260854   2.481   3.407  13.179  0.1860  0.6021  1.4515
13147TIP3   OH260855   4.272   2.208   4.166 -0.0205  0.4602 -0.4737
13147TIP3    H160856   4.366   2.226   4.162 -0.3813  2.4944 -0.8599
13147TIP3    H260857   4.234   2.284   4.209 -1.4526 -0.6145  0.2861
13148TIP3   OH260858   5.168   4.686  13.321 -0.1342 -0.0367 -0.2019
13148TIP3    H160859   5.166   4.750  13.250  0.2068 -0.2387 -0.3997
13148TIP3    H260860   5.186   4.602  13.277 -0.3028 -0.2244  0.0811
13149TIP3   OH260861   6.340   6.144   5.654  0.4883  0.0403  0.4270
13149TIP3    H160862   6.376   6.208   5.715 -0.8584  0.9053  0.3536
13149TIP3    H260863   6.416   6.095   5.622  1.6881  2.1783 -0.1676
13150TIP3   OH260864   5.649   1.606  11.802  0.4871 -0.4629  0.4206
13150TIP3    H160865   5.583   1.660  11.845 -0.0209  0.5590 -1.5003
13150TIP3    H260866   5.604   1.524  11.783 -0.8718  0.7457 -2.2254
13151TIP3   OH260867   6.188   6.243   2.254  0.0376 -0.2369 -0.4396
13151TIP3    H160868   6.121   6.187   2.215 -0.3706 -0.1209  0.0822
13151TIP3    H260869   6.174   6.236   2.348  1.3821 -0.9627 -0.2743
13152TIP3   OH260870   4.210   4.993  13.046  0.1587  0.6934 -0.7275
13152TIP3    H160871   4.283   4.933  13.058  0.9449  1.7234 -0.2321
13152TIP3    H260872   4.161   4.956  12.972  1.4422  0.2429 -1.3833
13153TIP3   OH260873   3.231   4.797  14.582  0.0979 -0.0636  0.5166
13153TIP3    H160874   3.147   4.825  14.617  0.4928  1.0673  0.6116
13153TIP3    H260875   3.285   4.781  14.659 -0.0428 -0.8710  0.4580
13154TIP3   OH260876   0.651   0.255   0.294 -0.7509 -0.7052 -0.0274
13154TIP3    H160877   0.564   0.231   0.329 -1.3674  1.1557 -0.1767
13154TIP3    H260878   0.708   0.183   0.321 -2.4187 -2.2146 -0.3133
13155TIP3   OH260879   1.377   4.468  11.675 -0.5953 -0.6152  0.0389
13155TIP3    H160880   1.400   4.428  11.591  2.0682  0.6221  0.0706
13155TIP3    H260881   1.454   4.453  11.730 -2.0128 -0.8082  2.0815
13156TIP3   OH260882   6.369   2.708   0.066  0.1858 -0.6676 -0.4815
13156TIP3    H160883   6.280   2.740   0.077  0.7745 -0.0889  5.2968
13156TIP3    H260884   6.418   2.783   0.032 -0.8308  0.3656  0.2834
13157TIP3   OH260885   5.226   3.687   1.627 -0.0324 -0.3477  0.1931
13157TIP3    H160886   5.172   3.766   1.628  1.2977  0.6103 -0.7846
13157TIP3    H260887   5.164   3.615   1.639 -1.0593  0.9151  3.6087
13158TIP3   OH260888   0.500   3.159   4.332  0.0667 -0.3215  0.2671
13158TIP3    H160889   0.483   3.165   4.238  0.2879 -0.1963  0.2353
13158TIP3    H260890   0.593   3.177   4.341  0.1268 -0.7215  0.4745
13159TIP3   OH260891   4.154   3.761   3.139 -0.3868 -0.1288  0.3078
13159TIP3    H160892   4.147   3.852   3.110  1.2728 -0.5878 -1.8516
13159TIP3    H260893   4.247   3.741   3.131 -0.6266 -1.8309  1.4127
13160TIP3   OH260894   3.759   5.434   1.072 -0.4908 -0.2127 -0.3222
13160TIP3    H160895   3.709   5.362   1.033  0.6725 -0.5410 -1.2446
13160TIP3    H260896   3.730   5.511   1.024 -0.2504 -0.3784 -0.7425
13161TIP3   OH260897   0.309   5.772   5.936 -0.0349  0.0131  0.0090
13161TIP3    H160898   0.306   5.840   5.868  1.3433 -1.0112 -1.1572
13161TIP3    H260899   0.391   5.789   5.983  0.0405 -0.4913  0.0656
13162TIP3   OH260900   2.437   0.645   1.606  0.1781  0.3219  0.5305
13162TIP3    H160901   2.342   0.648   1.622 -0.0828 -1.3315 -0.5114
13162TIP3    H260902   2.475   0.626   1.692 -0.5892 -0.7883  0.6458
13163TIP3   OH260903   2.163   3.897  15.901  0.9142  0.7672 -0.4672
13163TIP3    H160904   2.207   3.953  15.965 -1.2250  0.4978  1.3863
13163TIP3    H260905   2.102   3.956  15.856  0.3498  0.4038 -0.1893
13164TIP3   OH260906   3.679   0.422   2.989 -0.1908  0.2084  0.2565
13164TIP3    H160907   3.593   0.426   3.033 -0.4878 -0.3464 -0.2522
13164TIP3    H260908   3.680   0.498   2.932  0.3787  1.1874  1.5191
13165TIP3   OH260909   3.961   4.390  11.208  0.2122  0.2615  0.2510
13165TIP3    H160910   4.030   4.327  11.228  0.4586  1.0241  1.9704
13165TIP3    H260911   3.883   4.337  11.196  0.1443 -0.3628  2.9222
13166TIP3   OH260912   2.811   0.489   5.864  0.3556  0.0580  0.1698
13166TIP3    H160913   2.726   0.532   5.853 -0.6609 -2.0216 -0.7247
13166TIP3    H260914   2.789   0.396   5.875  2.5536 -0.6208 -0.6697
13167TIP3   OH260915   4.501   2.745  15.679  0.1930 -0.7089  0.3255
13167TIP3    H160916   4.419   2.696  15.688  0.0745 -0.4866  0.4496
13167TIP3    H260917   4.487   2.800  15.602  0.2095 -0.6339  0.3772
13168TIP3   OH260918   5.483   1.154   0.174 -0.2323  0.4074 -0.1071
13168TIP3    H160919   5.462   1.243   0.146 -0.9987  0.3919  0.3951
13168TIP3    H260920   5.533   1.117   0.101 -2.8645  0.0585 -1.8760
13169TIP3   OH260921   0.938   5.540   1.626  0.2513  0.2826 -0.1561
13169TIP3    H160922   0.975   5.573   1.544  1.7308 -0.2532  0.2671
13169TIP3    H260923   0.978   5.594   1.694 -3.2140  2.7949  0.1597
13170TIP3   OH260924   3.801   3.858  11.428 -0.0428 -0.0083 -0.1025
13170TIP3    H160925   3.854   3.922  11.379  0.0977 -0.4367 -0.5154
13170TIP3    H260926   3.791   3.897  11.515 -0.5799  0.9226 -0.5657
13171TIP3   OH260927   6.141   5.025  13.865  0.0055  0.5207  0.2390
13171TIP3    H160928   6.189   4.999  13.944  1.4433 -2.1277 -1.3647
13171TIP3    H260929   6.064   4.968  13.865  0.1190  0.3603 -0.3229
13172TIP3   OH260930   4.903   6.520   3.216  0.6799 -0.2840  0.0291
13172TIP3    H160931   4.855   6.537   3.135  1.0819  0.3272 -0.0859
13172TIP3    H260932   4.978   6.579   3.213 -0.6786  1.7635  2.0431
13173TIP3   OH260933   4.996   4.479  14.704 -0.8547  0.0859 -0.3659
13173TIP3    H160934   4.967   4.460  14.793  2.7083 -0.8525  0.7726
13173TIP3    H260935   5.014   4.393  14.666  0.4129  0.5663 -0.9093
13174TIP3   OH260936   0.048   4.575  17.233  0.1164  0.5089  0.1284
13174TIP3    H160937  -0.021   4.642  17.229  0.3664  0.8166  0.7788
13174TIP3    H260938   0.076   4.576  17.325 -0.2862 -0.9141  0.2854
13175TIP3   OH260939   4.364   2.977   2.685  0.2923  0.5478 -0.6099
13175TIP3    H160940   4.455   2.954   2.705  0.7969  2.1771 -0.8692
13175TIP3    H260941   4.326   2.999   2.769  0.0277 -0.4032 -0.4633
13176TIP3   OH260942   4.408   6.091  14.721 -0.2227 -0.1019 -0.4979
13176TIP3    H160943   4.473   6.112  14.655 -1.4689 -0.1093 -1.7847
13176TIP3    H260944   4.458   6.058  14.795  1.0662 -4.3523 -2.9390
13177TIP3   OH260945   3.536   0.252  17.124 -0.2831 -0.2218 -0.2549
13177TIP3    H160946   3.518   0.338  17.162  0.9261 -0.3826  0.7402
13177TIP3    H260947   3.579   0.204  17.194  2.3569 -0.4219 -1.8906
13178TIP3   OH260948   4.095   6.498  16.319  0.3327  0.7913 -0.3045
13178TIP3    H160949   4.009   6.460  16.300  0.1067  1.2635 -0.2388
13178TIP3    H260950   4.114   6.553  16.243  0.2632  1.2300 -0.0090
13179TIP3   OH260951   5.393   0.996  14.573  0.3738 -0.0326 -0.0856
13179TIP3    H160952   5.441   0.946  14.640 -1.4807 -1.3980  0.3165
13179TIP3    H260953   5.378   0.933  14.502  1.0027  0.9738 -1.1316
13180TIP3   OH260954   0.759   4.480   2.918 -0.3347  0.4223 -0.4264
13180TIP3    H160955   0.825   4.431   2.868 -0.9055  1.8256 -2.6782
13180TIP3    H260956   0.807   4.513   2.994  1.1234 -0.0386 -1.1057
13181TIP3   OH260957   3.339   4.928   3.695  0.4141 -0.1238 -0.0407
13181TIP3    H160958   3.350   4.908   3.603 -0.5673  1.4778 -0.5482
13181TIP3    H260959   3.409   4.880   3.739 -0.6954 -3.0925 -1.2849
13182TIP3   OH260960   0.285   0.103  12.043 -0.4866 -0.2217 -0.1552
13182TIP3    H160961   0.343   0.126  12.115 -0.7242 -1.0879  0.3258
13182TIP3    H260962   0.234   0.183  12.027 -1.4973 -0.4569  1.6625
13183TIP3   OH260963   2.484   4.811  17.167  0.2689  0.1879  0.5624
13183TIP3    H160964   2.458   4.782  17.254  0.8577  0.2747  0.7672
13183TIP3    H260965   2.549   4.748  17.138 -1.0326 -0.7473 -0.4687
13184TIP3   OH260966   5.161   2.789   3.647 -0.2940 -0.3441 -0.3421
13184TIP3    H160967   5.117   2.734   3.581  0.2156  0.2540 -1.1964
13184TIP3    H260968   5.109   2.870   3.648 -0.7805 -0.6607  0.5911
13185TIP3   OH260969   1.610   3.880  11.732 -0.0127 -0.2594  0.3502
13185TIP3    H160970   1.578   3.922  11.651 -0.8657 -0.1614  0.7261
13185TIP3    H260971   1.701   3.859  11.713  0.4338  1.6819  0.1020
13186TIP3   OH260972   6.218   0.001  11.867  0.0879 -0.2961 -0.1024
13186TIP3    H160973   6.268  -0.021  11.788  1.7464  0.4106  0.7081
13186TIP3    H260974   6.284   0.014  11.935 -1.1524  1.2496  0.8764
13187TIP3   OH260975   1.749   3.532  14.550  0.6658 -0.2516  0.1044
13187TIP3    H160976   1.703   3.489  14.478 -0.1833 -1.9739  1.5805
13187TIP3    H260977   1.712   3.620  14.555  0.3519 -0.3032 -1.1911
13188TIP3   OH260978   1.273   5.255   0.729 -0.0704  0.1691  0.0760
13188TIP3    H160979   1.220   5.308   0.669  1.3859  1.1695 -0.3636
13188TIP3    H260980   1.256   5.293   0.815 -4.7343 -3.2452  1.0702
13189TIP3   OH260981   2.744   4.921   1.035  0.1351 -0.4520  0.3417
13189TIP3    H160982   2.649   4.932   1.040 -0.0291 -1.9545  1.8341
13189TIP3    H260983   2.757   4.855   0.967  0.1408 -0.0734 -0.0286
13190TIP3   OH260984   5.786   0.730   6.008  0.6650  0.1672  0.1708
13190TIP3    H160985   5.690   0.741   6.005  0.6273  0.2064  1.3447
13190TIP3    H260986   5.799   0.641   6.040  1.0371 -0.3359 -1.2871
13191TIP3   OH260987   2.596   0.715   2.801 -0.2089 -0.4660  0.0251
13191TIP3    H160988   2.628   0.750   2.718 -1.5606  3.2986  0.8700
13191TIP3    H260989   2.674   0.712   2.857  0.2658 -0.4195 -0.6302
13192TIP3   OH260990   1.313   2.742   3.742  0.4225 -0.5437  0.2638
13192TIP3    H160991   1.275   2.668   3.789  1.3044 -0.9709  0.3320
13192TIP3    H260992   1.248   2.763   3.674  0.3513 -1.6864 -0.0567
13193TIP3   OH260993   0.069   0.975   0.221 -0.3133  0.5673  0.2800
13193TIP3    H160994   0.019   1.021   0.154  0.5340 -0.1124 -0.8633
13193TIP3    H260995   0.018   0.896   0.239  0.3383 -0.1802 -0.9657
13194TIP3   OH260996   6.761   6.752  13.485 -0.4178  0.4685 -0.1143
13194TIP3    H160997   6.706   6.689  13.531 -0.7256  1.2064  0.5464
13194TIP3    H260998   6.722   6.838  13.504  0.5157  0.9436 -0.2468
13195TIP3   OH260999   0.037   3.938   4.000 -0.3083 -0.7351  0.0952
13195TIP3    H161000  -0.016   3.960   3.924 -0.3053 -0.2768  0.2268
13195TIP3    H261001   0.017   3.846   4.017 -1.7385 -0.3473  0.6844
13196TIP3   OH261002   2.944   2.539  14.330  0.2848 -0.6781 -0.6234
13196TIP3    H161003   3.030   2.537  14.371 -0.0748 -0.9636  0.1242
13196TIP3    H261004   2.901   2.459  14.359 -0.4756 -0.2189 -0.4582
13197TIP3   OH261005   6.047   4.925   2.560  0.6443  0.5774 -0.1383
13197TIP3    H161006   6.076   4.853   2.616 -0.9908  0.6068  0.8399
13197TIP3    H261007   5.958   4.899   2.533 -0.5605  2.7914  1.3743
13198TIP3   OH261008   0.574   3.638   5.620 -0.1468  0.0748 -0.0351
13198TIP3    H161009   0.636   3.566   5.614 -1.2681 -0.8884 -0.5096
13198TIP3    H261010   0.619   3.706   5.671  0.3637 -1.5669  1.8081
13199TIP3   OH261011   2.229   5.064  15.617  1.2707  0.0087  0.1299
13199TIP3    H161012   2.239   5.132  15.550 -1.8182  1.4079  0.9127
13199TIP3    H261013   2.298   5.083  15.681  3.2618 -0.4058 -1.7996
13200TIP3   OH261014   2.433   5.991  11.332 -0.4432  0.4461 -0.2351
13200TIP3    H161015   2.504   6.045  11.296 -0.0695 -0.5472 -1.0382
13200TIP3    H261016   2.470   5.903  11.338 -1.9838 -0.3765 -1.9301
13201TIP3   OH261017   3.052   5.457  12.931 -0.2166 -0.3739 -0.3138
13201TIP3    H161018   3.068   5.364  12.949 -0.6377 -0.6515 -1.3354
13201TIP3    H261019   2.988   5.483  12.997 -0.0143 -0.7670  0.0501
13202TIP3   OH261020   3.543   5.854  14.794 -0.0841  1.0379 -0.4753
13202TIP3    H161021   3.572   5.855  14.885 -0.1525  0.6742 -0.4480
13202TIP3    H261022   3.466   5.910  14.793 -2.9100 -2.4583  0.6558
13203TIP3   OH261023   4.456   2.132   1.685  0.6582 -0.2292 -0.4104
13203TIP3    H161024   4.392   2.198   1.712  1.6753  1.2219 -1.3922
13203TIP3    H261025   4.428   2.106   1.597 -0.0243 -1.5472  0.1553
13204TIP3   OH261026   0.088   1.714   0.186 -0.0881  0.3840  0.3844
13204TIP3    H161027   0.092   1.790   0.244 -0.5206  0.7949 -0.1133
13204TIP3    H261028   0.002   1.676   0.203  0.7222 -0.9331  1.7727
13205TIP3   OH261029   1.750   2.109  13.252 -0.1878 -0.2991  0.2976
13205TIP3    H161030   1.751   2.198  13.287 -1.2295  0.2128 -0.8716
13205TIP3    H261031   1.742   2.053  13.329 -0.3208  0.6583  1.0026
13206TIP3   OH261032   5.596   1.178   5.596  0.4587  0.0869 -0.1230
13206TIP3    H161033   5.545   1.108   5.637  0.2992  0.3174  0.0800
13206TIP3    H261034   5.687   1.151   5.608  0.4641  0.6102  1.2748
13207TIP3   OH261035   4.237   3.381   4.969  0.2574  0.1190  0.1204
13207TIP3    H161036   4.323   3.356   5.004  0.0647 -0.3971  0.2385
13207TIP3    H261037   4.228   3.474   4.990  0.4174 -0.0333  0.8819
13208TIP3   OH261038   4.987   1.143  16.448 -0.0604 -0.3496  0.2155
13208TIP3    H161039   5.076   1.176  16.436  0.2440 -0.9886  0.6855
13208TIP3    H261040   4.996   1.048  16.443 -0.4549 -0.5097  1.9017
13209TIP3   OH261041   0.031   4.128  15.400 -0.1886 -0.4335  0.1485
13209TIP3    H161042   0.120   4.163  15.395 -0.3152 -0.0893  0.3061
13209TIP3    H261043   0.042   4.034  15.383  0.2637 -0.4752  0.6122
13210TIP3   OH261044   6.142   4.160   6.328  0.6389  0.1509  0.1387
13210TIP3    H161045   6.193   4.125   6.401  0.2434 -0.7545 -0.0085
13210TIP3    H261046   6.067   4.102   6.320 -0.4298  1.4470  0.3332
13211TIP3   OH261047   0.547   4.539   5.183  0.0777  0.0026 -0.9178
13211TIP3    H161048   0.476   4.593   5.217 -1.4644 -3.0951  1.2445
13211TIP3    H261049   0.627   4.581   5.214 -1.0967  0.4760  1.7088
13212TIP3   OH261050   5.285   1.744   4.042  0.2207  0.1525  0.2393
13212TIP3    H161051   5.377   1.732   4.065  0.1431  0.2395  0.5923
13212TIP3    H261052   5.287   1.765   3.948  0.4462 -1.2280 -0.0809
13213TIP3   OH261053   2.203   1.017   5.167 -0.3782 -0.2251 -0.4522
13213TIP3    H161054   2.236   1.079   5.102  0.9056 -0.5247 -0.1099
13213TIP3    H261055   2.187   0.937   5.117  2.3307 -1.0388 -0.1664
13214TIP3   OH261056   5.028   2.322  13.569 -0.9045  0.3127  0.5228
13214TIP3    H161057   4.959   2.269  13.528  0.9659 -2.5685  0.7848
13214TIP3    H261058   5.055   2.383  13.501 -1.7002 -0.5310 -0.5959
13215TIP3   OH261059   2.653   6.254   1.816 -0.1428  0.2697  0.8857
13215TIP3    H161060   2.594   6.323   1.845 -1.2585  0.2935 -1.2211
13215TIP3    H261061   2.615   6.224   1.733  1.6360 -1.2107  0.5527
13216TIP3   OH261062   1.318   4.134  11.883  0.2678  0.4526 -0.2375
13216TIP3    H161063   1.271   4.186  11.948 -1.5173 -0.1288 -0.9958
13216TIP3    H261064   1.336   4.051  11.927  0.6919  0.7128  0.0878
13217TIP3   OH261065   2.633   2.152   0.436  0.1594  0.1298 -0.1855
13217TIP3    H161066   2.615   2.063   0.405  1.3346  0.1173 -0.8849
13217TIP3    H261067   2.554   2.176   0.485 -1.0892 -0.4907 -1.7932
13218TIP3   OH261068   3.374   2.357  13.119 -0.1141  0.5492 -0.4588
13218TIP3    H161069   3.357   2.267  13.145  1.8496 -0.5146 -2.5197
13218TIP3    H261070   3.450   2.383  13.170 -0.7216  1.0885  0.1845
13219TIP3   OH261071   3.088   1.709   2.735 -0.0100 -0.5567  0.0996
13219TIP3    H161072   3.166   1.659   2.710 -0.4702 -0.6243 -1.2856
13219TIP3    H261073   3.027   1.695   2.663 -2.1144 -2.1866  2.0630
13220TIP3   OH261074   5.090   2.323   1.194 -0.0306  0.0778 -0.3909
13220TIP3    H161075   5.160   2.375   1.154  1.0279 -1.1524 -0.2104
13220TIP3    H261076   5.023   2.317   1.127  0.6619  0.0894 -1.1028
13221TIP3   OH261077   1.220   3.906   3.459  0.3881 -0.4540 -0.0951
13221TIP3    H161078   1.298   3.853   3.440  1.2504  0.7205  0.0483
13221TIP3    H261079   1.149   3.860   3.415  1.4435 -0.6385 -1.7228
13222TIP3   OH261080   3.979   3.339  11.150 -0.5952  0.3304 -1.3309
13222TIP3    H161081   4.016   3.426  11.137  0.2321  0.3882  0.8812
13222TIP3    H261082   3.987   3.324  11.245 -2.0031 -1.5846 -1.4572
13223TIP3   OH261083   0.038   0.374  13.094 -0.1603  0.8088 -0.4088
13223TIP3    H161084   0.065   0.403  13.181 -1.0710  1.6358 -0.3846
13223TIP3    H261085   0.118   0.338  13.055  0.4854  1.3153  0.3993
13224TIP3   OH261086   2.015   0.858  12.026 -0.4350 -0.7399  0.7146
13224TIP3    H161087   2.083   0.914  11.987  0.2191 -0.3974  2.2484
13224TIP3    H261088   2.024   0.872  12.120 -2.2801 -1.1283  0.9943
13225TIP3   OH261089   3.607   4.211  14.124 -0.4529 -0.6065  0.5380
13225TIP3    H161090   3.667   4.226  14.197 -1.1981  1.6540  0.7708
13225TIP3    H261091   3.531   4.266  14.144  0.0960  1.6565 -2.8007
13226TIP3   OH261092   1.694   6.343  11.942 -0.0554 -0.1279 -0.5748
13226TIP3    H161093   1.702   6.433  11.910 -0.1152  0.3025  0.5568
13226TIP3    H261094   1.611   6.342  11.991 -1.0688 -1.3394 -2.1980
13227TIP3   OH261095   4.834   0.576   1.209  0.2774 -0.1210 -0.4661
13227TIP3    H161096   4.739   0.586   1.214  0.3686  0.9572 -0.4988
13227TIP3    H261097   4.864   0.657   1.168  1.1374 -0.8338 -1.2842
13228TIP3   OH261098   4.805   3.645  15.071  0.1664 -0.2659 -0.0386
13228TIP3    H161099   4.744   3.572  15.067 -1.6564  1.1802 -0.0712
13228TIP3    H261100   4.789   3.685  15.156  2.6447 -1.0741  0.9083
13229TIP3   OH261101   3.801   5.408   5.150  0.1580  0.4879 -0.1525
13229TIP3    H161102   3.776   5.316   5.151  2.4678 -0.1882  0.5582
13229TIP3    H261103   3.828   5.425   5.060  1.4694 -0.0620  0.1232
13230TIP3   OH261104   5.268   3.084  12.209 -0.5986 -0.2429 -0.6077
13230TIP3    H161105   5.174   3.069  12.205 -0.7761  0.9625 -3.0398
13230TIP3    H261106   5.301   3.051  12.125  1.0471 -0.0391 -0.0739
13231TIP3   OH261107   3.398   5.397   5.621 -0.3544 -0.5869  0.1164
13231TIP3    H161108   3.444   5.326   5.667 -0.2208 -1.0719 -0.7460
13231TIP3    H261109   3.320   5.412   5.674 -0.6228 -1.7015  0.0707
13232TIP3   OH261110   3.812   5.148  16.452  0.3012  0.1300 -0.3493
13232TIP3    H161111   3.771   5.106  16.527 -0.7556 -1.1487 -1.5867
13232TIP3    H261112   3.880   5.204  16.490  0.0022 -0.7039  1.5228
13233TIP3   OH261113   1.634   1.154   2.567  0.1322 -0.1898 -0.2284
13233TIP3    H161114   1.706   1.118   2.619  0.1802 -0.2546 -0.3393
13233TIP3    H261115   1.614   1.239   2.608 -1.5045 -1.3032  1.4825
13234TIP3   OH261116   6.144   6.666  12.200  0.0822  1.2849 -0.3885
13234TIP3    H161117   6.054   6.636  12.188  0.3264  0.6765 -0.7558
13234TIP3    H261118   6.198   6.599  12.157  0.7399  1.3613  0.2948
13235TIP3   OH261119   4.227   1.220  16.136 -0.6437  0.1722 -0.1489
13235TIP3    H161120   4.287   1.148  16.156 -1.4808 -0.2267  1.0329
13235TIP3    H261121   4.279   1.299  16.149 -0.6504 -0.1206  2.0477
13236TIP3   OH261122   6.663   0.601  16.474  0.9296 -0.1233 -0.2808
13236TIP3    H161123   6.726   0.578  16.406  1.4658  1.2216 -0.2647
13236TIP3    H261124   6.593   0.647  16.427  0.9058  0.0923 -0.0326
13237TIP3   OH261125   4.217   5.730  14.843  0.5718 -0.5281  0.1749
13237TIP3    H161126   4.180   5.658  14.893  1.0358 -2.3872 -1.9687
13237TIP3    H261127   4.141   5.779  14.811  0.1990 -0.8851  0.5075
13238TIP3   OH261128   1.399   6.471  11.326  0.2721  0.3524 -0.2993
13238TIP3    H161129   1.407   6.464  11.231 -0.7633 -2.9822 -0.2608
13238TIP3    H261130   1.483   6.506  11.355  1.7291 -1.3332 -2.2543
13239TIP3   OH261131   2.536   2.465   4.870  0.4894  0.3325  0.0520
13239TIP3    H161132   2.536   2.487   4.777  1.4176  2.7574  0.5500
13239TIP3    H261133   2.620   2.420   4.885 -0.2951 -1.3992 -0.4992
13240TIP3   OH261134   5.972   5.747  16.599 -0.7626 -0.1066  0.0316
13240TIP3    H161135   5.988   5.837  16.571  1.4702 -0.7182 -0.9245
13240TIP3    H261136   6.050   5.699  16.570 -0.9372 -1.9508  2.3133
13241TIP3   OH261137   5.246   5.436   3.633 -0.4337 -0.3315 -0.5053
13241TIP3    H161138   5.307   5.451   3.561 -0.3813 -1.1140 -0.6384
13241TIP3    H261139   5.300   5.444   3.712 -0.5738  0.9217 -0.5211
13242TIP3   OH261140   5.963   2.838   1.584  0.6038 -0.1749  0.2523
13242TIP3    H161141   6.016   2.838   1.504  1.4691  0.7908  0.8024
13242TIP3    H261142   6.022   2.805   1.652 -0.6732 -2.7704  0.1980
13243TIP3   OH261143   4.680   4.793  13.593  0.3644 -0.5233 -0.1700
13243TIP3    H161144   4.624   4.798  13.515 -0.4952  0.5844  0.4777
13243TIP3    H261145   4.714   4.704  13.593  1.2914 -0.2485 -2.4198
13244TIP3   OH261146   1.164   2.206  10.959 -0.3531  0.1566 -0.1595
13244TIP3    H161147   1.092   2.261  10.990  0.0775  0.4356  0.3790
13244TIP3    H261148   1.184   2.149  11.033 -1.9845 -2.0289 -1.2893
13245TIP3   OH261149   5.418   1.207  13.766  0.2453  0.4247 -0.3067
13245TIP3    H161150   5.358   1.152  13.715 -2.2918 -0.8966  3.6002
13245TIP3    H261151   5.370   1.289  13.779  0.3667  0.3608  0.6606
13246TIP3   OH261152   0.108   5.007  11.980 -1.0157 -0.2835 -0.5277
13246TIP3    H161153   0.127   5.082  11.923 -0.7748 -0.0082 -0.0919
13246TIP3    H261154   0.012   4.998  11.977 -1.1076  0.4641 -0.0601
13247TIP3   OH261155   5.634   5.451  17.016  0.1212  0.3662  0.3383
13247TIP3    H161156   5.549   5.490  17.037  0.7273  0.8080  2.2241
13247TIP3    H261157   5.697   5.504  17.064  1.5033  0.1472 -1.1598
13248TIP3   OH261158   0.942   2.057   3.493  0.1186  0.3637 -0.0866
13248TIP3    H161159   0.947   2.072   3.587 -0.6529 -0.3403  0.0793
13248TIP3    H261160   0.900   2.136   3.459 -0.8388  0.0608  0.3449
13249TIP3   OH261161   3.479   0.531   3.191  0.4016  0.0126  0.1679
13249TIP3    H161162   3.401   0.584   3.210 -2.2025 -3.2498 -0.4789
13249TIP3    H261163   3.527   0.530   3.273 -0.4455  1.7536  0.7497
13250TIP3   OH261164   3.408   4.734   1.423  0.0275 -0.2840  0.1764
13250TIP3    H161165   3.394   4.681   1.501 -1.3215  1.4925  1.2228
13250TIP3    H261166   3.330   4.720   1.370  1.3763 -2.2796 -1.4516
13251TIP3   OH261167   1.407   2.700   0.540  0.3739 -0.0396  0.4171
13251TIP3    H161168   1.472   2.682   0.607 -1.6647 -1.2584  2.2169
13251TIP3    H261169   1.398   2.618   0.491  0.3904  0.2158 -0.0261
13252TIP3   OH261170   5.834   5.563   5.594 -0.3268 -0.0026 -0.2836
13252TIP3    H161171   5.875   5.571   5.508  1.3027  0.4263  0.4919
13252TIP3    H261172   5.847   5.648   5.636 -1.3998 -0.0919  0.2787
13253TIP3   OH261173   2.863   0.479   4.864 -0.1733  0.1321  0.8354
13253TIP3    H161174   2.939   0.453   4.916  0.3639  1.5118  0.7954
13253TIP3    H261175   2.790   0.477   4.926  0.1235 -0.0187  1.1864
13254TIP3   OH261176   3.833   0.710  10.940  0.1993 -0.4501  0.0396
13254TIP3    H161177   3.805   0.801  10.948 -0.3364 -0.6963  1.0998
13254TIP3    H261178   3.827   0.691  10.847 -0.7616  0.2600 -0.0495
13255TIP3   OH261179   3.051   2.061   6.691  0.1676  0.1914 -0.7311
13255TIP3    H161180   2.998   2.127   6.735 -0.7442 -0.7781 -0.3356
13255TIP3    H261181   3.141   2.093   6.699 -0.1886  1.0533  0.0149
13256TIP3   OH261182   6.314   5.941  11.362 -0.1200  0.5582  0.3442
13256TIP3    H161183   6.373   6.000  11.317 -1.2568  0.1091 -1.8692
13256TIP3    H261184   6.368   5.867  11.388  0.2921 -0.0369 -1.9964
13257TIP3   OH261185   6.659   1.545   3.022 -0.2786  0.0470  0.0682
13257TIP3    H161186   6.602   1.559   2.946  0.7856  1.4630 -0.5064
13257TIP3    H261187   6.610   1.583   3.096 -0.4258  0.5535 -0.2852
13258TIP3   OH261188   3.229   3.809  13.591  0.2566 -0.3721  0.2522
13258TIP3    H161189   3.237   3.885  13.649  2.5534  0.1898 -0.7106
13258TIP3    H261190   3.192   3.741  13.647  0.2731  0.7797  1.7478
13259TIP3   OH261191   5.099   0.929   3.832 -0.3246  0.1074 -0.1216
13259TIP3    H161192   5.170   0.882   3.876  1.5190  2.5554 -0.2614
13259TIP3    H261193   5.112   0.911   3.739 -0.8291 -0.6420 -0.0524
13260TIP3   OH261194   2.468   5.179   0.795  0.4008 -0.2360 -0.4949
13260TIP3    H161195   2.522   5.186   0.716 -0.5956 -2.3916 -1.4530
13260TIP3    H261196   2.437   5.089   0.794  0.8675 -0.5441  2.7539
13261TIP3   OH261197   0.483   3.353   0.728  0.1717 -0.0523 -0.3156
13261TIP3    H161198   0.486   3.310   0.642  0.0936  1.7522 -1.2567
13261TIP3    H261199   0.565   3.402   0.734  0.0482  0.0660  0.5282
13262TIP3   OH261200   0.060   2.884   2.710  0.2518  0.5443 -0.0833
13262TIP3    H161201   0.080   2.977   2.722  3.1277  0.0752 -0.4862
13262TIP3    H261202   0.130   2.838   2.757  1.0086 -1.3516 -2.7741
13263TIP3   OH261203   2.879   1.220   5.614 -0.0696  0.3863 -0.1047
13263TIP3    H161204   2.821   1.167   5.559 -0.1686  0.8129 -0.4175
13263TIP3    H261205   2.911   1.289   5.555 -0.3402  0.9684  0.4259
13264TIP3   OH261206   1.134   2.592   5.719  0.0414  0.1103 -0.1318
13264TIP3    H161207   1.165   2.683   5.723 -0.4232  0.2560  0.2738
13264TIP3    H261208   1.050   2.597   5.674  0.9617 -0.3931 -2.0133
13265TIP3   OH261209   0.657   4.660   4.671 -0.5000 -0.1798  0.5706
13265TIP3    H161210   0.747   4.632   4.655 -0.3245  0.5087  0.3280
13265TIP3    H261211   0.604   4.603   4.616 -0.2359 -0.7596  0.9086
13266TIP3   OH261212   4.433   2.287  11.857  0.3510  0.1029 -0.6354
13266TIP3    H161213   4.495   2.358  11.875  0.0837  0.2845 -0.4394
13266TIP3    H261214   4.458   2.218  11.918  0.8076 -0.0936 -1.0353
13267TIP3   OH261215   4.493   0.946   6.482 -0.3559 -0.2220 -0.1958
13267TIP3    H161216   4.574   0.976   6.525  0.0388 -0.1046 -1.0067
13267TIP3    H261217   4.440   0.910   6.553  0.5913 -0.6982  0.2839
13268TIP3   OH261218   0.334   3.793  12.369 -0.3607  0.4805  0.1072
13268TIP3    H161219   0.292   3.708  12.359 -0.8025  0.5016  1.5434
13268TIP3    H261220   0.376   3.789  12.455  1.8832  0.7748 -0.9031
13269TIP3   OH261221   5.328   1.160   0.853 -0.1083 -0.0338  0.1939
13269TIP3    H161222   5.358   1.248   0.831  0.5838 -0.5519 -1.0368
13269TIP3    H261223   5.290   1.127   0.772  0.6079 -1.2533  0.3401
13270TIP3   OH261224   2.736   3.888  15.170 -0.2411  0.3553  0.3296
13270TIP3    H161225   2.721   3.895  15.264  2.3958 -1.3909  0.9953
13270TIP3    H261226   2.830   3.869  15.162 -0.1793  1.3961 -2.7282
13271TIP3   OH261227   3.666   1.521   4.154 -0.0745 -0.1528 -0.1128
13271TIP3    H161228   3.605   1.447   4.143  0.0243 -0.5435  1.7097
13271TIP3    H261229   3.651   1.575   4.076 -1.8352 -0.9009 -0.3602
13272TIP3   OH261230   4.938   0.028  13.057 -0.2476 -0.6359 -0.0383
13272TIP3    H161231   4.996   0.096  13.023 -1.8097 -0.0523 -1.6795
13272TIP3    H261232   4.984  -0.006  13.134  1.5637  0.7879 -0.4169
13273TIP3   OH261233   1.382   1.964   3.104  0.2601 -0.4912  0.1361
13273TIP3    H161234   1.428   2.005   3.178 -0.2336 -2.0463  1.3603
13273TIP3    H261235   1.307   2.022   3.088  0.6708  0.1560  0.4858
13274TIP3   OH261236   3.702   0.978  11.035 -0.1176 -0.2138  0.3156
13274TIP3    H161237   3.627   0.920  11.046  0.2441 -0.9999 -1.1298
13274TIP3    H261238   3.665   1.059  11.001 -0.3096 -0.7165 -0.7213
13275TIP3   OH261239   5.281   3.341  16.821 -0.5982 -0.2585 -0.4122
13275TIP3    H161240   5.363   3.336  16.771 -0.1082  0.2069  0.3114
13275TIP3    H261241   5.297   3.285  16.897 -1.6138 -1.5690 -1.1391
13276TIP3   OH261242   5.457   0.566   4.803  0.1711  0.6281  0.0443
13276TIP3    H161243   5.463   0.648   4.853 -1.1845  0.9590 -0.3088
13276TIP3    H261244   5.371   0.569   4.762 -0.8632 -1.9767  1.7769
13277TIP3   OH261245   0.327   4.308  12.515  0.3311  0.0520 -0.4950
13277TIP3    H161246   0.358   4.384  12.466 -0.4568 -0.5540 -2.0076
13277TIP3    H261247   0.325   4.237  12.451  0.3757 -1.0799  0.7172
13278TIP3   OH261248   1.677   3.118   0.187  0.3391 -0.2406 -0.5207
13278TIP3    H161249   1.691   3.157   0.101  0.8197  0.2234 -0.2415
13278TIP3    H261250   1.765   3.110   0.224  0.0322  1.5508  0.7653
13279TIP3   OH261251   5.490   0.069  14.574  0.2102 -0.1307  0.8164
13279TIP3    H161252   5.438   0.039  14.500 -1.0743  2.7582  0.3988
13279TIP3    H261253   5.578   0.083  14.539 -0.5944  2.0709 -0.5121
13280TIP3   OH261254   4.397   5.453  16.402  0.6985 -0.3313  0.4481
13280TIP3    H161255   4.308   5.423  16.386  0.4647 -0.5440  2.0789
13280TIP3    H261256   4.440   5.445  16.316 -0.1732 -2.4694  0.1575
13281TIP3   OH261257   5.163   1.159  12.315  0.1048 -0.4853  0.5023
13281TIP3    H161258   5.140   1.249  12.338  0.3368 -0.7356  1.7880
13281TIP3    H261259   5.180   1.161  12.221 -0.1177  0.7627  0.4815
13282TIP3   OH261260   2.037   4.160  15.999 -0.0893 -0.3972  0.0463
13282TIP3    H161261   2.101   4.224  15.967 -0.2248  0.1087  0.7571
13282TIP3    H261262   2.067   4.139  16.088 -0.6170 -0.5475  0.1925
13283TIP3   OH261263   1.883   0.754   0.469  0.3724  0.1167 -0.4688
13283TIP3    H161264   1.908   0.688   0.533 -1.1065  1.4208  1.5722
13283TIP3    H261265   1.920   0.836   0.503 -1.4079  1.0248 -0.6229
13284TIP3   OH261266   5.700   0.989  15.905  0.0312  0.6921 -0.0218
13284TIP3    H161267   5.646   1.066  15.888  0.0463  0.3220 -2.0177
13284TIP3    H261268   5.639   0.916  15.905  0.3422  0.4154 -0.9684
13285TIP3   OH261269   4.607   5.606   1.305 -0.4360  0.0746  0.1715
13285TIP3    H161270   4.608   5.696   1.339 -0.7571 -0.0143  0.4162
13285TIP3    H261271   4.522   5.597   1.263 -1.1804 -0.7093  1.7605
13286TIP3   OH261272   0.840   2.142  15.242 -0.0242 -0.6024 -0.5119
13286TIP3    H161273   0.867   2.146  15.150 -2.7352  1.2793 -1.3615
13286TIP3    H261274   0.768   2.078  15.242 -0.8368  0.2933  0.0335
13287TIP3   OH261275   5.358   2.465   2.795 -0.8257  0.1304 -0.4072
13287TIP3    H161276   5.279   2.411   2.797 -0.0241 -1.0480  0.3601
13287TIP3    H261277   5.428   2.405   2.769 -0.1755  1.1678 -1.1413
13288TIP3   OH261278   5.753   3.710  11.434  0.2788 -0.4131  0.3985
13288TIP3    H161279   5.714   3.768  11.369  1.0140  0.8515  1.0739
13288TIP3    H261280   5.688   3.640  11.444 -1.2034  0.9310  0.4870
13289TIP3   OH261281   5.047   6.040  13.554  0.4283 -0.0347 -0.1196
13289TIP3    H161282   5.112   5.988  13.508  0.3722  1.4243 -1.9547
13289TIP3    H261283   5.098   6.099  13.609  0.5329 -0.9369  0.7780
13290TIP3   OH261284   3.774   0.538  11.475  0.7663 -0.7504  0.0578
13290TIP3    H161285   3.801   0.568  11.562  0.8759 -2.4810  0.6665
13290TIP3    H261286   3.772   0.617  11.422  1.3200  0.2617  1.4736
13291TIP3   OH261287   3.655   5.073  10.760 -0.4112 -0.2375 -0.0669
13291TIP3    H161288   3.564   5.099  10.771 -0.6056 -0.7558 -0.4246
13291TIP3    H261289   3.651   4.982  10.733  0.2848 -0.9260  1.9920
13292TIP3   OH261290   3.128   4.667  13.972 -0.0875 -0.0660  0.3200
13292TIP3    H161291   3.122   4.753  13.932 -1.3115 -0.1863  0.2259
13292TIP3    H261292   3.222   4.649  13.976  0.0947  0.0364 -2.2816
13293TIP3   OH261293   5.111   1.405   4.265  0.3824  0.0675 -0.4381
13293TIP3    H161294   5.185   1.439   4.316  0.1090  0.0451 -0.0279
13293TIP3    H261295   5.079   1.481   4.216  0.7740  0.0439 -0.7370
13294TIP3   OH261296   0.854   1.989   5.492  0.7266 -0.7849  0.4715
13294TIP3    H161297   0.917   1.974   5.563  1.4794  0.7476  0.1656
13294TIP3    H261298   0.786   2.043   5.532  1.5185  0.6972 -0.1150
13295TIP3   OH261299   5.404   6.318   4.157 -0.1040  0.2706 -0.5004
13295TIP3    H161300   5.361   6.358   4.082 -0.6721 -1.0322 -0.9004
13295TIP3    H261301   5.497   6.320   4.136 -0.1347  1.1951 -0.5879
13296TIP3   OH261302   6.040   5.245  14.709  0.2071  0.2793  0.5521
13296TIP3    H161303   6.114   5.298  14.740 -1.2174  2.6455  0.2106
13296TIP3    H261304   6.013   5.194  14.785  0.8272  1.0433  1.3117
13297TIP3   OH261305   5.790   1.815  13.547  0.7352 -0.2905  0.1226
13297TIP3    H161306   5.789   1.743  13.610  2.7761  1.5728  2.4907
13297TIP3    H261307   5.716   1.871  13.573  1.1565  0.1206  0.4623
13298TIP3   OH261308   5.471   3.779  16.545  0.2789  0.2449  0.2767
13298TIP3    H161309   5.500   3.691  16.569  0.6252  0.0963 -0.6476
13298TIP3    H261310   5.380   3.768  16.518  1.0418 -0.3348 -2.3414
13299TIP3   OH261311   1.729   5.777  11.151 -0.1192 -0.1762 -0.0391
13299TIP3    H161312   1.823   5.767  11.137  0.1758  1.7833  0.2114
13299TIP3    H261313   1.716   5.872  11.156 -2.2536 -0.3571 -0.9980
13300TIP3   OH261314   2.012   5.368  14.414 -0.0492 -0.5636 -0.1045
13300TIP3    H161315   2.021   5.327  14.499  0.1989 -1.6717 -0.6513
13300TIP3    H261316   1.952   5.311  14.365 -0.4782  0.2454 -0.5575
13301TIP3   OH261317   3.325   3.562  14.297  0.2410  0.0127 -0.2361
13301TIP3    H161318   3.239   3.524  14.280 -0.5329  0.4722  2.2711
13301TIP3    H261319   3.315   3.655  14.277  0.2729  0.0058 -0.2862
13302TIP3   OH261320   1.557   3.007  12.535 -0.0436 -1.0482  0.2003
13302TIP3    H161321   1.474   2.964  12.557 -0.7588  0.2716  0.1571
13302TIP3    H261322   1.532   3.087  12.490  1.2617 -0.5332  0.3443
13303TIP3   OH261323   5.919   1.309   6.043  0.0197 -0.3898  0.0412
13303TIP3    H161324   5.840   1.269   6.079  1.0120 -1.4357  1.1312
13303TIP3    H261325   5.902   1.403   6.047 -1.0427 -0.5917  0.5585
13304TIP3   OH261326   3.727   3.706   5.584  0.2273  0.1791  0.2392
13304TIP3    H161327   3.747   3.665   5.668 -0.2652  1.6979  1.1290
13304TIP3    H261328   3.810   3.743   5.555 -0.1398  2.1433  1.5014
13305TIP3   OH261329   4.187   4.218   4.037 -0.3733  0.2181 -0.0361
13305TIP3    H161330   4.111   4.271   4.013 -1.9856 -1.5052  1.0358
13305TIP3    H261331   4.206   4.241   4.127 -0.7550 -0.6038  0.2666
13306TIP3   OH261332   2.322   1.350   0.622  0.4168 -0.4306 -0.3230
13306TIP3    H161333   2.417   1.367   0.623  0.6165 -1.1810 -2.0674
13306TIP3    H261334   2.289   1.392   0.701  2.6303 -2.5821  1.9688
13307TIP3   OH261335   5.228   4.225   1.466  0.9578  0.0541 -0.4985
13307TIP3    H161336   5.251   4.306   1.420 -0.5414  0.9242  0.1933
13307TIP3    H261337   5.169   4.179   1.406  2.2527 -0.8378 -1.1295
13308TIP3   OH261338   0.811   5.480  15.739  0.0319 -0.3235  0.1597
13308TIP3    H161339   0.794   5.572  15.762 -0.7236 -0.3978 -0.0735
13308TIP3    H261340   0.787   5.431  15.818 -0.7542 -0.4210 -0.1352
13309TIP3   OH261341   0.243   5.786  17.150  0.0518  0.0661  0.1369
13309TIP3    H161342   0.328   5.822  17.126 -0.6091  0.9055 -1.1308
13309TIP3    H261343   0.180   5.850  17.115 -1.0867 -0.3134  1.4123
13310TIP3   OH261344   5.391   2.071  12.844 -0.1299  0.3614 -0.4890
13310TIP3    H161345   5.483   2.077  12.869  0.2124 -0.3024 -1.4938
13310TIP3    H261346   5.345   2.131  12.902  0.9340  0.6594  0.0558
13311TIP3   OH261347   4.902   4.038   3.125 -0.0210 -0.4621  0.2561
13311TIP3    H161348   4.808   4.056   3.121 -0.0154 -0.6220 -3.0036
13311TIP3    H261349   4.934   4.055   3.037  2.4427 -3.4761  0.3947
13312TIP3   OH261350   2.738   5.896  11.563  0.2307  0.2038 -0.5916
13312TIP3    H161351   2.794   5.913  11.487 -0.1245 -0.7560 -1.0784
13312TIP3    H261352   2.731   5.801  11.567 -0.2009  0.2612  0.3277
13313TIP3   OH261353   2.538   3.762  16.953  0.3912  0.5055 -0.0452
13313TIP3    H161354   2.496   3.776  17.038 -1.5003  2.1758 -1.1841
13313TIP3    H261355   2.620   3.812  16.958  0.5141  0.2366  0.9156
13314TIP3   OH261356   5.276   2.348   2.170 -0.0200  0.3692  0.0014
13314TIP3    H161357   5.276   2.366   2.076 -0.9056 -1.0899 -0.3182
13314TIP3    H261358   5.366   2.323   2.191 -0.2636 -1.4745 -0.9582
13315TIP3   OH261359   1.565   0.194   5.596 -0.5030  0.1215 -0.0066
13315TIP3    H161360   1.580   0.127   5.663  0.8533  0.1246 -0.2868
13315TIP3    H261361   1.638   0.184   5.535 -0.8231  1.2118 -0.5979
13316TIP3   OH261362   5.315   6.222   4.871  0.3844 -0.4515  0.3386
13316TIP3    H161363   5.255   6.150   4.888 -0.9588  0.6801  0.6132
13316TIP3    H261364   5.402   6.187   4.893 -0.4269 -1.3906  2.3751
13317TIP3   OH261365   5.733   5.129   0.217 -0.6057 -0.4690 -0.3280
13317TIP3    H161366   5.770   5.216   0.226 -0.8656 -0.5851  2.8969
13317TIP3    H261367   5.776   5.077   0.284 -2.1713 -2.2022 -0.5685
13318TIP3   OH261368   0.995   5.275  15.492 -0.1006  0.3935  0.2391
13318TIP3    H161369   1.044   5.224  15.557 -1.5371 -1.3485  0.0577
13318TIP3    H261370   0.945   5.209  15.443 -0.4098  1.8276 -1.4757
13319TIP3   OH261371   4.888   0.853   3.984  0.5548  0.0621  0.3105
13319TIP3    H161372   4.943   0.890   3.915 -0.2141  1.6986  0.5257
13319TIP3    H261373   4.922   0.890   4.065 -0.4267  0.5658  0.5064
13320TIP3   OH261374   2.050   2.978  10.865  0.4026  0.1376 -0.3042
13320TIP3    H161375   1.965   2.952  10.830 -0.3589  0.3253  1.3027
13320TIP3    H261376   2.035   2.989  10.959  1.8965  1.4571 -0.1745
13321TIP3   OH261377   3.605   0.410  12.490 -0.2913 -0.1909  0.5281
13321TIP3    H161378   3.687   0.413  12.440 -0.2838  0.8615  0.5950
13321TIP3    H261379   3.618   0.470  12.563 -1.0266 -0.2201  0.6938
13322TIP3   OH261380   4.873   5.438   4.420  0.4114 -0.2440  0.0932
13322TIP3    H161381   4.879   5.482   4.505  0.2137  0.8330 -0.4291
13322TIP3    H261382   4.781   5.409   4.414  0.2032  0.4432 -0.1100
13323TIP3   OH261383   6.182   1.961   5.675  0.0161  0.1783 -0.5238
13323TIP3    H161384   6.249   1.908   5.717  1.0797  0.4125 -1.8619
13323TIP3    H261385   6.226   2.044   5.654 -0.0259 -0.3902 -3.2300
13324TIP3   OH261386   4.432   5.943  16.532 -0.2436  0.5616  0.1625
13324TIP3    H161387   4.466   5.878  16.470  0.6807 -0.5460  1.7427
13324TIP3    H261388   4.416   5.893  16.612 -1.4415  1.9343  0.8147
13325TIP3   OH261389   2.325   4.160   3.227  0.0191  0.1573  0.3116
13325TIP3    H161390   2.234   4.189   3.216  0.2531  0.2301 -1.8291
13325TIP3    H261391   2.376   4.221   3.174  1.0118 -1.4463 -0.6589
13326TIP3   OH261392   6.249   4.435   4.170 -0.0229 -0.0005 -0.2945
13326TIP3    H161393   6.293   4.438   4.086  1.9326 -0.0162  0.6698
13326TIP3    H261394   6.315   4.401   4.231 -1.8494 -1.4902  0.9675
13327TIP3   OH261395   6.279   3.198  11.822  0.1811  0.0564 -0.0337
13327TIP3    H161396   6.216   3.256  11.865 -0.4577  0.0993 -0.9945
13327TIP3    H261397   6.346   3.181  11.888  0.4948  2.0551  0.2160
13328TIP3   OH261398   4.190   3.763  13.627  0.4285  0.4600  0.3202
13328TIP3    H161399   4.208   3.838  13.684  0.8640 -0.6042  1.6436
13328TIP3    H261400   4.224   3.688  13.675 -0.3611 -0.6513 -0.7904
13329TIP3   OH261401   2.373   4.260  13.338  0.3317  0.4220 -0.4907
13329TIP3    H161402   2.335   4.348  13.347 -0.3096  0.0129  0.9484
13329TIP3    H261403   2.462   4.277  13.307  0.7537  1.6975  1.2381
13330TIP3   OH261404   4.530   3.601  14.309 -0.0703  0.1209 -0.0329
13330TIP3    H161405   4.447   3.636  14.341 -0.9438  0.6649 -2.6163
13330TIP3    H261406   4.507   3.560  14.226  2.3348  0.7727 -1.0900
13331TIP3   OH261407   1.755   4.064   2.471  0.5741  0.1569  0.3009
13331TIP3    H161408   1.680   4.107   2.429  0.7922  0.7936  0.5554
13331TIP3    H261409   1.830   4.119   2.448  0.9810 -0.5342 -0.0327
13332TIP3   OH261410   6.629   5.589   5.982  0.0429 -0.0113 -0.3593
13332TIP3    H161411   6.685   5.525   5.938 -0.4105 -0.8163  0.1900
13332TIP3    H261412   6.674   5.672   5.973  1.9446 -0.8090  1.0927
13333TIP3   OH261413   1.569   2.316   4.351 -0.1482 -0.0166 -1.1752
13333TIP3    H161414   1.587   2.237   4.300  1.1643 -0.7251  0.3134
13333TIP3    H261415   1.548   2.283   4.439 -0.4934  1.2585 -0.7662
13334TIP3   OH261416   0.512   0.465  11.855  0.2167  0.0687 -0.0886
13334TIP3    H161417   0.583   0.506  11.804  0.2746  0.8285  0.5782
13334TIP3    H261418   0.434   0.479  11.801  0.5136 -0.4988 -0.6834
13335TIP3   OH261419   2.285   6.221  13.342 -0.6967 -0.0214 -0.1890
13335TIP3    H161420   2.321   6.207  13.255 -0.7443 -2.5549  0.1292
13335TIP3    H261421   2.217   6.154  13.352 -1.2975  0.7639  1.4833
13336TIP3   OH261422   2.752   5.768  14.999 -0.6938  0.2787  0.2267
13336TIP3    H161423   2.677   5.775  15.057 -0.4337 -0.3653  0.6549
13336TIP3    H261424   2.765   5.674  14.987  0.8493  0.3105  1.2462
13337TIP3   OH261425   6.014   0.619  13.523  0.6061 -0.1836 -0.2280
13337TIP3    H161426   5.993   0.709  13.497  1.3514  0.0286 -0.1404
13337TIP3    H261427   6.057   0.582  13.445  1.4446 -0.0445  0.1527
13338TIP3   OH261428   5.783   6.141   5.677 -0.4588  0.0659 -0.0430
13338TIP3    H161429   5.753   6.230   5.693 -0.3717  0.0684  0.1055
13338TIP3    H261430   5.867   6.151   5.633 -1.1158  0.0718 -1.3886
13339TIP3   OH261431   0.768   2.302   0.374 -0.1974 -0.2374 -0.2254
13339TIP3    H161432   0.700   2.338   0.316  0.9575  0.5346 -1.1355
13339TIP3    H261433   0.794   2.220   0.331 -0.3328 -0.3818 -0.0345
13340TIP3   OH261434   6.618   2.989   1.589  0.1777 -0.8678 -0.0040
13340TIP3    H161435   6.601   3.044   1.665 -0.1017  0.2115 -0.8286
13340TIP3    H261436   6.702   3.019   1.556 -0.0881 -0.7566 -0.5985
13341TIP3   OH261437   1.960   4.362   3.458  0.0904  0.1166  0.2289
13341TIP3    H161438   1.870   4.382   3.432  0.3794  1.3382  0.0861
13341TIP3    H261439   1.958   4.365   3.554 -0.6805 -3.0601  0.4350
13342TIP3   OH261440   1.878   6.164  11.779 -0.2408  0.0937 -0.0342
13342TIP3    H161441   1.947   6.181  11.844 -1.4496 -1.4016  1.7353
13342TIP3    H261442   1.799   6.205  11.817 -0.9766 -0.8288 -0.5386
13343TIP3   OH261443   6.291   1.182   1.315 -0.0594  0.2956 -0.4808
13343TIP3    H161444   6.339   1.141   1.387  0.0757  0.6908 -0.3378
13343TIP3    H261445   6.359   1.215   1.256 -0.1091  1.6837  0.1945
13344TIP3   OH261446   5.735   5.792   0.869 -0.0330 -0.1189 -0.5157
13344TIP3    H161447   5.702   5.758   0.953  1.5120 -1.4247 -0.3903
13344TIP3    H261448   5.706   5.883   0.867 -0.9011 -0.3241  1.0104
13345TIP3   OH261449   4.626   2.680   5.734  0.0513 -0.4007 -0.1886
13345TIP3    H161450   4.674   2.625   5.797  0.6353  0.7049  0.3635
13345TIP3    H261451   4.631   2.632   5.652  1.1172 -0.8722  0.1277
13346TIP3   OH261452   4.814   6.738  11.565 -0.5427  0.1808  0.2803
13346TIP3    H161453   4.835   6.798  11.637  1.5579  1.5361 -1.3194
13346TIP3    H261454   4.809   6.795  11.488 -1.1072 -1.4085 -0.9005
13347TIP3   OH261455   0.206   2.400   5.451  0.1149 -0.2802 -0.0890
13347TIP3    H161456   0.265   2.326   5.470  0.5953  0.4601  1.4616
13347TIP3    H261457   0.212   2.455   5.529  0.1559  1.6649 -1.4138
13348TIP3   OH261458   5.238   2.767  11.379 -0.3248  0.2879  0.2911
13348TIP3    H161459   5.273   2.748  11.466 -2.0157  1.7271  1.3558
13348TIP3    H261460   5.311   2.753  11.320  1.2270  0.4686  2.0854
13349TIP3   OH261461   5.704   3.618   2.629  0.2442  0.0452  0.2737
13349TIP3    H161462   5.625   3.564   2.623  0.8866 -1.2594  2.4393
13349TIP3    H261463   5.722   3.643   2.539 -1.1186 -1.8617 -0.6150
13350TIP3   OH261464   3.962   1.431   4.202  0.4609 -0.3859 -0.5803
13350TIP3    H161465   3.874   1.428   4.164  0.1972  0.3638 -0.0531
13350TIP3    H261466   3.985   1.339   4.215 -1.1610 -0.5832  1.3183
13351TIP3   OH261467   4.553   5.436  15.705 -0.9900  0.6881 -0.0968
13351TIP3    H161468   4.616   5.461  15.638 -1.4629  0.4629 -0.6337
13351TIP3    H261469   4.468   5.451  15.664 -1.2977 -1.0760 -0.1818
13352TIP3   OH261470   3.141   0.485  14.342 -0.0035 -0.0374 -0.2459
13352TIP3    H161471   3.083   0.440  14.404  2.0017 -0.9665  1.0652
13352TIP3    H261472   3.169   0.564  14.388  0.9941 -0.4105 -0.1784
13353TIP3   OH261473   6.618   6.513  14.115 -0.2064 -0.0477 -0.0715
13353TIP3    H161474   6.673   6.567  14.060 -1.4196  0.5591 -0.7333
13353TIP3    H261475   6.637   6.423  14.089  1.4780  0.0403  0.7083
13354TIP3   OH261476   1.016   4.961   2.244 -0.3518  0.3659  0.2838
13354TIP3    H161477   1.096   4.919   2.212 -0.0431  0.6798  0.6355
13354TIP3    H261478   1.024   4.957   2.340 -0.6347  0.6315  0.3172
13355TIP3   OH261479   5.887   6.230   0.803 -0.4728  0.4502  0.0245
13355TIP3    H161480   5.889   6.240   0.899  0.8326  1.1996 -0.0489
13355TIP3    H261481   5.970   6.187   0.783 -0.7025  0.3783 -0.7845
13356TIP3   OH261482   6.739   2.829  11.717  0.1326  1.0585 -0.4073
13356TIP3    H161483   6.683   2.806  11.643  0.0174 -0.3198  0.0754
13356TIP3    H261484   6.828   2.826  11.682  0.0390  1.1492 -0.6589
13357TIP3   OH261485   1.938   1.039   5.294  0.0887 -0.1783 -0.3961
13357TIP3    H161486   1.922   1.111   5.356  0.0994  1.0049 -1.7289
13357TIP3    H261487   2.014   1.067   5.244  0.3054 -1.2959 -0.7062
13358TIP3   OH261488   6.040   2.301  16.307 -0.2036 -0.4983 -0.1433
13358TIP3    H161489   5.997   2.373  16.355  1.4593  0.8003 -0.5187
13358TIP3    H261490   6.070   2.241  16.376 -1.1713 -0.6044  0.2029
13359TIP3   OH261491   4.185   3.473   5.502  0.1532  0.6468  0.2623
13359TIP3    H161492   4.157   3.562   5.481 -1.7641 -0.1366 -0.8068
13359TIP3    H261493   4.203   3.475   5.596  0.5037  2.2250  0.1907
13360TIP3   OH261494   4.599   6.088  12.154 -0.1301 -1.0155 -0.8844
13360TIP3    H161495   4.571   6.120  12.068  0.0629  0.8887 -0.2781
13360TIP3    H261496   4.526   6.033  12.184 -0.3914 -1.3286 -2.0465
13361TIP3   OH261497   1.122   0.370   2.584 -0.2949  0.5508  0.2395
13361TIP3    H161498   1.120   0.454   2.630 -1.6558  0.0367  1.1699
13361TIP3    H261499   1.067   0.312   2.636  0.2304 -0.8069 -0.6417
13362TIP3   OH261500   5.216   6.637   2.742  0.2588 -0.1378 -0.2808
13362TIP3    H161501   5.153   6.596   2.801 -0.8176  0.3873 -1.0310
13362TIP3    H261502   5.270   6.693   2.798  1.2783 -1.9607  0.6431
13363TIP3   OH261503   3.291   4.669  17.203  0.3640  0.5905  0.1175
13363TIP3    H161504   3.198   4.689  17.188  0.2371 -0.9705 -1.6258
13363TIP3    H261505   3.290   4.587  17.253  0.7667  0.1214 -0.6200
13364TIP3   OH261506   4.506   3.608   1.327 -0.8667 -0.1712 -0.3722
13364TIP3    H161507   4.434   3.584   1.386  0.7688 -0.4583  1.5875
13364TIP3    H261508   4.462   3.633   1.246 -3.3627  2.0899  1.5013
13365TIP3   OH261509   0.067   3.609  16.045  0.5436  0.0908  0.2397
13365TIP3    H161510   0.127   3.566  16.107  1.1738 -2.1166 -1.7462
13365TIP3    H261511  -0.007   3.637  16.099  1.8523 -0.0385  2.2509
13366TIP3   OH261512   2.981   6.259  14.560  0.7165  0.2852 -0.2973
13366TIP3    H161513   2.886   6.253  14.552  0.7535 -0.6723 -0.0687
13366TIP3    H261514   2.999   6.353  14.552 -0.2148  0.4514 -0.6327
13367TIP3   OH261515   5.922   1.174   3.691  0.3634 -0.3221  0.0651
13367TIP3    H161516   5.829   1.186   3.707  0.4596  2.4231 -0.8965
13367TIP3    H261517   5.965   1.211   3.767  0.7128 -1.2465  0.3374
13368TIP3   OH261518   5.715   6.783   3.324 -0.3453 -0.0377 -0.0564
13368TIP3    H161519   5.760   6.699   3.311 -0.7249 -0.4217  0.9738
13368TIP3    H261520   5.779   6.849   3.298 -0.0257 -0.6427 -0.8412
13369TIP3   OH261521   0.839   1.305   1.812  0.2967 -0.4183 -0.5093
13369TIP3    H161522   0.808   1.269   1.729  0.8553 -1.8265 -0.1399
13369TIP3    H261523   0.886   1.232   1.854 -1.8292 -0.4949  2.0205
13370TIP3   OH261524   0.112   0.966  16.354 -0.9630  0.0354 -0.0022
13370TIP3    H161525   0.118   1.061  16.350 -0.6636 -0.0165 -1.4047
13370TIP3    H261526   0.202   0.936  16.361 -0.9262 -0.1727 -1.1432
13371TIP3   OH261527   4.634   4.270   3.898 -0.2337 -0.5516  0.4413
13371TIP3    H161528   4.723   4.294   3.925 -0.0626  0.7027 -1.0635
13371TIP3    H261529   4.646   4.197   3.838 -0.3886 -1.5606  1.6153
13372TIP3   OH261530   2.682   0.280   5.550  0.0613 -0.5009 -0.5224
13372TIP3    H161531   2.765   0.312   5.584 -0.3300 -0.3304  0.2969
13372TIP3    H261532   2.642   0.235   5.624  0.0508 -1.8241 -1.3050
13373TIP3   OH261533   2.786   0.099   4.740 -0.1622 -0.2951  0.3467
13373TIP3    H161534   2.799   0.090   4.834  2.8582  1.0828  0.1876
13373TIP3    H261535   2.764   0.192   4.728  0.2465 -0.2793 -0.3402
13374TIP3   OH261536   4.582   1.479   4.134  0.3850  0.2627 -0.6306
13374TIP3    H161537   4.670   1.441   4.137  1.7666  3.1650 -0.2709
13374TIP3    H261538   4.555   1.470   4.042  1.6320  0.4518 -1.0370
13375TIP3   OH261539   2.463   0.888   1.826  0.2611  0.6324  0.4522
13375TIP3    H161540   2.537   0.838   1.860  1.1772  1.1675 -0.6681
13375TIP3    H261541   2.389   0.862   1.881  0.5916 -2.2151 -0.2711
13376TIP3   OH261542   0.344   6.456   4.224 -0.1808 -0.1357  0.3767
13376TIP3    H161543   0.339   6.364   4.199  0.3409  0.4618 -2.2505
13376TIP3    H261544   0.285   6.500   4.162 -0.0481  1.3422  1.2685
13377TIP3   OH261545   4.232   3.629  14.140 -0.1520  0.5987 -0.5907
13377TIP3    H161546   4.260   3.660  14.226 -0.9104 -1.3313  0.4304
13377TIP3    H261547   4.286   3.678  14.078 -0.8802  3.4225  0.8352
13378TIP3   OH261548   0.619   3.823  14.804  0.7519  0.6471  0.2229
13378TIP3    H161549   0.582   3.892  14.859 -0.2851 -0.7873  1.3734
13378TIP3    H261550   0.643   3.753  14.865  3.2098  0.5323 -0.7329
13379TIP3   OH261551   2.405   0.039   4.228 -0.2801  0.0291  0.3996
13379TIP3    H161552   2.316   0.014   4.201 -0.3331  0.6456 -0.0227
13379TIP3    H261553   2.394   0.127   4.266  0.6007  1.6483 -2.7467
13380TIP3   OH261554   4.044   5.275  14.992 -0.1721 -0.0870  0.2241
13380TIP3    H161555   4.088   5.241  14.914  0.9846  0.4884  0.6066
13380TIP3    H261556   3.989   5.346  14.960  0.0600 -0.0607 -0.1194
13381TIP3   OH261557   1.700   6.602  16.860 -0.0257 -0.0149 -0.6658
13381TIP3    H161558   1.789   6.600  16.896  0.0629 -0.4185 -0.9102
13381TIP3    H261559   1.701   6.676  16.799 -0.1192  0.5490 -0.0010
13382TIP3   OH261560   4.241   6.062   4.776  0.1838 -0.5556  0.2703
13382TIP3    H161561   4.220   6.111   4.855 -1.3094  2.6147 -1.8890
13382TIP3    H261562   4.322   6.101   4.744 -1.0024  0.6495 -1.4537
13383TIP3   OH261563   1.581   4.612  16.455  0.1654 -0.0729 -0.3691
13383TIP3    H161564   1.592   4.625  16.549  1.2798 -2.1870 -0.1539
13383TIP3    H261565   1.642   4.675  16.416  1.0318 -0.4070  0.3945
13384TIP3   OH261566   3.137   4.048  16.917 -0.0445  0.3062 -0.0855
13384TIP3    H161567   3.048   4.051  16.953 -0.1905  1.9607 -0.5448
13384TIP3    H261568   3.176   3.971  16.959 -1.4764 -0.0818  0.6105
13385TIP3   OH261569   1.278   4.653   4.340 -0.2810  0.0498 -0.4250
13385TIP3    H161570   1.327   4.680   4.262  1.2822 -1.6638 -0.1189
13385TIP3    H261571   1.330   4.581   4.376 -2.8425 -1.6053  0.1879
13386TIP3   OH261572   2.628   2.194  15.937 -0.2440 -0.1354 -0.1249
13386TIP3    H161573   2.718   2.172  15.958  0.1816  0.2819 -1.4615
13386TIP3    H261574   2.628   2.288  15.923 -1.2061  0.1242  1.3236
13387TIP3   OH261575   0.172   1.583  14.380  0.1686 -0.3726 -0.1189
13387TIP3    H161576   0.094   1.579  14.436 -1.3651  0.3367 -2.1024
13387TIP3    H261577   0.218   1.661  14.409 -0.6565  0.0435  0.1001
13388TIP3   OH261578   3.133   5.461   3.808 -0.5488  0.4441  0.3560
13388TIP3    H161579   3.045   5.457   3.771 -0.2084 -1.9552 -0.3463
13388TIP3    H261580   3.185   5.402   3.754  1.6530  2.1303  0.4580
13389TIP3   OH261581   5.374   4.332   5.643 -0.1929  0.1764  0.1200
13389TIP3    H161582   5.382   4.309   5.551  2.1443  1.3190 -0.0125
13389TIP3    H261583   5.355   4.426   5.643  0.9176  0.4123  0.8001
13390TIP3   OH261584   4.316   6.178  16.136  0.5631 -0.0821  0.5543
13390TIP3    H161585   4.291   6.130  16.214 -2.0220 -0.7493 -0.5952
13390TIP3    H261586   4.388   6.127  16.098 -0.2876 -1.5341  0.8334
13391TIP3   OH261587   4.774   4.814  12.199 -0.0310  0.1293 -0.1526
13391TIP3    H161588   4.791   4.904  12.169 -2.7819  2.0018  3.1464
13391TIP3    H261589   4.840   4.799  12.266 -0.2039  0.1014  0.0103
13392TIP3   OH261590   3.567   5.428  14.762 -0.3200  0.1374 -0.0458
13392TIP3    H161591   3.574   5.472  14.677 -1.2087 -0.8447 -0.6509
13392TIP3    H261592   3.564   5.335  14.740  0.8256 -0.2007  1.1616
13393TIP3   OH261593   0.752   5.532   1.322  0.2628  0.0402  0.0435
13393TIP3    H161594   0.709   5.615   1.344 -2.1125 -0.4674 -2.2016
13393TIP3    H261595   0.733   5.476   1.397 -0.7579  0.6522  0.2719
13394TIP3   OH261596   0.407   5.550  16.518  0.3147 -0.2114  0.1579
13394TIP3    H161597   0.483   5.597  16.483 -2.2469  2.2700 -2.6129
13394TIP3    H261598   0.356   5.617  16.563 -1.1724 -1.3708  0.2697
13395TIP3   OH261599   5.393   5.369   6.181  0.4456 -0.4451  0.8386
13395TIP3    H161600   5.407   5.289   6.130  1.4310  0.1913  0.0861
13395TIP3    H261601   5.453   5.361   6.255  1.3960  0.1027  0.1500
13396TIP3   OH261602   5.037   6.176   2.029 -0.0354 -0.3247 -0.7304
13396TIP3    H161603   4.948   6.210   2.041 -0.3329 -1.1903 -0.4600
13396TIP3    H261604   5.026   6.095   1.979  0.8353  0.8940 -3.0458
13397TIP3   OH261605   6.293   0.730  15.605 -0.0340  0.1015 -0.5219
13397TIP3    H161606   6.348   0.806  15.623  0.0438  0.2812 -1.4880
13397TIP3    H261607   6.311   0.709  15.513 -0.9533 -0.3543 -0.6011
13398TIP3   OH261608   1.905   3.189  14.702  0.2547 -0.3251 -0.1189
13398TIP3    H161609   1.964   3.257  14.669 -0.0343 -0.6026 -1.2739
13398TIP3    H261610   1.874   3.222  14.786  0.1264  0.9811 -0.6559
13399TIP3   OH261611   0.619   4.008  12.212  0.3751 -0.1876  0.2911
13399TIP3    H161612   0.650   4.076  12.152  0.6317  0.6429  1.3218
13399TIP3    H261613   0.545   3.968  12.166 -1.5554  2.5995  0.6869
13400TIP3   OH261614   1.175   6.567  15.328 -0.2921 -1.0471 -0.0558
13400TIP3    H161615   1.261   6.586  15.292 -1.1611  1.2190 -1.0823
13400TIP3    H261616   1.117   6.634  15.291 -2.4146 -2.1915  0.9790
13401TIP3   OH261617   6.331   5.365   0.328  0.5116 -0.3131  0.2243
13401TIP3    H161618   6.308   5.353   0.236  0.8841  0.3072  0.0432
13401TIP3    H261619   6.250   5.397   0.369  0.8710  1.4143 -0.3198
13402TIP3   OH261620   0.911   1.247  16.916 -0.0355 -0.1186 -0.9610
13402TIP3    H161621   0.979   1.180  16.909 -1.4191 -1.5245 -1.5686
13402TIP3    H261622   0.917   1.298  16.835  0.3385 -0.1857 -0.9734
13403TIP3   OH261623   0.022   2.080  12.255  0.7633  0.4465 -0.0262
13403TIP3    H161624  -0.059   2.131  12.260  0.4684  0.1272 -1.2035
13403TIP3    H261625   0.075   2.125  12.190  0.9299 -0.1638 -0.3177
13404TIP3   OH261626   1.611   3.700   1.873 -0.4294 -0.4896  0.9621
13404TIP3    H161627   1.575   3.787   1.888 -1.4435 -0.8895  0.9531
13404TIP3    H261628   1.649   3.675   1.958  0.9128  0.4011  0.6613
13405TIP3   OH261629   3.535   2.368   5.057 -0.2214 -0.0819 -0.9511
13405TIP3    H161630   3.491   2.453   5.052 -0.0734  0.1721  1.2084
13405TIP3    H261631   3.466   2.304   5.041 -0.6483  0.4077 -1.1067
13406TIP3   OH261632   5.709   3.528   1.548 -0.3187 -0.4197 -0.1753
13406TIP3    H161633   5.615   3.522   1.567 -0.1866  0.3543  0.8310
13406TIP3    H261634   5.716   3.512   1.454 -1.7393  1.7506 -0.7326
13407TIP3   OH261635   2.575   3.445  11.784  0.0248 -0.2303  0.2444
13407TIP3    H161636   2.596   3.433  11.691 -2.6044 -0.5593 -0.3809
13407TIP3    H261637   2.513   3.375  11.804  1.3548 -0.8704  2.6106
13408TIP3   OH261638   5.575   4.191  14.491  0.1216 -0.0451 -0.2614
13408TIP3    H161639   5.621   4.225  14.568  2.1858 -1.9915 -0.5086
13408TIP3    H261640   5.522   4.119  14.524  0.8845 -0.7786 -0.5815
13409TIP3   OH261641   3.249   1.650  11.606  0.7679  0.4360 -0.1237
13409TIP3    H161642   3.312   1.608  11.665 -0.0006  0.5134  0.7849
13409TIP3    H261643   3.222   1.580  11.546  0.3577 -0.0784  0.6477
13410TIP3   OH261644   0.580   4.681   3.088 -0.3038 -0.4295 -0.1306
13410TIP3    H161645   0.670   4.689   3.057  0.9899 -2.0480  2.7454
13410TIP3    H261646   0.554   4.770   3.112  0.7763 -0.0185 -0.4355
13411TIP3   OH261647   6.742   4.287   3.697 -0.1743  0.0338  0.5266
13411TIP3    H161648   6.768   4.334   3.776  1.5089 -1.6969  1.0895
13411TIP3    H261649   6.810   4.307   3.633 -0.9401  0.5425 -0.1504
13412TIP3   OH261650   3.110   1.266  12.882  0.0622 -0.5246  0.5977
13412TIP3    H161651   3.081   1.293  12.795  0.7430  1.7623  1.0213
13412TIP3    H261652   3.029   1.241  12.927 -0.5969  0.5377  0.0401
13413TIP3   OH261653   1.829   3.485  14.109 -0.2059  0.0051 -0.5849
13413TIP3    H161654   1.879   3.566  14.120  0.7620 -0.7663  1.1569
13413TIP3    H261655   1.758   3.492  14.172  0.0760 -0.6110 -0.1841
13414TIP3   OH261656   3.692   1.939   1.442  0.3159  0.3669 -0.1455
13414TIP3    H161657   3.648   2.017   1.408  1.9883  1.3091 -0.2390
13414TIP3    H261658   3.780   1.942   1.405  0.3422 -1.7482 -0.3963
13415TIP3   OH261659   6.150   1.685   1.953 -0.0231  0.3965 -0.3868
13415TIP3    H161660   6.103   1.620   2.006 -0.6700  1.6678  0.6737
13415TIP3    H261661   6.237   1.689   1.993 -0.1645  0.5774 -0.0920
13416TIP3   OH261662   4.527   4.695   0.905 -0.0215  0.0884 -0.0029
13416TIP3    H161663   4.470   4.735   0.971 -1.2822  0.3323 -1.2053
13416TIP3    H261664   4.469   4.638   0.854  0.3805  1.6975 -2.4012
13417TIP3   OH261665   2.900   5.082   0.704 -0.1553 -0.6282 -0.3100
13417TIP3    H161666   2.965   5.117   0.764 -1.8341  1.9634  0.1593
13417TIP3    H261667   2.906   4.987   0.714  2.5173 -0.4230  0.7354
13418TIP3   OH261668   4.302   5.008  13.373  0.1761 -0.5075  0.1742
13418TIP3    H161669   4.266   5.096  13.367  0.8087 -0.0223  2.4769
13418TIP3    H261670   4.250   4.956  13.312 -1.2343  1.1390 -0.0882
13419TIP3   OH261671   1.254   4.613  16.123  0.2596 -0.4835  0.2416
13419TIP3    H161672   1.299   4.551  16.180  2.0244  0.9201  0.4659
13419TIP3    H261673   1.224   4.683  16.181 -0.1632 -0.2643 -0.2235
13420TIP3   OH261674   5.059   1.118  12.030 -0.1126  0.2200 -0.1539
13420TIP3    H161675   5.000   1.169  11.974 -0.7629  0.8026  1.0194
13420TIP3    H261676   5.142   1.165  12.026  0.0148 -0.0687 -1.0695
13421TIP3   OH261677   6.210   5.607  14.135 -0.5944  0.7693  0.5993
13421TIP3    H161678   6.201   5.702  14.146 -1.3448  0.4568  3.5705
13421TIP3    H261679   6.298   5.587  14.168 -0.6290  0.3774  0.4555
13422TIP3   OH261680   4.654   3.438  15.015 -0.6267 -0.8571 -0.5419
13422TIP3    H161681   4.686   3.349  14.997 -4.4036 -2.9400  1.7159
13422TIP3    H261682   4.564   3.425  15.043 -0.5154  3.4428  2.7714
13423TIP3   OH261683   2.938   2.258  12.604  0.0454 -0.0491 -0.1805
13423TIP3    H161684   3.022   2.287  12.637  0.1372 -1.5517  1.0221
13423TIP3    H261685   2.910   2.190  12.665 -2.5739  1.1492  0.1098
13424TIP3   OH261686   4.554   1.645  12.345  0.2397 -0.7799  0.5668
13424TIP3    H161687   4.511   1.587  12.406  0.8769 -0.9000  0.9121
13424TIP3    H261688   4.504   1.636  12.263  1.0260 -2.7348  0.2429
13425TIP3   OH261689   1.728   5.912   4.465 -0.0249  0.4438 -0.4455
13425TIP3    H161690   1.756   5.853   4.395 -0.2622 -1.2639  0.8490
13425TIP3    H261691   1.802   5.972   4.476  1.1127 -0.9148 -0.4106
13426TIP3   OH261692   3.665   3.929  14.292  0.5168  0.5782 -0.1068
13426TIP3    H161693   3.745   3.932  14.240  1.0383  0.7668  0.6803
13426TIP3    H261694   3.657   4.018  14.328  1.8505 -0.2583  2.5477
13427TIP3   OH261695   0.715   2.082  11.722 -0.0284  0.2930  0.0972
13427TIP3    H161696   0.626   2.111  11.744 -0.3922 -0.3028 -0.5300
13427TIP3    H261697   0.751   2.051  11.805 -0.2987  0.8099  0.4138
13428TIP3   OH261698   2.382   0.887   1.324 -1.0282  0.3233 -0.4193
13428TIP3    H161699   2.386   0.979   1.298 -0.1094  0.1498 -0.9443
13428TIP3    H261700   2.442   0.880   1.398  1.1900 -0.3846 -2.1691
13429TIP3   OH261701   4.092   0.212  16.001 -0.1831  0.3822 -0.3034
13429TIP3    H161702   4.127   0.136  16.048  2.1101  0.9772 -0.9022
13429TIP3    H261703   4.159   0.280  16.013 -2.1042  2.3344  0.1390
13430TIP3   OH261704   4.718   3.797   6.489  0.2253  0.0024  0.2257
13430TIP3    H161705   4.674   3.736   6.430  1.0644  1.4285 -2.0016
13430TIP3    H261706   4.660   3.873   6.492  1.2753  0.8619 -0.6719
13431TIP3   OH261707   1.990   2.951   2.929  0.3726 -0.5531  0.3279
13431TIP3    H161708   2.019   2.986   2.845 -1.5267  1.4318  0.4266
13431TIP3    H261709   2.068   2.954   2.984  0.7083  1.9842 -0.1927
13432TIP3   OH261710   3.317   5.664   3.997  0.0033  0.4448  0.5106
13432TIP3    H161711   3.380   5.592   4.001 -1.4850 -0.8857  1.4099
13432TIP3    H261712   3.233   5.621   3.978 -1.2186  1.7266  2.6527
13433TIP3   OH261713   2.868   3.003  16.411  0.2887  0.1558 -0.1363
13433TIP3    H161714   2.886   2.912  16.432  0.5270  0.2732  0.1919
13433TIP3    H261715   2.839   3.002  16.320 -2.3834 -0.5740  0.6471
13434TIP3   OH261716   0.762   4.836  17.064  0.3133  0.6204  0.2081
13434TIP3    H161717   0.753   4.876  17.150  0.9385 -0.7104  0.9377
13434TIP3    H261718   0.677   4.795  17.048  0.6012 -0.2414  0.8086
13435TIP3   OH261719   6.687   3.884   1.406 -0.4638 -0.4818  0.4088
13435TIP3    H161720   6.727   3.971   1.403 -0.0789 -0.5526  2.3987
13435TIP3    H261721   6.721   3.845   1.487 -2.0337 -1.7977  0.4675
13436TIP3   OH261722   6.479   1.476  13.655 -0.4056 -0.2693 -0.2516
13436TIP3    H161723   6.534   1.458  13.579  0.7336  0.1962  0.4299
13436TIP3    H261724   6.410   1.533  13.622  0.3027  0.2500 -0.8615
13437TIP3   OH261725   1.628   0.468  12.954  0.4249 -0.6141  0.2135
13437TIP3    H161726   1.605   0.427  13.037  0.1792  0.1240  0.5274
13437TIP3    H261727   1.547   0.509  12.925  0.6284 -0.4663 -0.1497
13438TIP3   OH261728   5.240   3.990  16.140  0.6548 -0.0992  0.7115
13438TIP3    H161729   5.280   4.005  16.226 -0.1756  1.6044  0.8515
13438TIP3    H261730   5.284   4.053  16.082 -0.4465  0.4511  0.4436
13439TIP3   OH261731   6.747   2.923  15.926  0.0110 -0.1959 -0.2010
13439TIP3    H161732   6.669   2.873  15.950  1.6322 -3.2024 -0.7396
13439TIP3    H261733   6.767   2.895  15.836  2.6505 -0.8986  0.5097
13440TIP3   OH261734   3.524   2.790  10.895 -0.3159  0.6876 -0.3828
13440TIP3    H161735   3.472   2.735  10.953 -0.0059  0.0791 -0.6803
13440TIP3    H261736   3.577   2.729  10.844  0.7645  1.2975 -0.0194
13441TIP3   OH261737   5.240   6.781  14.426 -0.0436  0.1143  0.1964
13441TIP3    H161738   5.230   6.779  14.330 -1.1979  0.1020  0.3043
13441TIP3    H261739   5.158   6.816  14.458 -0.2366 -1.2257  1.2656
13442TIP3   OH261740   0.869   2.974  12.248  0.2877  0.0193 -0.5683
13442TIP3    H161741   0.842   2.902  12.305 -0.4555 -1.0542 -2.2043
13442TIP3    H261742   0.788   3.000  12.204  0.9492  0.4444 -1.5431
13443TIP3   OH261743   4.988   3.654   0.514  0.2243  0.0422 -0.0226
13443TIP3    H161744   5.026   3.566   0.522 -0.5779 -0.3508 -0.4449
13443TIP3    H261745   4.936   3.650   0.434  0.6891  1.1037 -0.3993
13444TIP3   OH261746   3.927   3.473   4.438  0.0127 -0.4032 -0.9793
13444TIP3    H161747   3.985   3.434   4.373 -0.4141 -3.1109  0.1261
13444TIP3    H261748   3.984   3.530   4.490  1.0620 -0.7893 -1.6832
13445TIP3   OH261749   3.848   4.631  11.904  0.2927  0.0089 -0.0482
13445TIP3    H161750   3.891   4.587  11.978 -2.2126 -1.0072  0.9356
13445TIP3    H261751   3.902   4.609  11.828  2.5806  0.5080  1.3388
13446TIP3   OH261752   5.596   2.667  13.647 -0.3300 -0.7053 -0.0385
13446TIP3    H161753   5.685   2.701  13.639 -0.9693  1.0423 -0.2855
13446TIP3    H261754   5.594   2.591  13.589  0.5026  0.3377 -1.5063
13447TIP3   OH261755   1.614   3.845   4.027 -0.6255  0.3390 -0.4218
13447TIP3    H161756   1.544   3.813   4.086  0.0594 -2.1414 -0.8198
13447TIP3    H261757   1.569   3.864   3.945 -1.0906  0.4528 -0.1450
13448TIP3   OH261758   5.984   1.543  12.263  0.6737  0.3037  0.2884
13448TIP3    H161759   5.960   1.459  12.225 -0.8986  0.4790  0.8382
13448TIP3    H261760   5.903   1.576  12.302  1.7167  1.1223  1.8621
13449TIP3   OH261761   6.673   2.010  14.370  0.3538  0.1696  0.9109
13449TIP3    H161762   6.651   2.047  14.456 -3.5635  0.1173  0.1196
13449TIP3    H261763   6.631   1.924  14.369 -0.5672  0.5707 -1.3522
13450TIP3   OH261764   2.575   3.385  12.068  0.1152 -0.0862 -0.7739
13450TIP3    H161765   2.492   3.413  12.105 -1.0912 -0.1048 -3.2445
13450TIP3    H261766   2.577   3.424  11.980  3.8792  1.9963  0.0201
13451TIP3   OH261767   6.389   1.069  11.488  0.1380  0.1779  0.2508
13451TIP3    H161768   6.403   1.063  11.393 -1.5946  1.9277 -0.1994
13451TIP3    H261769   6.293   1.073  11.497  0.2695 -0.1498  2.1009
13452TIP3   OH261770   4.154   2.432  15.160 -0.1579 -0.4133  0.3599
13452TIP3    H161771   4.123   2.342  15.151  1.5632 -0.9094 -1.2736
13452TIP3    H261772   4.155   2.447  15.254  1.2392 -2.7798  0.8032
13453TIP3   OH261773   5.288   2.382   5.565 -0.0317 -0.1780  0.2424
13453TIP3    H161774   5.214   2.415   5.514 -0.4882 -1.1520  0.2490
13453TIP3    H261775   5.364   2.397   5.508 -0.3854 -0.2008 -0.2480
13454TIP3   OH261776   1.553   6.645   1.228  0.0374 -0.6801 -0.2307
13454TIP3    H161777   1.636   6.602   1.246  0.3444 -1.4822 -3.1506
13454TIP3    H261778   1.494   6.612   1.296  1.6224 -1.5270  0.7916
13455TIP3   OH261779   6.106   4.529  13.101  0.2503  0.3785  0.4594
13455TIP3    H161780   6.134   4.470  13.031 -0.7222  1.0884 -0.5574
13455TIP3    H261781   6.114   4.617  13.064 -0.6457  0.7497  1.0971
13456TIP3   OH261782   0.512   0.772  15.243 -0.1102  0.0249  0.0132
13456TIP3    H161783   0.457   0.839  15.285 -1.2069 -1.6650  1.4125
13456TIP3    H261784   0.457   0.737  15.173  0.2897  0.2606 -0.4232
13457TIP3   OH261785   0.396   2.948   4.916 -0.3641  0.4245  0.3415
13457TIP3    H161786   0.390   3.043   4.926  0.7085  0.4266  1.1133
13457TIP3    H261787   0.348   2.913   4.990 -0.3932  0.3684  0.2960
13458TIP3   OH261788   1.159   2.165  11.375  0.1740 -0.2211 -0.8103
13458TIP3    H161789   1.100   2.100  11.338  0.9390 -1.3032 -0.1779
13458TIP3    H261790   1.227   2.178  11.308  1.1205 -1.5871 -0.1529
13459TIP3   OH261791   1.542   2.810  13.503  0.4068  0.1228  0.6684
13459TIP3    H161792   1.554   2.900  13.536 -0.2019  0.8552 -0.9877
13459TIP3    H261793   1.506   2.822  13.415 -0.9019 -1.7828  0.8888
13460TIP3   OH261794   0.499   1.509  16.189 -0.0948 -0.6833  0.2539
13460TIP3    H161795   0.566   1.573  16.215 -1.3313  1.1524 -0.8693
13460TIP3    H261796   0.518   1.491  16.097 -1.6724  0.6702 -0.3967
13461TIP3   OH261797   5.445   2.093  11.977  0.3050  0.4358  0.0180
13461TIP3    H161798   5.405   2.154  11.915  0.9128  0.1456 -0.6761
13461TIP3    H261799   5.501   2.147  12.032  0.6228  0.5534 -0.4126
13462TIP3   OH261800   1.944   1.541   4.682 -0.9334 -0.1138 -0.3669
13462TIP3    H161801   1.996   1.615   4.649 -1.0503  0.8438  1.4489
13462TIP3    H261802   2.007   1.470   4.693 -0.1846  0.7149  0.8328
13463TIP3   OH261803   4.436   3.717   5.750 -0.3189 -0.1412 -0.0032
13463TIP3    H161804   4.432   3.739   5.657 -1.5708  0.8920  0.2702
13463TIP3    H261805   4.402   3.628   5.756  1.3652 -0.8829 -0.6989
13464TIP3   OH261806   4.577   5.731  14.390  0.3392 -0.2288 -0.1247
13464TIP3    H161807   4.612   5.647  14.361 -0.9876 -1.0172  0.4835
13464TIP3    H261808   4.515   5.709  14.459 -2.0424  0.9912 -1.7635
13465TIP3   OH261809   1.047   4.795  16.236 -0.0112  0.6724 -0.3887
13465TIP3    H161810   1.003   4.802  16.320  0.9884 -0.4697  0.2639
13465TIP3    H261811   0.991   4.844  16.175 -0.2803  2.2976  1.0857
13466TIP3   OH261812   5.397   4.720   3.520  0.7692  0.5133  0.8365
13466TIP3    H161813   5.373   4.707   3.611  1.8106  0.5128  1.1286
13466TIP3    H261814   5.458   4.794   3.521  0.6446  0.6330  0.1190
13467TIP3   OH261815   4.472   2.646   6.561  0.4888 -0.2899 -0.4423
13467TIP3    H161816   4.511   2.578   6.615  0.1372 -0.8999 -0.9336
13467TIP3    H261817   4.379   2.622   6.556  0.5360 -0.3261 -1.4154
13468TIP3   OH261818   3.101   2.087   1.857 -0.2150  0.3421 -0.3247
13468TIP3    H161819   3.062   2.047   1.780  1.2500  2.1504 -2.1276
13468TIP3    H261820   3.175   2.030   1.879  0.9141  1.0772 -1.9215
13469TIP3   OH261821   0.507   2.551  13.644 -0.1857  0.0260  0.5715
13469TIP3    H161822   0.567   2.476  13.646 -1.6874 -1.2479  3.5205
13469TIP3    H261823   0.557   2.622  13.685 -0.0047 -0.4535  1.1976
13470TIP3   OH261824   5.398   1.686   6.285  0.8890  0.5726 -0.2712
13470TIP3    H161825   5.411   1.770   6.242  0.4546  0.5182 -0.5155
13470TIP3    H261826   5.303   1.677   6.293  0.9675  1.1372  1.8123
13471TIP3   OH261827   6.068   1.514   2.392 -0.3721 -0.3079 -0.5214
13471TIP3    H161828   6.003   1.582   2.372 -1.2095 -0.9095  0.0861
13471TIP3    H261829   6.019   1.447   2.439  0.6338 -0.9282 -0.3257
13472TIP3   OH261830   1.214   0.585  13.220  0.0970  0.0128  0.7073
13472TIP3    H161831   1.268   0.658  13.188 -1.4724  0.8831 -0.0741
13472TIP3    H261832   1.249   0.566  13.307  2.5773 -0.4450 -0.2935
13473TIP3   OH261833   0.358   3.533  11.464 -0.0143 -0.0066 -0.1413
13473TIP3    H161834   0.266   3.529  11.440 -0.0581  0.0513  0.0172
13473TIP3    H261835   0.404   3.502  11.386 -0.0656  1.6560 -0.8680
13474TIP3   OH261836   2.520   3.742  14.305 -0.8793  0.4793 -0.1888
13474TIP3    H161837   2.546   3.674  14.243 -0.2368 -0.6153  1.2247
13474TIP3    H261838   2.426   3.755  14.289 -1.1742 -1.2468 -0.0256
13475TIP3   OH261839   5.512   1.202   1.240 -0.2427  0.5297  0.1459
13475TIP3    H161840   5.559   1.159   1.169 -0.1843  2.4045 -1.0460
13475TIP3    H261841   5.426   1.221   1.203 -0.7025  0.3103  1.0743
13476TIP3   OH261842   5.658   4.737  12.878  0.6782 -0.3024 -0.3263
13476TIP3    H161843   5.588   4.777  12.826 -0.7019  1.4673  2.5446
13476TIP3    H261844   5.668   4.797  12.952  3.2745 -2.0271  0.8465
13477TIP3   OH261845   1.154   2.188   3.101 -0.1887  0.6372  0.2860
13477TIP3    H161846   1.122   2.277   3.117 -0.9441  0.2966  0.7727
13477TIP3    H261847   1.079   2.143   3.062  0.0101  0.0649  0.5628
13478TIP3   OH261848   3.203   2.501  13.280  0.1168  0.1775 -0.1849
13478TIP3    H161849   3.240   2.474  13.195  0.0762  2.5182 -1.0125
13478TIP3    H261850   3.161   2.422  13.313 -0.8805 -0.5711 -2.9144
13479TIP3   OH261851   1.396   6.049   5.272  0.0318  0.3670 -0.2549
13479TIP3    H161852   1.337   5.975   5.259 -1.2555  1.2529  0.3492
13479TIP3    H261853   1.478   6.009   5.302 -0.1767 -0.8996 -1.2645
13480TIP3   OH261854   6.397   5.981   1.978  0.3479  0.3613 -0.4664
13480TIP3    H161855   6.427   6.054   2.031  2.4881  0.6893 -1.9711
13480TIP3    H261856   6.477   5.945   1.940 -0.9413 -0.5318 -2.5435
13481TIP3   OH261857   4.040   5.980   1.568  0.3675 -0.0084 -0.1185
13481TIP3    H161858   4.039   5.909   1.631  1.2328 -1.3103 -1.5027
13481TIP3    H261859   3.953   5.980   1.529  0.4770 -0.5732 -0.3731
13482TIP3   OH261860   1.083   6.575  11.541  0.2804  0.5217  0.4519
13482TIP3    H161861   1.064   6.603  11.451  1.3186  0.5055  0.2169
13482TIP3    H261862   1.014   6.512  11.561  0.9254 -0.6642 -0.9082
13483TIP3   OH261863   3.835   0.837   0.792 -0.0565 -0.5541 -0.0784
13483TIP3    H161864   3.881   0.854   0.711 -0.3041  2.0058  0.2427
13483TIP3    H261865   3.764   0.902   0.794 -1.3099 -1.8676  1.2415
13484TIP3   OH261866   3.461   4.216  15.181 -0.1196 -0.9122  0.1417
13484TIP3    H161867   3.440   4.124  15.165 -3.7158 -0.5046  1.6090
13484TIP3    H261868   3.413   4.264  15.113  0.4830 -0.0537  0.3104
13485TIP3   OH261869   4.011   4.762  15.972  0.3169 -0.1171  0.4774
13485TIP3    H161870   4.085   4.822  15.981 -0.2764  0.9687 -1.3655
13485TIP3    H261871   3.958   4.800  15.903 -2.1901 -0.6665  1.9755
13486TIP3   OH261872   6.618   2.969  16.683 -0.3829  0.2865 -0.4012
13486TIP3    H161873   6.569   2.890  16.661 -2.1486  1.6393 -1.6106
13486TIP3    H261874   6.675   2.984  16.607 -0.0216  0.1481 -0.1567
13487TIP3   OH261875   5.482   3.803  14.318  0.8397 -0.0177 -0.1871
13487TIP3    H161876   5.546   3.732  14.327 -0.6214 -1.3005  0.6406
13487TIP3    H261877   5.442   3.810  14.405  1.0028  1.9293 -0.2180
13488TIP3   OH261878   0.126   5.781   2.679 -0.2398  0.0802 -0.2417
13488TIP3    H161879   0.132   5.875   2.696  0.2133 -0.0837  0.5546
13488TIP3    H261880   0.150   5.772   2.586 -2.1165  0.9305 -0.8597
13489TIP3   OH261881   5.417   1.801  14.064  0.1681 -0.2258 -0.5116
13489TIP3    H161882   5.351   1.766  14.123  0.6976 -0.4022 -0.0140
13489TIP3    H261883   5.384   1.888  14.040  0.0919 -0.0279  0.2820
13490TIP3   OH261884   4.410   4.831  12.043  0.5356 -0.0801 -0.2608
13490TIP3    H161885   4.343   4.802  12.105 -0.2723  0.0419 -1.0542
13490TIP3    H261886   4.485   4.775  12.061  0.3335 -0.0073  0.8593
13491TIP3   OH261887   3.850   4.571   5.087  0.3985  0.5446  0.9257
13491TIP3    H161888   3.916   4.504   5.108  1.1586  0.0649 -2.4086
13491TIP3    H261889   3.817   4.599   5.172  3.4156 -0.6956  2.6892
13492TIP3   OH261890   6.382   0.686  15.349 -0.3308  0.0837 -0.1853
13492TIP3    H161891   6.469   0.654  15.376  1.1544  1.7002 -2.6359
13492TIP3    H261892   6.329   0.606  15.341  1.3812 -1.1391 -0.0692
13493TIP3   OH261893   1.255   4.722  14.569  0.2278 -0.0015  0.2816
13493TIP3    H161894   1.247   4.664  14.494 -1.8257 -1.2804  1.4096
13493TIP3    H261895   1.256   4.664  14.645 -1.3109  1.3664  1.4227
13494TIP3   OH261896   0.408   3.539   4.122 -0.3890  0.0629  0.3596
13494TIP3    H161897   0.445   3.506   4.040 -2.5723 -0.6366 -0.4281
13494TIP3    H261898   0.477   3.528   4.187  0.2713 -2.5815 -0.6811
13495TIP3   OH261899   3.569   0.059   3.936 -1.0933  0.5281  0.0095
13495TIP3    H161900   3.640   0.040   3.874 -1.7798 -0.0847 -0.6030
13495TIP3    H261901   3.489   0.049   3.885 -1.8498 -2.6112  1.5413
13496TIP3   OH261902   3.655   1.906  16.435 -0.5973  0.2840  0.2523
13496TIP3    H161903   3.566   1.882  16.463  0.7872 -2.7069  2.6658
13496TIP3    H261904   3.678   1.980  16.491 -1.5924  1.2410 -0.5580
13497TIP3   OH261905   5.946   2.516  16.464  0.3708 -0.1535 -0.2162
13497TIP3    H161906   5.889   2.494  16.537 -0.1559 -1.1967 -0.9117
13497TIP3    H261907   5.943   2.611  16.458 -1.3367 -0.1800 -0.2495
13498TIP3   OH261908   3.504   3.860  11.351 -0.4888 -0.5876  0.0892
13498TIP3    H161909   3.593   3.829  11.368 -0.6167 -1.0183 -0.0238
13498TIP3    H261910   3.494   3.935  11.409  0.5461  0.5193 -1.0958
13499TIP3   OH261911   3.931   1.402  13.445  0.1361  0.5782 -0.4901
13499TIP3    H161912   3.900   1.352  13.521  0.0871  1.0789 -0.1736
13499TIP3    H261913   3.891   1.358  13.370  0.0169  0.1990 -0.2093
13500TIP3   OH261914   1.537   2.874   2.401 -0.5199  0.3093 -0.5389
13500TIP3    H161915   1.596   2.823   2.347 -0.5021  0.0397 -0.2656
13500TIP3    H261916   1.593   2.911   2.470 -0.7769 -0.5010  0.1189
13501TIP3   OH261917   3.106   6.312   5.316  0.2573  0.2730  0.0064
13501TIP3    H161918   3.028   6.359   5.344  0.9521  1.0255  0.7478
13501TIP3    H261919   3.073   6.242   5.259 -1.2320 -1.1166  2.3768
13502TIP3   OH261920   0.233   3.399   0.535  0.0671  0.0079  0.3246
13502TIP3    H161921   0.188   3.474   0.496 -0.3156 -0.8337 -0.8968
13502TIP3    H261922   0.301   3.376   0.471 -1.0014 -1.8168 -0.2077
13503TIP3   OH261923   3.549   0.154   0.513 -0.3632 -0.1917 -0.3345
13503TIP3    H161924   3.585   0.206   0.585  0.5671  0.3943 -1.2036
13503TIP3    H261925   3.554   0.064   0.544  0.1470  0.0410  0.2884
13504TIP3   OH261926   2.946   2.568  15.782 -0.4417 -0.2141  0.1904
13504TIP3    H161927   2.875   2.617  15.740  2.3017  1.5622 -2.8771
13504TIP3    H261928   2.958   2.491  15.727  0.3260 -0.2424  0.3870
13505TIP3   OH261929   5.560   2.315   2.712  0.6418  1.3965 -0.1396
13505TIP3    H161930   5.629   2.333   2.648  0.3995 -1.3234 -1.2900
13505TIP3    H261931   5.596   2.247   2.768 -0.0146  2.1244  1.2159
13506TIP3   OH261932   2.171   3.391  15.797  0.1606  0.1647 -0.4431
13506TIP3    H161933   2.098   3.396  15.859  1.2803 -1.9540  1.1923
13506TIP3    H261934   2.210   3.478  15.798  0.9448 -0.0770  2.9710
13507TIP3   OH261935   5.883   0.074   3.868  0.4748  0.7871  0.2480
13507TIP3    H161936   5.923   0.161   3.861  1.5628  0.3197  0.5588
13507TIP3    H261937   5.956   0.015   3.888 -0.4286 -0.0029  1.3753
13508TIP3   OH261938   0.197   2.802  11.607  0.5122 -0.1634  0.1966
13508TIP3    H161939   0.250   2.725  11.588  0.3428  0.2610 -2.4147
13508TIP3    H261940   0.216   2.862  11.534 -3.2496  0.1568 -0.6908
13509TIP3   OH261941   5.232   3.669  14.444 -0.1471  0.5368 -0.1155
13509TIP3    H161942   5.139   3.692  14.446 -0.7203 -1.5881 -0.2854
13509TIP3    H261943   5.257   3.679  14.352  0.0233  1.7849  0.0387
13510TIP3   OH261944   5.191   4.086  13.290 -0.3479  0.1855 -0.5315
13510TIP3    H161945   5.167   3.996  13.310 -0.5997  0.3106 -0.2428
13510TIP3    H261946   5.116   4.120  13.240  0.9608 -0.6026 -3.1870
13511TIP3   OH261947   2.179   1.270  12.129 -0.8045  0.5843 -0.3966
13511TIP3    H161948   2.264   1.283  12.172 -1.0586  0.4009  0.1694
13511TIP3    H261949   2.195   1.202  12.064  0.0433  2.1869 -1.9456
13512TIP3   OH261950   0.908   2.193  13.869 -0.2381  0.2830 -0.4157
13512TIP3    H161951   0.940   2.282  13.856  0.0402  0.2166 -0.1814
13512TIP3    H261952   0.905   2.182  13.964 -1.8028  0.6000 -0.3858
13513TIP3   OH261953   3.573   0.706   0.031 -0.2106  0.0911  0.4581
13513TIP3    H161954   3.586   0.694  -0.063 -1.1991 -0.3527  0.3666
13513TIP3    H261955   3.552   0.619   0.064  0.3733  0.1998  1.1410
13514TIP3   OH261956   0.892   3.757  13.932  0.0866  0.1822 -0.3112
13514TIP3    H161957   0.846   3.689  13.882 -1.2642  0.2276  0.8336
13514TIP3    H261958   0.892   3.725  14.022  0.6522  1.0869  0.0188
13515TIP3   OH261959   4.858   3.175  14.022  0.6726  0.1272  0.4697
13515TIP3    H161960   4.910   3.197  13.944  1.1174  0.7601  0.9405
13515TIP3    H261961   4.896   3.092  14.052  0.4658 -0.1494 -0.0079
13516TIP3   OH261962   5.436   3.510  12.436 -0.0534  0.2856  0.2868
13516TIP3    H161963   5.468   3.585  12.386 -2.4292  0.8598 -0.4961
13516TIP3    H261964   5.429   3.439  12.372  1.9928 -0.6117  0.9821
13517TIP3   OH261965   4.121   6.544   6.009  0.5021 -0.1637 -0.0203
13517TIP3    H161966   4.208   6.544   5.969  0.2514 -0.6721 -0.5880
13517TIP3    H261967   4.085   6.457   5.988 -1.6803  1.2936 -3.2739
13518TIP3   OH261968   6.695   5.999  14.050  0.1854  0.2509  0.7441
13518TIP3    H161969   6.616   5.953  14.022  0.8522  0.0460 -0.9108
13518TIP3    H261970   6.736   5.939  14.113  1.0948 -1.5797 -1.4409
13519TIP3   OH261971   2.419   4.896  11.927  0.2628  0.1171 -0.1472
13519TIP3    H161972   2.384   4.953  11.859 -1.1176 -0.1704  0.2914
13519TIP3    H261973   2.383   4.809  11.906 -2.1286  0.4146  2.1717
13520TIP3   OH261974   3.871   1.246   6.302 -0.1195 -0.1356  0.1737
13520TIP3    H161975   3.950   1.195   6.317  1.4765  2.1841  0.1410
13520TIP3    H261976   3.897   1.314   6.241 -1.5426  1.9699  1.7625
13521TIP3   OH261977   1.994   2.938   3.458  0.0964  0.5668 -0.2771
13521TIP3    H161978   1.913   2.984   3.437  0.3272  1.8651  1.4789
13521TIP3    H261979   1.972   2.882   3.532  0.5009 -0.0960 -0.6463
13522TIP3   OH261980   3.869   3.258   1.510  0.4099  0.7407  0.2717
13522TIP3    H161981   3.823   3.186   1.553 -1.5164  1.7531 -0.0084
13522TIP3    H261982   3.946   3.217   1.470  0.5264 -0.7675  1.9115
13523TIP3   OH261983   1.640   4.139   3.015 -0.3175  0.2008  0.2185
13523TIP3    H161984   1.599   4.201   3.075  0.0352 -0.1341  0.8139
13523TIP3    H261985   1.687   4.194   2.952  0.6010  0.5433  1.1703
13524TIP3   OH261986   4.089   2.807  15.740  0.2362 -0.6108  0.2122
13524TIP3    H161987   4.164   2.843  15.692  0.7550  1.1500  2.1934
13524TIP3    H261988   4.020   2.872  15.729 -0.0202 -0.7710  0.8066
13525TIP3   OH261989   4.545   5.674  16.447 -0.2030 -0.3439 -0.1988
13525TIP3    H161990   4.488   5.601  16.473 -0.8805  0.0158 -0.6644
13525TIP3    H261991   4.574   5.651  16.359 -0.3718 -0.0801 -0.3245
13526TIP3   OH261992   3.995   4.292   4.705 -0.6790 -0.5287 -0.1865
13526TIP3    H161993   4.016   4.372   4.752  0.2540 -0.0486 -1.3416
13526TIP3    H261994   3.976   4.321   4.615 -1.5398 -1.4831 -0.3346
13527TIP3   OH261995   6.360   4.616   4.541  0.2276  0.5388 -0.1221
13527TIP3    H161996   6.428   4.562   4.581 -0.4539 -0.4091 -0.2174
13527TIP3    H261997   6.282   4.600   4.595 -0.1952  0.7646 -0.6570
13528TIP3   OH261998   5.561   4.411   2.901  0.5271 -0.1024 -0.5888
13528TIP3    H161999   5.479   4.363   2.892  0.6403 -1.0087  2.1761
13528TIP3    H262000   5.621   4.349   2.942  1.5588  1.5268  0.5179
13529TIP3   OH262001   2.697   0.415  12.526  0.5415 -0.0789 -0.6090
13529TIP3    H162002   2.657   0.494  12.492 -0.4909 -0.3102  0.0329
13529TIP3    H262003   2.670   0.346  12.466 -0.9205 -0.4120  0.3807
13530TIP3   OH262004   5.299   4.623   2.327  0.2709  0.0010 -0.8916
13530TIP3    H162005   5.355   4.680   2.380 -0.1876  0.7791 -1.2390
13530TIP3    H262006   5.308   4.537   2.367  1.4412  0.1876 -0.7195
13531TIP3   OH262007   3.017   2.221   5.330 -0.3663  0.0685  0.3936
13531TIP3    H162008   2.967   2.264   5.400 -1.1118 -2.4592  1.5372
13531TIP3    H262009   2.979   2.134   5.324  2.3250 -1.1556 -0.3717
13532TIP3   OH262010   5.459   6.610  12.024 -0.6980 -0.1908  0.0050
13532TIP3    H162011   5.476   6.542  11.959  1.9514 -1.0509  1.4645
13532TIP3    H262012   5.468   6.566  12.108 -0.6956  1.6002  0.9958
13533TIP3   OH262013   2.360   6.598  15.607  0.0324  0.7599 -0.2137
13533TIP3    H162014   2.360   6.675  15.551  1.7591  0.9017 -0.0883
13533TIP3    H262015   2.440   6.551  15.583 -0.6647 -0.6613  0.1582
13534TIP3   OH262016   2.833   0.547  15.452  0.0304  0.4603  0.2652
13534TIP3    H162017   2.791   0.553  15.538 -0.9388 -2.0830  0.0458
13534TIP3    H262018   2.915   0.595  15.463  0.5498 -0.8506  3.0475
13535TIP3   OH262019   4.539   0.896   5.740 -0.1199 -0.7873 -0.5270
13535TIP3    H162020   4.504   0.957   5.675  2.1077  2.1431  0.8099
13535TIP3    H262021   4.619   0.862   5.700  1.0702  0.7602  0.4363
13536TIP3   OH262022   3.311   0.475  12.847 -0.4172 -0.4272  0.0946
13536TIP3    H162023   3.249   0.402  12.852  0.2176 -1.0474 -0.7527
13536TIP3    H262024   3.302   0.509  12.758  0.2302 -0.3197  0.0666
13537TIP3   OH262025   5.837   0.033   5.063  0.2307  0.7622 -0.4393
13537TIP3    H162026   5.863   0.029   5.155  0.0534 -3.4767 -0.4083
13537TIP3    H262027   5.742   0.016   5.064  0.0135  1.7914 -1.3837
13538TIP3   OH262028   2.804   6.131  12.442 -0.1243 -0.6304  0.1546
13538TIP3    H162029   2.885   6.111  12.395 -1.1417  0.6667 -2.3329
13538TIP3    H262030   2.813   6.222  12.468 -2.2004  0.8666 -3.6474
13539TIP3   OH262031   2.461   2.929   6.131 -0.0744 -0.1219  0.0816
13539TIP3    H162032   2.528   2.981   6.086 -0.0979 -0.9580 -0.9498
13539TIP3    H262033   2.388   2.990   6.143  0.3291  0.4009 -0.0794
13540TIP3   OH262034   2.848   0.136   4.997 -0.0105  0.1505  0.1963
13540TIP3    H162035   2.919   0.099   5.049  0.4329  0.0999 -0.4403
13540TIP3    H262036   2.821   0.215   5.046 -0.1443 -0.3283  0.9159
13541TIP3   OH262037   4.141   0.261   1.202  0.0887 -0.3484  0.0404
13541TIP3    H162038   4.179   0.316   1.271  0.6140 -0.6915  0.0366
13541TIP3    H262039   4.127   0.176   1.244  0.5508 -0.6033 -0.3077
13542TIP3   OH262040   3.400   0.228  12.018 -0.8656 -0.2031  0.0240
13542TIP3    H162041   3.307   0.220  11.997 -1.6174  0.8782  2.5575
13542TIP3    H262042   3.430   0.138  12.028 -1.5639 -0.5770 -1.0543
13543TIP3   OH262043   3.233   6.348   3.142 -0.4462 -0.2989 -0.3455
13543TIP3    H162044   3.148   6.304   3.145  0.2417 -1.7546 -0.9045
13543TIP3    H262045   3.263   6.348   3.233 -0.8339 -0.2102 -0.2166
13544TIP3   OH262046   5.700   4.110   4.122 -0.1666 -0.1850  0.4885
13544TIP3    H162047   5.634   4.172   4.152 -0.7385  0.3855 -1.7872
13544TIP3    H262048   5.657   4.060   4.053  1.8012  0.3501 -1.2418
13545TIP3   OH262049   3.999   4.806  15.170 -0.2437  0.3256 -0.6673
13545TIP3    H162050   3.934   4.873  15.148 -0.2710  0.4550 -0.2042
13545TIP3    H262051   4.064   4.853  15.223  0.6300  0.3792 -1.7454
13546TIP3   OH262052   1.312   1.225  13.936 -0.4073 -0.3815 -0.2603
13546TIP3    H162053   1.405   1.247  13.939 -0.4807 -0.1408  0.6853
13546TIP3    H262054   1.270   1.293  13.989 -1.3721  0.6845 -2.2971
13547TIP3   OH262055   2.631   5.455  11.613 -0.3670 -0.0157  0.2182
13547TIP3    H162056   2.629   5.383  11.550  0.9176  0.6101 -0.5609
13547TIP3    H262057   2.675   5.418  11.689 -0.4075 -0.2722  0.1217
13548TIP3   OH262058   2.712   0.812   2.548  0.0383 -0.1550  0.1468
13548TIP3    H162059   2.724   0.722   2.516  0.8018  0.3781 -1.1119
13548TIP3    H262060   2.797   0.854   2.534  0.0299  0.4743  1.7455
13549TIP3   OH262061   3.993   2.542  14.067 -0.0651  0.5621  0.3788
13549TIP3    H162062   4.009   2.618  14.010 -1.7234  0.9502  0.4010
13549TIP3    H262063   4.026   2.570  14.152  2.5370 -0.0579 -0.3074
13550TIP3   OH262064   3.630   6.690   1.954 -0.4030 -0.0282 -0.0601
13550TIP3    H162065   3.537   6.697   1.936 -0.1934 -1.9316 -2.3307
13550TIP3    H262066   3.643   6.599   1.979  1.0040 -0.0903 -0.9142
13551TIP3   OH262067   2.871   0.783  11.555  0.0446  0.3325 -0.6349
13551TIP3    H162068   2.909   0.769  11.641 -0.2263  0.3441 -0.5131
13551TIP3    H262069   2.826   0.868  11.562 -1.2167 -0.3421 -0.3523
13552TIP3   OH262070   5.442   6.485   2.411 -0.4992 -0.2585  0.0174
13552TIP3    H162071   5.504   6.552   2.437 -0.8524  0.1062 -0.0702
13552TIP3    H262072   5.400   6.457   2.492  0.1490 -0.8840  0.1465
13553TIP3   OH262073   1.388   1.246  15.411 -0.6965 -0.9186  0.7494
13553TIP3    H162074   1.371   1.158  15.378 -0.5851 -1.7802  2.8355
13553TIP3    H262075   1.367   1.241  15.504 -1.0855  1.3833  0.8468
13554TIP3   OH262076   1.569   0.916  15.596  0.1597 -0.3683 -0.6686
13554TIP3    H162077   1.483   0.876  15.586 -0.6190  1.4665 -1.7273
13554TIP3    H262078   1.594   0.896  15.687 -2.2450  0.6718  0.3062
13555TIP3   OH262079   3.956   0.276   5.886  0.1227 -0.2653  0.2771
13555TIP3    H162080   3.970   0.307   5.976  1.3613 -1.1696  0.4313
13555TIP3    H262081   3.879   0.219   5.892 -0.7216  0.8574  0.4457
13556TIP3   OH262082   6.436   6.140   6.325 -0.2215 -0.5054  0.1512
13556TIP3    H162083   6.420   6.055   6.286 -0.2990 -0.1881 -0.5270
13556TIP3    H262084   6.374   6.146   6.398 -1.0892 -0.5163 -0.5773
13557TIP3   OH262085   1.304   1.542  11.500 -0.4422  0.7033  0.6884
13557TIP3    H162086   1.251   1.518  11.576 -3.2265  0.2751 -1.2252
13557TIP3    H262087   1.259   1.617  11.463  0.0887  0.1410 -1.2046
13558TIP3   OH262088   3.870   3.194  15.514  0.3700  0.4063 -0.1628
13558TIP3    H162089   3.822   3.156  15.441  1.8791  0.1906 -1.0821
13558TIP3    H262090   3.860   3.289  15.504  1.0896  0.3966 -1.0253
13559TIP3   OH262091   3.687   1.035  12.277 -0.0023  0.1308 -0.4363
13559TIP3    H162092   3.722   1.095  12.210  2.2166 -0.8444 -0.2287
13559TIP3    H262093   3.642   0.967  12.227 -1.4206  1.2203 -0.7260
13560TIP3   OH262094   3.373   1.272  12.927 -0.0774  0.7090 -0.2433
13560TIP3    H162095   3.359   1.232  13.013  1.5535 -2.5504 -1.3220
13560TIP3    H262096   3.286   1.281  12.890 -0.6107 -2.4151 -0.0226
13561TIP3   OH262097   1.413   1.392   2.148 -0.1511  0.1042 -0.0640
13561TIP3    H162098   1.405   1.346   2.064 -0.1422  0.3876 -0.2227
13561TIP3    H262099   1.473   1.338   2.199  3.6152  2.1444 -1.8496
13562TIP3   OH262100   2.794   3.977  14.121 -0.2005 -0.0567  0.1372
13562TIP3    H162101   2.866   4.033  14.147 -0.4406 -0.2509  1.2586
13562TIP3    H262102   2.837   3.897  14.089  0.0911  0.0992  0.1318
13563TIP3   OH262103   0.011   4.074  11.512 -0.3870 -0.5670 -0.2034
13563TIP3    H162104   0.026   4.094  11.420 -0.3645 -1.4417 -0.3959
13563TIP3    H262105   0.082   4.119  11.558  0.0103 -0.7043 -0.6763
13564TIP3   OH262106   2.470   0.573  14.237 -0.9286 -0.3514  0.0188
13564TIP3    H162107   2.395   0.617  14.197 -0.1385  0.0087 -1.1067
13564TIP3    H262108   2.511   0.525  14.166  1.0258  1.0097  0.1381
13565TIP3   OH262109   3.075   3.789  14.043  0.4463 -0.1770 -0.0991
13565TIP3    H162110   3.046   3.879  14.028 -0.9545 -0.5424  0.2473
13565TIP3    H262111   3.003   3.748  14.090  0.7742 -1.6586 -0.8115
13566TIP3   OH262112   1.068   4.998  13.921  0.3250  0.3458 -0.2306
13566TIP3    H162113   1.122   5.037  13.852 -0.3110  1.5907 -0.0645
13566TIP3    H262114   1.125   4.934  13.963  1.2060  0.6228 -0.9633
13567TIP3   OH262115   1.973   2.161   0.275 -0.3624  0.5894 -0.9166
13567TIP3    H162116   1.954   2.121   0.360 -1.1502 -1.0715 -1.8287
13567TIP3    H262117   1.917   2.239   0.272  0.2644  1.1186  0.3831
13568TIP3   OH262118   5.386   3.367  13.174 -0.0498  0.6146 -0.0299
13568TIP3    H162119   5.408   3.290  13.122  1.4276  1.5862 -0.9515
13568TIP3    H262120   5.316   3.410  13.125 -1.3366 -0.4461  0.8280
13569TIP3   OH262121   3.433   6.757   0.967 -0.4740 -0.0798 -0.5779
13569TIP3    H162122   3.479   6.771   1.050  0.5019 -2.4248 -0.6675
13569TIP3    H262123   3.498   6.775   0.900 -1.0688  1.1274 -0.8627
13570TIP3   OH262124   3.664   2.431  14.760  0.6280 -0.8133 -0.7369
13570TIP3    H162125   3.584   2.392  14.796 -0.6018  1.8345 -0.3670
13570TIP3    H262126   3.735   2.381  14.801 -0.7813 -2.6540 -0.3737
13571TIP3   OH262127   0.430   2.510   1.121 -0.2764  0.0741 -0.5069
13571TIP3    H162128   0.460   2.601   1.117  1.4781 -0.3985  0.6122
13571TIP3    H262129   0.400   2.499   1.212  1.7222 -1.0562  0.0698
13572TIP3   OH262130   6.144   2.256  14.569 -0.1568 -0.6185  0.6175
13572TIP3    H162131   6.150   2.192  14.640  1.8484  0.0816  1.1457
13572TIP3    H262132   6.194   2.217  14.497  1.0966  0.3041  0.9498
13573TIP3   OH262133   2.975   6.128   5.179  0.4116 -0.1376 -0.5724
13573TIP3    H162134   3.020   6.049   5.147  0.9204 -0.4551  0.8386
13573TIP3    H262135   2.894   6.095   5.219 -0.6229  0.3340 -2.1894
13574TIP3   OH262136   4.603   0.017   2.797 -0.3574  0.3594  0.1310
13574TIP3    H162137   4.616  -0.076   2.779  2.1255  0.8152 -0.8635
13574TIP3    H262138   4.545   0.048   2.728 -2.9046 -0.7653  1.6249
13575TIP3   OH262139   3.390   6.359   4.982  0.1814  0.3421 -0.8055
13575TIP3    H162140   3.355   6.291   4.924 -0.0365 -0.2348 -0.0289
13575TIP3    H262141   3.363   6.441   4.942 -0.1876 -0.0501 -1.3796
13576TIP3   OH262142   1.211   3.239  16.151 -0.0521 -0.1074  0.3608
13576TIP3    H162143   1.121   3.258  16.125 -0.6275  1.2491  2.9650
13576TIP3    H262144   1.232   3.156  16.108 -2.4096 -0.2770 -0.6039
13577TIP3   OH262145   1.889   2.343  14.845 -0.1793 -0.0253 -0.0783
13577TIP3    H162146   1.798   2.354  14.872  0.3720  0.8058  1.6022
13577TIP3    H262147   1.900   2.401  14.770 -0.4560  1.7342  1.1829
13578TIP3   OH262148   6.341   1.030   2.750 -0.1930  0.3999  0.7552
13578TIP3    H162149   6.268   1.010   2.692  0.7078  0.7964 -0.5712
13578TIP3    H262150   6.330   1.123   2.772 -0.7958  0.1291  1.6151
13579TIP3   OH262151   5.146   0.680  11.762 -0.4045  0.0417  0.6901
13579TIP3    H162152   5.123   0.721  11.845  1.0696  3.3809 -0.3836
13579TIP3    H262153   5.220   0.623  11.783 -2.1659 -1.8447  2.1426
13580TIP3   OH262154   6.277   2.319  11.496  0.4636 -0.3283 -0.0735
13580TIP3    H162155   6.286   2.245  11.435  0.7699  0.1940 -0.6804
13580TIP3    H262156   6.256   2.394  11.440 -0.5794 -0.0851  0.6092
13581TIP3   OH262157   2.072   5.668  13.436  0.9569 -0.3293 -0.0720
13581TIP3    H162158   2.130   5.743  13.428 -0.0583  0.5543  0.6905
13581TIP3    H262159   1.993   5.693  13.388  0.3841 -0.6572  0.6717
13582TIP3   OH262160   6.509   0.252   5.301 -0.0200  0.3490 -0.9476
13582TIP3    H162161   6.468   0.177   5.258  0.7749 -0.8459  0.3117
13582TIP3    H262162   6.451   0.271   5.375 -0.4187  1.2467 -1.4685
13583TIP3   OH262163   0.451   1.005   4.283  0.5176  0.3035  0.0391
13583TIP3    H162164   0.416   0.999   4.194  1.2355  0.7410 -0.2776
13583TIP3    H262165   0.525   1.065   4.277  2.1045 -1.4819  0.4414
13584TIP3   OH262166   4.821   4.662   5.182 -0.3279 -0.1792 -0.4538
13584TIP3    H162167   4.850   4.582   5.139 -1.4032 -0.8519  0.0213
13584TIP3    H262168   4.736   4.682   5.143 -1.2476 -0.7133  1.1726
13585TIP3   OH262169   3.091   0.994  11.164  0.4345 -0.4600  0.2581
13585TIP3    H162170   3.055   0.909  11.187  0.2486 -0.5615 -0.3801
13585TIP3    H262171   3.175   0.974  11.121  0.4640 -0.3132  0.2464
13586TIP3   OH262172   5.382   6.694   0.522  0.7977  0.5237  0.4312
13586TIP3    H162173   5.426   6.767   0.477  0.2767  1.0418  0.7459
13586TIP3    H262174   5.299   6.731   0.551 -0.0976 -0.5815 -0.6142
13587TIP3   OH262175   4.471   3.246  11.210 -0.5059  0.1712  0.2062
13587TIP3    H162176   4.440   3.180  11.147  0.2411  0.2681 -0.2691
13587TIP3    H262177   4.547   3.285  11.168  0.7713 -0.6248  1.6891
13588TIP3   OH262178   5.345   1.411   5.581 -0.1849  0.1272 -0.2328
13588TIP3    H162179   5.259   1.375   5.603 -0.0763  0.5110  0.8654
13588TIP3    H262180   5.330   1.462   5.501 -1.2163  1.0495  0.5181
13589TIP3   OH262181   4.096   0.581   2.891 -0.1823  0.6461 -0.7066
13589TIP3    H162182   4.163   0.528   2.934 -0.8098  0.9307  0.6817
13589TIP3    H262183   4.046   0.518   2.839 -1.2678 -0.3099  1.3446
13590TIP3   OH262184   4.915   3.884   1.597  0.2625  0.2887 -0.3683
13590TIP3    H162185   4.863   3.810   1.564 -0.8933  0.0046  1.8943
13590TIP3    H262186   4.863   3.920   1.669  1.9246  1.8055  0.1491
13591TIP3   OH262187   4.549   4.018   0.713 -0.1226  0.2225 -0.9573
13591TIP3    H162188   4.620   3.999   0.652  1.4920  0.4615  0.7557
13591TIP3    H262189   4.515   3.932   0.739  1.1707 -0.0237  0.0051
13592TIP3   OH262190   6.471   1.980  14.882  0.4833  0.5189  0.2985
13592TIP3    H162191   6.518   1.963  14.964  2.4025  2.5207 -0.2792
13592TIP3    H262192   6.431   2.066  14.895 -0.6467  0.0995 -0.2853
13593TIP3   OH262193   1.189   5.857  11.962 -0.0067  0.0914 -0.4125
13593TIP3    H162194   1.155   5.930  12.015 -1.2515 -0.8693  0.1419
13593TIP3    H262195   1.212   5.898  11.878  1.9349  1.6427  0.7577
13594TIP3   OH262196   4.575   4.635   4.308  0.0643  0.5042  0.3375
13594TIP3    H162197   4.602   4.687   4.233  3.0933 -0.6964  0.4343
13594TIP3    H262198   4.623   4.672   4.382 -1.3099  0.4098  1.3200
13595TIP3   OH262199   0.627   1.158   6.247 -0.9705  0.0560  0.9194
13595TIP3    H162200   0.635   1.133   6.155  1.7952  0.0332  1.0664
13595TIP3    H262201   0.696   1.107   6.291 -2.3187 -0.0481  3.0453
13596TIP3   OH262202   2.514   2.037  15.596 -0.1188 -0.3984 -0.4932
13596TIP3    H162203   2.608   2.040  15.608 -0.2638  2.0913  0.5515
13596TIP3    H262204   2.481   1.988  15.671  0.2904 -0.8586 -0.6106
13597TIP3   OH262205   3.405   2.179   0.249 -0.1389  0.5135  0.5753
13597TIP3    H162206   3.490   2.218   0.270  0.3354 -0.4754  0.5206
13597TIP3    H262207   3.343   2.224   0.307  0.4739  0.9893  0.8672
13598TIP3   OH262208   5.465   4.914  16.607  0.1172  0.0619  0.1812
13598TIP3    H162209   5.547   4.945  16.645 -0.3853  2.2589 -0.4164
13598TIP3    H262210   5.432   4.988  16.556 -3.0711 -0.1663  1.6920
13599TIP3   OH262211   2.447   1.257  15.958 -0.6454  0.3629  0.1739
13599TIP3    H162212   2.506   1.321  15.997  0.7629 -1.3594  1.0016
13599TIP3    H262213   2.376   1.310  15.921  0.7443  2.4183  0.2648
13600TIP3   OH262214   0.282   6.623  14.090  0.0049 -0.1452  0.0730
13600TIP3    H162215   0.322   6.620  14.003  1.2691 -1.9954  0.6544
13600TIP3    H262216   0.356   6.632  14.150 -0.8929  1.9068  0.9900
13601TIP3   OH262217   4.028   2.107  16.558 -0.6588 -0.1421  0.0751
13601TIP3    H162218   3.937   2.095  16.586 -1.0343 -0.6550 -1.3073
13601TIP3    H262219   4.037   2.054  16.479  0.7786  0.1061  0.0325
13602TIP3   OH262220   2.657   4.219   5.908  0.1822  0.3491  0.1192
13602TIP3    H162221   2.624   4.303   5.876 -1.8058  0.0297  1.1378
13602TIP3    H262222   2.666   4.165   5.830  1.2650  1.3966 -0.5215
13603TIP3   OH262223   1.648   3.681   5.411  0.2317  0.0638 -0.2172
13603TIP3    H162224   1.665   3.711   5.321 -0.4339 -1.0964 -0.7516
13603TIP3    H262225   1.721   3.716   5.461  0.7629  0.5167 -1.2640
13604TIP3   OH262226   4.822   0.870   1.098  0.4037  0.1544  0.0293
13604TIP3    H162227   4.769   0.949   1.086  1.3915  1.2127  2.0570
13604TIP3    H262228   4.904   0.902   1.134  0.8706 -1.8065  0.8247
13605TIP3   OH262229   0.355   0.557   2.939  0.0272  0.7982 -0.1962
13605TIP3    H162230   0.263   0.534   2.925  0.1713  1.2470 -2.2141
13605TIP3    H262231   0.360   0.651   2.918  1.0440  0.6278 -0.8329
13606TIP3   OH262232   2.545   2.611  12.344 -0.3767 -0.6612 -0.8929
13606TIP3    H162233   2.575   2.624  12.434  0.3087 -0.3503 -1.1615
13606TIP3    H262234   2.624   2.585  12.296 -0.5983 -0.1273 -1.5537
13607TIP3   OH262235   4.458   0.714  15.247 -0.4098  0.2111  0.0868
13607TIP3    H162236   4.438   0.800  15.285 -2.0415 -0.7889  1.6840
13607TIP3    H262237   4.552   0.704  15.259 -0.3856  1.2908  0.9810
13608TIP3   OH262238   0.654   3.017   2.179  0.0655  0.0229  0.1909
13608TIP3    H162239   0.695   3.083   2.122 -1.0957 -0.4480 -1.2505
13608TIP3    H262240   0.569   3.054   2.201  0.0747 -0.2824  0.7424
13609TIP3   OH262241   4.221   2.530  16.163 -0.1269  0.5773  0.7658
13609TIP3    H162242   4.195   2.584  16.088  2.5433 -1.6909 -2.1198
13609TIP3    H262243   4.190   2.442  16.141  0.8802 -0.1961  2.2554
13610TIP3   OH262244   6.456   0.544  17.006 -0.8434  0.6081  0.4187
13610TIP3    H162245   6.438   0.554  17.099  0.1076 -1.6976  0.9135
13610TIP3    H262246   6.528   0.605  16.989 -0.3846  0.3642  1.4321
13611TIP3   OH262247   2.899   4.329  13.499 -0.1357  0.0580  0.0978
13611TIP3    H162248   2.975   4.308  13.554 -0.5057  0.4793  0.7710
13611TIP3    H262249   2.827   4.279  13.537 -0.9158  2.0909  1.4132
13612TIP3   OH262250   3.671   4.727   5.756  0.3195 -0.1305  0.1198
13612TIP3    H162251   3.658   4.791   5.686 -1.4173  1.0953  1.4780
13612TIP3    H262252   3.582   4.700   5.780  0.9763 -2.4613  0.1469
13613TIP3   OH262253   2.193   5.017   2.971  0.6242 -0.9174 -0.5644
13613TIP3    H162254   2.165   4.965   3.045  0.4706 -1.2624 -0.8614
13613TIP3    H262255   2.250   4.959   2.920 -0.4398 -1.1878 -1.4885
13614TIP3   OH262256   0.697   0.721   0.593  0.0432 -0.3444  0.0313
13614TIP3    H162257   0.716   0.638   0.638  0.0938 -0.0806  0.5074
13614TIP3    H262258   0.773   0.736   0.537  0.2984 -0.3412  0.3696
13615TIP3   OH262259   5.125   5.390  14.053 -0.1125 -0.0131 -0.7365
13615TIP3    H162260   5.103   5.420  13.965 -0.2240 -1.0814 -1.0754
13615TIP3    H262261   5.117   5.469  14.107  1.3827  0.9991 -1.9035
13616TIP3   OH262262   3.738   6.329   0.084 -0.4157  0.2749 -0.2046
13616TIP3    H162263   3.664   6.389   0.091 -1.3857 -0.8621 -0.3057
13616TIP3    H262264   3.698   6.242   0.091  1.1060 -0.3530  1.7598
13617TIP3   OH262265   4.804   1.894  11.237 -0.1662  0.7639  0.1780
13617TIP3    H162266   4.714   1.923  11.253 -0.1462  0.4252  0.9530
13617TIP3    H262267   4.819   1.824  11.301  0.1706 -0.1813 -0.8965
13618TIP3   OH262268   2.152   2.307   0.606  0.2109  0.3127  0.3554
13618TIP3    H162269   2.177   2.223   0.644 -0.0523  0.2546  0.4029
13618TIP3    H262270   2.230   2.337   0.560  1.0225  1.0442  2.1163
13619TIP3   OH262271   5.366   3.592   2.098  0.0879 -0.3824 -0.9434
13619TIP3    H162272   5.371   3.639   2.181  0.0575 -0.1634 -1.0645
13619TIP3    H262273   5.368   3.500   2.122 -0.5703 -0.3265 -0.6570
13620TIP3   OH262274   5.847   1.068  14.709  0.7310 -0.1047 -0.7092
13620TIP3    H162275   5.781   0.998  14.706  1.5966 -0.9702 -0.1753
13620TIP3    H262276   5.862   1.082  14.802  1.2613  0.1334 -0.8308
13621TIP3   OH262277   1.406   3.450   2.131  0.6376 -0.9589 -0.2004
13621TIP3    H162278   1.461   3.462   2.209  1.1325 -0.7090 -0.5788
13621TIP3    H262279   1.384   3.539   2.103  1.6238 -0.9903 -1.1433
13622TIP3   OH262280   6.653   5.879  10.882 -0.3036 -0.1640  0.6142
13622TIP3    H162281   6.665   5.784  10.878  1.4500  0.0382  0.3698
13622TIP3    H262282   6.631   5.904  10.792  1.2585 -0.1193  0.2256
13623TIP3   OH262283   1.443   6.447   1.901  0.5532 -0.5461 -0.1521
13623TIP3    H162284   1.359   6.479   1.868  0.1027 -0.2270  1.2659
13623TIP3    H262285   1.438   6.352   1.892  0.1452 -0.5144 -0.2902
13624TIP3   OH262286   1.411   5.668   3.531  0.5219 -0.2327 -0.1986
13624TIP3    H162287   1.456   5.753   3.528 -0.0150  0.0340 -0.8643
13624TIP3    H262288   1.319   5.690   3.543  0.5562 -0.7866  1.3712
13625TIP3   OH262289   4.416   1.253   5.849  0.1807 -0.2982  0.1725
13625TIP3    H162290   4.507   1.267   5.875  0.1630  2.2683 -0.8057
13625TIP3    H262291   4.420   1.207   5.766  0.6818  0.9264 -0.5042
13626TIP3   OH262292   4.703   2.426  16.554  0.1202 -0.1183  0.1147
13626TIP3    H162293   4.654   2.488  16.501 -1.6376 -1.7688 -0.2904
13626TIP3    H262294   4.732   2.477  16.630  0.8271  1.7454 -1.3462
13627TIP3   OH262295   2.734   1.306   5.892 -0.3794  0.1963  0.5880
13627TIP3    H162296   2.675   1.373   5.858  1.4626  2.5937  1.7499
13627TIP3    H262297   2.762   1.257   5.814 -1.7594  0.7954 -0.3155
13628TIP3   OH262298   2.949   5.666  11.500  0.4144 -0.0530  0.2637
13628TIP3    H162299   2.929   5.666  11.594  0.5463 -1.8186  0.3146
13628TIP3    H262300   2.967   5.758  11.480 -0.0350  0.4217  1.8706
13629TIP3   OH262301   1.330   2.208  13.938 -0.5997  0.4075  0.1136
13629TIP3    H162302   1.372   2.294  13.941 -2.2691  1.2666  0.2760
13629TIP3    H262303   1.292   2.203  13.850 -0.8065 -0.0163  0.2244
13630TIP3   OH262304   4.173   2.769  16.565  0.2409 -0.0901 -0.1191
13630TIP3    H162305   4.168   2.738  16.656  0.0863 -0.0908 -0.1261
13630TIP3    H262306   4.109   2.714  16.519 -1.4113  1.4438  0.2102
13631TIP3   OH262307   3.151   0.641  15.090  0.2751 -0.3669  0.0829
13631TIP3    H162308   3.217   0.581  15.125 -2.1204 -2.8168  0.7585
13631TIP3    H262309   3.164   0.722  15.140  2.1854 -1.0247  0.7635
13632TIP3   OH262310   6.754   5.102   2.887 -0.2762 -0.4804  0.6029
13632TIP3    H162311   6.736   5.192   2.913 -0.4886 -0.0397 -0.9868
13632TIP3    H262312   6.848   5.101   2.868 -0.7659  0.2968 -2.4277
13633TIP3   OH262313   2.770   6.119   4.279  0.6947 -0.1448 -0.1636
13633TIP3    H162314   2.678   6.111   4.303 -0.0387 -0.9190 -2.8715
13633TIP3    H262315   2.812   6.042   4.318  0.5090  0.8436  2.1148
13634TIP3   OH262316   3.860   0.540   4.234 -0.0597 -0.3291 -0.1096
13634TIP3    H162317   3.806   0.588   4.297 -0.4481  0.9623 -1.3865
13634TIP3    H262318   3.810   0.460   4.217  0.1787 -0.8378  1.3881
13635TIP3   OH262319   4.851   2.414  16.321  0.2656  0.0187  0.2500
13635TIP3    H162320   4.797   2.376  16.252  0.6653  0.9018 -0.5755
13635TIP3    H262321   4.807   2.388  16.403 -0.5333 -0.5662 -0.3467
13636TIP3   OH262322   3.075   6.413  16.651  0.2084 -0.3123  0.2430
13636TIP3    H162323   3.080   6.508  16.659 -0.9164 -0.2004 -0.3039
13636TIP3    H262324   3.104   6.394  16.562  0.0872 -0.4458  0.2317
13637TIP3   OH262325   5.881   4.940   1.971  0.4818  0.3007 -0.6100
13637TIP3    H162326   5.905   4.861   1.923  0.1058 -0.1116 -0.1320
13637TIP3    H262327   5.785   4.942   1.968  0.4475  0.1865  0.2537
13638TIP3   OH262328   6.034   1.729  17.220  0.0215 -0.5354  0.2717
13638TIP3    H162329   5.956   1.715  17.167 -0.5604 -0.9323  1.2264
13638TIP3    H262330   6.044   1.649  17.271  3.0131 -1.9942 -2.2585
13639TIP3   OH262331   2.873   1.949   3.639  0.1033  0.3867 -0.2670
13639TIP3    H162332   2.861   1.989   3.553 -1.2506 -0.1987 -0.3685
13639TIP3    H262333   2.961   1.976   3.666  0.5251  0.6171 -1.8045
13640TIP3   OH262334   2.110   0.031   1.800  0.2372  0.5829  0.2294
13640TIP3    H162335   2.175   0.029   1.730 -0.9669 -1.2513 -0.9242
13640TIP3    H262336   2.113  -0.056   1.839 -0.6783  0.8635  0.9828
13641TIP3   OH262337   4.819   6.577  14.056 -0.3434 -0.5146 -1.1594
13641TIP3    H162338   4.772   6.660  14.045 -0.4563 -0.1903  1.2041
13641TIP3    H262339   4.751   6.510  14.048 -0.3068 -0.3926 -2.7570
13642TIP3   OH262340   6.405   5.073  12.928  0.1644 -0.7118 -0.4196
13642TIP3    H162341   6.424   5.166  12.920 -2.0015 -0.2680 -1.0494
13642TIP3    H262342   6.340   5.068  12.998  1.9833 -2.0670  1.2805
13643TIP3   OH262343   5.384   5.038  13.338  0.2993 -0.3994 -0.1138
13643TIP3    H162344   5.395   5.115  13.282  2.1127 -0.2949  0.3493
13643TIP3    H262345   5.289   5.026  13.343  0.0438  0.6858 -1.6931
13644TIP3   OH262346   3.216   0.582   1.076  0.8432 -0.0476  0.5131
13644TIP3    H162347   3.174   0.628   1.149 -1.4019  0.2463 -0.8910
13644TIP3    H262348   3.254   0.651   1.022  0.0248 -0.0279 -0.0566
13645TIP3   OH262349   3.560   4.666  17.159 -0.2701  0.0742 -0.2278
13645TIP3    H162350   3.557   4.573  17.181  1.2650 -0.3572 -1.6532
13645TIP3    H262351   3.471   4.697  17.173 -0.2384 -0.9335  2.9189
13646TIP3   OH262352   5.314   6.365   3.518  0.0824 -0.3793 -0.2946
13646TIP3    H162353   5.377   6.418   3.468  0.1537 -0.4745 -0.3050
13646TIP3    H262354   5.238   6.357   3.460 -0.0664  0.0032 -0.1579
13647TIP3   OH262355   0.711   5.029  15.904 -0.4712  0.1592 -0.5598
13647TIP3    H162356   0.621   5.042  15.933 -1.2674 -0.9559 -2.3696
13647TIP3    H262357   0.704   5.007  15.811  1.6263 -0.5915 -0.6041
13648TIP3   OH262358   1.413   1.669   1.859  0.8017 -0.7353 -0.3270
13648TIP3    H162359   1.459   1.742   1.900  0.3979 -0.3773 -0.4996
13648TIP3    H262360   1.405   1.694   1.767  0.0123 -0.6459 -0.2485
13649TIP3   OH262361   3.300   5.171  15.226  0.4111 -0.2922 -0.3218
13649TIP3    H162362   3.306   5.239  15.159 -1.1837  0.7503  0.5392
13649TIP3    H262363   3.341   5.210  15.304  1.1031 -1.0175 -0.2997
13650TIP3   OH262364   0.454   1.476  14.905  0.0269  0.9329  0.2129
13650TIP3    H162365   0.386   1.451  14.842 -1.4277  1.7121  1.3971
13650TIP3    H262366   0.536   1.469  14.856 -0.5653 -2.6878 -0.5369
13651TIP3   OH262367   1.728   6.687  13.196 -0.7480 -0.3130 -0.1256
13651TIP3    H162368   1.644   6.690  13.151 -0.2627  0.5441 -1.0042
13651TIP3    H262369   1.792   6.668  13.127 -0.1184 -0.0949  0.3860
13652TIP3   OH262370   1.411   1.711   5.863  0.4468  0.2588 -0.2832
13652TIP3    H162371   1.350   1.735   5.933  0.2605 -0.3250 -0.2433
13652TIP3    H262372   1.473   1.784   5.859  0.4502  0.3024  0.4780
13653TIP3   OH262373   2.656   0.088  16.715 -0.2642 -0.5481  0.2476
13653TIP3    H162374   2.708   0.149  16.767 -1.7806  0.1431  1.0259
13653TIP3    H262375   2.620   0.027  16.779 -0.0383 -1.3131 -0.3375
13654TIP3   OH262376   3.670   2.108   3.021 -0.2827  0.2370  0.2604
13654TIP3    H162377   3.681   2.202   3.031  1.1530  0.1692 -0.3757
13654TIP3    H262378   3.609   2.098   2.948  0.5912  0.6893 -0.5564
13655TIP3   OH262379   6.480   3.521   4.207 -0.2250  0.3276 -0.0787
13655TIP3    H162380   6.495   3.609   4.241 -1.3419  0.8707 -0.9310
13655TIP3    H262381   6.451   3.535   4.117  0.4038 -0.9574 -0.5055
13656TIP3   OH262382   6.029   2.876   5.580  0.0828 -0.4006 -0.2311
13656TIP3    H162383   6.022   2.863   5.485  0.2510 -0.7090 -0.2026
13656TIP3    H262384   6.060   2.792   5.613  0.0229 -0.2929  0.0987
13657TIP3   OH262385   5.029   5.097  12.374 -0.3058 -0.2298  0.1147
13657TIP3    H162386   5.051   5.191  12.373 -3.1769  0.5428 -0.1936
13657TIP3    H262387   5.001   5.080  12.464 -0.0295 -0.7647  0.1051
13658TIP3   OH262388   5.632   3.070  11.538 -0.7073 -0.6482 -0.5120
13658TIP3    H162389   5.706   3.025  11.497 -0.6051  0.1600 -1.2503
13658TIP3    H262390   5.663   3.159  11.553 -1.0791 -0.6751  0.4499
13659TIP3   OH262391   2.104   6.284  11.918  0.1704  0.0534 -0.4405
13659TIP3    H162392   2.112   6.355  11.855 -2.1796  1.9239  1.1785
13659TIP3    H262393   2.195   6.262  11.941  1.0214  2.9657 -0.5773
13660TIP3   OH262394   1.632   4.178  13.555  0.2276 -0.3387 -0.0484
13660TIP3    H162395   1.555   4.177  13.612  0.7340  0.4270  0.6826
13660TIP3    H262396   1.601   4.217  13.473  0.2425  1.8741  0.9243
13661TIP3   OH262397   0.639   3.218  16.422  0.8496 -0.0321  0.2253
13661TIP3    H162398   0.633   3.293  16.481 -0.7231 -0.3833  0.5542
13661TIP3    H262399   0.646   3.142  16.481 -1.3638 -0.4427  0.0476
13662TIP3   OH262400   0.992   1.387   3.010 -0.3993  0.2512 -0.0110
13662TIP3    H162401   1.014   1.322   2.943  0.5858 -1.1166  1.5545
13662TIP3    H262402   0.905   1.361   3.040  0.2634 -0.8260  1.0801
13663TIP3   OH262403   0.724   6.176  12.975 -0.2139  0.2879 -0.0323
13663TIP3    H162404   0.653   6.215  12.924 -0.6807 -1.5967 -0.9088
13663TIP3    H262405   0.802   6.225  12.950 -0.5982  0.0292 -1.8646
13664TIP3   OH262406   6.548   5.262   5.092  0.2717 -0.5418  0.3877
13664TIP3    H162407   6.455   5.272   5.072  0.5195  0.6724 -0.2578
13664TIP3    H262408   6.552   5.189   5.154 -1.0579 -0.9023  0.0768
13665TIP3   OH262409   5.998   4.396  17.189 -0.3101 -0.0740  0.3429
13665TIP3    H162410   5.994   4.488  17.213 -1.6042  0.5610 -1.9791
13665TIP3    H262411   5.909   4.363  17.202 -0.2315 -0.5666 -0.2779
13666TIP3   OH262412   0.095   4.456  16.387  0.2243 -0.1222 -0.5205
13666TIP3    H162413   0.081   4.362  16.400  1.3783 -0.2783 -0.2826
13666TIP3    H262414   0.023   4.498  16.434 -0.8251 -0.8968 -1.3856
13667TIP3   OH262415   1.151   3.896  11.737  0.0994  0.0895 -0.0484
13667TIP3    H162416   1.071   3.878  11.785  0.8693 -2.2625  0.4874
13667TIP3    H262417   1.147   3.838  11.661  2.4155 -2.2285  1.4060
13668TIP3   OH262418   4.258   2.744  11.399  0.2966 -0.6974  0.1734
13668TIP3    H162419   4.254   2.840  11.398 -1.1625 -0.7397 -1.0845
13668TIP3    H262420   4.299   2.723  11.483  1.1344  1.0352  0.2443
13669TIP3   OH262421   0.563   1.470   5.637  0.2879 -0.9033  0.0581
13669TIP3    H162422   0.634   1.452   5.699  1.1191  0.3124 -0.4952
13669TIP3    H262423   0.513   1.388   5.633  0.5512 -1.1909  1.8738
13670TIP3   OH262424   4.335   4.690   3.024 -0.1429 -0.4814  0.6733
13670TIP3    H162425   4.376   4.653   2.946  0.6221 -0.8295  1.2180
13670TIP3    H262426   4.401   4.749   3.060 -0.4628 -0.3665  1.0840
13671TIP3   OH262427   1.992   0.701  11.412  0.2182  0.6492 -0.4729
13671TIP3    H162428   1.940   0.630  11.375  0.9248  0.2749 -0.7677
13671TIP3    H262429   1.953   0.781  11.375 -0.5178  0.4184 -0.2122
13672TIP3   OH262430   5.513   0.757   4.992  0.2151 -0.5658 -1.0824
13672TIP3    H162431   5.532   0.826   5.056 -2.8590  1.8622 -2.5257
13672TIP3    H262432   5.515   0.676   5.043  1.1761  0.8638  1.3334
13673TIP3   OH262433   1.385   4.052  15.820  0.9609  0.2375  0.2403
13673TIP3    H162434   1.383   3.980  15.758 -0.4298 -0.3816  0.9686
13673TIP3    H262435   1.298   4.092  15.815  1.1575  0.8061  1.0678
13674TIP3   OH262436   2.105   2.158  15.441  0.3502  0.0090  0.5132
13674TIP3    H162437   2.048   2.129  15.369 -0.5795 -1.9745  1.9597
13674TIP3    H262438   2.188   2.113  15.426  0.9676  1.4061 -0.5305
13675TIP3   OH262439   1.891   0.013   0.438 -0.1501 -0.1529 -0.0600
13675TIP3    H162440   1.918  -0.078   0.431 -1.1227 -0.3653 -1.3010
13675TIP3    H262441   1.854   0.021   0.526  1.9136 -0.3744  0.8945
13676TIP3   OH262442   2.439   4.230  16.277  0.6685 -0.0867 -0.8489
13676TIP3    H162443   2.436   4.299  16.210 -1.2544  0.5506 -0.1610
13676TIP3    H262444   2.479   4.273  16.353 -0.3172  0.2223 -0.4947
13677TIP3   OH262445   3.691   0.110  14.790  0.0174  0.6398 -0.2017
13677TIP3    H162446   3.757   0.179  14.783  0.3650  0.1744 -2.0458
13677TIP3    H262447   3.609   0.156  14.807  0.5518  1.3417  0.5246
13678TIP3   OH262448   4.061   2.165  15.177 -0.5299 -0.4221 -0.2024
13678TIP3    H162449   4.067   2.084  15.227  0.9430 -0.5659 -0.5697
13678TIP3    H262450   4.068   2.137  15.086 -1.1996  0.0275 -0.4019
13679TIP3   OH262451   4.272   6.663  14.671  0.2822 -0.0642 -0.2509
13679TIP3    H162452   4.327   6.671  14.749 -2.2602 -2.5254  2.0314
13679TIP3    H262453   4.313   6.592  14.621 -0.1677 -1.1985  0.9226
13680TIP3   OH262454   3.244   4.527   0.163 -0.1441  0.5451 -0.1311
13680TIP3    H162455   3.259   4.540   0.256 -0.8135 -0.5201  0.1404
13680TIP3    H262456   3.194   4.446   0.157 -0.7676  0.9790 -1.3660
13681TIP3   OH262457   1.011   3.471  12.979 -0.2165 -0.1878 -0.1927
13681TIP3    H162458   1.078   3.486  12.911 -0.2088 -1.0062 -0.3754
13681TIP3    H262459   1.006   3.555  13.026 -1.6259  1.0823 -2.4158
13682TIP3   OH262460   0.141   4.492   5.599 -0.4232  0.0154 -0.1082
13682TIP3    H162461   0.231   4.521   5.615 -0.3556  0.0073 -0.4747
13682TIP3    H262462   0.102   4.561   5.547 -0.9905  0.5733  1.0316
13683TIP3   OH262463   3.823   6.186   3.206 -0.2650 -0.4318 -0.4283
13683TIP3    H162464   3.758   6.253   3.184 -1.7179 -1.2187  1.2103
13683TIP3    H262465   3.774   6.104   3.203  0.9335 -1.1757 -0.1709
13684TIP3   OH262466   2.576   2.927   4.958 -0.5140  0.3812  0.4226
13684TIP3    H162467   2.507   2.861   4.953 -1.6640  1.5684  0.1232
13684TIP3    H262468   2.570   2.961   5.048  0.4897 -0.3233  0.7785
13685TIP3   OH262469   5.059   4.338  13.188 -0.6784  0.2859  0.5094
13685TIP3    H162470   5.150   4.333  13.217 -0.9532 -1.2888  1.2582
13685TIP3    H262471   5.058   4.408  13.124  1.3329 -0.4784 -0.4532
13686TIP3   OH262472   4.568   3.797  12.351 -0.6185 -0.3901 -0.1395
13686TIP3    H162473   4.528   3.852  12.418  2.2725 -0.4560  1.8341
13686TIP3    H262474   4.641   3.849  12.317 -0.2514 -1.4932 -1.1245
13687TIP3   OH262475   5.594   0.827   4.415 -0.7568 -0.0063 -0.3724
13687TIP3    H162476   5.518   0.856   4.465 -0.1256 -1.6195  1.6547
13687TIP3    H262477   5.583   0.733   4.405  1.7156 -0.5887  1.4728
13688TIP3   OH262478   0.060   6.542  12.175 -0.3406 -0.7985  0.0435
13688TIP3    H162479   0.007   6.483  12.122 -1.4593  0.2351 -0.0060
13688TIP3    H262480   0.054   6.507  12.264  2.6481 -3.3614 -0.5600
13689TIP3   OH262481   2.930   1.084   2.129 -0.6283  0.2675  0.4939
13689TIP3    H162482   2.921   1.092   2.224 -1.2386  0.2112  0.4421
13689TIP3    H262483   3.020   1.111   2.111 -0.5773  0.4790  1.0667
13690TIP3   OH262484   3.533   3.016   3.495 -0.2002  0.4628 -0.5167
13690TIP3    H162485   3.525   3.034   3.589 -0.9587 -1.3584 -0.1721
13690TIP3    H262486   3.447   3.036   3.459 -1.5308 -3.2177  0.1165
13691TIP3   OH262487   0.754   4.347   4.951  0.4179 -0.6118 -0.3863
13691TIP3    H162488   0.772   4.309   4.865  0.1697 -0.5755 -0.4560
13691TIP3    H262489   0.666   4.385   4.942  1.1569  1.0916 -0.7039
13692TIP3   OH262490   0.267   2.518   0.448  0.1026 -0.6568  0.1087
13692TIP3    H162491   0.303   2.431   0.467 -0.0800 -0.5196  1.1156
13692TIP3    H262492   0.316   2.577   0.506 -3.5694 -0.7706  3.7607
13693TIP3   OH262493   4.404   2.266   6.260  0.0164 -0.3261 -0.1434
13693TIP3    H162494   4.426   2.238   6.171  2.6008 -0.6217  0.5110
13693TIP3    H262495   4.380   2.359   6.251 -1.0117 -0.6796 -1.2838
13694TIP3   OH262496   5.441   2.314  13.034 -0.3264  0.1632  0.4367
13694TIP3    H162497   5.516   2.263  13.064 -0.0960  1.1769  1.6706
13694TIP3    H262498   5.465   2.341  12.945  0.2353 -0.5262  0.3696
13695TIP3   OH262499   2.718   5.716   2.627  0.1576 -0.0149 -0.0575
13695TIP3    H162500   2.750   5.789   2.575 -0.5888 -0.2822 -0.9003
13695TIP3    H262501   2.695   5.648   2.563 -2.4959  0.3042  0.4388
13696TIP3   OH262502   2.683   6.514  13.529 -0.0640  0.2730  0.6420
13696TIP3    H162503   2.776   6.501  13.509  0.2366  1.1846  1.3828
13696TIP3    H262504   2.637   6.475  13.454  0.9433  1.1046 -0.4500
13697TIP3   OH262505   6.184   1.018   4.938 -0.1030  0.4193  0.4319
13697TIP3    H162506   6.151   0.942   4.890  1.7952  0.0029 -0.3018
13697TIP3    H262507   6.241   0.980   5.005  1.8298  1.1913 -0.7175
13698TIP3   OH262508   2.694   0.094   5.333  0.5213  0.0780  0.2144
13698TIP3    H162509   2.700   0.171   5.277 -1.2470 -0.9137 -1.4980
13698TIP3    H262510   2.660   0.127   5.416  2.0169  1.4273  0.3182
13699TIP3   OH262511   0.787   0.366  12.111  0.4428  0.4191  0.1663
13699TIP3    H162512   0.830   0.283  12.092  0.4716  0.2233  1.0504
13699TIP3    H262513   0.845   0.410  12.173 -0.9671 -0.2088  2.0319
13700TIP3   OH262514   4.081   0.070  13.847 -0.0049 -0.4455 -0.4834
13700TIP3    H162515   4.093   0.115  13.930 -0.8220 -0.5334 -0.3074
13700TIP3    H262516   4.152   0.005  13.843 -0.9826 -1.6605  0.9684
13701TIP3   OH262517   0.937   4.382  15.441  0.5475  0.4217  0.0949
13701TIP3    H162518   0.882   4.316  15.484  1.2191 -0.0052  0.3253
13701TIP3    H262519   0.994   4.414  15.511  0.5755  0.8775 -0.1365
13702TIP3   OH262520   3.647   2.150   0.024 -0.0408  0.5313 -0.0427
13702TIP3    H162521   3.734   2.167   0.061  0.0299  1.3559 -0.5651
13702TIP3    H262522   3.649   2.057   0.001  0.1882  0.1953  1.2643
13703TIP3   OH262523   5.732   5.798   2.581  0.2303  0.2299  0.0873
13703TIP3    H162524   5.696   5.884   2.559 -1.0189  0.4212  2.5533
13703TIP3    H262525   5.670   5.761   2.643  1.5830 -1.7839  0.3299
13704TIP3   OH262526   0.926   3.364   1.398  0.2509 -0.2707  0.2400
13704TIP3    H162527   0.833   3.356   1.376 -0.0247  2.3654  0.1600
13704TIP3    H262528   0.927   3.386   1.491  0.6716  1.1435 -0.0780
13705TIP3   OH262529   1.444   1.495   5.034  0.2814 -0.1051  0.0090
13705TIP3    H162530   1.496   1.517   4.956 -0.0964 -0.2729 -0.2917
13705TIP3    H262531   1.378   1.564   5.040 -1.2863 -1.4089 -1.2784
13706TIP3   OH262532   6.124   1.961   0.026 -0.1098 -0.0771  0.1481
13706TIP3    H162533   6.178   1.975  -0.052  0.1406 -0.6218  0.2199
13706TIP3    H262534   6.072   1.884   0.006 -1.4230  0.8662 -0.2143
13707TIP3   OH262535   5.868   2.199  11.477  0.0398  0.6066 -0.0923
13707TIP3    H162536   5.951   2.173  11.517  0.0832  2.9591  1.5232
13707TIP3    H262537   5.844   2.280  11.521 -3.2607 -0.0874 -0.3281
13708TIP3   OH262538   1.221   4.536  15.367 -0.6064  0.2337  0.7452
13708TIP3    H162539   1.314   4.554  15.351 -0.5530  0.6342  1.4803
13708TIP3    H262540   1.185   4.620  15.395 -1.0226 -0.0983  1.2148
13709TIP3   OH262541   4.440   3.402  14.595 -0.0142 -0.0173  0.6170
13709TIP3    H162542   4.501   3.332  14.618 -0.8214 -0.4155  1.5775
13709TIP3    H262543   4.422   3.447  14.678  0.3876  1.2647  0.0408
13710TIP3   OH262544   1.439   6.130   4.163 -0.1044 -0.1810  0.3685
13710TIP3    H162545   1.449   6.052   4.217  0.8613 -0.2724  0.0741
13710TIP3    H262546   1.420   6.096   4.075  2.1043 -0.1843 -0.1630
13711TIP3   OH262547   6.471   1.112  12.449  0.3327 -0.5774 -0.1221
13711TIP3    H162548   6.495   1.189  12.502  0.7361  0.2105 -1.3935
13711TIP3    H262549   6.533   1.114  12.376 -0.8159 -1.0606 -1.1417
13712TIP3   OH262550   0.079   2.756   2.476  0.3312  0.3665 -0.1811
13712TIP3    H162551   0.089   2.831   2.418  0.6790  2.0083  1.9043
13712TIP3    H262552   0.047   2.792   2.558  1.2838 -1.6383  1.1739
13713TIP3   OH262553   4.170   2.827  13.360  0.8863 -0.0712  0.0652
13713TIP3    H162554   4.118   2.865  13.431  0.1370 -1.3637  0.2354
13713TIP3    H262555   4.255   2.810  13.399  0.6648 -0.2147  0.4940
13714TIP3   OH262556   1.545   0.867  13.898 -0.2198  0.1929 -0.1788
13714TIP3    H162557   1.567   0.801  13.831  0.7983 -0.1732  0.4968
13714TIP3    H262558   1.525   0.946  13.848 -0.1946 -0.2725 -0.9462
13715TIP3   OH262559   5.699   6.607  12.998 -0.0043 -0.0402  0.6624
13715TIP3    H162560   5.768   6.548  12.968 -0.1407  0.1248  0.0191
13715TIP3    H262561   5.738   6.694  12.993 -1.3385  0.5331 -3.2442
13716TIP3   OH262562   3.936   5.161  12.392 -0.2183  0.2605  0.2015
13716TIP3    H162563   3.934   5.164  12.296 -0.7219  1.1952  0.2296
13716TIP3    H262564   3.875   5.230  12.419  2.4798  2.4086  1.2035
13717TIP3   OH262565   0.390   0.977  12.980  0.9211  0.4113  0.1917
13717TIP3    H162566   0.394   0.897  12.929  0.3744  0.4421  0.0996
13717TIP3    H262567   0.297   0.995  12.990  1.0080  1.8714 -1.1268
13718TIP3   OH262568   6.413   0.455   2.457 -0.3410 -0.6025  0.1573
13718TIP3    H162569   6.493   0.481   2.502  0.1978  0.9551 -1.5569
13718TIP3    H262570   6.443   0.410   2.378 -0.9804  2.0289 -1.7181
13719TIP3   OH262571   5.227   3.978  17.153  0.0492 -0.1624  0.4236
13719TIP3    H162572   5.178   4.059  17.169 -1.2499 -0.7771 -0.2979
13719TIP3    H262573   5.168   3.909  17.182  1.0196 -0.8799  0.7247
13720TIP3   OH262574   3.822   1.068  12.592 -0.6580 -0.2340 -0.4062
13720TIP3    H162575   3.784   1.063  12.680 -1.5502 -1.0722 -0.8241
13720TIP3    H262576   3.760   1.022  12.536 -0.3231  0.6613 -1.5609
13721TIP3   OH262577   5.569   1.296  16.148 -0.5951 -0.5830  0.6047
13721TIP3    H162578   5.536   1.384  16.161  1.0895  0.1075  0.4592
13721TIP3    H262579   5.517   1.241  16.207 -1.3052  0.5796  1.0787
13722TIP3   OH262580   4.553   4.840   3.131 -0.2941 -0.2355  0.0979
13722TIP3    H162581   4.643   4.843   3.100  0.4026 -1.6662  1.8260
13722TIP3    H262582   4.543   4.918   3.185 -0.1480 -0.0013 -0.2092
13723TIP3   OH262583   0.880   2.796  15.548  0.1434  0.2361 -0.2509
13723TIP3    H162584   0.926   2.870  15.508  0.7512  0.2462  0.4541
13723TIP3    H262585   0.826   2.760  15.477  0.1388  1.1135 -0.7003
13724TIP3   OH262586   0.796   5.937  11.499  0.2920  0.0682  0.2633
13724TIP3    H162587   0.836   6.022  11.481  2.7265 -0.8546  0.9989
13724TIP3    H262588   0.742   5.919  11.421  1.8015  1.1047 -1.0827
13725TIP3   OH262589   1.589   0.688   5.549  0.2236  0.1370  0.2809
13725TIP3    H162590   1.524   0.618   5.557 -0.1560  0.5262  0.7059
13725TIP3    H262591   1.570   0.729   5.464  0.6967 -0.5131 -0.1454
13726TIP3   OH262592   3.528   1.478   3.486  0.4699 -0.2111  0.4398
13726TIP3    H162593   3.606   1.534   3.476  1.4434 -1.7843 -1.2119
13726TIP3    H262594   3.541   1.436   3.571  1.8205 -0.9946 -0.1211
13727TIP3   OH262595   2.844   3.146   1.351 -0.7588  0.4888  0.1871
13727TIP3    H162596   2.843   3.241   1.349 -1.5070  0.5212  1.1606
13727TIP3    H262597   2.791   3.123   1.428 -0.2352 -0.6996  0.2158
13728TIP3   OH262598   2.061   2.824  11.536 -0.2291 -0.3249  0.2863
13728TIP3    H162599   2.054   2.751  11.598  0.9506 -0.0390  0.7776
13728TIP3    H262600   1.970   2.845  11.515 -0.6294 -1.1050  1.1200
13729TIP3   OH262601   3.963   6.040  11.346 -0.7655 -0.1785  0.2648
13729TIP3    H162602   4.059   6.034  11.350 -0.8693 -2.1532  0.4861
13729TIP3    H262603   3.946   6.085  11.263  0.3513  0.6573  0.4599
13730TIP3   OH262604   5.893   4.582  14.649  0.0516 -0.0590 -0.4208
13730TIP3    H162605   5.807   4.544  14.666  1.1133 -1.8255  1.3743
13730TIP3    H262606   5.915   4.553  14.560 -1.5309  1.1527 -1.2420
13731TIP3   OH262607   4.652   2.895  15.183  0.1109  0.6781  0.1947
13731TIP3    H162608   4.584   2.860  15.126  1.3046  0.0907 -0.9060
13731TIP3    H262609   4.720   2.828  15.185  0.4880  1.0524  1.6381
13732TIP3   OH262610   1.218   1.270  13.306  1.0135  0.0328 -0.2374
13732TIP3    H162611   1.262   1.283  13.222  1.9514  1.6056  0.4495
13732TIP3    H262612   1.233   1.352  13.353  0.0903 -0.6409  1.2773
13733TIP3   OH262613   3.257   0.256  13.421  0.3918  0.0516 -0.8594
13733TIP3    H162614   3.170   0.231  13.390  0.6817 -0.5630 -1.1922
13733TIP3    H262615   3.244   0.342  13.462 -0.5449 -0.4562 -0.0559
13734TIP3   OH262616   4.500   3.718   4.946  0.7298 -0.1246 -0.3406
13734TIP3    H162617   4.534   3.802   4.977  0.3393 -0.1758  0.2452
13734TIP3    H262618   4.410   3.736   4.920  0.6871 -0.3334 -0.3434
13735TIP3   OH262619   0.282   3.847   5.450 -0.2583  0.1936 -0.6375
13735TIP3    H162620   0.225   3.787   5.402  0.3609 -2.1505  1.3516
13735TIP3    H262621   0.370   3.824   5.422  0.0645 -0.7588  1.0248
13736TIP3   OH262622   3.507   1.765   3.278  1.3150  0.1707 -0.2151
13736TIP3    H162623   3.498   1.804   3.365 -0.5874 -1.2069  0.2751
13736TIP3    H262624   3.492   1.837   3.217  0.9268  0.8034  0.6134
13737TIP3   OH262625   0.848   6.279  11.540 -0.3115  0.0840 -0.1226
13737TIP3    H162626   0.777   6.344  11.539 -0.6057 -0.2096  0.9316
13737TIP3    H262627   0.884   6.283  11.451 -2.2676 -0.4588 -1.0097
13738TIP3   OH262628   0.879   5.077  13.636 -0.4038 -0.0964 -0.6550
13738TIP3    H162629   0.883   4.998  13.690  0.5903 -0.0055 -0.5883
13738TIP3    H262630   0.810   5.130  13.676  0.2254 -0.0904  0.4449
13739TIP3   OH262631   1.499   4.427   5.964 -0.8363 -0.2389 -0.6988
13739TIP3    H162632   1.456   4.495   5.912 -0.6636 -0.5494 -1.2521
13739TIP3    H262633   1.449   4.348   5.945 -0.6936 -0.3780 -0.4868
13740TIP3   OH262634   0.358   5.018  13.154 -0.2143  0.1689  0.0830
13740TIP3    H162635   0.437   5.031  13.103 -0.1188  0.7480  0.3794
13740TIP3    H262636   0.329   4.930  13.130 -0.3669  0.5547 -1.2268
13741TIP3   OH262637   3.241   5.664  14.833 -0.1174  0.1652  0.3571
13741TIP3    H162638   3.157   5.666  14.878  1.5585  1.2003  3.7752
13741TIP3    H262639   3.256   5.755  14.806  0.6287  0.3182  1.2714
13742TIP3   OH262640   6.331   2.567   3.919 -0.1122 -0.1778 -0.1540
13742TIP3    H162641   6.248   2.561   3.872 -0.5050  1.8243  0.1709
13742TIP3    H262642   6.397   2.539   3.856 -0.8335  0.3145 -1.1579
13743TIP3   OH262643   4.868   5.083  12.040 -0.6158 -0.0646 -0.2786
13743TIP3    H162644   4.849   5.177  12.039 -0.0183  0.0585 -1.1855
13743TIP3    H262645   4.929   5.070  11.967 -0.0507 -1.0244  0.3490
13744TIP3   OH262646   2.742   3.292  14.605  0.6429 -0.0397  0.3929
13744TIP3    H162647   2.695   3.208  14.602  1.2053 -0.4504  2.1824
13744TIP3    H262648   2.751   3.311  14.698  0.6206  1.9871  0.0169
13745TIP3   OH262649   5.823   3.153  13.476 -0.1577 -0.1480 -0.1250
13745TIP3    H162650   5.752   3.198  13.431 -0.5902 -0.2043  0.5011
13745TIP3    H262651   5.824   3.065  13.438 -1.3214 -0.5918  0.8157
13746TIP3   OH262652   6.170   2.519  17.171 -0.6230  0.1241  0.3599
13746TIP3    H162653   6.189   2.568  17.251 -1.2913  0.4044  0.3512
13746TIP3    H262654   6.239   2.545  17.110 -0.5031  0.4301  0.6238
13747TIP3   OH262655   4.836   5.583  16.340  0.7774 -0.1527 -0.0174
13747TIP3    H162656   4.912   5.564  16.284  3.6464  1.3386  2.9648
13747TIP3    H262657   4.830   5.679  16.338  0.9756 -0.0542  2.0599
13748TIP3   OH262658   4.349   3.107   1.622 -0.2691 -0.3830  0.0441
13748TIP3    H162659   4.274   3.098   1.562 -0.0653  0.5098 -0.3565
13748TIP3    H262660   4.380   3.197   1.608 -0.8434  0.2253  2.2061
13749TIP3   OH262661   3.710   0.206   0.080  0.3910 -0.7984  0.5863
13749TIP3    H162662   3.744   0.295   0.086 -1.3105 -0.1466  1.1044
13749TIP3    H262663   3.729   0.166   0.165 -1.8802  0.2631  1.6797
13750TIP3   OH262664   3.617   1.997  10.399 -0.0492 -0.2595 -0.2926
13750TIP3    H162665   3.653   2.074  10.443  0.6105 -0.2756 -0.7896
13750TIP3    H262666   3.661   1.923  10.441 -1.5301 -0.4590  0.9887
13751TIP3   OH262667   0.947   4.987   5.039  0.2141  0.0017  0.6852
13751TIP3    H162668   0.937   5.023   4.951  1.7086  2.3640  1.4035
13751TIP3    H262669   0.891   4.909   5.039 -2.2207  1.5710 -1.4135
13752TIP3   OH262670   6.067   2.389  10.603  0.3500  0.4243  0.3935
13752TIP3    H162671   6.123   2.413  10.677  1.0378  0.6182 -0.1665
13752TIP3    H262672   6.101   2.304  10.575 -0.3494  0.0373  0.7226
13753TIP3   OH262673   4.914   1.326  15.382 -0.4371 -0.0855  0.1803
13753TIP3    H162674   4.964   1.389  15.331  1.5993 -1.6749  0.0953
13753TIP3    H262675   4.901   1.367  15.467  4.1949 -0.8220  1.5080
13754TIP3   OH262676   2.560   3.728   1.120  0.2447  0.6392 -0.0009
13754TIP3    H162677   2.629   3.776   1.073 -0.6762  1.9890 -0.0218
13754TIP3    H262678   2.591   3.725   1.211  1.2310 -0.4846 -0.3535
13755TIP3   OH262679   0.259   5.661   6.611  0.4311 -0.4672 -0.1832
13755TIP3    H162680   0.264   5.739   6.666  2.6292 -1.4447  1.1520
13755TIP3    H262681   0.169   5.631   6.621 -0.5343  1.9263 -0.8874
13756TIP3   OH262682   5.910   3.747  15.347 -0.3208  0.2453  0.5417
13756TIP3    H162683   5.910   3.807  15.421  0.7959  1.1033 -0.1279
13756TIP3    H262684   6.000   3.747  15.316 -0.5456 -0.9182 -0.1703
13757TIP3   OH262685   5.174   1.950   1.058 -0.3734 -0.5865 -0.4745
13757TIP3    H162686   5.254   2.000   1.048 -0.3946 -0.1976  0.9703
13757TIP3    H262687   5.126   1.963   0.977 -0.1197  1.2994 -0.3617
13758TIP3   OH262688   4.656   2.892  12.590  0.7725  0.0512  0.2005
13758TIP3    H162689   4.682   2.955  12.657  0.9841  0.8253 -0.5928
13758TIP3    H262690   4.705   2.918  12.512  0.3510 -0.6877 -0.3286
13759TIP3   OH262691   2.026   0.735   4.126  0.0293 -0.9481  0.9020
13759TIP3    H162692   1.955   0.679   4.093 -0.5422  0.1514  0.2063
13759TIP3    H262693   2.087   0.741   4.052  0.0215 -0.5490  0.9304
13760TIP3   OH262694   1.180   2.108  13.207  0.3540 -0.5202 -0.0937
13760TIP3    H162695   1.119   2.035  13.217 -0.8550  0.3134 -1.0254
13760TIP3    H262696   1.267   2.067  13.208 -0.3098 -2.0889 -1.5428
13761TIP3   OH262697   5.529   2.151  16.721  0.2591 -0.1969 -0.0105
13761TIP3    H162698   5.530   2.055  16.716  0.2197 -0.1831 -0.2807
13761TIP3    H262699   5.622   2.176  16.718  0.2411 -0.1928 -0.6143
13762TIP3   OH262700   4.770   3.511   1.762 -0.2764 -0.4187  0.1907
13762TIP3    H162701   4.705   3.570   1.724  1.4442 -0.1418 -2.5479
13762TIP3    H262702   4.750   3.425   1.725 -0.0557 -0.6682  0.6349
13763TIP3   OH262703   6.422   5.712   0.529 -0.0439 -0.5448  0.3875
13763TIP3    H162704   6.396   5.639   0.585 -0.8861  0.6381  1.5905
13763TIP3    H262705   6.361   5.708   0.456  1.7028 -2.7254 -1.1117
13764TIP3   OH262706   3.062   4.577   4.888  0.1834 -0.5869  0.0548
13764TIP3    H162707   3.042   4.618   4.803 -0.7560 -0.4586  0.3299
13764TIP3    H262708   3.082   4.650   4.946  2.0045 -0.7372 -0.3363
13765TIP3   OH262709   3.379   0.349   4.559  0.3416  0.2979 -0.2962
13765TIP3    H162710   3.408   0.436   4.530 -0.7919  0.6939 -0.2845
13765TIP3    H262711   3.287   0.361   4.584  0.5502 -0.6076  1.0063
13766TIP3   OH262712   3.736   0.128   2.249 -0.0160 -0.6332  0.3374
13766TIP3    H162713   3.782   0.207   2.221  0.5685 -1.4455 -1.0963
13766TIP3    H262714   3.647   0.157   2.268 -0.5604  0.0115 -2.6720
13767TIP3   OH262715   0.377   1.273   2.153  0.5370  0.2003 -0.4267
13767TIP3    H162716   0.328   1.293   2.233  0.5186  1.9960 -0.8411
13767TIP3    H262717   0.410   1.358   2.123  0.7903 -0.4682 -2.1820
13768TIP3   OH262718   3.081   1.687  17.093 -0.1470  0.2086  0.0434
13768TIP3    H162719   2.995   1.706  17.056  0.5719  0.4154 -1.6130
13768TIP3    H262720   3.118   1.620  17.036  0.7635  0.0587  0.7798
13769TIP3   OH262721   2.573   4.322  11.931 -0.3169  0.0376 -0.5029
13769TIP3    H162722   2.478   4.309  11.937 -0.5281  0.5828 -2.1502
13769TIP3    H262723   2.598   4.355  12.017 -1.6318 -0.0623 -0.0546
13770TIP3   OH262724   3.727   5.781   2.902 -0.2924  0.5677 -0.0978
13770TIP3    H162725   3.812   5.818   2.877  0.2485 -0.2795  0.4493
13770TIP3    H262726   3.680   5.772   2.820  0.2023  0.9139 -0.4250
13771TIP3   OH262727   0.256   2.809   0.329 -0.0925 -0.2865  0.7047
13771TIP3    H162728   0.184   2.872   0.336  0.2602  0.1191  0.7647
13771TIP3    H262729   0.220   2.727   0.362 -1.2545 -0.7134 -1.4558
13772TIP3   OH262730   6.341   5.287  13.893 -0.9286  0.0416  0.4303
13772TIP3    H162731   6.266   5.345  13.878 -1.6979 -1.2157 -0.8106
13772TIP3    H262732   6.312   5.227  13.961 -2.0673 -2.0309 -1.7465
13773TIP3   OH262733   5.819   6.143   1.291 -0.0068 -0.3500  0.0524
13773TIP3    H162734   5.913   6.161   1.288 -0.0943  0.0599 -0.1919
13773TIP3    H262735   5.812   6.066   1.349  0.4311 -0.0839  0.4692
13774TIP3   OH262736   2.116   5.848  14.560  0.1620 -0.6517  0.1299
13774TIP3    H162737   2.065   5.776  14.597  1.9749 -2.0103  0.1187
13774TIP3    H262738   2.197   5.849  14.611  1.6495 -0.9269 -2.1044
13775TIP3   OH262739   5.973   4.228  16.635  0.3676 -0.6426 -0.2807
13775TIP3    H162740   6.013   4.282  16.703 -1.0474  2.3442 -1.6450
13775TIP3    H262741   6.047   4.184  16.593  1.7238  0.9368  0.3367
13776TIP3   OH262742   6.444   1.023   1.489 -0.0037 -0.1152  0.5415
13776TIP3    H162743   6.539   1.018   1.495 -0.0947 -0.6711  1.7939
13776TIP3    H262744   6.416   0.931   1.480 -0.3858  0.0994 -0.6162
13777TIP3   OH262745   1.668   3.358   0.531 -0.1049 -0.5234  0.1244
13777TIP3    H162746   1.619   3.321   0.458  0.0105  0.8657 -0.6952
13777TIP3    H262747   1.656   3.296   0.603 -0.4438 -1.7822 -0.9902
13778TIP3   OH262748   5.875   0.517   4.240  0.0811  0.3142  0.7596
13778TIP3    H162749   5.951   0.561   4.279 -0.4764  1.1951  0.8668
13778TIP3    H262750   5.844   0.458   4.309  0.2182  0.4930  0.9755
13779TIP3   OH262751   2.555   1.499  13.663 -0.3637  0.5743  0.5272
13779TIP3    H162752   2.490   1.460  13.721 -1.1062  0.9800 -0.0090
13779TIP3    H262753   2.522   1.588  13.647  1.7207  1.8058  2.4367
13780TIP3   OH262754   4.845   3.563  10.588  0.5503 -0.5308  0.2096
13780TIP3    H162755   4.849   3.658  10.579 -0.8381 -0.6008 -2.2783
13780TIP3    H262756   4.874   3.530  10.503  0.1217 -2.2990  0.7008
13781TIP3   OH262757   0.255   0.768   2.561  0.1460  0.1933 -0.7288
13781TIP3    H162758   0.348   0.750   2.546  0.2469 -1.0363  1.0330
13781TIP3    H262759   0.223   0.689   2.605 -1.0449  1.6861  1.2351
13782TIP3   OH262760   0.439   0.300   4.319 -0.2390 -0.2620  0.4294
13782TIP3    H162761   0.365   0.278   4.375 -2.2391  0.7554 -1.6599
13782TIP3    H262762   0.416   0.385   4.281  1.7526 -0.1772 -0.7076
13783TIP3   OH262763   4.667   0.412   4.641 -0.0974 -0.0556  0.1538
13783TIP3    H162764   4.719   0.401   4.561 -0.8939  0.4915 -0.4585
13783TIP3    H262765   4.677   0.504   4.664  0.1995 -0.2333  0.7405
13784TIP3   OH262766   2.206   3.340   2.436 -0.4821  0.3570  0.0927
13784TIP3    H162767   2.137   3.300   2.383  0.2250 -0.0716 -0.5264
13784TIP3    H262768   2.287   3.302   2.402  0.2204  2.1803 -0.3947
13785TIP3   OH262769   2.773   4.475  13.969  0.3427 -0.1117  0.4112
13785TIP3    H162770   2.687   4.447  14.001 -0.0436  0.3817 -0.1467
13785TIP3    H262771   2.785   4.427  13.887  0.2960  0.2897  0.1601
13786TIP3   OH262772   1.670   6.602   1.885 -0.5240  0.3224  0.1938
13786TIP3    H162773   1.617   6.541   1.935  0.6093  0.5490  1.7708
13786TIP3    H262774   1.646   6.688   1.920 -0.9228  0.6390 -0.8441
13787TIP3   OH262775   3.662   1.417   5.253  0.1172  0.2912  0.0641
13787TIP3    H162776   3.580   1.419   5.205 -1.0982 -0.9834  1.9711
13787TIP3    H262777   3.648   1.476   5.327  0.4342 -0.9179  1.1061
13788TIP3   OH262778   0.710   3.608  14.932  0.0352  0.0914 -0.1790
13788TIP3    H162779   0.733   3.572  14.846 -0.6615  0.9478 -0.7367
13788TIP3    H262780   0.684   3.531  14.984  3.1294 -0.8390  0.2189
13789TIP3   OH262781   1.524   2.270   6.498 -0.1539 -0.0831 -0.0597
13789TIP3    H162782   1.458   2.329   6.462 -0.9927 -1.0210 -0.0726
13789TIP3    H262783   1.484   2.184   6.495  0.7667 -0.5515  0.6926
13790TIP3   OH262784   4.835   4.838  16.650 -0.0936 -0.1209 -0.6354
13790TIP3    H162785   4.873   4.834  16.737  0.8717  2.5775 -0.8409
13790TIP3    H262786   4.740   4.846  16.665 -0.4297 -3.6461 -0.0451
13791TIP3   OH262787   5.890   6.432  14.081 -0.5903 -0.0559 -0.9135
13791TIP3    H162788   5.929   6.410  13.997  0.4621 -1.3450 -0.1248
13791TIP3    H262789   5.960   6.417  14.145 -1.6209  0.0324  0.2797
13792TIP3   OH262790   2.454   4.033  14.532  0.5533 -0.0281 -0.0017
13792TIP3    H162791   2.415   4.115  14.564 -1.3951 -1.5063  1.6716
13792TIP3    H262792   2.518   4.009  14.598  0.8294 -0.0912 -0.2874
13793TIP3   OH262793   5.938   6.381   4.529  0.1854  0.3623  0.3445
13793TIP3    H162794   5.910   6.319   4.462 -0.9802  1.4642 -0.2257
13793TIP3    H262795   5.952   6.327   4.607 -1.2961 -0.5751  0.0034
13794TIP3   OH262796   4.057   3.144  12.018 -0.1996  0.5495  0.5523
13794TIP3    H162797   4.004   3.222  12.003 -0.2137  0.1428 -1.8353
13794TIP3    H262798   4.147   3.177  12.017 -0.0610  0.3777 -2.5758
13795TIP3   OH262799   3.310   6.735  15.561 -0.5810  0.9125  0.3274
13795TIP3    H162800   3.351   6.650  15.573 -0.4604  0.5689 -2.0795
13795TIP3    H262801   3.383   6.794  15.541 -0.6766  1.5877  1.8559
13796TIP3   OH262802   3.550   4.548   5.100 -0.8879  0.4557  0.0721
13796TIP3    H162803   3.506   4.484   5.156  0.6591 -0.9400 -0.2321
13796TIP3    H262804   3.595   4.606   5.162 -0.2515 -0.2959  0.3469
13797TIP3   OH262805   0.336   1.172  13.935  0.0030  0.6310 -0.0268
13797TIP3    H162806   0.244   1.166  13.910 -0.0212  2.3075 -0.4814
13797TIP3    H262807   0.334   1.202  14.025  0.1223 -0.2529  0.2823
13798TIP3   OH262808   4.626   0.832  11.192  0.1216  0.1336 -0.1099
13798TIP3    H162809   4.636   0.785  11.109  0.6272  0.1832 -0.0763
13798TIP3    H262810   4.542   0.876  11.184 -0.7494 -1.3867  0.1540
13799TIP3   OH262811   1.312   3.960   1.344 -0.8201 -0.3445 -0.0391
13799TIP3    H162812   1.395   3.934   1.383 -0.8149  1.7485  1.4764
13799TIP3    H262813   1.268   4.011   1.412 -2.7248 -0.1854 -1.3094
13800TIP3   OH262814   2.890   3.504   1.070 -0.0886  0.3797  0.2815
13800TIP3    H162815   2.951   3.483   1.141 -0.3404  1.5324  0.8481
13800TIP3    H262816   2.944   3.501   0.991  0.8531  1.9358  0.8344
13801TIP3   OH262817   1.858   4.803   0.398  0.1798  0.0644  0.1780
13801TIP3    H162818   1.868   4.828   0.307 -0.0585  0.3814  0.2365
13801TIP3    H262819   1.789   4.737   0.398 -0.3069  0.5581  0.2009
13802TIP3   OH262820   0.592   5.581  13.818 -0.4614 -0.5268 -0.3527
13802TIP3    H162821   0.638   5.541  13.744  0.5181 -0.4256  0.1760
13802TIP3    H262822   0.635   5.544  13.895  0.1462  1.1433  0.1594
13803TIP3   OH262823   0.584   6.380  11.560  0.5796 -0.1192 -0.0542
13803TIP3    H162824   0.573   6.474  11.544  0.8048 -0.2067 -0.7733
13803TIP3    H262825   0.540   6.339  11.486 -0.9495 -0.6250  1.0924
13804TIP3   OH262826   4.042   2.372  12.694  0.2585  0.1747  0.0291
13804TIP3    H162827   3.962   2.343  12.737  0.5820 -0.2495  0.3551
13804TIP3    H262828   4.080   2.437  12.753  0.2249  0.2824 -0.0652
13805TIP3   OH262829   2.697   0.485  16.399  0.5921  0.3900  0.9961
13805TIP3    H162830   2.695   0.394  16.427  0.3025  0.3565  0.8713
13805TIP3    H262831   2.610   0.501  16.363  0.7850  0.5925  0.6205
13806TIP3   OH262832   5.005   2.688   0.196 -0.1954  0.4634 -0.0753
13806TIP3    H162833   5.013   2.709   0.289 -1.1097 -0.4442  0.2238
13806TIP3    H262834   4.914   2.659   0.185  0.0547  0.0069 -1.1422
13807TIP3   OH262835   1.180   1.286  11.786 -0.6615 -0.0094 -0.0163
13807TIP3    H162836   1.125   1.330  11.721 -1.2036  0.5168  0.7771
13807TIP3    H262837   1.121   1.269  11.859 -0.2738 -1.3923  0.0024
13808TIP3   OH262838   1.701   1.406   1.978 -0.0268 -0.3937  0.9213
13808TIP3    H162839   1.771   1.446   2.029 -0.3186 -0.3678  1.3038
13808TIP3    H262840   1.705   1.450   1.893 -0.0022  0.0746  1.1594
13809TIP3   OH262841   3.077   2.276  13.360  0.3142  0.5254  0.5951
13809TIP3    H162842   3.094   2.252  13.451 -0.5658 -2.3424  0.1048
13809TIP3    H262843   2.981   2.281  13.354  0.2912 -0.7346 -0.4521
13810TIP3   OH262844   1.958   5.999  14.391  0.3196  0.4195  0.4165
13810TIP3    H162845   2.003   5.943  14.454 -3.0987 -0.3986  2.4096
13810TIP3    H262846   1.918   6.068  14.444 -0.2438  1.4547 -1.2751
13811TIP3   OH262847   3.408   0.965   1.415  0.1720  0.1899  0.1594
13811TIP3    H162848   3.386   1.041   1.468 -1.1580  0.2117 -0.4007
13811TIP3    H262849   3.331   0.909   1.420  0.2484 -0.0793 -1.2760
13812TIP3   OH262850   3.839   6.430   4.110  0.2804 -0.5582 -0.3096
13812TIP3    H162851   3.861   6.523   4.111 -1.1485 -0.1687 -1.3160
13812TIP3    H262852   3.871   6.397   4.194  0.7587  0.8600  0.0913
13813TIP3   OH262853   1.322   5.904   2.208  0.1190 -0.9979 -0.0509
13813TIP3    H162854   1.262   5.865   2.144  0.0534  0.6831 -1.0793
13813TIP3    H262855   1.376   5.831   2.238  0.2549 -1.8413 -2.1647
13814TIP3   OH262856   0.412   3.109  11.016 -0.3513 -0.0056  0.0067
13814TIP3    H162857   0.359   3.074  10.944  1.4091 -0.4909 -1.1144
13814TIP3    H262858   0.357   3.176  11.055 -1.9403 -0.7451 -0.8455
13815TIP3   OH262859   5.351   4.562   4.419 -0.4801  0.0972 -0.5330
13815TIP3    H162860   5.271   4.513   4.437  0.4247 -2.0202 -1.8155
13815TIP3    H262861   5.421   4.507   4.454  0.5191  1.1050 -0.8844
13816TIP3   OH262862   1.278   2.929  15.527 -0.0544  0.1627 -0.1491
13816TIP3    H162863   1.327   2.879  15.592  0.2192  0.6396  0.0189
13816TIP3    H262864   1.339   2.997  15.498 -0.2122  0.0300 -0.8186
13817TIP3   OH262865   2.712   0.171  15.006 -0.4993  0.3765  0.5055
13817TIP3    H162866   2.639   0.134  14.956 -0.3016 -0.2972  0.7108
13817TIP3    H262867   2.678   0.253  15.041 -0.2407  1.5921 -1.8596
13818TIP3   OH262868   2.206   1.073   2.256 -0.2349 -0.5159  0.2607
13818TIP3    H162869   2.227   1.127   2.180  0.0186 -2.5814 -1.2243
13818TIP3    H262870   2.253   0.991   2.241  0.5543 -0.6846  3.1336
13819TIP3   OH262871   5.210   2.778  10.756  0.0509  0.1721 -0.8090
13819TIP3    H162872   5.144   2.812  10.817 -0.1155  0.1724 -0.9893
13819TIP3    H262873   5.189   2.819  10.672  0.3866  0.3068 -0.8290
13820TIP3   OH262874   1.739   4.913   0.674  0.3703 -0.3039  0.3468
13820TIP3    H162875   1.711   4.827   0.706  1.7864 -1.2121 -0.7541
13820TIP3    H262876   1.771   4.897   0.585 -0.1620  1.5316 -0.2127
13821TIP3   OH262877   3.372   1.362  16.189  0.4177 -0.1293  0.4494
13821TIP3    H162878   3.457   1.385  16.153  0.5575  0.9730  1.4154
13821TIP3    H262879   3.351   1.435  16.248 -0.8280 -0.7718  0.8261
13822TIP3   OH262880   4.361   5.489   1.990 -0.1368 -0.6048 -0.1570
13822TIP3    H162881   4.405   5.432   1.927 -1.2540  0.7850 -2.3497
13822TIP3    H262882   4.422   5.562   2.004  0.1718 -0.9845  0.5131
13823TIP3   OH262883   3.031   5.585  14.257 -0.3907  0.0893  0.4230
13823TIP3    H162884   2.936   5.576  14.252 -0.3728  0.1372 -0.0538
13823TIP3    H262885   3.055   5.624  14.173  0.2606 -1.6954 -0.2559
13824TIP3   OH262886   1.121   5.640   2.466 -0.0074  0.5121 -0.1157
13824TIP3    H162887   1.032   5.669   2.447 -0.2751 -0.1179  0.1657
13824TIP3    H262888   1.135   5.565   2.409  0.7097  1.2086 -0.8914
13825TIP3   OH262889   6.660   2.026   3.051  0.0686  0.1798 -0.2802
13825TIP3    H162890   6.723   2.095   3.032 -0.5786  0.4208 -1.6615
13825TIP3    H262891   6.713   1.949   3.070  0.8604 -0.0192 -2.8747
13826TIP3   OH262892   1.797   2.546  17.236  0.1285 -0.4709  0.2187
13826TIP3    H162893   1.891   2.541  17.252  0.1232 -1.1016  0.0761
13826TIP3    H262894   1.772   2.633  17.266  0.7535 -0.3103  0.2793
13827TIP3   OH262895   2.396   0.925  13.549 -0.1806 -0.3494  0.2133
13827TIP3    H162896   2.381   0.994  13.485  0.9098 -1.5781 -1.4757
13827TIP3    H262897   2.487   0.938  13.577  0.7576 -2.2042 -1.6784
13828TIP3   OH262898   3.540   0.534   3.993 -0.0814  0.1586  0.5015
13828TIP3    H162899   3.573   0.452   4.029  0.7454  1.0861  1.9214
13828TIP3    H262900   3.616   0.575   3.952 -0.0846  1.0186  1.3351
13829TIP3   OH262901   0.055   6.422   2.754  0.0579  0.0436 -0.5496
13829TIP3    H162902  -0.014   6.386   2.698  0.5616 -0.1372 -1.0648
13829TIP3    H262903   0.075   6.351   2.816 -0.1143  0.0454 -0.4907
13830TIP3   OH262904   5.810   1.217  16.892  0.3326  0.0392  0.5317
13830TIP3    H162905   5.811   1.311  16.872  0.9286  0.2384  1.4242
13830TIP3    H262906   5.900   1.188  16.874  0.1947 -0.3263  0.4269
13831TIP3   OH262907   4.902   6.476  11.221 -0.1639 -0.3610  0.2384
13831TIP3    H162908   4.856   6.525  11.153 -1.9573 -1.1429  0.8198
13831TIP3    H262909   4.926   6.394  11.178 -1.6682 -1.0303  0.6081
13832TIP3   OH262910   4.805   3.632   3.294 -0.4152 -0.5623 -0.5351
13832TIP3    H162911   4.772   3.697   3.357 -1.1390  1.5798 -2.9620
13832TIP3    H262912   4.899   3.626   3.313 -0.4080  0.8932  0.0627
13833TIP3   OH262913   1.004   0.365  13.181  0.1155 -0.3125  0.0910
13833TIP3    H162914   1.052   0.447  13.198 -0.3180 -0.0070 -0.1373
13833TIP3    H262915   1.001   0.322  13.266  0.8546 -0.3718  0.0966
13834TIP3   OH262916   3.148   3.884  12.574  0.5269 -0.4250 -1.1017
13834TIP3    H162917   3.242   3.872  12.562  1.1127  1.2697  1.2185
13834TIP3    H262918   3.139   3.931  12.657 -2.3604 -0.1642 -1.4396
13835TIP3   OH262919   5.819   3.719  14.709  0.1036  0.0375 -0.1183
13835TIP3    H162920   5.848   3.722  14.618  0.3220  0.6791 -0.0341
13835TIP3    H262921   5.899   3.698  14.758  0.3727  1.3854  0.0745
13836TIP3   OH262922   3.280   5.058   3.931 -0.0158 -0.9911 -0.3451
13836TIP3    H162923   3.205   5.019   3.976  0.8672 -2.9279 -0.4381
13836TIP3    H262924   3.297   4.999   3.857  1.9057 -0.9094 -0.0249
13837TIP3   OH262925   4.087   3.481   6.314  0.3137  0.1504  0.4868
13837TIP3    H162926   4.135   3.434   6.381  0.8231 -1.2097 -0.7761
13837TIP3    H262927   4.141   3.473   6.235  0.0899  2.3087  0.0472
13838TIP3   OH262928   1.479   6.144  16.550  0.0734 -0.0881 -0.1808
13838TIP3    H162929   1.545   6.165  16.616 -0.3527  1.0589 -0.1037
13838TIP3    H262930   1.506   6.058  16.517  1.1438 -0.0092  0.4173
13839TIP3   OH262931   1.506   0.493   6.650 -0.2367  1.0013  0.7960
13839TIP3    H162932   1.575   0.446   6.601  1.4331  0.7892  3.1906
13839TIP3    H262933   1.464   0.425   6.702 -0.0776  1.6210  1.7527
13840TIP3   OH262934   0.454   5.466   6.481  0.2301  0.6796  0.0209
13840TIP3    H162935   0.499   5.422   6.554  0.6793  1.3140  0.1246
13840TIP3    H262936   0.401   5.534   6.523 -0.7960 -0.0160 -0.1031
13841TIP3   OH262937   3.219   5.973   2.647  0.2323 -0.1371  0.2277
13841TIP3    H162938   3.188   5.899   2.700 -0.9144  0.1960  0.0430
13841TIP3    H262939   3.167   5.969   2.567  0.7200  0.4106 -0.1262
13842TIP3   OH262940   5.344   1.051  15.987 -0.0625 -0.0018  0.0992
13842TIP3    H162941   5.277   1.049  15.918 -1.6587  0.3794  1.5597
13842TIP3    H262942   5.301   1.095  16.061  1.8279  0.2678  1.1028
13843TIP3   OH262943   4.360   0.252   0.265  0.0680 -0.1383 -0.1839
13843TIP3    H162944   4.313   0.322   0.311 -0.8001 -1.5363  1.1553
13843TIP3    H262945   4.291   0.199   0.224  0.5914 -1.0405  0.0651
13844TIP3   OH262946   4.280   5.312   4.148 -0.3349  0.2800 -0.1007
13844TIP3    H162947   4.300   5.345   4.236 -1.4929  1.1176 -0.1329
13844TIP3    H262948   4.250   5.223   4.161 -1.9973  0.9075  0.5430
13845TIP3   OH262949   2.443   1.971   4.210 -0.0049  0.5099  0.0356
13845TIP3    H162950   2.489   2.041   4.164  1.3606 -0.4715 -0.1371
13845TIP3    H262951   2.444   2.000   4.302 -0.4605  1.2421 -0.1773
13846TIP3   OH262952   1.578   0.593  15.763 -0.2543 -0.7695  0.3449
13846TIP3    H162953   1.615   0.565  15.847  0.5583  0.7248  0.5078
13846TIP3    H262954   1.646   0.572  15.699 -0.1819 -0.3986  0.2963
13847TIP3   OH262955   1.681   2.047   6.225 -0.0448  0.2850  0.0227
13847TIP3    H162956   1.712   1.971   6.275 -1.7627 -0.4782  0.0014
13847TIP3    H262957   1.750   2.065   6.162 -0.0831 -2.0073 -0.7490
13848TIP3   OH262958   3.298   4.700   2.723 -0.3404 -0.0150  0.5402
13848TIP3    H162959   3.266   4.779   2.681  0.8402 -0.1219 -0.6002
13848TIP3    H262960   3.320   4.641   2.651 -1.8477 -1.6826  1.3671
13849TIP3   OH262961   0.007   5.230  15.212  0.0850 -0.0408  0.4956
13849TIP3    H162962   0.058   5.287  15.269  1.4343 -0.9405  0.2571
13849TIP3    H262963  -0.084   5.244  15.237  0.5584  0.5435  1.9587
13850TIP3   OH262964   1.886   1.983  16.286 -0.4039  0.0395 -0.4257
13850TIP3    H162965   1.831   1.966  16.210  0.7353  0.6346 -1.4262
13850TIP3    H262966   1.832   2.037  16.344 -1.2746 -0.3877 -0.8282
13851TIP3   OH262967   2.715   6.546   4.075 -0.2115  0.1950  0.1924
13851TIP3    H162968   2.678   6.459   4.091 -0.4082 -0.0390 -1.4165
13851TIP3    H262969   2.685   6.598   4.149  0.5829 -1.2904  1.6324
13852TIP3   OH262970   4.303   3.518  17.275  0.4340  0.3423 -0.0940
13852TIP3    H162971   4.321   3.456  17.204  0.1817  0.9786 -0.7256
13852TIP3    H262972   4.382   3.516  17.329 -0.0735 -1.5343  0.6788
13853TIP3   OH262973   2.813   6.788   5.932  0.2631  0.6280 -0.0915
13853TIP3    H162974   2.875   6.761   6.000  0.2250 -1.6066 -0.8652
13853TIP3    H262975   2.863   6.781   5.850 -0.3913  0.9437 -0.5297
13854TIP3   OH262976   3.887   0.467   0.606 -0.5225  0.0796 -0.2469
13854TIP3    H162977   3.954   0.495   0.669  0.4250 -0.0723 -1.1603
13854TIP3    H262978   3.806   0.509   0.636 -0.8863 -2.4158  2.9449
13855TIP3   OH262979   6.527   5.186   4.333 -0.1993 -0.1278 -0.4271
13855TIP3    H162980   6.485   5.225   4.257 -1.0785  1.7280  0.9182
13855TIP3    H262981   6.533   5.257   4.397  2.7998 -0.9529  0.3864
13856TIP3   OH262982   3.954   3.193   5.626 -0.1481 -0.1408  0.1827
13856TIP3    H162983   3.864   3.194   5.660  0.0982  1.8218  0.9409
13856TIP3    H262984   3.974   3.101   5.615 -2.0606 -0.6587  0.5357
13857TIP3   OH262985   4.126   3.583  11.416  0.0306 -0.2192  0.5074
13857TIP3    H162986   4.139   3.523  11.490  0.8559 -1.6966 -0.7707
13857TIP3    H262987   4.172   3.541  11.343  0.2673  1.7820 -0.5600
13858TIP3   OH262988   1.175   3.179   2.106 -0.3999  0.1903  0.1717
13858TIP3    H162989   1.237   3.168   2.179  0.8645  1.8220 -0.5784
13858TIP3    H262990   1.142   3.268   2.117  0.8639  0.9887 -1.9708
13859TIP3   OH262991   3.523   2.149  12.941  0.3459 -0.2036  0.2615
13859TIP3    H162992   3.500   2.063  12.975  2.7314 -1.5336 -1.2093
13859TIP3    H262993   3.593   2.180  12.998  1.4373 -0.5538 -0.8360
13860TIP3   OH262994   3.466   3.872  12.557  0.2785  0.4375 -0.4201
13860TIP3    H162995   3.539   3.879  12.496  0.2276  2.4736 -0.3075
13860TIP3    H262996   3.493   3.922  12.634  0.2950 -1.9824  1.2700
13861TIP3   OH262997   4.952   1.720   5.048 -0.2461 -0.2517 -0.0353
13861TIP3    H162998   4.947   1.703   5.142  1.4656  0.5344  0.2312
13861TIP3    H262999   4.943   1.634   5.007 -1.6205 -0.5365  0.7871
13862TIP3   OH263000   0.247   2.800   6.111 -0.5439 -0.3264  0.7381
13862TIP3    H163001   0.289   2.732   6.164 -0.3533  1.1445  2.5876
13862TIP3    H263002   0.320   2.851   6.075 -0.6745 -1.2586 -0.9568
13863TIP3   OH263003   1.859   3.119   1.468  0.0406 -0.9944 -0.4161
13863TIP3    H163004   1.933   3.069   1.432  0.0317 -2.8599  1.8951
13863TIP3    H263005   1.792   3.052   1.485 -0.8326  0.1459  0.7766
13864TIP3   OH263006   0.995   5.813  14.179  0.1481 -0.0630 -0.1868
13864TIP3    H163007   0.916   5.865  14.162  0.2567  0.0126 -0.4678
13864TIP3    H263008   1.066   5.866  14.144  0.2880 -0.2750 -0.2226
13865TIP3   OH263009   1.919   1.560  11.456 -0.3886 -0.5924  0.3951
13865TIP3    H163010   1.844   1.539  11.512 -1.8065  2.2975 -0.2496
13865TIP3    H263011   1.995   1.538  11.509 -1.6780 -0.6205  2.3342
13866TIP3   OH263012   4.979   2.000   2.633 -0.2256 -0.2811  0.8581
13866TIP3    H163013   4.936   2.086   2.635 -0.3007 -0.2649 -0.6380
13866TIP3    H263014   5.054   2.009   2.692  0.5145  1.2404 -0.2566
13867TIP3   OH263015   4.027   0.524  16.602  0.1818  0.8389  0.2250
13867TIP3    H163016   3.960   0.575  16.647 -1.8320 -0.4317 -1.1536
13867TIP3    H263017   4.024   0.438  16.644 -1.2955 -0.1747 -1.8247
13868TIP3   OH263018   3.318   2.812   2.555  0.4459  0.2807  0.1497
13868TIP3    H163019   3.332   2.773   2.469  1.3850 -0.6297  0.6873
13868TIP3    H263020   3.226   2.836   2.557  0.1217 -0.8661 -0.6385
13869TIP3   OH263021   6.351   3.767  13.720 -0.0280 -0.0762 -0.5999
13869TIP3    H163022   6.397   3.832  13.773  2.2227 -0.8449 -1.4834
13869TIP3    H263023   6.410   3.692  13.719 -1.4845 -1.2608 -1.5796
13870TIP3   OH263024   6.046   6.633   5.208  0.1237  0.2209  0.2507
13870TIP3    H163025   6.093   6.611   5.289 -1.6232 -0.4728  1.1323
13870TIP3    H263026   6.086   6.580   5.141  0.3554 -0.6496  1.0588
13871TIP3   OH263027   2.313   3.056  10.867  0.1831  0.1970 -0.2704
13871TIP3    H163028   2.335   2.979  10.918 -0.8452 -0.5135 -0.8644
13871TIP3    H263029   2.220   3.069  10.881  0.2261  0.9962 -0.6388
13872TIP3   OH263030   5.732   4.517  13.662 -0.4291 -0.0268 -0.1086
13872TIP3    H163031   5.682   4.467  13.726 -0.6245 -1.5205 -1.3565
13872TIP3    H263032   5.669   4.538  13.593  0.3647 -0.9745 -1.1685
13873TIP3   OH263033   0.577   3.720   1.695  0.0376  0.4506 -0.3850
13873TIP3    H163034   0.527   3.702   1.775  1.1220  0.5124  0.3220
13873TIP3    H263035   0.621   3.803   1.713 -0.2697  0.8362 -1.3405
13874TIP3   OH263036   5.805   2.183  16.785 -0.2865 -0.0507 -0.1865
13874TIP3    H163037   5.855   2.130  16.846 -1.4903  1.2801  2.0872
13874TIP3    H263038   5.826   2.147  16.699  2.9887 -0.8078  0.7784
13875TIP3   OH263039   1.707   5.695  16.739 -0.1386 -0.5125  0.1645
13875TIP3    H163040   1.686   5.673  16.649  0.0411 -0.7894  0.1890
13875TIP3    H263041   1.750   5.617  16.774 -1.3162 -0.8763  0.8636
13876TIP3   OH263042   2.894   3.131  11.882 -0.2686  0.3397  0.2880
13876TIP3    H163043   2.905   3.168  11.969  1.9965  0.5910 -0.0291
13876TIP3    H263044   2.855   3.045  11.896 -0.5388  0.6445  1.4875
13877TIP3   OH263045   6.283   0.981  13.119  0.3484  0.0107 -0.5489
13877TIP3    H163046   6.260   1.000  13.210  1.2839 -1.9853  0.1630
13877TIP3    H263047   6.336   1.056  13.091  1.4875 -0.1279  1.1239
13878TIP3   OH263048   0.559   3.212  13.040  0.2629  0.1213 -0.4444
13878TIP3    H163049   0.636   3.263  13.016  0.9622 -0.1054  1.1399
13878TIP3    H263050   0.486   3.254  12.995  0.8788  2.2489  0.4122
13879TIP3   OH263051   4.930   6.725  16.078 -0.3417  0.3071  0.5843
13879TIP3    H163052   4.940   6.817  16.053  0.4195  0.3721  1.0980
13879TIP3    H263053   4.880   6.686  16.007 -0.0284  0.9533  0.0009
13880TIP3   OH263054   6.291   0.061  14.881 -0.0436 -0.3268  0.1630
13880TIP3    H163055   6.257   0.126  14.943  1.2202 -0.4046  0.9636
13880TIP3    H263056   6.325  -0.009  14.936 -0.4234 -1.1949 -0.6743
13881TIP3   OH263057   3.329   4.183   4.183 -0.2723  0.3714  0.1747
13881TIP3    H163058   3.391   4.251   4.156  1.8025 -1.8327 -0.8784
13881TIP3    H263059   3.243   4.226   4.178  0.7410  2.3222 -2.4731
13882TIP3   OH263060   3.190   4.036  10.932  0.0637  0.1642  0.0020
13882TIP3    H163061   3.277   3.998  10.928  0.5542  0.6198  3.2112
13882TIP3    H263062   3.205   4.131  10.928 -0.0304  0.3189  2.0300
13883TIP3   OH263063   5.050   4.677  12.697  0.7465  0.1645  0.1917
13883TIP3    H163064   5.137   4.681  12.737  0.5209  0.3477  0.6677
13883TIP3    H263065   4.990   4.701  12.767  0.5259  3.2714 -0.9043
13884TIP3   OH263066   4.553   2.641  12.226  0.0209 -0.1546 -0.1336
13884TIP3    H163067   4.512   2.715  12.270 -0.5375 -0.4763 -0.1027
13884TIP3    H263068   4.632   2.623  12.277 -0.4204 -0.2864  0.5107
13885TIP3   OH263069   4.462   3.579  16.874 -0.3174  0.8047  0.7198
13885TIP3    H163070   4.505   3.560  16.957  1.6295  1.0609 -0.1876
13885TIP3    H263071   4.509   3.654  16.838 -0.9243  0.5291 -0.7416
13886TIP3   OH263072   4.507   2.132  14.666 -0.7714  0.3979  0.6371
13886TIP3    H163073   4.421   2.154  14.629 -1.0676 -0.4430  0.8021
13886TIP3    H263074   4.487   2.071  14.737 -0.0889  0.7923  1.1775
13887TIP3   OH263075   5.470   1.260  12.198 -0.5499  0.6387  0.2147
13887TIP3    H163076   5.491   1.193  12.263  0.4353  0.9092  0.1944
13887TIP3    H263077   5.493   1.343  12.241  0.2175  0.8102 -0.4971
13888TIP3   OH263078   0.814   4.890   0.394 -0.3661  0.7403 -0.0654
13888TIP3    H163079   0.753   4.819   0.374 -1.2869  1.4891  0.0324
13888TIP3    H263080   0.799   4.954   0.324  1.5073  0.2250 -1.0174
13889TIP3   OH263081   5.959   1.933   5.944 -0.3552  0.0252 -0.0333
13889TIP3    H163082   5.953   1.878   5.866 -0.4076 -0.4528  0.2984
13889TIP3    H263083   5.930   1.876   6.015  3.9297 -1.1487  1.1063
13890TIP3   OH263084   3.655   1.710  13.439  0.4408 -0.1882  0.5863
13890TIP3    H163085   3.593   1.705  13.366  0.0336 -0.4268  0.9389
13890TIP3    H263086   3.657   1.802  13.463 -1.3403 -0.4462  1.8750
13891TIP3   OH263087   5.402   0.206  15.557  0.0907  0.2374  0.4871
13891TIP3    H163088   5.346   0.266  15.606 -0.8941  0.3473 -0.7262
13891TIP3    H263089   5.439   0.259  15.486  0.4237 -0.2281  0.3051
13892TIP3   OH263090   3.344   5.992   3.550 -0.3860  0.3426 -0.2715
13892TIP3    H163091   3.396   6.072   3.540  0.7872 -0.3545 -0.0228
13892TIP3    H263092   3.361   5.964   3.640 -1.1295  0.0440 -0.2222
13893TIP3   OH263093   0.453   1.640  12.748  0.3055 -0.3084 -0.2730
13893TIP3    H163094   0.413   1.640  12.661 -0.4810 -0.6065  0.0744
13893TIP3    H263095   0.385   1.604  12.805  1.6265 -2.3987  0.0861
13894TIP3   OH263096   0.731   4.350  11.544  0.3866  0.4845 -0.0176
13894TIP3    H163097   0.674   4.428  11.543 -0.2730  0.0176  0.2814
13894TIP3    H263098   0.754   4.337  11.452 -1.0403 -0.0533 -0.3275
13895TIP3   OH263099   2.658   2.261   4.452  0.4380 -0.2180 -0.8718
13895TIP3    H163100   2.658   2.284   4.359  0.3818  0.0813 -0.7991
13895TIP3    H263101   2.664   2.345   4.497 -2.2030 -0.1391 -0.5297
13896TIP3   OH263102   2.948   3.801  11.535 -0.2745 -0.1794  0.5153
13896TIP3    H163103   2.947   3.706  11.533 -1.3686 -0.1690  0.2309
13896TIP3    H263104   2.953   3.823  11.628  4.5539 -0.4809  0.5744
13897TIP3   OH263105   1.715   3.155  13.851 -0.4637 -0.2704 -0.1059
13897TIP3    H163106   1.695   3.111  13.934 -0.2959  0.1707  0.1720
13897TIP3    H263107   1.633   3.198  13.827 -0.3975 -0.0510  0.0515
13898TIP3   OH263108   0.304   3.092  14.673 -0.3655 -0.3144 -0.3651
13898TIP3    H163109   0.328   3.000  14.683 -0.3139 -0.6657 -2.8723
13898TIP3    H263110   0.364   3.124  14.605 -3.0844  0.3669 -2.6384
13899TIP3   OH263111   4.180   4.304  13.975  0.0393  0.0907 -1.0033
13899TIP3    H163112   4.236   4.230  14.001  1.8856  1.9411  0.6857
13899TIP3    H263113   4.096   4.286  14.017 -0.4818 -2.2768 -2.8039
13900TIP3   OH263114   5.737   2.909   0.222  0.3425 -0.1224 -0.5160
13900TIP3    H163115   5.738   2.815   0.240  1.1359  0.0671  0.5418
13900TIP3    H263116   5.830   2.933   0.217  0.1475  0.6817 -0.3831
13901TIP3   OH263117   3.014   0.883   4.900 -0.3404 -0.1491 -0.6303
13901TIP3    H163118   3.060   0.858   4.980 -0.5964 -1.1686 -0.7889
13901TIP3    H263119   3.059   0.962   4.871  0.2614 -0.2082  0.0912
13902TIP3   OH263120   4.287   3.532  10.724 -0.7167  0.0562 -0.0582
13902TIP3    H163121   4.309   3.474  10.797 -0.7638 -0.0531 -0.1296
13902TIP3    H263122   4.281   3.473  10.649 -3.0737 -0.2214  0.2789
13903TIP3   OH263123   0.239   2.896  16.817  0.7136  0.3977 -0.0637
13903TIP3    H163124   0.311   2.855  16.865  1.0266  1.5819  0.5338
13903TIP3    H263125   0.278   2.976  16.780 -0.3263  1.1312  0.3912
13904TIP3   OH263126   5.174   4.049   1.105  0.1052  0.2768 -0.3983
13904TIP3    H163127   5.131   4.047   1.019  0.2652  3.5576 -0.6687
13904TIP3    H263128   5.266   4.034   1.085  0.0100  0.0007 -0.6541
13905TIP3   OH263129   3.457   1.556   7.038  0.0344  0.0088  0.2767
13905TIP3    H163130   3.466   1.631   7.097  0.5520  0.3833 -0.2683
13905TIP3    H263131   3.539   1.554   6.988 -0.4807 -0.1529 -0.5925
13906TIP3   OH263132   6.096   5.720   5.517 -0.3625  0.5474  0.1681
13906TIP3    H163133   6.143   5.739   5.436 -0.3814  1.5711  0.3921
13906TIP3    H263134   6.095   5.802   5.565  1.1944 -0.4315  2.0212
13907TIP3   OH263135   6.088   1.471   3.548 -0.1539  0.4286  0.2476
13907TIP3    H163136   6.033   1.548   3.566  1.2600  1.0341  2.4299
13907TIP3    H263137   6.119   1.444   3.634  1.6771 -0.8715 -0.7611
13908TIP3   OH263138   3.696   3.998   1.567  0.1851 -0.5089  0.1661
13908TIP3    H163139   3.631   3.932   1.591  0.4904 -1.0629 -0.4973
13908TIP3    H263140   3.645   4.078   1.553 -0.1759 -0.5696  1.0698
13909TIP3   OH263141   3.056   0.350   0.711  0.0155 -0.2535  0.2570
13909TIP3    H163142   3.089   0.385   0.794  0.2135 -0.3163  0.2050
13909TIP3    H263143   3.047   0.256   0.727 -2.5995  0.0585  1.1194
13910TIP3   OH263144   2.514   5.595  12.371 -0.6251 -0.6460 -0.3603
13910TIP3    H163145   2.474   5.674  12.334 -0.6720 -0.5264 -0.0541
13910TIP3    H263146   2.477   5.523  12.319 -3.2244 -0.7826  1.4978
13911TIP3   OH263147   1.059   5.112   1.261 -0.7922  0.3875  0.1077
13911TIP3    H163148   0.978   5.158   1.237  0.1876  2.6976  0.9251
13911TIP3    H263149   1.098   5.087   1.177 -2.5003 -1.1694 -0.2969
13912TIP3   OH263150   0.002   0.911   2.010 -0.0412  0.6020  0.2486
13912TIP3    H163151   0.059   0.844   2.047  0.2015  1.4982  1.5599
13912TIP3    H263152  -0.011   0.884   1.919  0.6458 -0.8111  0.5443
13913TIP3   OH263153   5.702   2.163  11.838 -0.1233  0.1247  0.3470
13913TIP3    H163154   5.711   2.068  11.843 -0.3115  0.1232  0.6485
13913TIP3    H263155   5.790   2.197  11.854 -0.0575  0.0035  0.2434
13914TIP3   OH263156   0.788   0.034  12.607  0.0754  0.4967 -0.1166
13914TIP3    H163157   0.848  -0.002  12.541  0.4400  0.9664 -0.0456
13914TIP3    H263158   0.708   0.053  12.558  0.1950  0.4361 -0.3385
13915TIP3   OH263159   5.070   0.595  15.288  0.1774 -0.1279 -0.2899
13915TIP3    H163160   5.042   0.580  15.198 -0.2822  2.4330 -0.6462
13915TIP3    H263161   5.072   0.690  15.298  1.0276 -0.3120  2.1690
13916TIP3   OH263162   6.186   0.092  16.314  0.2293 -0.4940  0.2826
13916TIP3    H163163   6.097   0.067  16.341  0.4360 -1.4416  0.0970
13916TIP3    H263164   6.212   0.159  16.377 -0.9670  0.4799 -0.2084
13917TIP3   OH263165   6.249   4.127   4.384  0.2716  0.0434 -0.1113
13917TIP3    H163166   6.241   4.204   4.441  0.0147 -1.2043  1.5995
13917TIP3    H263167   6.165   4.124   4.338  0.2854  0.7826 -0.2030
13918TIP3   OH263168   1.038   0.647   5.527  0.4128  0.8794  0.2919
13918TIP3    H163169   0.944   0.660   5.523  0.5536  2.6318  1.6768
13918TIP3    H263170   1.049   0.552   5.522 -1.5158  0.5420  1.3907
13919TIP3   OH263171   4.435   3.742  15.370  0.1983 -0.4919 -0.7576
13919TIP3    H163172   4.393   3.673  15.422  0.8916 -0.2602  0.1457
13919TIP3    H263173   4.392   3.823  15.398  0.2140 -0.4220 -0.9353
13920TIP3   OH263174   3.752   4.756  13.495 -0.2370  0.7912  0.2285
13920TIP3    H163175   3.736   4.690  13.562 -1.2631 -1.4452 -2.0490
13920TIP3    H263176   3.669   4.762  13.446  0.8095  1.3979 -1.5776
13921TIP3   OH263177   1.306   6.222  11.249 -0.6258 -0.0921  0.5833
13921TIP3    H163178   1.326   6.258  11.163 -1.4120  0.0218  0.4338
13921TIP3    H263179   1.345   6.283  11.311  1.0499 -0.8504  0.3135
13922TIP3   OH263180   4.928   0.141   1.321 -0.1413  0.3691  0.3983
13922TIP3    H163181   4.944   0.209   1.256 -1.3201  2.6449  2.3367
13922TIP3    H263182   4.996   0.153   1.387 -0.6124 -0.0585  0.9769
13923TIP3   OH263183   4.843   0.186  17.014 -0.1560 -0.0333 -0.3923
13923TIP3    H163184   4.814   0.277  17.010 -0.8780 -0.2727 -0.7645
13923TIP3    H263185   4.865   0.172  17.106 -0.9616  0.2446 -0.1464
13924TIP3   OH263186   0.861   5.573   4.249 -0.6142  0.0618 -0.0135
13924TIP3    H163187   0.897   5.489   4.277  1.5540  0.8835 -0.1657
13924TIP3    H263188   0.817   5.554   4.166  2.2892 -0.5017 -1.5430
13925TIP3   OH263189   1.532   0.821   2.904 -0.7250  0.0152  0.3647
13925TIP3    H163190   1.524   0.852   2.994 -2.7060  0.5012  0.0669
13925TIP3    H263191   1.512   0.727   2.909 -1.1042  0.0962  0.4097
13926TIP3   OH263192   0.052   1.657  13.264 -0.1661  0.9650 -0.0971
13926TIP3    H163193  -0.009   1.689  13.198 -0.1979 -1.4014 -1.3366
13926TIP3    H263194   0.003   1.658  13.346 -1.7404 -0.3709 -0.9666
13927TIP3   OH263195   1.182   4.247  13.905 -0.1093 -0.0398  0.1924
13927TIP3    H163196   1.148   4.193  13.976  0.7657 -1.0465 -0.1334
13927TIP3    H263197   1.273   4.265  13.929  0.2626 -0.5713 -0.7558
13928TIP3   OH263198   0.857   0.327   0.092  0.6193 -0.2343 -0.0899
13928TIP3    H163199   0.781   0.356   0.042  1.3503  3.2245  0.5390
13928TIP3    H263200   0.828   0.328   0.183  0.9095 -0.7459  0.0114
13929TIP3   OH263201   5.274   4.508   0.218  0.2936  0.4745 -0.2857
13929TIP3    H163202   5.326   4.587   0.236  2.2517 -1.0477  1.2281
13929TIP3    H263203   5.183   4.536   0.231  0.8097  2.7640 -1.0722
13930TIP3   OH263204   5.792   0.099  14.560  0.2671 -0.1988 -0.0285
13930TIP3    H163205   5.792   0.174  14.619 -0.1784 -1.0868  1.1335
13930TIP3    H263206   5.855   0.123  14.491 -0.7404  1.7247 -0.3591
13931TIP3   OH263207   1.721   4.364  13.964 -0.3728  0.0872 -0.2848
13931TIP3    H163208   1.788   4.299  13.946 -1.7133 -1.1527 -1.0739
13931TIP3    H263209   1.686   4.388  13.877 -2.6033 -1.1787  0.1822
13932TIP3   OH263210   4.424   5.465  13.202  0.4561  0.6321 -0.1744
13932TIP3    H163211   4.369   5.508  13.267  1.7306  1.5635  0.3252
13932TIP3    H263212   4.367   5.400  13.161 -0.5537  0.4834  1.4054
13933TIP3   OH263213   0.067   1.208   0.436 -0.1563 -0.2398 -0.0833
13933TIP3    H163214   0.126   1.245   0.371  0.0777 -0.8757 -0.2376
13933TIP3    H263215  -0.010   1.265   0.433  0.3118  0.4040 -0.1013
13934TIP3   OH263216   0.526   5.628   3.080  0.1328  0.9972 -0.5144
13934TIP3    H163217   0.437   5.623   3.115 -0.3362  1.7589 -1.5307
13934TIP3    H263218   0.526   5.707   3.026  0.7133 -0.2334 -2.4489
13935TIP3   OH263219   1.040   4.229   4.858  0.4176  0.7869  0.1927
13935TIP3    H163220   1.061   4.312   4.900  1.0057  0.4052  0.6717
13935TIP3    H263221   1.016   4.253   4.768  2.0183  1.3493 -0.1084
13936TIP3   OH263222   0.090   0.340   4.002  0.1135 -0.4807 -0.3080
13936TIP3    H163223   0.149   0.291   3.945  0.1136 -0.8033 -0.0336
13936TIP3    H263224   0.017   0.281   4.018  0.5047 -0.7229  0.6960
13937TIP3   OH263225   1.353   6.189   0.807  0.3363 -0.1731 -0.6163
13937TIP3    H163226   1.331   6.148   0.891 -0.0306  1.7451  0.2820
13937TIP3    H263227   1.311   6.134   0.741 -0.3696 -1.0565  0.5405
13938TIP3   OH263228   5.850   4.657  11.111  0.0642  0.0789  0.3285
13938TIP3    H163229   5.942   4.650  11.136  0.0468 -2.1995  0.0092
13938TIP3    H263230   5.802   4.660  11.194  0.4465  2.6332  0.5071
13939TIP3   OH263231   4.518   2.554   2.642  0.1480  0.3880  0.0421
13939TIP3    H163232   4.581   2.579   2.709  1.0186 -0.0398 -0.5972
13939TIP3    H263233   4.470   2.480   2.681  0.9374 -0.1381  0.0517
13940TIP3   OH263234   1.648   1.947  15.273 -0.0431 -0.3828 -0.3731
13940TIP3    H163235   1.692   1.863  15.259  0.0987 -0.0445 -2.3039
13940TIP3    H263236   1.579   1.928  15.337  1.4208 -1.4241  0.9590
13941TIP3   OH263237   5.789   0.067  15.762 -0.2960  0.8164 -0.2806
13941TIP3    H163238   5.739   0.059  15.680 -0.6879  3.5083 -0.3862
13941TIP3    H263239   5.826  -0.020  15.775 -1.5784 -0.1507 -2.4387
13942TIP3   OH263240   0.800   4.054  15.740 -0.5031  0.4019  0.1338
13942TIP3    H163241   0.722   4.000  15.747 -0.3299 -0.0193 -1.0673
13942TIP3    H263242   0.769   4.136  15.702 -0.3732  0.2407 -0.3283
13943TIP3   OH263243   2.005   6.624  14.381  0.4250 -0.1860 -0.1884
13943TIP3    H163244   1.914   6.592  14.380  0.1497  0.5583  0.2095
13943TIP3    H263245   2.047   6.573  14.450 -0.1374  0.6159  0.7782
13944TIP3   OH263246   6.098   3.870   0.223  0.0501  0.2059  0.6044
13944TIP3    H163247   6.139   3.808   0.162 -0.4848  1.6059 -1.3030
13944TIP3    H263248   6.051   3.814   0.285 -1.6908 -1.4097 -1.9191
13945TIP3   OH263249   0.263   1.290  17.164  0.0527  0.0153 -0.7051
13945TIP3    H163250   0.252   1.196  17.178  2.1555 -0.5268 -2.1439
13945TIP3    H263251   0.226   1.331  17.242 -0.7551 -2.0057  0.0346
13946TIP3   OH263252   2.146   1.573   4.981 -0.3832 -0.0548  0.5954
13946TIP3    H163253   2.172   1.664   4.999 -1.0657  0.1078  0.7869
13946TIP3    H263254   2.219   1.537   4.931 -1.3268  1.4846 -2.1221
13947TIP3   OH263255   2.446   1.492   2.586  0.3142 -0.2261 -0.1605
13947TIP3    H163256   2.405   1.578   2.575 -1.0265 -0.4905  2.1894
13947TIP3    H263257   2.524   1.509   2.639  1.2475 -0.2300 -1.4770
13948TIP3   OH263258   3.817   0.849   4.584 -0.2240  0.2766 -0.3247
13948TIP3    H163259   3.846   0.832   4.673 -1.1178 -0.7283 -0.1904
13948TIP3    H263260   3.849   0.937   4.564  3.7124 -1.0178 -0.5862
13949TIP3   OH263261   0.013   5.760   6.651  0.5269 -0.4650  0.2892
13949TIP3    H163262  -0.028   5.759   6.565  1.3581  0.6486 -0.1611
13949TIP3    H263263   0.044   5.850   6.661  1.6411 -0.9195  1.1705
13950TIP3   OH263264   2.983   1.044  16.320  0.1412 -0.1937 -0.3560
13950TIP3    H163265   2.939   1.000  16.247  2.2301 -0.6791 -1.3823
13950TIP3    H263266   3.063   1.079  16.282 -1.1468  4.2163  0.5044
13951TIP3   OH263267   3.811   2.165  12.612  0.1567  0.0892 -0.1633
13951TIP3    H163268   3.793   2.141  12.702  0.6607 -0.8928 -0.3089
13951TIP3    H263269   3.758   2.104  12.560  1.8499 -1.1249 -0.5483
13952TIP3   OH263270   0.812   5.067   0.190  0.2525  0.3315  0.0879
13952TIP3    H163271   0.749   5.136   0.212 -0.1516  0.0868 -0.2921
13952TIP3    H263272   0.824   5.076   0.095  0.6365  0.2459  0.1294
13953TIP3   OH263273   0.379   5.144   3.796  0.2248 -0.2338 -0.3220
13953TIP3    H163274   0.290   5.180   3.795  0.0794 -0.5488  0.6106
13953TIP3    H263275   0.435   5.219   3.778 -0.1229  0.3101  0.7640
13954TIP3   OH263276   2.677   5.623  15.416 -0.3246 -0.2053  0.3137
13954TIP3    H163277   2.599   5.606  15.468 -0.3729 -2.5863 -0.4243
13954TIP3    H263278   2.734   5.547  15.432 -0.3974 -1.1532 -3.1134
13955TIP3   OH263279   1.345   3.006  11.443 -0.6877  0.0498  0.7130
13955TIP3    H163280   1.297   3.056  11.376 -1.5908 -0.7027  0.7755
13955TIP3    H263281   1.394   2.941  11.394 -0.9895 -0.2084  0.7543
13956TIP3   OH263282   1.378   3.654   3.336  0.2770 -0.4544  0.1079
13956TIP3    H163283   1.429   3.633   3.414 -1.9118  0.4742  1.8969
13956TIP3    H263284   1.309   3.588   3.334 -0.0538 -0.1025 -0.7185
13957TIP3   OH263285   0.862   1.958  16.527 -0.5197 -0.4264 -0.1071
13957TIP3    H163286   0.930   1.910  16.573 -1.0983 -1.0335  0.1420
13957TIP3    H263287   0.817   2.009  16.595  1.3826  2.1681 -0.6354
13958TIP3   OH263288   0.707   0.919  11.695  0.1819  0.4446 -0.0448
13958TIP3    H163289   0.762   0.969  11.755  0.9275 -2.7622  2.1791
13958TIP3    H263290   0.618   0.948  11.715  0.5125  0.2546  1.8940
13959TIP3   OH263291   0.647   6.709   0.107  0.1559 -0.4050  0.5675
13959TIP3    H163292   0.571   6.764   0.091 -0.1594 -0.9336  0.2289
13959TIP3    H263293   0.716   6.770   0.133 -0.2545  0.1209  0.4287
13960TIP3   OH263294   3.134   5.802   1.077  0.0971 -0.1311 -0.2161
13960TIP3    H163295   3.057   5.856   1.060  0.9009  0.6036 -1.7516
13960TIP3    H263296   3.177   5.793   0.992  2.2887  0.3749  0.7442
13961TIP3   OH263297   5.127   5.323  15.880 -0.0546 -0.6284 -0.3792
13961TIP3    H163298   5.174   5.307  15.798  0.5813  0.7269 -0.3177
13961TIP3    H263299   5.035   5.314  15.857  0.1452 -0.9253 -1.0904
13962TIP3   OH263300   5.500   3.012   6.312 -0.2793  0.2720  0.0419
13962TIP3    H163301   5.566   2.943   6.302 -1.7814 -1.4893  1.5403
13962TIP3    H263302   5.534   3.084   6.259  1.6943 -1.3567 -1.1116
13963TIP3   OH263303   4.575   1.593   4.376 -0.6348  0.3768 -0.2903
13963TIP3    H163304   4.559   1.528   4.308 -1.6242  0.4038 -0.0922
13963TIP3    H263305   4.640   1.652   4.337 -1.2494  0.4409 -1.2491
13964TIP3   OH263306   4.352   1.351  12.286 -0.3111 -0.3268  0.1929
13964TIP3    H163307   4.369   1.377  12.195  2.6545  2.0994  1.2633
13964TIP3    H263308   4.332   1.257  12.281 -1.0517 -0.1111 -2.9839
13965TIP3   OH263309   4.080   5.044  15.860  0.2575 -0.4902  0.3946
13965TIP3    H163310   4.081   4.976  15.793  0.9378 -0.6353  0.5373
13965TIP3    H263311   4.169   5.080  15.858  0.0197  0.1159  0.5982
13966TIP3   OH263312   4.973   3.239  11.238  0.0647  0.1004  0.1557
13966TIP3    H163313   5.001   3.300  11.306 -0.4166  0.8870 -0.3449
13966TIP3    H263314   5.047   3.235  11.177 -0.8137  2.1843 -1.1709
13967TIP3   OH263315   3.347   0.450   3.806 -0.2303  0.0432 -0.7091
13967TIP3    H163316   3.379   0.484   3.723 -0.9663  0.2145 -0.9278
13967TIP3    H263317   3.419   0.463   3.867 -0.1163  1.0079 -1.0418
13968TIP3   OH263318   4.222   1.068   4.477  1.1195  0.3563  0.1761
13968TIP3    H163319   4.283   0.997   4.493  1.2975 -0.1071 -2.1664
13968TIP3    H263320   4.180   1.046   4.393  2.2766  3.6791 -1.4864
13969TIP3   OH263321   5.117   5.710  17.211  0.0649 -0.3382  0.0827
13969TIP3    H163322   5.137   5.641  17.274  0.2076 -1.8150 -1.5072
13969TIP3    H263323   5.023   5.726  17.221 -0.3197 -1.9440 -0.5918
13970TIP3   OH263324   2.762   0.000  14.420  0.1956 -0.0134 -0.6402
13970TIP3    H163325   2.691   0.035  14.474 -0.8105  0.4174 -2.1732
13970TIP3    H263326   2.766  -0.093  14.443 -1.3000 -0.1805 -0.9507
13971TIP3   OH263327   5.294   2.229  12.526  1.0334  0.2035  0.3834
13971TIP3    H163328   5.362   2.297  12.530  0.5473  0.6945  0.3505
13971TIP3    H263329   5.338   2.154  12.485  2.2391 -0.2937  2.4182
13972TIP3   OH263330   3.821   6.085   6.070  0.5709 -0.2763  0.1391
13972TIP3    H163331   3.835   6.172   6.108 -0.5036 -0.9168  2.1555
13972TIP3    H263332   3.909   6.053   6.049  1.0298  0.9819  0.0750
13973TIP3   OH263333   2.107   3.519  15.450  0.3899 -0.3635 -0.0437
13973TIP3    H163334   2.141   3.544  15.536 -0.8861  1.6098 -0.0366
13973TIP3    H263335   2.154   3.439  15.428  3.3168  0.9242  0.9515
13974TIP3   OH263336   2.263   4.459  14.329  0.6725  0.0024 -0.3520
13974TIP3    H163337   2.197   4.471  14.260  2.2954  3.4386 -1.5393
13974TIP3    H263338   2.296   4.371  14.314  0.9840  0.5723 -4.1470
13975TIP3   OH263339   3.906   6.717  15.206  0.4598 -0.4386  0.5991
13975TIP3    H163340   3.887   6.728  15.113 -0.4710 -1.2175  0.6761
13975TIP3    H263341   3.894   6.623  15.222  0.5418 -0.3054  1.5210
13976TIP3   OH263342   5.446   3.658   2.950  0.3036  0.3455  0.3975
13976TIP3    H163343   5.438   3.575   2.902  0.9700  1.1728 -1.2098
13976TIP3    H263344   5.534   3.656   2.988 -0.0192 -0.0620  1.1561
13977TIP3   OH263345   0.541   6.270  13.930  0.1656 -0.0410 -0.1326
13977TIP3    H163346   0.459   6.234  13.897  1.6984 -2.8827 -1.2800
13977TIP3    H263347   0.585   6.305  13.853  0.5015  0.4529  0.2769
13978TIP3   OH263348   0.642   1.403  13.034  0.1493 -0.1691  0.2503
13978TIP3    H163349   0.662   1.428  12.944  1.7368  0.0250  0.6322
13978TIP3    H263350   0.593   1.321  13.025  0.6730 -0.3920 -0.7775
13979TIP3   OH263351   2.695   3.862   0.512  0.3718  0.5684  0.2159
13979TIP3    H163352   2.677   3.864   0.418  2.7251  2.9124 -0.2717
13979TIP3    H263353   2.651   3.782   0.542 -0.5756 -0.1930 -2.8102
13980TIP3   OH263354   4.386   0.620   4.809  0.7297 -0.3640 -0.5435
13980TIP3    H163355   4.444   0.616   4.733  0.6304  0.1393 -0.6474
13980TIP3    H263356   4.445   0.622   4.884  0.8693  0.7406 -0.6711
13981TIP3   OH263357   4.898   6.025  12.561  0.1123 -0.0348  0.2071
13981TIP3    H163358   4.864   5.959  12.500 -0.8258 -0.7896  1.5129
13981TIP3    H263359   4.914   6.102  12.506 -0.9869 -0.5977 -0.9472
13982TIP3   OH263360   1.053   2.302  13.043  0.1932 -0.5696 -0.5320
13982TIP3    H163361   1.085   2.224  13.088 -1.2767 -1.9795 -1.8035
13982TIP3    H263362   1.023   2.360  13.113 -0.6936 -2.0828  0.3892
13983TIP3   OH263363   3.268   0.247   4.954  0.1272 -0.0289  0.2335
13983TIP3    H163364   3.354   0.266   4.916  0.6461 -2.2687  0.1216
13983TIP3    H263365   3.208   0.250   4.879  0.0351  1.7491  0.3469
13984TIP3   OH263366   2.554   4.800  15.923  0.1086  0.2482  0.3021
13984TIP3    H163367   2.508   4.719  15.905  1.1317 -0.0941 -0.8879
13984TIP3    H263368   2.639   4.773  15.958  0.3545  0.7952  0.1483
13985TIP3   OH263369   0.569   2.833  12.224  0.5885  0.1272 -0.1868
13985TIP3    H163370   0.483   2.801  12.251  0.4659  0.8699  0.3574
13985TIP3    H263371   0.557   2.862  12.134  0.5294 -0.6951 -0.4519
13986TIP3   OH263372   0.773   1.614  15.482  0.1161 -0.3895  0.0613
13986TIP3    H163373   0.749   1.569  15.563 -0.3241  0.7948  0.5998
13986TIP3    H263374   0.701   1.674  15.465  0.6569  0.0647 -0.6891
13987TIP3   OH263375   1.802   3.766   6.060  0.2221  0.3598 -0.5390
13987TIP3    H163376   1.864   3.735   6.125 -0.9719  0.6345  0.7841
13987TIP3    H263377   1.753   3.836   6.105  0.2681  1.5031 -2.1684
13988TIP3   OH263378   6.659   5.699   6.428  0.4879 -0.3304 -0.6627
13988TIP3    H163379   6.707   5.651   6.361 -0.4047  0.0610 -1.6126
13988TIP3    H263380   6.569   5.667   6.421  0.8547 -2.2589  2.2079
13989TIP3   OH263381   4.141   0.879  15.903 -0.2775  0.0203 -0.4365
13989TIP3    H163382   4.071   0.932  15.942 -0.9146  0.4554 -2.0988
13989TIP3    H263383   4.148   0.803  15.961 -0.9169  0.8109  0.7234
13990TIP3   OH263384   5.123   3.228  17.221 -0.2184  0.5132  0.6824
13990TIP3    H163385   5.089   3.247  17.309  1.2332  0.5580  1.2689
13990TIP3    H263386   5.131   3.314  17.180 -0.2530  0.5533  0.7596
13991TIP3   OH263387   2.334   2.712   0.465  0.5397  0.4116  0.1222
13991TIP3    H163388   2.329   2.617   0.468 -0.3793  0.4612  0.2529
13991TIP3    H263389   2.428   2.731   0.462  0.7282 -0.5448 -1.6307
13992TIP3   OH263390   3.209   1.604  12.765 -0.4605 -0.2901 -0.1187
13992TIP3    H163391   3.267   1.532  12.788  0.0973  0.0929 -0.3184
13992TIP3    H263392   3.206   1.658  12.844  3.7611  2.6107 -1.6145
13993TIP3   OH263393   0.311   2.756  15.509 -0.1048 -0.0330  0.1086
13993TIP3    H163394   0.391   2.708  15.489  0.8416  0.8941  1.4969
13993TIP3    H263395   0.273   2.709  15.584 -0.4720 -0.0263 -0.0696
13994TIP3   OH263396   1.999   4.351   5.334 -0.2076  0.0744 -0.0836
13994TIP3    H163397   1.930   4.390   5.280 -0.3523  0.0951  0.1185
13994TIP3    H263398   2.068   4.417   5.335 -0.0754 -0.0515 -0.5013
13995TIP3   OH263399   1.094   0.444  14.289  0.0350  0.2434 -0.2275
13995TIP3    H163400   1.112   0.536  14.309 -0.9473  0.2854  0.5075
13995TIP3    H263401   1.174   0.398  14.317  0.6324  0.8864 -0.8326
13996TIP3   OH263402   3.402   2.035  15.499  0.1707 -0.4541 -0.2301
13996TIP3    H163403   3.309   2.037  15.521 -0.2027  1.0271 -1.7521
13996TIP3    H263404   3.440   2.108  15.549  0.8873 -1.9618  1.5938
13997TIP3   OH263405   4.762   3.242   1.675  0.3061 -0.0541 -0.3199
13997TIP3    H163406   4.706   3.206   1.606 -0.9114  1.5665 -0.2312
13997TIP3    H263407   4.715   3.223   1.756  0.8729 -0.4207 -0.0759
13998TIP3   OH263408   6.526   5.333   2.217 -0.2872 -0.1837 -0.1954
13998TIP3    H163409   6.489   5.249   2.243  0.6015 -0.2459  0.9546
13998TIP3    H263410   6.594   5.311   2.154 -0.0860 -0.3368  0.0706
13999TIP3   OH263411   6.387   3.073  17.223  0.2972  0.6205  0.5941
13999TIP3    H163412   6.455   3.010  17.201 -0.0117 -0.4847  2.5660
13999TIP3    H263413   6.372   3.061  17.317 -0.4983  2.9491  0.8343
14000TIP3   OH263414   4.951   0.049  12.110  0.5820  0.4698  0.0875
14000TIP3    H163415   5.035   0.065  12.067  0.3876 -0.3641 -0.6335
14000TIP3    H263416   4.946  -0.047  12.118 -0.3525  0.4975 -0.0116
14001TIP3   OH263417   2.390   2.074   2.282 -0.6639 -0.2123  0.3020
14001TIP3    H163418   2.439   2.145   2.242 -0.5815 -0.5357 -0.1811
14001TIP3    H263419   2.384   2.098   2.375 -2.2565  1.3467 -0.1499
14002TIP3   OH263420   0.123   1.208   0.775  1.0715 -0.3324  0.5110
14002TIP3    H163421   0.195   1.187   0.834  2.4593  0.9952 -0.6056
14002TIP3    H263422   0.144   1.297   0.744 -0.5361 -0.3093 -0.5923
14003TIP3   OH263423   6.420   3.751  16.610 -0.0157  0.1514  0.0725
14003TIP3    H163424   6.468   3.825  16.648 -1.1880  2.4069 -2.4693
14003TIP3    H263425   6.362   3.722  16.680  1.7816  0.3868  1.7295
14004TIP3   OH263426   5.415   1.626   0.422  0.0131 -0.2221 -0.5882
14004TIP3    H163427   5.477   1.676   0.475  2.2607 -1.9561 -1.3863
14004TIP3    H263428   5.395   1.549   0.474  1.8508 -1.6954 -1.9421
14005TIP3   OH263429   2.728   6.587   2.734  0.7908 -0.1730 -0.7873
14005TIP3    H163430   2.681   6.668   2.714  2.0072  1.3103  1.8866
14005TIP3    H263431   2.686   6.521   2.679 -1.7013  1.8260 -1.4745
14006TIP3   OH263432   3.541   3.675  11.920 -0.7306 -0.4314 -0.4291
14006TIP3    H163433   3.535   3.704  11.829  1.7988 -0.3455 -0.6549
14006TIP3    H263434   3.510   3.749  11.971 -1.7838 -0.3257 -1.2025
14007TIP3   OH263435   1.653   3.034   2.868  0.1720  0.4766  0.4746
14007TIP3    H163436   1.561   3.019   2.846  1.0405 -0.5379 -3.0833
14007TIP3    H263437   1.657   3.021   2.963 -3.1927 -0.1932  0.6550
14008TIP3   OH263438   4.976   0.552  15.040  0.1961 -0.0226 -0.2271
14008TIP3    H163439   5.036   0.509  14.979  0.7028  1.6620 -1.0066
14008TIP3    H263440   4.890   0.514  15.020  0.2386  0.8681 -2.4762
14009TIP3   OH263441   6.206   2.070  14.383 -0.1119  0.0238 -0.0057
14009TIP3    H163442   6.254   2.012  14.323 -1.9145 -2.3128  0.6246
14009TIP3    H263443   6.162   2.010  14.444 -0.3448  2.1985  2.1331
14010TIP3   OH263444   0.262   0.669  15.086 -0.1708  0.2982 -0.4457
14010TIP3    H163445   0.297   0.716  15.010  0.0763  0.5374 -0.1854
14010TIP3    H263446   0.187   0.722  15.114 -0.1113  0.3435 -0.3722
14011TIP3   OH263447   1.047   5.226  13.286 -0.2300 -0.0400  0.1649
14011TIP3    H163448   1.040   5.262  13.198 -1.5924 -0.3421  0.1315
14011TIP3    H263449   0.975   5.163  13.292  1.4050 -1.9685  0.6026
14012TIP3   OH263450   2.570   1.348  13.989  0.2125  0.1609 -0.3511
14012TIP3    H163451   2.649   1.298  13.967  0.5053  0.4158  0.1108
14012TIP3    H263452   2.564   1.342  14.084 -0.3833  0.0612 -0.3938
14013TIP3   OH263453   2.155   3.069  16.852 -0.4448 -0.2338 -0.2515
14013TIP3    H163454   2.090   3.006  16.824  0.2304 -0.6644 -0.9058
14013TIP3    H263455   2.107   3.133  16.904 -0.8189 -2.3649  2.2032
14014TIP3   OH263456   5.894   5.934   0.173 -0.2242 -0.0507 -0.2305
14014TIP3    H163457   5.964   5.883   0.131  0.0565  0.8273 -0.8788
14014TIP3    H263458   5.864   5.994   0.104 -0.3712  0.8156  0.5646
14015TIP3   OH263459   5.686   5.322  14.068  0.1446  0.7982 -0.0991
14015TIP3    H163460   5.715   5.335  13.978  2.3104  0.2847  0.4836
14015TIP3    H263461   5.641   5.404  14.090 -0.1276  1.0577 -1.5138
14016TIP3   OH263462   4.037   3.719   1.473 -0.2408 -0.0901 -0.9190
14016TIP3    H163463   3.980   3.645   1.495 -0.1328  0.2804  0.8184
14016TIP3    H263464   3.979   3.783   1.431 -0.8708 -0.2201 -0.2779
14017TIP3   OH263465   4.154   5.765  16.950 -0.0292  0.4113  0.1857
14017TIP3    H163466   4.149   5.757  17.045 -2.1022  1.0579  0.1594
14017TIP3    H263467   4.066   5.787  16.922  0.2090 -1.0614 -2.0393
14018TIP3   OH263468   5.522   2.258   3.202  0.1250  0.3090  0.0084
14018TIP3    H163469   5.461   2.198   3.245  1.6058  1.2278  3.7833
14018TIP3    H263470   5.599   2.204   3.183 -0.2815  0.0514 -0.9748
14019TIP3   OH263471   4.677   0.042  13.930  0.3740  0.4345  0.7434
14019TIP3    H163472   4.660   0.024  13.837  0.5746  1.5271  0.4815
14019TIP3    H263473   4.633   0.126  13.946 -2.9400 -1.4081  2.6005
14020TIP3   OH263474   1.680   6.532  15.977 -0.1906 -0.2462  0.1979
14020TIP3    H163475   1.658   6.566  16.064 -1.4131 -1.2842  0.3163
14020TIP3    H263476   1.775   6.517  15.981  0.4634  3.0577  0.1391
14021TIP3   OH263477   0.477   1.294   6.777 -0.2485  0.6764 -0.9614
14021TIP3    H163478   0.426   1.213   6.782  0.1316  0.4967  0.3756
14021TIP3    H263479   0.412   1.364   6.785 -0.5454  0.5140 -1.8333
14022TIP3   OH263480   0.774   1.854   3.437 -0.2895 -0.7933  0.2847
14022TIP3    H163481   0.765   1.831   3.529  1.7038 -0.8869  0.5171
14022TIP3    H263482   0.825   1.936   3.438  1.8301 -2.0021 -0.7046
14023TIP3   OH263483   3.658   4.385   4.288  0.5362  0.3253  0.9081
14023TIP3    H163484   3.648   4.317   4.355  1.8519  0.6424  1.4547
14023TIP3    H263485   3.697   4.459   4.335 -1.4093  1.7187  0.4712
14024TIP3   OH263486   3.495   1.171   3.080 -0.1070  0.6240 -0.2037
14024TIP3    H163487   3.437   1.192   3.007 -1.0381 -0.9125  0.0332
14024TIP3    H263488   3.581   1.157   3.039 -0.1428  1.7702 -0.7102
14025TIP3   OH263489   0.636   2.926  15.854 -0.0129  0.5042 -0.6641
14025TIP3    H163490   0.562   2.981  15.881  1.7333  3.3424 -1.2206
14025TIP3    H263491   0.690   2.920  15.933 -0.3699 -0.8531 -0.4951
14026TIP3   OH263492   3.056   5.001   5.426 -0.3649 -0.3607 -0.1924
14026TIP3    H163493   2.968   5.028   5.401 -0.6450  0.3197  1.3911
14026TIP3    H263494   3.101   5.082   5.449  1.1426 -0.5375 -2.1650
14027TIP3   OH263495   6.227   4.089   0.165 -0.6453 -0.2573 -0.7658
14027TIP3    H163496   6.166   4.022   0.196  0.3094 -1.0411 -0.5493
14027TIP3    H263497   6.283   4.044   0.102 -0.7778  0.6466 -1.5570
14028TIP3   OH263498   4.216   3.728  12.603  0.6455 -0.6430 -0.5219
14028TIP3    H163499   4.169   3.666  12.548 -0.1829  0.4111 -1.0244
14028TIP3    H263500   4.156   3.748  12.675 -0.3935  1.8413 -1.9363
14029TIP3   OH263501   5.906   2.546   1.919  0.2921  0.1750  0.2265
14029TIP3    H163502   5.931   2.492   1.844 -0.9671  0.2716 -0.2779
14029TIP3    H263503   5.955   2.628   1.906 -1.0962  0.8043 -1.3817
14030TIP3   OH263504   5.821   1.490   1.661  0.2644  0.2972 -0.2522
14030TIP3    H163505   5.735   1.510   1.699 -0.3040 -2.7361  0.3222
14030TIP3    H263506   5.846   1.407   1.701  4.4255  1.8895  1.0429
14031TIP3   OH263507   1.834   2.316   5.829 -0.2958  0.0525  0.0325
14031TIP3    H163508   1.785   2.350   5.754 -1.9705 -0.0978  0.9988
14031TIP3    H263509   1.788   2.235   5.852  0.4060 -0.0843  0.9893
14032TIP3   OH263510   6.411   3.679   3.689  0.4398  0.1990  0.1540
14032TIP3    H163511   6.380   3.763   3.724  1.5886  0.5760  0.2939
14032TIP3    H263512   6.420   3.695   3.595 -2.2050 -0.6797 -0.3561
14033TIP3   OH263513   4.538   3.234  12.268  0.0306  0.3512  0.2530
14033TIP3    H163514   4.571   3.312  12.224 -0.4693  0.1787 -0.4492
14033TIP3    H263515   4.610   3.171  12.264  0.6344  0.9492  1.3137
14034TIP3   OH263516   1.744   1.336  15.042 -0.5646 -0.4997 -0.1705
14034TIP3    H163517   1.702   1.419  15.067  2.9082  1.8037 -1.1407
14034TIP3    H263518   1.770   1.296  15.125 -0.3286  0.5790  0.2915
14035TIP3   OH263519   3.250   2.266  12.256 -0.2863 -0.1683 -0.3686
14035TIP3    H163520   3.172   2.222  12.292 -0.1962  0.1930  0.2809
14035TIP3    H263521   3.240   2.357  12.282  2.2252 -0.7285  3.1382
14036TIP3   OH263522   0.899   5.239   0.672  0.2737 -0.4420  0.0091
14036TIP3    H163523   0.941   5.153   0.674 -0.9467 -1.0868 -0.5725
14036TIP3    H263524   0.913   5.271   0.583 -1.9499 -1.4872 -0.7868
14037TIP3   OH263525   0.885   3.433  14.754  0.3928 -0.2721 -0.5428
14037TIP3    H163526   0.943   3.439  14.830 -0.5212  0.8783  0.0991
14037TIP3    H263527   0.826   3.361  14.774 -0.6867  0.8449  0.4919
14038TIP3   OH263528   3.181   5.124   1.870  0.3881  0.3101 -0.5135
14038TIP3    H163529   3.199   5.046   1.818  0.6481  0.5037 -0.7162
14038TIP3    H263530   3.152   5.090   1.955  0.0198 -0.0056 -0.7649
14039TIP3   OH263531   5.497   6.530   3.335 -0.0990 -0.1310 -0.3884
14039TIP3    H163532   5.542   6.588   3.397  1.0763  0.3394 -1.6474
14039TIP3    H263533   5.562   6.510   3.268 -1.2904 -0.7668 -1.4015
14040TIP3   OH263534   1.114   0.758   5.800  0.0640 -0.2989  0.5286
14040TIP3    H163535   1.066   0.751   5.718 -1.6072 -1.5252  1.5333
14040TIP3    H263536   1.142   0.849   5.805  0.4017 -0.2591 -1.4791
14041TIP3   OH263537   5.819   3.687   1.901  0.3780 -0.6127 -0.2300
14041TIP3    H163538   5.816   3.725   1.813  1.4971  0.7376  0.2937
14041TIP3    H263539   5.727   3.688   1.930 -0.0628 -1.4333 -1.5002
14042TIP3   OH263540   5.378   1.884  15.189  0.3010  0.0901  0.5996
14042TIP3    H163541   5.430   1.944  15.135  0.9670 -1.2844 -0.3601
14042TIP3    H263542   5.307   1.937  15.224  0.1907  1.1755 -1.1737
14043TIP3   OH263543   5.582   3.728   4.481 -0.4060 -0.2452  0.2205
14043TIP3    H163544   5.607   3.780   4.405  0.4001 -0.6496  0.2021
14043TIP3    H263545   5.665   3.697   4.518 -0.7764  0.0059  1.3085
14044TIP3   OH263546   2.275   4.747   4.292  0.0503 -0.1593  0.9512
14044TIP3    H163547   2.335   4.676   4.269 -1.0182 -1.2060  1.3259
14044TIP3    H263548   2.306   4.777   4.378  0.5449 -0.1162  0.7631
14045TIP3   OH263549   4.412   6.443  12.916 -0.4632 -0.1555 -0.6553
14045TIP3    H163550   4.371   6.359  12.935 -0.8446  0.3841  1.0714
14045TIP3    H263551   4.358   6.480  12.845 -1.4825 -0.5305 -0.1011
14046TIP3   OH263552   0.341   1.198   6.297 -0.1474 -0.0690 -0.2315
14046TIP3    H163553   0.320   1.229   6.385 -0.0999  0.9121 -0.5576
14046TIP3    H263554   0.435   1.214   6.288 -0.1195 -0.3230 -0.4021
14047TIP3   OH263555   0.389   1.136   1.670 -0.2873 -0.0632  0.4080
14047TIP3    H163556   0.455   1.084   1.715 -1.2128 -2.5424 -0.9165
14047TIP3    H263557   0.318   1.146   1.735  0.2319  0.2849  0.9349
14048TIP3   OH263558   1.667   3.313  10.553 -0.4524 -0.6859 -0.0956
14048TIP3    H163559   1.663   3.407  10.540 -0.6958 -0.6466  0.2579
14048TIP3    H263560   1.760   3.294  10.565 -0.3820 -0.5203 -0.3701
14049TIP3   OH263561   2.557   6.349  12.001  0.0998 -0.1558  0.8212
14049TIP3    H163562   2.579   6.361  11.908  1.7059 -0.4395  1.1408
14049TIP3    H263563   2.473   6.393  12.011 -0.2450 -0.3681 -0.8303
14050TIP3   OH263564   1.737   3.766  15.541  0.1664  0.4298  0.6367
14050TIP3    H163565   1.704   3.843  15.495 -0.4436 -0.1792  0.0368
14050TIP3    H263566   1.762   3.705  15.472  0.0229 -0.1692  1.1015
14051TIP3   OH263567   2.080   0.993  14.384 -0.0177  0.0746  0.6415
14051TIP3    H163568   2.030   0.924  14.427  0.3080 -0.2303  0.5320
14051TIP3    H263569   2.125   1.039  14.455  0.3092 -0.2612  0.6555
14052TIP3   OH263570   2.856   0.724   0.113  0.1014 -0.0724  0.1716
14052TIP3    H163571   2.765   0.708   0.137  1.1704 -2.3821  3.3097
14052TIP3    H263572   2.868   0.818   0.125 -1.6641  0.1331  0.4833
14053TIP3   OH263573   1.305   3.845  16.011 -0.3258 -0.2888  0.3584
14053TIP3    H163574   1.335   3.817  15.924  0.5867  0.9964  0.2330
14053TIP3    H263575   1.315   3.941  16.010  1.8555 -0.3998  2.6404
14054TIP3   OH263576   6.749   6.761   5.830  0.3362  0.3478 -0.7721
14054TIP3    H163577   6.808   6.709   5.884  1.0281  0.1634 -1.6859
14054TIP3    H263578   6.802   6.790   5.757 -0.3069  1.5134 -0.7982
14055TIP3   OH263579   1.248   3.544  12.867 -0.6623  0.1193  0.1565
14055TIP3    H163580   1.237   3.555  12.772 -0.2285  1.2393  0.2096
14055TIP3    H263581   1.328   3.493  12.876 -1.6725 -1.5916 -0.0866
14056TIP3   OH263582   1.966   2.184  12.828 -0.0271 -0.2584  0.1764
14056TIP3    H163583   2.040   2.220  12.878  0.9331 -1.3334 -0.4140
14056TIP3    H263584   1.889   2.205  12.880  0.7684  0.2576  1.1769
14057TIP3   OH263585   0.303   0.264   2.031  0.1632  0.0167  0.2135
14057TIP3    H163586   0.252   0.188   2.058 -0.7582  0.3527 -0.4992
14057TIP3    H263587   0.383   0.227   1.995 -0.5913 -0.6901 -0.8261
14058TIP3   OH263588   1.312   2.833   3.458 -0.2929 -0.3569 -0.4167
14058TIP3    H163589   1.396   2.787   3.452 -0.3112 -0.2811 -1.4406
14058TIP3    H263590   1.260   2.797   3.386 -1.2012 -0.5085  0.2976
14059TIP3   OH263591   3.023   2.771   0.397 -0.2522  0.4449  0.1855
14059TIP3    H163592   2.954   2.824   0.357  0.7567  0.8548 -1.0417
14059TIP3    H263593   3.087   2.834   0.429  0.7358  0.0088 -0.8757
14060TIP3   OH263594   1.624   2.074   3.644  0.6683 -0.7672 -0.1862
14060TIP3    H163595   1.669   2.153   3.676  0.1574  0.1078 -1.5553
14060TIP3    H263596   1.581   2.039   3.722  0.2277  0.7888  0.3194
14061TIP3   OH263597   1.290   5.899  10.648 -0.3794  0.0911 -0.4557
14061TIP3    H163598   1.317   5.978  10.602 -1.4335  0.2471 -0.8344
14061TIP3    H263599   1.365   5.840  10.640 -0.8161 -0.2550 -3.2551
14062TIP3   OH263600   3.098   3.221   4.846 -0.2257 -0.4607 -0.1971
14062TIP3    H163601   3.146   3.267   4.778 -0.8712  0.8019  0.1682
14062TIP3    H263602   3.009   3.256   4.841 -0.4563 -0.8507  0.8239
14063TIP3   OH263603   4.901   2.193   1.502  0.2766  0.0636  0.5294
14063TIP3    H163604   4.854   2.200   1.419  1.0173  0.7291  0.1531
14063TIP3    H263605   4.836   2.162   1.564 -0.2055 -0.7740 -0.3708
14064TIP3   OH263606   0.489   6.485   3.573 -0.0179  0.1511 -0.2803
14064TIP3    H163607   0.562   6.441   3.528 -0.1324  0.5461 -0.8534
14064TIP3    H263608   0.480   6.569   3.529 -0.0804  0.5846  0.5412
14065TIP3   OH263609   2.130   4.521  11.977  0.1174  0.6378  0.0677
14065TIP3    H163610   2.155   4.514  12.069 -0.4096  1.2750  0.2654
14065TIP3    H263611   2.113   4.431  11.950 -1.5845  0.5837  1.1398
14066TIP3   OH263612   3.046   0.067   0.702  0.3201  0.7993  0.0657
14066TIP3    H163613   3.000  -0.012   0.731  1.5676  0.5495  1.4699
14066TIP3    H263614   3.121   0.074   0.761  0.7750  2.4997 -0.6653
14067TIP3   OH263615   6.419   2.771   5.625  0.0505 -0.3041 -0.3368
14067TIP3    H163616   6.500   2.730   5.654 -0.4555 -1.1653 -0.0918
14067TIP3    H263617   6.370   2.786   5.706 -0.6282 -1.1035 -0.5890
14068TIP3   OH263618   1.486   2.040  10.773 -0.5176 -0.0353 -0.1442
14068TIP3    H163619   1.531   1.957  10.792 -1.4975 -0.3452  0.9166
14068TIP3    H263620   1.537   2.106  10.820 -2.0211 -0.5958  2.4240
14069TIP3   OH263621   2.845   1.502   4.766 -0.3325 -0.2664 -0.5092
14069TIP3    H163622   2.924   1.516   4.817 -0.4070 -3.9033  0.8418
14069TIP3    H263623   2.876   1.461   4.685 -0.7782 -4.7749  1.3289
14070TIP3   OH263624   4.303   4.289   1.722  0.3498 -0.0535 -0.2497
14070TIP3    H163625   4.300   4.383   1.739  0.3594  0.2410 -1.7390
14070TIP3    H263626   4.220   4.256   1.756 -1.6607  1.2202 -3.4517
14071TIP3   OH263627   3.789   2.497  16.239 -0.2863 -0.3403 -0.0021
14071TIP3    H163628   3.812   2.514  16.148  0.8064  0.8047  0.4737
14071TIP3    H263629   3.866   2.454  16.276 -1.5515 -3.0138 -0.1566
14072TIP3   OH263630   0.366   3.349  12.895  0.2858  0.4969 -0.5095
14072TIP3    H163631   0.316   3.307  12.965  2.0514  0.1390  0.5837
14072TIP3    H263632   0.311   3.339  12.817 -0.6105 -1.3028  0.3040
14073TIP3   OH263633   4.867   3.003   4.769  0.0154 -0.5368 -0.1518
14073TIP3    H163634   4.932   2.933   4.758 -0.2924 -0.6265 -1.5937
14073TIP3    H263635   4.787   2.957   4.794 -0.0501 -0.6561 -0.5705
14074TIP3   OH263636   1.877   0.920   5.867 -0.3010 -0.1285 -0.0418
14074TIP3    H163637   1.957   0.868   5.868 -0.5026 -0.4735  1.5271
14074TIP3    H263638   1.854   0.930   5.960 -1.6670  0.5919 -0.4254
14075TIP3   OH263639   5.293   6.303   4.564 -0.2005 -0.3216 -0.6592
14075TIP3    H163640   5.209   6.310   4.517  0.4875 -1.4689 -2.1477
14075TIP3    H263641   5.269   6.268   4.650 -1.2382 -0.8088 -1.1194
14076TIP3   OH263642   1.052   0.420   0.654  0.2657  0.1741  0.0208
14076TIP3    H163643   1.071   0.450   0.743  0.2729  0.5320 -0.0981
14076TIP3    H263644   1.134   0.381   0.624 -0.2910 -1.7478  0.8719
14077TIP3   OH263645   1.994   3.276   4.665  0.3714 -0.4483  0.3465
14077TIP3    H163646   2.048   3.232   4.599 -0.7380 -2.6315  0.8294
14077TIP3    H263647   2.034   3.252   4.749  0.9474  1.1836  0.5845
14078TIP3   OH263648   6.599   4.240  11.241  0.4199  0.3349 -0.2434
14078TIP3    H163649   6.516   4.233  11.194 -0.3155  1.1833  0.8669
14078TIP3    H263650   6.574   4.259  11.331  1.7895 -1.3273  0.5415
14079TIP3   OH263651   2.496   5.119  14.085 -0.1672  0.1932 -0.4859
14079TIP3    H163652   2.424   5.113  14.148 -0.5273  1.7356 -0.7182
14079TIP3    H263653   2.457   5.159  14.008  0.7792  0.3727 -0.8802
14080TIP3   OH263654   5.482   6.190   4.416  0.3003  0.1588  0.0633
14080TIP3    H163655   5.451   6.247   4.486 -1.8081 -0.9812  0.1220
14080TIP3    H263656   5.452   6.231   4.335 -1.0021 -0.6735  0.0934
14081TIP3   OH263657   1.212   5.577  10.795 -0.0562 -0.1786 -0.2091
14081TIP3    H163658   1.163   5.518  10.853 -0.2450 -0.5039 -0.6978
14081TIP3    H263659   1.303   5.570  10.825 -0.1106 -0.5515 -0.1283
14082TIP3   OH263660   2.788   6.669   1.262  0.6881 -0.3047  0.0607
14082TIP3    H163661   2.838   6.598   1.300  1.2758  0.2754  0.3916
14082TIP3    H263662   2.845   6.704   1.193  0.5269  0.0337  0.0978
14083TIP3   OH263663   1.571   3.666   3.130 -0.0544  0.3052  0.0282
14083TIP3    H163664   1.571   3.754   3.093  1.1268  0.8516  1.2314
14083TIP3    H263665   1.523   3.675   3.212  0.7012  0.0048  0.5108
14084TIP3   OH263666   4.790   0.676  13.179 -0.2998  0.5025 -0.0396
14084TIP3    H163667   4.756   0.597  13.222  0.4817  0.0005 -0.3230
14084TIP3    H263668   4.824   0.644  13.095  0.4555  1.0658  0.0454
14085TIP3   OH263669   1.108   0.978   1.466  0.4285  0.2810 -0.5460
14085TIP3    H163670   1.096   1.005   1.557  1.1893  0.1246 -0.3935
14085TIP3    H263671   1.039   0.912   1.451  1.0848 -0.6306  0.3083
14086TIP3   OH263672   1.428   5.185   5.446 -0.7889 -0.4087 -0.4846
14086TIP3    H163673   1.402   5.092   5.451 -1.2018 -0.2509  0.7192
14086TIP3    H263674   1.520   5.183   5.422 -0.1804 -1.2506  1.6760
14087TIP3   OH263675   2.945   3.361   3.148  0.0546  0.1733 -0.0590
14087TIP3    H163676   2.877   3.388   3.085  0.2074 -0.4545 -0.5001
14087TIP3    H263677   2.934   3.421   3.222 -0.3925  0.6609 -0.5120
14088TIP3   OH263678   2.749   0.399   3.214  0.0067 -0.0590 -0.0468
14088TIP3    H163679   2.711   0.377   3.300  1.0073 -1.2585  0.1129
14088TIP3    H263680   2.715   0.332   3.155  0.1930  0.1178 -0.3569
14089TIP3   OH263681   6.014   5.448  12.029 -0.1404  0.5750 -0.0337
14089TIP3    H163682   5.956   5.380  11.995  0.3893  0.7796 -1.3921
14089TIP3    H263683   6.023   5.511  11.958  0.9136  1.0764  0.5195
14090TIP3   OH263684   5.544   5.641   4.828 -0.1361 -0.2302 -0.0132
14090TIP3    H163685   5.627   5.643   4.875 -0.3416  0.0111  0.3412
14090TIP3    H263686   5.521   5.733   4.815 -0.2439 -0.2943 -0.2965
14091TIP3   OH263687   4.978   5.813   2.338 -0.4615  0.3203  0.4736
14091TIP3    H163688   5.039   5.815   2.412  1.1608 -2.7245 -0.6213
14091TIP3    H263689   5.032   5.834   2.262 -1.7897  1.9221 -0.0988
14092TIP3   OH263690   2.647   1.098   0.849 -0.2735 -0.2066  0.3219
14092TIP3    H163691   2.679   1.043   0.920  1.6355  0.9801  0.4562
14092TIP3    H263692   2.582   1.155   0.890  0.0103 -0.2708  0.8661
14093TIP3   OH263693   6.509   5.501  14.206 -0.2387 -0.2178 -0.0765
14093TIP3    H163694   6.548   5.415  14.189  0.6307 -0.2075  1.6468
14093TIP3    H263695   6.450   5.487  14.279 -0.0931  0.6512  0.2208
14094TIP3   OH263696   1.931   4.579  15.620 -0.8631  0.4103 -0.2965
14094TIP3    H163697   2.001   4.536  15.669 -1.2246 -0.6296 -0.6717
14094TIP3    H263698   1.970   4.601  15.536 -1.1499 -0.7250 -0.7357
14095TIP3   OH263699   4.161   6.383   1.989 -0.3758 -0.0751  0.0933
14095TIP3    H163700   4.098   6.326   2.032 -0.1080  0.0872  0.7289
14095TIP3    H263701   4.234   6.388   2.051  0.0186  0.1748 -0.3859
14096TIP3   OH263702   5.110   5.894  15.299  0.0973  0.1097 -0.0397
14096TIP3    H163703   5.159   5.861  15.224 -1.5677  0.2399 -1.2169
14096TIP3    H263704   5.166   5.963  15.335  1.0852 -0.2108 -0.8998
14097TIP3   OH263705   3.576   6.256   4.628 -0.2021 -0.4290  0.3843
14097TIP3    H163706   3.661   6.301   4.631 -1.9635  3.5342 -1.6662
14097TIP3    H263707   3.562   6.227   4.718  1.9607  1.6218  1.5034
14098TIP3   OH263708   5.668   0.337   0.991 -0.2154  0.3292  0.3470
14098TIP3    H163709   5.573   0.350   0.986 -0.1188  0.6939 -2.7597
14098TIP3    H263710   5.699   0.353   0.902  3.1417  2.7461  1.7323
14099TIP3   OH263711   1.391   0.405   4.307 -0.1756 -0.2145  0.1789
14099TIP3    H163712   1.378   0.499   4.324  0.8868  0.2433 -1.2749
14099TIP3    H263713   1.484   0.390   4.324  0.2621 -0.3754 -2.0890
14100TIP3   OH263714   4.087   1.522   3.940 -0.5903 -0.4238 -0.0015
14100TIP3    H163715   4.054   1.605   3.974  1.0795  0.0764  0.4726
14100TIP3    H263716   4.100   1.468   4.018  0.1030 -0.4521 -0.1291
14101TIP3   OH263717   3.863   5.602   2.308  0.4172  0.3296  0.2664
14101TIP3    H163718   3.800   5.671   2.331  1.6044  1.5420 -0.0122
14101TIP3    H263719   3.886   5.561   2.391 -0.2402  0.3089  0.4452
14102TIP3   OH263720   0.512   3.975   4.502 -0.2329  0.5921 -0.0333
14102TIP3    H163721   0.483   3.976   4.593 -1.0298 -1.6665 -0.2130
14102TIP3    H263722   0.454   4.037   4.458 -1.0175  0.3786  0.6770
14103TIP3   OH263723   1.193   5.813   3.230 -0.1701  0.1799  0.2082
14103TIP3    H163724   1.212   5.903   3.258 -0.3781  0.6853 -1.1481
14103TIP3    H263725   1.128   5.781   3.292  0.1012  0.8715  0.8672
14104TIP3   OH263726   3.993   0.957   5.794  0.1080  0.6120 -0.3545
14104TIP3    H163727   3.933   0.996   5.858 -0.7568 -0.1539 -0.6663
14104TIP3    H263728   3.935   0.925   5.725  0.7311 -1.4305  0.0057
14105TIP3   OH263729   5.432   5.528  10.517 -0.0801  0.0725  0.4585
14105TIP3    H163730   5.459   5.449  10.470 -1.5524  0.5234 -1.2778
14105TIP3    H263731   5.338   5.516  10.530  0.0437  0.6195  2.1069
14106TIP3   OH263732   5.759   5.699  12.686  0.0945  0.6370 -0.3129
14106TIP3    H163733   5.722   5.617  12.652  0.9474 -0.1544  0.5919
14106TIP3    H263734   5.685   5.745  12.724 -0.1783 -0.3835  0.4352
14107TIP3   OH263735   3.780   3.249   4.272  0.0537  0.1015 -0.2328
14107TIP3    H163736   3.732   3.330   4.292 -0.9534 -1.1109  2.8104
14107TIP3    H263737   3.727   3.205   4.206 -1.5735  0.1504  0.9647
14108TIP3   OH263738   6.469   3.134  14.232 -0.0856 -0.0269 -0.5946
14108TIP3    H163739   6.520   3.214  14.216  0.2050  0.0208  0.4561
14108TIP3    H263740   6.468   3.089  14.148 -1.2053  1.6006 -1.5239
14109TIP3   OH263741   6.787   4.036  15.940 -0.3593  0.1806  0.8302
14109TIP3    H163742   6.734   4.022  15.862 -1.1063  1.6796  1.0267
14109TIP3    H263743   6.799   3.949  15.978 -1.0848 -0.4017 -0.2432
14110TIP3   OH263744   4.858   2.895  16.915 -0.0933 -0.4717  0.1890
14110TIP3    H163745   4.939   2.855  16.881  0.2321  0.3166  0.0078
14110TIP3    H263746   4.831   2.955  16.845  0.0789  0.4929  0.9219
14111TIP3   OH263747   3.132   4.138   1.901  0.5269 -0.0323 -0.1933
14111TIP3    H163748   3.108   4.114   1.991  1.8370 -2.7305 -0.4719
14111TIP3    H263749   3.061   4.103   1.847 -0.8259  2.5314 -0.2482
14112TIP3   OH263750   3.824   2.552   4.721  0.4008  0.3783 -0.3660
14112TIP3    H163751   3.735   2.575   4.694  0.8413  3.2409  0.3101
14112TIP3    H263752   3.869   2.532   4.639 -0.2338  1.3857 -0.9771
14113TIP3   OH263753   1.891   2.119  14.489 -0.6902 -0.0625 -0.2306
14113TIP3    H163754   1.968   2.133  14.544 -1.2999 -0.9866  0.9092
14113TIP3    H263755   1.891   2.193  14.428 -1.1384  2.2648  2.3867
14114TIP3   OH263756   0.095   2.447  15.261 -0.2186  0.5414 -0.4190
14114TIP3    H163757   0.056   2.456  15.174 -0.6689  0.6937 -0.2055
14114TIP3    H263758   0.020   2.433  15.319  0.1824 -1.1188 -0.2576
14115TIP3   OH263759   1.066   1.974  11.720  0.2690 -0.2515 -0.1816
14115TIP3    H163760   1.131   1.907  11.698  0.1616 -0.1963 -0.6603
14115TIP3    H263761   1.029   2.001  11.636 -0.3834 -0.2868  0.0909
14116TIP3   OH263762   1.488   5.767   1.519 -0.0406  0.1117 -0.0591
14116TIP3    H163763   1.483   5.812   1.435  3.0447  0.3244 -0.2365
14116TIP3    H263764   1.522   5.833   1.580 -1.3677 -0.2927  1.1943
14117TIP3   OH263765   4.136   3.312   2.532  0.5378 -0.1092 -0.1599
14117TIP3    H163766   4.130   3.314   2.628  0.9385 -0.7507 -0.1142
14117TIP3    H263767   4.151   3.220   2.511 -0.1908 -0.0823 -0.8864
14118TIP3   OH263768   4.008   1.004   3.286  0.6441 -0.0298  0.8400
14118TIP3    H163769   3.966   1.089   3.298  0.0331 -0.1989  0.0309
14118TIP3    H263770   4.101   1.023   3.279  0.3964  0.7509 -0.7835
14119TIP3   OH263771   0.987   1.183  13.818  0.1629 -0.0510  0.1056
14119TIP3    H163772   0.989   1.270  13.779  0.6793  0.0633  0.3833
14119TIP3    H263773   0.926   1.191  13.891 -0.3172 -0.1027 -0.2845
14120TIP3   OH263774   2.632   0.753  16.659 -0.1947 -0.0726  0.2967
14120TIP3    H163775   2.635   0.848  16.654 -0.9145 -0.0905 -1.4126
14120TIP3    H263776   2.540   0.731  16.641 -0.5660 -1.0418  2.9616
14121TIP3   OH263777   3.882   4.670   1.058  0.4068 -0.0615 -0.1331
14121TIP3    H163778   3.968   4.710   1.067  0.9282 -0.7371 -1.6584
14121TIP3    H263779   3.831   4.734   1.008  0.2631  0.0050  0.0969
14122TIP3   OH263780   0.390   0.727  16.980 -0.2218 -0.8275  0.1100
14122TIP3    H163781   0.384   0.726  17.076  0.1440 -0.2780  0.1428
14122TIP3    H263782   0.483   0.740  16.962 -0.4594  0.4708 -0.3017
14123TIP3   OH263783   6.480   6.271  13.254  0.2854  0.2624 -0.4180
14123TIP3    H163784   6.416   6.336  13.283 -0.1729  0.3248 -1.5244
14123TIP3    H263785   6.435   6.187  13.264 -0.2370  0.3527 -1.8120
14124TIP3   OH263786   1.253   0.022  14.170  0.2270 -0.4699 -0.4262
14124TIP3    H163787   1.319  -0.047  14.178  2.5866  1.4462 -2.0825
14124TIP3    H263788   1.301   0.097  14.135 -2.7342  1.2678 -1.0436
14125TIP3   OH263789   2.056   6.229   4.938 -0.4077 -0.5872 -0.2838
14125TIP3    H163790   2.074   6.147   4.891  0.5085 -0.7786  0.3716
14125TIP3    H263791   2.026   6.290   4.870  1.8936 -0.5318 -1.3200
14126TIP3   OH263792   6.550   3.394   1.457  0.1574  0.0844  0.5632
14126TIP3    H163793   6.642   3.421   1.458  0.1755  0.0181  0.8199
14126TIP3    H263794   6.512   3.441   1.383  0.8152 -1.2786 -0.6941
14127TIP3   OH263795   0.989   6.072   5.408 -0.6148  0.0604  0.1929
14127TIP3    H163796   0.990   5.986   5.450 -1.0472  0.2122  0.5248
14127TIP3    H263797   0.898   6.083   5.378 -0.2133 -0.2368 -1.1832
14128TIP3   OH263798   1.967   4.793  12.316 -0.0040  0.4118 -0.2886
14128TIP3    H163799   1.901   4.768  12.251 -0.1334 -0.2611  0.0964
14128TIP3    H263800   2.011   4.711  12.338  0.0155  0.6270  0.4977
14129TIP3   OH263801   0.391   3.976   2.915  0.3638  0.2891 -0.1361
14129TIP3    H163802   0.317   3.928   2.877  0.3675  1.8722 -2.3623
14129TIP3    H263803   0.353   4.059   2.944  1.2348  1.1704 -1.4203
14130TIP3   OH263804   0.061   5.269  16.384  0.4073  0.3067  0.4219
14130TIP3    H163805   0.002   5.212  16.334 -0.5531  0.2033  1.6103
14130TIP3    H263806   0.126   5.298  16.321  0.2294 -1.1664 -0.4815
14131TIP3   OH263807   1.241   4.885   6.614 -0.1321  0.1705  0.1729
14131TIP3    H163808   1.307   4.887   6.683 -0.4478  0.5523  0.4680
14131TIP3    H263809   1.290   4.860   6.535  0.5989  1.5177  0.1525
14132TIP3   OH263810   4.765   2.494   4.233  0.1463  0.6484 -0.2652
14132TIP3    H163811   4.838   2.545   4.198  0.7115  0.3771  0.4998
14132TIP3    H263812   4.782   2.405   4.204  0.3330  0.5152  0.2622
14133TIP3   OH263813   2.540   3.605  17.222  0.0019 -0.2118 -0.4774
14133TIP3    H163814   2.588   3.595  17.304 -0.6411 -2.3537 -0.3053
14133TIP3    H263815   2.456   3.644  17.249 -0.0207 -0.4544 -0.1901
14134TIP3   OH263816   1.099   0.380   5.512  0.4540 -0.5196 -0.2656
14134TIP3    H163817   1.048   0.300   5.515 -1.1299  0.4685 -0.0212
14134TIP3    H263818   1.180   0.359   5.560 -1.7658 -0.7487  3.8188
14135TIP3   OH263819   2.777   4.487  16.944 -0.2245  0.0367 -0.1944
14135TIP3    H163820   2.867   4.458  16.932 -0.2473 -0.2496  0.3031
14135TIP3    H263821   2.724   4.417  16.906 -0.2305  0.5096 -1.0906
14136TIP3   OH263822   3.058   1.398  17.086 -0.4075  0.1398  0.3039
14136TIP3    H163823   3.131   1.343  17.115 -1.8950 -2.4584 -0.5239
14136TIP3    H263824   3.002   1.406  17.163 -0.2504  0.3609  0.3943
14137TIP3   OH263825   3.066   0.195   4.775  0.5617 -0.0718  0.3775
14137TIP3    H163826   3.085   0.279   4.732  0.2717  0.2024  0.7786
14137TIP3    H263827   2.971   0.190   4.778  0.3447 -2.3254 -3.3753
14138TIP3   OH263828   5.863   0.907  11.719  0.2928 -0.2249  0.4060
14138TIP3    H163829   5.789   0.890  11.661 -0.5936 -0.5219  1.5900
14138TIP3    H263830   5.933   0.853  11.683 -0.5608 -1.2591  0.2390
14139TIP3   OH263831   4.243   6.046  11.394 -0.1281 -0.6324  0.0490
14139TIP3    H163832   4.324   6.090  11.368 -0.0100  0.1429  1.5891
14139TIP3    H263833   4.267   5.996  11.472 -1.0316 -0.7172  0.2847
14140TIP3   OH263834   5.284   1.689   1.615  0.6389  0.3196 -0.2309
14140TIP3    H163835   5.214   1.754   1.607 -0.6951 -1.1418 -0.8808
14140TIP3    H263836   5.344   1.709   1.543 -0.6987 -0.2197 -1.5526
14141TIP3   OH263837   6.739   2.466  13.337 -0.0101  0.2164  0.4793
14141TIP3    H163838   6.793   2.542  13.314  0.2731 -0.5964 -1.8881
14141TIP3    H263839   6.798   2.391  13.327 -1.0589 -0.5399 -0.3590
14142TIP3   OH263840   6.124   5.282   3.754  0.2308  0.0032 -0.6363
14142TIP3    H163841   6.161   5.358   3.710  0.4338  1.0120  1.1573
14142TIP3    H263842   6.076   5.235   3.687  0.7452  1.3021 -1.9520
14143TIP3   OH263843   3.844   6.252   0.889 -0.2977  0.8913  0.0954
14143TIP3    H163844   3.848   6.186   0.820  0.1106 -0.8385  1.6624
14143TIP3    H263845   3.904   6.321   0.861  0.6890 -0.2776 -0.7963
14144TIP3   OH263846   3.477   0.538  14.861  0.0320 -0.1773  0.1409
14144TIP3    H163847   3.427   0.518  14.940 -2.3838  1.6319 -0.8150
14144TIP3    H263848   3.471   0.458  14.808 -1.1821 -0.2880  0.4117
14145TIP3   OH263849   5.963   4.249  12.151 -0.4324  0.1637 -0.6214
14145TIP3    H163850   5.904   4.250  12.076  0.1425 -1.3438 -1.1261
14145TIP3    H263851   6.027   4.317  12.133  0.4205 -0.9802 -2.1345
14146TIP3   OH263852   5.618   5.445   1.835 -0.3374  0.1151  0.2752
14146TIP3    H163853   5.534   5.460   1.878 -0.8131 -2.7976  0.6049
14146TIP3    H263854   5.597   5.389   1.761  1.2350 -0.1092 -0.0374
14147TIP3   OH263855   1.041   5.905   2.149  0.3104 -0.1213 -0.3079
14147TIP3    H163856   1.035   5.813   2.124  2.0775 -0.2264 -0.5007
14147TIP3    H263857   0.967   5.948   2.105 -0.7569 -1.5019  0.1043
14148TIP3   OH263858   4.353   1.101   1.325  0.1900  0.1762 -1.1879
14148TIP3    H163859   4.297   1.066   1.394  1.5514  1.6202  0.7450
14148TIP3    H263860   4.360   1.194   1.345  2.5250  0.2070 -1.8786
14149TIP3   OH263861   2.955   2.933  11.234  0.4396  0.2947 -0.1637
14149TIP3    H163862   2.961   2.965  11.323 -0.0175  0.8235 -0.3215
14149TIP3    H263863   3.043   2.943  11.199  1.2472 -2.1375  0.9627
14150TIP3   OH263864   6.554   3.822   2.436  0.2165  0.4717  0.3208
14150TIP3    H163865   6.628   3.882   2.445  0.5866  0.4066 -1.6950
14150TIP3    H263866   6.571   3.775   2.354 -1.6351 -0.1423  0.2323
14151TIP3   OH263867   0.136   1.019   2.743 -0.0583  0.2749  0.4156
14151TIP3    H163868   0.042   1.039   2.753 -0.0411  0.4450  0.2612
14151TIP3    H263869   0.140   0.965   2.664  0.1716  1.9260 -0.7732
14152TIP3   OH263870   1.738   4.915  12.036  0.0678  0.1071  0.4466
14152TIP3    H163871   1.759   4.972  11.962  1.8114 -0.3487  0.5373
14152TIP3    H263872   1.723   4.829  11.996 -0.1798  0.1238  0.5069
14153TIP3   OH263873   1.177   6.088  16.050  0.2973  0.2050  0.1208
14153TIP3    H163874   1.088   6.071  16.019  0.5086 -1.6874  0.4488
14153TIP3    H263875   1.165   6.132  16.134 -0.3553 -1.0374  0.7006
14154TIP3   OH263876   1.142   0.616   3.716  0.2599 -0.3537  0.2608
14154TIP3    H163877   1.160   0.622   3.810 -1.6109 -0.7608  0.6882
14154TIP3    H263878   1.082   0.542   3.708 -2.9267  2.0834 -0.6658
14155TIP3   OH263879   6.249   6.714   0.243  0.0396  0.2678  0.4509
14155TIP3    H163880   6.180   6.780   0.241  0.1610  0.3778 -0.4210
14155TIP3    H263881   6.330   6.764   0.251  0.0924  0.1955  0.3717
14156TIP3   OH263882   4.459   5.980   5.357  0.2301  0.6094 -0.6749
14156TIP3    H163883   4.426   6.000   5.445 -0.2681  1.4189 -1.0429
14156TIP3    H263884   4.514   6.054   5.334  1.2426 -0.1061 -0.6182
14157TIP3   OH263885   3.810   4.267   4.083 -0.1218  0.4956  0.0742
14157TIP3    H163886   3.850   4.346   4.047 -1.1172  1.4315  0.9614
14157TIP3    H263887   3.737   4.299   4.136  0.0498 -0.9635  1.2533
14158TIP3   OH263888   5.912   4.209   4.888 -0.4916  0.4626 -0.1609
14158TIP3    H163889   5.944   4.269   4.955  0.4503  0.6443 -0.7469
14158TIP3    H263890   5.818   4.207   4.901 -0.3511  0.6865  0.9988
14159TIP3   OH263891   4.414   2.794   1.825 -0.1476  0.9279  0.5020
14159TIP3    H163892   4.404   2.700   1.809 -0.5637  1.0418  0.0739
14159TIP3    H263893   4.460   2.799   1.909 -0.5094  0.3462  0.7412
14160TIP3   OH263894   4.624   5.163   2.307  0.6145 -0.3516  0.0798
14160TIP3    H163895   4.583   5.249   2.311  0.5443 -0.3766 -0.0743
14160TIP3    H263896   4.561   5.104   2.347  0.7792 -0.2886  0.4330
14161TIP3   OH263897   4.829   1.783   3.403  0.5137 -0.5220  0.4249
14161TIP3    H163898   4.865   1.763   3.317  0.5516  2.0761 -0.2740
14161TIP3    H263899   4.748   1.832   3.384  0.5618  0.1684  1.8446
14162TIP3   OH263900   2.168   3.333   3.012 -0.3865 -0.1895 -0.1283
14162TIP3    H163901   2.165   3.332   2.916  0.9764 -1.3772 -0.1950
14162TIP3    H263902   2.149   3.423   3.036 -0.3655  0.2144 -1.5367
14163TIP3   OH263903   0.196   4.732  14.708  0.0279 -0.3977  0.3417
14163TIP3    H163904   0.197   4.686  14.792  2.9557 -0.1440  0.5769
14163TIP3    H263905   0.241   4.673  14.647  0.0059  0.3600 -0.4354
14164TIP3   OH263906   4.378   3.932  14.245  0.0852 -0.4140  0.2151
14164TIP3    H163907   4.290   3.931  14.284 -0.1250 -0.5992 -0.2564
14164TIP3    H263908   4.437   3.949  14.319 -0.4686  1.2161  0.3184
14165TIP3   OH263909   6.208   2.726  11.604 -0.4232  0.9830  0.1815
14165TIP3    H163910   6.210   2.719  11.509 -0.4488 -1.0631  0.2919
14165TIP3    H263911   6.196   2.820  11.621  0.1665  1.4603 -1.7983
14166TIP3   OH263912   1.284   1.279  12.256  0.7696 -0.1946 -0.1206
14166TIP3    H163913   1.353   1.309  12.198  0.7480 -0.7579 -0.4409
14166TIP3    H263914   1.293   1.334  12.335 -0.4176  1.9457 -1.3763
14167TIP3   OH263915   1.117   2.425   0.187 -0.6571  0.1968  0.9199
14167TIP3    H163916   1.068   2.361   0.240  0.6812 -0.4326  1.4328
14167TIP3    H263917   1.138   2.496   0.248  0.0890 -0.0970  1.0163
14168TIP3   OH263918   1.738   2.564   0.528 -0.5180 -0.3608 -0.1767
14168TIP3    H163919   1.817   2.547   0.579 -0.9703 -0.0815  0.6301
14168TIP3    H263920   1.687   2.625   0.582 -0.2939  1.2037 -1.6588
14169TIP3   OH263921   1.017   4.989   1.784 -0.2780  0.1112 -0.1940
14169TIP3    H163922   1.048   4.971   1.696  1.4840 -3.2689  0.9199
14169TIP3    H263923   0.941   5.046   1.772 -0.4107 -0.6045 -3.8877
14170TIP3   OH263924   1.327   6.176   3.672 -0.0691  0.1786 -0.2625
14170TIP3    H163925   1.313   6.269   3.654 -0.5175 -0.1213 -1.6154
14170TIP3    H263926   1.262   6.131   3.617 -0.0456 -0.9248  0.5851
14171TIP3   OH263927   5.543   1.723  11.467  0.0414  0.5909  0.1596
14171TIP3    H163928   5.546   1.675  11.384 -0.7876  1.9719 -0.6931
14171TIP3    H263929   5.603   1.796  11.455  0.8790  0.1164  1.2557
14172TIP3   OH263930   5.654   2.872   4.539  0.1674  0.1475  0.3865
14172TIP3    H163931   5.584   2.908   4.484 -0.3903  1.0697  1.6374
14172TIP3    H263932   5.700   2.949   4.572 -0.5363 -0.2418  2.4779
14173TIP3   OH263933   4.752   2.916  14.803  0.4349 -0.2722 -0.0885
14173TIP3    H163934   4.752   2.830  14.845  0.3854  0.1801  0.8610
14173TIP3    H263935   4.664   2.950  14.817  0.3637 -0.1885 -0.7239
14174TIP3   OH263936   1.352   2.450  12.376  0.0903 -0.0074  0.1006
14174TIP3    H163937   1.311   2.444  12.289 -1.9330  0.1947  0.9971
14174TIP3    H263938   1.353   2.359  12.407  0.1075  0.0214  0.1821
14175TIP3   OH263939   3.246   5.540  11.619 -0.9244 -0.0941  0.6121
14175TIP3    H163940   3.167   5.539  11.673 -0.8157  0.4402  0.7881
14175TIP3    H263941   3.214   5.532  11.529 -1.0408 -2.1179  0.8014
14176TIP3   OH263942   6.074   4.337   2.198  0.3721 -0.8046  0.2092
14176TIP3    H163943   6.125   4.400   2.148  1.2890 -2.7647 -1.4915
14176TIP3    H263944   6.016   4.296   2.134 -2.4819  0.3881  1.8403
14177TIP3   OH263945   0.643   3.312  13.981 -0.1463  0.0413  0.0767
14177TIP3    H163946   0.570   3.371  14.001 -0.3987 -0.6752  1.4187
14177TIP3    H263947   0.681   3.347  13.901 -1.7836  0.6175 -0.5032
14178TIP3   OH263948   2.480   1.110   5.570 -0.3878  0.4655  0.2129
14178TIP3    H163949   2.412   1.090   5.507 -0.1205  1.0392 -0.2697
14178TIP3    H263950   2.497   1.204   5.558  0.7307  0.2583  0.0711
14179TIP3   OH263951   1.887   5.200   3.415 -0.4452 -0.0250 -0.3140
14179TIP3    H163952   1.803   5.229   3.380 -1.2689  0.0795  1.5958
14179TIP3    H263953   1.867   5.117   3.459  0.7954 -0.8055 -1.1493
14180TIP3   OH263954   2.313   6.034  15.559 -0.2228  0.0716  0.2270
14180TIP3    H163955   2.331   5.953  15.605 -0.4891 -0.0486  0.1179
14180TIP3    H263956   2.397   6.058  15.519 -0.5537 -1.1079 -1.2671
14181TIP3   OH263957   2.220   3.941  12.856 -0.0530 -1.2726  0.4764
14181TIP3    H163958   2.251   3.879  12.790 -0.2703 -0.3164 -0.5545
14181TIP3    H263959   2.143   3.981  12.816  0.0386 -0.3982  1.1579
14182TIP3   OH263960   3.597   0.662  11.880  0.5898  0.3496 -0.0666
14182TIP3    H163961   3.579   0.575  11.914  0.6808  0.1953 -0.4058
14182TIP3    H263962   3.570   0.657  11.788  0.2474  0.7856  0.0043
14183TIP3   OH263963   3.868   2.806  16.950  0.1908 -0.0843 -0.1341
14183TIP3    H163964   3.855   2.713  16.970 -0.6446 -0.2746 -1.4335
14183TIP3    H263965   3.828   2.852  17.023  0.9757 -0.7367  0.7273
14184TIP3   OH263966   3.911   0.237  14.099 -0.6717 -0.2360 -0.4748
14184TIP3    H163967   3.849   0.261  14.030  0.9311 -1.7683 -2.5813
14184TIP3    H263968   3.860   0.183  14.160 -1.5357 -1.0648 -1.8806
14185TIP3   OH263969   6.238   2.628  13.223  0.3297 -0.6082  0.4153
14185TIP3    H163970   6.231   2.639  13.128 -0.1154 -0.5228  0.4545
14185TIP3    H263971   6.271   2.712  13.255 -2.0083  0.3242  0.5958
14186TIP3   OH263972   5.333   0.255   3.612  0.5530  0.0843 -0.3931
14186TIP3    H163973   5.411   0.205   3.590  0.0615 -0.8976  0.0357
14186TIP3    H263974   5.274   0.243   3.537  0.7390  0.6816 -0.6406
14187TIP3   OH263975   5.725   4.862   4.635  0.0222 -0.6106 -0.0685
14187TIP3    H163976   5.776   4.923   4.583 -0.7782 -0.7850 -1.0863
14187TIP3    H263977   5.633   4.883   4.615 -0.2765 -1.5299  0.2584
14188TIP3   OH263978   0.660   5.124   3.568 -0.2256  0.4478 -0.1948
14188TIP3    H163979   0.584   5.092   3.520 -0.3394 -1.3894  1.1089
14188TIP3    H263980   0.624   5.167   3.645  0.0306  1.0732 -0.4143
14189TIP3   OH263981   1.677   2.327  11.240 -0.6337 -0.1583 -0.4110
14189TIP3    H163982   1.740   2.307  11.171  1.4090  1.3217  0.9168
14189TIP3    H263983   1.695   2.263  11.309 -1.1097 -0.1974 -0.3192
14190TIP3   OH263984   2.686   4.412  16.145 -0.3924 -0.0478 -0.7488
14190TIP3    H163985   2.591   4.402  16.136 -0.5262  1.0244 -0.7356
14190TIP3    H263986   2.696   4.480  16.212  0.3848 -0.1297 -0.7753
14191TIP3   OH263987   6.283   1.532   4.115 -0.1590 -0.2489 -0.0557
14191TIP3    H163988   6.316   1.559   4.030  0.3295 -0.0623  0.1920
14191TIP3    H263989   6.361   1.507   4.165 -0.4256 -0.2181  0.3867
14192TIP3   OH263990   6.654   4.238  15.210  0.1956  0.2688 -0.5611
14192TIP3    H163991   6.695   4.168  15.158 -1.6463  0.2627 -2.1447
14192TIP3    H263992   6.697   4.234  15.295  1.9088 -1.1157 -1.4309
14193TIP3   OH263993   2.021   1.848   4.601  0.0114  0.6167  0.1998
14193TIP3    H163994   2.089   1.800   4.648  0.7912  3.2553  1.9850
14193TIP3    H263995   2.069   1.906   4.543 -0.8403  0.5912 -0.5488
14194TIP3   OH263996   6.744   4.415  14.334 -0.5292  0.7734 -0.0571
14194TIP3    H163997   6.786   4.467  14.266 -0.3218  0.8778  0.1499
14194TIP3    H263998   6.713   4.336  14.289  1.5152 -0.1847  0.1219
14195TIP3   OH263999   2.792   6.459  16.455 -0.5658 -0.4304  0.5112
14195TIP3    H164000   2.772   6.552  16.444  1.0476 -0.0869  0.2539
14195TIP3    H264001   2.787   6.444  16.550  1.0266  0.3990  0.7603
14196TIP3   OH264002   4.299   4.820   3.649  0.0823 -0.2660 -0.0710
14196TIP3    H164003   4.359   4.792   3.717  1.5737  0.6061 -0.9683
14196TIP3    H264004   4.347   4.807   3.567 -1.3560 -0.5348 -0.9307
14197TIP3   OH264005   4.617   5.225   0.673 -0.2549  0.4804 -0.2620
14197TIP3    H164006   4.552   5.155   0.671 -1.0214  1.1552  0.2404
14197TIP3    H264007   4.684   5.195   0.733 -1.1347  0.6321  0.8242
14198TIP3   OH264008   5.434   1.552   3.060 -0.1529  0.1297 -0.2677
14198TIP3    H164009   5.493   1.609   3.012 -0.6377  2.0062  1.2420
14198TIP3    H264010   5.487   1.518   3.133  0.1236 -1.3890 -1.1332
14199TIP3   OH264011   5.448   4.030   3.192  0.0317 -0.0178 -0.5215
14199TIP3    H164012   5.422   4.066   3.277 -1.8469 -0.7970 -0.7060
14199TIP3    H264013   5.525   3.978   3.210  0.5662  1.0408  0.4204
14200TIP3   OH264014   6.576   5.538  11.559 -0.0443  0.1510  0.3665
14200TIP3    H164015   6.608   5.460  11.514 -1.1200 -0.0991  0.0043
14200TIP3    H264016   6.589   5.520  11.652  0.8094  0.0416  0.2270
14201TIP3   OH264017   6.246   3.539   0.623 -0.0936 -0.1246  0.1905
14201TIP3    H164018   6.195   3.602   0.673  1.5647  1.8043 -0.3977
14201TIP3    H264019   6.219   3.554   0.532  1.5263  1.0334 -0.1447
14202TIP3   OH264020   3.980   2.841  11.040 -0.6017  0.0346  0.6738
14202TIP3    H164021   3.997   2.935  11.037 -3.2133  0.6158  1.4061
14202TIP3    H264022   3.938   2.822  10.956 -1.9885  0.0018  1.3449
14203TIP3   OH264023   2.802   2.104  16.285 -0.2022  0.5901 -0.0293
14203TIP3    H164024   2.800   2.185  16.234  1.0056  1.3756  1.1337
14203TIP3    H264025   2.864   2.120  16.355  0.3795 -1.4900  0.0142
14204TIP3   OH264026   3.666   3.733   0.605  0.3321 -0.1042 -0.0408
14204TIP3    H164027   3.613   3.804   0.570  0.3033  0.6040  1.3651
14204TIP3    H264028   3.695   3.765   0.691  1.9290 -1.0009 -0.1977
14205TIP3   OH264029   4.313   6.717   3.607 -0.3004  0.2730 -0.6814
14205TIP3    H164030   4.247   6.692   3.542 -0.1811 -0.1226 -0.6518
14205TIP3    H264031   4.263   6.767   3.672 -0.7391 -0.7037 -0.2425
14206TIP3   OH264032   2.777   2.328   0.656 -0.1014  0.5905  0.1790
14206TIP3    H164033   2.701   2.379   0.632 -0.2848  0.6499  0.8682
14206TIP3    H264034   2.839   2.341   0.584 -0.9320  0.1172 -0.6427
14207TIP3   OH264035   6.454   0.946  10.796 -0.1555  0.4345  0.1904
14207TIP3    H164036   6.512   0.880  10.833 -1.5825 -1.1930 -0.3464
14207TIP3    H264037   6.476   1.027  10.842 -0.6560 -1.1060  3.3771
14208TIP3   OH264038   2.039   2.603   2.859 -0.0134  0.5488 -0.1906
14208TIP3    H164039   2.022   2.628   2.768 -0.8492 -2.6609 -1.0705
14208TIP3    H264040   2.021   2.509   2.861  0.6994  0.3641  3.1614
14209TIP3   OH264041   0.611   2.362   3.179 -0.8717  0.0405  0.1224
14209TIP3    H164042   0.660   2.313   3.113 -1.8697 -0.1362 -0.4927
14209TIP3    H264043   0.521   2.364   3.147 -0.8809  2.2685  0.1288
14210TIP3   OH264044   6.746   1.182   0.040  0.5109  0.3011 -0.4830
14210TIP3    H164045   6.774   1.272   0.058  1.3696  0.3030 -1.6967
14210TIP3    H264046   6.678   1.190  -0.026  2.3617 -0.0027 -2.5564
14211TIP3   OH264047   5.838   6.171  11.224  1.2475 -0.0208 -0.2970
14211TIP3    H164048   5.934   6.163  11.220  1.4727  2.1965 -0.4641
14211TIP3    H264049   5.817   6.237  11.158 -0.3124  0.1578  0.3533
14212TIP3   OH264050   5.456   2.807   3.630 -0.3815  0.3427 -0.2819
14212TIP3    H164051   5.479   2.715   3.622  0.1406  0.4149  0.3198
14212TIP3    H264052   5.373   2.807   3.678 -0.2148  0.1951  0.0113
14213TIP3   OH264053   6.686   6.630   0.259 -0.5446 -0.5715  0.4821
14213TIP3    H164054   6.633   6.551   0.242 -1.9671  0.1132  1.4573
14213TIP3    H264055   6.770   6.612   0.218 -1.0802 -2.2979  0.0419
14214TIP3   OH264056   1.002   2.118   2.766 -0.5120 -0.2851 -0.6929
14214TIP3    H164057   1.094   2.092   2.768  0.3310  2.3822  1.3836
14214TIP3    H264058   1.004   2.211   2.742 -2.4281  0.4668  1.6755
14215TIP3   OH264059   5.179   6.710   2.077 -0.4201  0.2181  0.0352
14215TIP3    H164060   5.268   6.743   2.091 -0.2461 -0.8195  1.8012
14215TIP3    H264061   5.190   6.637   2.017  0.0203 -0.2277  0.6414
14216TIP3   OH264062   5.093   5.518  12.644  0.1391  0.4454  0.0689
14216TIP3    H164063   5.176   5.558  12.670  1.2333 -2.2123  0.9271
14216TIP3    H264064   5.114   5.471  12.563 -1.0406  1.1982 -0.7225
14217TIP3   OH264065   1.523   0.394   3.788  0.8840 -0.0325  0.2362
14217TIP3    H164066   1.581   0.354   3.723  0.8064 -1.4865  1.0083
14217TIP3    H264067   1.436   0.361   3.765  0.9017 -0.8409  1.2429
14218TIP3   OH264068   5.433   4.627  14.486  0.3344  0.1680  0.0582
14218TIP3    H164069   5.485   4.569  14.430 -1.1078 -1.4495  0.3130
14218TIP3    H264070   5.454   4.715  14.455  2.5912 -0.4313 -0.3600
14219TIP3   OH264071   2.855   3.130  12.814  0.3919 -0.2135 -0.1092
14219TIP3    H164072   2.835   3.140  12.721  3.1586  1.6844 -0.6175
14219TIP3    H264073   2.804   3.053  12.841  0.3372 -1.5241 -3.4353
14220TIP3   OH264074   5.220   3.356   4.486 -0.2754 -0.0217  0.3303
14220TIP3    H164075   5.313   3.372   4.473  0.0839 -0.3790  2.2288
14220TIP3    H264076   5.203   3.381   4.577 -2.1774  0.6282 -0.1587
14221TIP3   OH264077   5.268   6.049  16.911  0.0806  0.2133  0.1232
14221TIP3    H164078   5.179   6.079  16.931  0.0308  0.8264 -0.9593
14221TIP3    H264079   5.325   6.118  16.944  0.0047  1.1540 -1.5883
14222TIP3   OH264080   5.332   5.785  11.427 -0.0591 -0.7997 -0.0772
14222TIP3    H164081   5.412   5.829  11.400  1.2033 -1.7362  1.8937
14222TIP3    H264082   5.263   5.849  11.413  1.0313  0.0734 -1.7115
14223TIP3   OH264083   3.040   6.675  12.367 -0.5265 -0.2516 -0.5270
14223TIP3    H164084   2.993   6.612  12.312  2.2678 -1.9593 -1.1599
14223TIP3    H264085   2.971   6.726  12.409 -2.9979 -3.6652 -0.0251
14224TIP3   OH264086   3.036   6.671  11.712 -0.0851  0.8585  0.1002
14224TIP3    H164087   3.003   6.759  11.694  0.0504  0.8673 -0.1050
14224TIP3    H264088   3.040   6.628  11.626  2.2777  1.5009 -0.1795
14225TIP3   OH264089   4.784   3.554   0.788 -0.0068  0.3457 -0.0943
14225TIP3    H164090   4.817   3.467   0.765  0.4045  1.3192 -3.8241
14225TIP3    H264091   4.837   3.580   0.864  1.1599 -1.8937 -0.0519
14226TIP3   OH264092   3.232   2.514   3.738 -0.3088  0.0874  0.7313
14226TIP3    H164093   3.225   2.604   3.771  0.3152 -0.5610  2.8164
14226TIP3    H264094   3.142   2.489   3.718 -0.6629  0.7282  1.4621
14227TIP3   OH264095   5.883   4.424   2.864 -0.0290 -0.1028 -0.3522
14227TIP3    H164096   5.906   4.437   2.956 -0.3347  0.4732 -0.3551
14227TIP3    H264097   5.937   4.349   2.836  1.8969  1.2104 -0.3748
14228TIP3   OH264098   4.767   1.842  12.370  0.0668 -0.4906  0.0226
14228TIP3    H164099   4.700   1.781  12.341  0.9400 -0.9830 -1.0265
14228TIP3    H264100   4.810   1.798  12.443 -0.4404 -0.3713  0.3964
14229TIP3   OH264101   1.814   3.386  16.081  0.2469  0.2558 -0.0689
14229TIP3    H164102   1.894   3.415  16.125 -0.1627  1.1431  0.1146
14229TIP3    H264103   1.816   3.430  15.996  0.2751 -0.2421 -0.3300
14230TIP3   OH264104   0.480   5.063   3.375  0.5154 -0.4100  0.5854
14230TIP3    H164105   0.516   4.978   3.348 -0.4806 -0.4873 -0.5563
14230TIP3    H264106   0.388   5.060   3.348  0.3594  0.8677  0.9261
14231TIP3   OH264107   6.687   5.202  15.904 -0.1364 -0.4461  0.4893
14231TIP3    H164108   6.704   5.286  15.946 -0.7142  0.4431 -0.9351
14231TIP3    H264109   6.591   5.197  15.899 -0.0956 -0.8056 -0.1154
14232TIP3   OH264110   4.718   5.962   0.445 -0.6848  0.2849 -0.1386
14232TIP3    H164111   4.676   5.951   0.530  2.0196 -3.1284  1.0205
14232TIP3    H264112   4.786   6.028   0.461  0.3340 -0.9157  0.6606
14233TIP3   OH264113   3.314   3.380  13.746 -0.4271 -0.0700 -0.2430
14233TIP3    H164114   3.390   3.323  13.740 -1.1187 -0.8732 -3.5099
14233TIP3    H264115   3.350   3.468  13.755  0.8839 -0.4872 -1.1642
14234TIP3   OH264116   4.745   0.457  15.910  0.8416 -0.0997  0.6712
14234TIP3    H164117   4.751   0.368  15.946 -1.1079 -1.7533 -2.5440
14234TIP3    H264118   4.832   0.473  15.874  1.2955 -0.5685  1.5129
14235TIP3   OH264119   2.167   0.184   2.062 -0.1722  0.1271 -0.8545
14235TIP3    H164120   2.112   0.261   2.082 -0.2086 -0.2436  0.5569
14235TIP3    H264121   2.138   0.157   1.975 -1.6879  0.4332 -0.4878
14236TIP3   OH264122   2.290   6.469   2.726  0.2704 -0.6079 -0.3253
14236TIP3    H164123   2.225   6.538   2.711  1.4334  0.4747 -0.5872
14236TIP3    H264124   2.310   6.474   2.819  1.5329  0.5522 -0.6195
14237TIP3   OH264125   6.672   0.534   1.012 -0.3963 -0.7371  0.6621
14237TIP3    H164126   6.709   0.453   1.047  0.2638 -0.4252  0.7049
14237TIP3    H264127   6.748   0.584   0.981 -0.7941 -0.1242  0.6529
14238TIP3   OH264128   2.201   2.915  10.611  0.3232  0.6555  0.1160
14238TIP3    H164129   2.162   2.913  10.698 -2.1296  0.7728 -0.8861
14238TIP3    H264130   2.226   3.006  10.598 -0.2399  0.8467  0.3351
14239TIP3   OH264131   0.868   6.525   1.199  0.0934 -0.1917  0.2431
14239TIP3    H164132   0.914   6.460   1.144  0.8992  1.2398 -0.8428
14239TIP3    H264133   0.776   6.512   1.178  0.1029 -1.9580  1.1505
14240TIP3   OH264134   6.198   1.907  13.399 -0.0796  0.1104 -0.6107
14240TIP3    H164135   6.243   1.959  13.333  0.1990  0.0241 -0.4890
14240TIP3    H264136   6.118   1.877  13.355  0.6992 -0.9848 -1.3221
14241TIP3   OH264137   2.340   5.433  11.551  0.6820  0.6423  0.4748
14241TIP3    H164138   2.343   5.466  11.640  0.7197  0.4281  0.5551
14241TIP3    H264139   2.431   5.439  11.520  0.8371 -0.0833  0.7542
14242TIP3   OH264140   5.178   1.485   5.082 -0.1451  0.3029  0.4151
14242TIP3    H164141   5.092   1.477   5.040  0.3020  0.6125 -0.6020
14242TIP3    H264142   5.230   1.537   5.020  0.4558  1.0511  1.4996
14243TIP3   OH264143   1.642   1.912   5.504 -0.1541  0.3883 -0.4585
14243TIP3    H164144   1.693   1.845   5.549 -1.2146  0.5442  1.0494
14243TIP3    H264145   1.627   1.877   5.416  1.0701 -0.3995 -0.3738
14244TIP3   OH264146   3.837   3.864   2.568  0.0535 -0.8585 -0.2594
14244TIP3    H164147   3.742   3.876   2.573  0.3849  2.5609  0.1631
14244TIP3    H264148   3.862   3.910   2.487  1.4251 -1.0094  0.0639
14245TIP3   OH264149   2.617   4.105   4.620  0.0390 -0.0511  0.3948
14245TIP3    H164150   2.583   4.144   4.700  1.3068  1.1090  0.3938
14245TIP3    H264151   2.573   4.152   4.549  0.2291  0.1295  0.3981
14246TIP3   OH264152   4.249   4.998   2.162  0.3618  0.2931 -0.1741
14246TIP3    H164153   4.155   5.013   2.161  0.3816  0.6011  1.1729
14246TIP3    H264154   4.261   4.914   2.117 -0.4301  0.7707 -1.3318
14247TIP3   OH264155   6.435   6.104   2.581  0.3158  0.3587 -0.2293
14247TIP3    H164156   6.530   6.089   2.579  0.2727  0.1634 -0.9183
14247TIP3    H264157   6.419   6.166   2.510  0.0931  1.4123  0.7100
14248TIP3   OH264158   0.422   4.192   3.833 -0.3181  0.2097  0.0280
14248TIP3    H164159   0.333   4.182   3.864  0.7097 -3.1161  2.4306
14248TIP3    H264160   0.468   4.237   3.904 -0.0239  2.0467 -1.2492
14249TIP3   OH264161   2.953   3.675  12.584 -0.7513  0.5447 -1.0398
14249TIP3    H164162   3.030   3.731  12.596 -0.5678 -0.0459  0.9423
14249TIP3    H264163   2.880   3.727  12.616 -0.7360  0.0869 -0.2226
14250TIP3   OH264164   3.802   6.464   0.601 -0.3088  0.4125  0.5247
14250TIP3    H164165   3.863   6.413   0.548  2.9431 -0.2626  4.3976
14250TIP3    H264166   3.764   6.399   0.661 -2.9654  1.3000 -0.0719
14251TIP3   OH264167   5.115   5.980   5.676 -0.3409  0.3230  0.5095
14251TIP3    H164168   5.117   5.988   5.580 -2.0205  1.9445  0.5599
14251TIP3    H264169   5.205   5.959   5.700  0.1637  0.1190 -1.4053
14252TIP3   OH264170   2.460   4.814   5.672 -0.1380 -0.0848 -0.2734
14252TIP3    H164171   2.426   4.765   5.747  0.7505  0.3554  0.4320
14252TIP3    H264172   2.476   4.747   5.605  1.4123 -0.8526  0.7990
14253TIP3   OH264173   3.020   6.122   3.692  0.6734  0.0426 -0.3930
14253TIP3    H164174   3.054   6.210   3.705  3.3137 -0.9249  0.0130
14253TIP3    H264175   3.079   6.083   3.626  0.1329 -1.6735  0.0735
14254TIP3   OH264176   1.819   5.685  11.463 -0.3055 -0.4910  0.1322
14254TIP3    H164177   1.741   5.673  11.410  0.7356 -2.3620 -1.1102
14254TIP3    H264178   1.794   5.655  11.550 -1.7963  1.8188  0.5738
14255TIP3   OH264179   5.468   4.720   6.408 -0.4668  0.1570  0.0782
14255TIP3    H164180   5.513   4.639   6.382 -0.6838  0.0779 -0.0591
14255TIP3    H264181   5.440   4.759   6.325 -1.2935 -0.1692  0.1962
14256TIP3   OH264182   3.100   5.211  11.624 -0.0568 -0.2998  0.5514
14256TIP3    H164183   3.043   5.203  11.548  0.6039 -0.4211  0.0589
14256TIP3    H264184   3.065   5.285  11.673  0.1226  0.4494 -0.4113
14257TIP3   OH264185   2.567   3.182   2.983 -0.3100 -0.1755 -0.5996
14257TIP3    H164186   2.529   3.260   2.941 -0.4291  0.4977  0.7281
14257TIP3    H264187   2.512   3.167   3.060  1.3777  0.1166  0.7137
14258TIP3   OH264188   6.441   3.907  14.080  0.2543 -0.1561  0.2505
14258TIP3    H164189   6.512   3.946  14.029 -0.9059 -0.5088 -1.7962
14258TIP3    H264190   6.437   3.958  14.160  1.7430  0.9129 -0.3223
14259TIP3   OH264191   0.695   5.036   6.294 -0.1653 -0.2246 -0.4663
14259TIP3    H164192   0.682   4.944   6.271 -0.0594 -0.5863  0.8514
14259TIP3    H264193   0.608   5.065   6.323 -0.9935  0.9971 -3.7012
14260TIP3   OH264194   2.106   2.430  15.546 -0.2947  0.0414  0.1784
14260TIP3    H164195   2.132   2.437  15.638  2.1856 -1.3496 -0.3239
14260TIP3    H264196   2.085   2.338  15.534 -0.7515  0.2473 -0.6339
14261TIP3   OH264197   5.098   2.772  15.837  0.2963 -0.0131 -0.3598
14261TIP3    H164198   5.100   2.677  15.827 -2.1580 -0.3261  1.1573
14261TIP3    H264199   5.014   2.798  15.800 -0.0010  1.2628  1.0854
14262TIP3   OH264200   3.423   1.143  12.516 -0.3730 -0.2992  0.0670
14262TIP3    H164201   3.347   1.161  12.461 -1.4425  0.8656  1.8236
14262TIP3    H264202   3.412   1.201  12.591  1.7001 -0.8983  0.8899
14263TIP3   OH264203   4.434   0.166   5.631 -0.1997  1.0433 -0.1286
14263TIP3    H164204   4.505   0.177   5.568  1.7589  0.8797  1.9443
14263TIP3    H264205   4.462   0.093   5.687 -2.8706 -0.2562 -0.3133
14264TIP3   OH264206   5.428   3.019   3.231  0.1899  0.1073  0.4384
14264TIP3    H164207   5.520   3.042   3.223  0.3411 -0.5596  0.2244
14264TIP3    H264208   5.399   3.060   3.312  0.5856  0.6024  0.3294
14265TIP3   OH264209   2.521   6.183  10.926  0.0579 -0.4857 -0.4925
14265TIP3    H164210   2.472   6.238  10.865  0.4341 -0.2034 -0.5443
14265TIP3    H264211   2.537   6.101  10.879 -2.0966 -1.3762  0.2267
14266TIP3   OH264212   5.256   3.500  14.223  0.3840  0.7448  0.2115
14266TIP3    H164213   5.300   3.427  14.268 -0.2331  0.9639  1.2006
14266TIP3    H264214   5.166   3.470  14.212  0.2511  1.1581  0.1599
14267TIP3   OH264215   3.254   2.927  14.293 -0.3295 -0.1319 -0.4643
14267TIP3    H164216   3.212   2.851  14.333  0.8123 -1.7007 -2.0932
14267TIP3    H264217   3.329   2.945  14.349  0.5679 -1.5490 -1.1513
14268TIP3   OH264218   0.135   5.760  16.096 -0.0183 -0.5024  0.9273
14268TIP3    H164219   0.058   5.813  16.119 -0.8506 -2.3392  2.6750
14268TIP3    H264220   0.098   5.679  16.061  1.0823 -1.6282  2.2859
14269TIP3   OH264221   3.622   1.152  15.345  0.3176  0.6949  0.0796
14269TIP3    H164222   3.671   1.124  15.422  0.2553  1.3565  0.3713
14269TIP3    H264223   3.671   1.116  15.271 -0.0968 -0.6683  0.4472
14270TIP3   OH264224   0.455   1.353  16.981  0.3330  0.3361 -0.1144
14270TIP3    H164225   0.389   1.328  17.046  2.7179 -1.0056  2.0291
14270TIP3    H264226   0.487   1.270  16.947  0.5315  0.9720 -1.5230
14271TIP3   OH264227   3.022   4.807   1.797 -0.0667  0.3045 -0.1712
14271TIP3    H164228   3.111   4.829   1.768  0.0329  0.9268  0.5631
14271TIP3    H264229   3.035   4.747   1.870 -0.1985  1.3008  0.6921
14272TIP3   OH264230   1.043   1.054   5.038 -0.5377  0.1479 -0.0133
14272TIP3    H164231   1.107   1.082   5.103 -0.7726 -1.0025  0.7428
14272TIP3    H264232   0.966   1.107   5.055 -0.8273 -0.6019  1.1026
14273TIP3   OH264233   1.847   3.812   1.979  0.5927 -0.1081 -0.3746
14273TIP3    H164234   1.812   3.805   1.891 -1.2951  0.0642  0.3301
14273TIP3    H264235   1.868   3.722   2.004 -0.3293 -0.3406 -0.4296
14274TIP3   OH264236   6.163   3.328   3.342  0.0215 -0.0072  0.1156
14274TIP3    H164237   6.216   3.322   3.263 -0.3625 -2.0262 -0.0624
14274TIP3    H264238   6.099   3.397   3.324  1.2591  1.0186 -0.4755
14275TIP3   OH264239   0.729   5.497   2.359 -0.9471  0.8592  0.0337
14275TIP3    H164240   0.811   5.491   2.311 -1.4284 -0.2732 -0.6789
14275TIP3    H264241   0.663   5.513   2.292 -1.6076 -0.5736  0.3049
14276TIP3   OH264242   5.428   1.927   2.702 -0.9032 -0.2857 -0.1753
14276TIP3    H164243   5.514   1.907   2.665 -0.4833  0.7051  0.2113
14276TIP3    H264244   5.367   1.913   2.630 -0.2660  0.2230 -0.8405
14277TIP3   OH264245   3.426   5.199  16.868  0.8392 -0.6599 -0.4767
14277TIP3    H164246   3.455   5.124  16.816  1.3490 -0.7060 -0.1354
14277TIP3    H264247   3.406   5.161  16.954  0.9026 -0.4416 -0.3646
14278TIP3   OH264248   3.095   3.289   0.334 -0.0972 -0.0867  0.5196
14278TIP3    H164249   3.024   3.246   0.382  1.1593 -0.8513  1.7598
14278TIP3    H264250   3.100   3.241   0.251  0.2565 -1.3418  1.2461
14279TIP3   OH264251   0.578   2.438   0.544 -0.5593 -0.8907 -0.2776
14279TIP3    H164252   0.654   2.394   0.505 -0.3527  0.1277 -1.0745
14279TIP3    H264253   0.615   2.490   0.616 -0.4611 -0.2913 -0.7485
14280TIP3   OH264254   1.979   4.193   2.347 -0.0314  0.1555  0.0860
14280TIP3    H164255   2.069   4.218   2.368 -1.0138  2.8252  1.5763
14280TIP3    H264256   1.988   4.117   2.289  3.1357 -0.0345  0.6560
14281TIP3   OH264257   2.262   1.384   1.113  0.3862 -0.0741 -0.0582
14281TIP3    H164258   2.308   1.467   1.099  2.4311 -0.9532  1.0305
14281TIP3    H264259   2.184   1.408   1.164 -0.0127  1.3656 -1.2765
14282TIP3   OH264260   3.153   2.916  16.141  0.3053  0.3066 -0.2687
14282TIP3    H164261   3.171   3.007  16.166 -0.5366  0.9366 -1.8248
14282TIP3    H264262   3.142   2.919  16.046 -2.0614 -0.9957 -0.1133
14283TIP3   OH264263   3.874   2.505   1.561  0.6989 -0.0759 -0.1354
14283TIP3    H164264   3.880   2.512   1.656  0.4990 -0.8679 -0.0657
14283TIP3    H264265   3.900   2.592   1.530 -0.5772  0.6197  0.6811
14284TIP3   OH264266   3.702   4.249  13.289 -0.0154  0.0741 -0.6978
14284TIP3    H164267   3.763   4.285  13.225 -0.7701 -2.2965 -2.8839
14284TIP3    H264268   3.756   4.193  13.345  0.2229  0.0454 -0.9576
14285TIP3   OH264269   4.437   0.368   3.997  0.1789  0.1975 -0.1915
14285TIP3    H164270   4.370   0.359   4.064  1.6206  0.2093  1.3354
14285TIP3    H264271   4.475   0.281   3.989 -0.9345 -0.1552 -2.1103
14286TIP3   OH264272   6.486   0.456  13.690  0.2438 -0.1463 -0.9993
14286TIP3    H164273   6.528   0.527  13.640  1.7952 -1.1082 -1.1185
14286TIP3    H264274   6.455   0.395  13.623 -0.5412  0.1097 -0.8757
14287TIP3   OH264275   2.765   1.651   1.364  0.3845 -0.4048  0.3643
14287TIP3    H164276   2.759   1.569   1.413 -0.8445 -0.4889  0.0922
14287TIP3    H264277   2.843   1.640   1.309 -1.2554 -2.5575 -1.7413
14288TIP3   OH264278   5.213   2.902  13.855  0.2934  0.0153 -0.4721
14288TIP3    H164279   5.238   2.988  13.888 -2.5045  1.0568 -0.8262
14288TIP3    H264280   5.268   2.889  13.777 -0.4419  2.3144 -1.4472
14289TIP3   OH264281   3.070   1.358  15.802 -0.1648  0.2666  0.9401
14289TIP3    H164282   3.093   1.430  15.862 -2.7390  1.6101  0.4465
14289TIP3    H264283   3.058   1.282  15.859  0.4212  0.7635  1.7446
14290TIP3   OH264284   2.993   5.001   0.281  0.1850 -0.2769  0.5943
14290TIP3    H164285   2.917   5.004   0.223 -0.3296 -0.0108  1.2669
14290TIP3    H264286   3.061   4.956   0.230 -0.9938 -2.2342  0.6307
14291TIP3   OH264287   0.762   2.072  13.171  0.5245  0.6540  0.2406
14291TIP3    H164288   0.706   2.138  13.213  1.5354  1.2469  0.6983
14291TIP3    H264289   0.718   2.052  13.089 -0.8079  0.4656  0.9583
14292TIP3   OH264290   6.735   6.384   5.256 -0.5999  0.4263 -0.1296
14292TIP3    H164291   6.671   6.332   5.208 -0.9226  0.3139  0.4118
14292TIP3    H264292   6.806   6.324   5.275 -0.1531  0.6474 -1.0633
14293TIP3   OH264293   6.022   2.842   0.731  0.0055  0.4880 -0.1622
14293TIP3    H164294   5.990   2.788   0.659  1.1411  0.0886 -0.3984
14293TIP3    H264295   6.102   2.882   0.697  1.1441 -0.5148  1.1644
14294TIP3   OH264296   1.464   1.442  12.815  0.0838  0.2155 -0.0914
14294TIP3    H164297   1.522   1.403  12.880  1.4208  1.3477 -0.5610
14294TIP3    H264298   1.501   1.417  12.731 -1.0295 -0.3478 -0.4421
14295TIP3   OH264299   3.976   4.013   2.312 -0.1347 -0.5017  0.2993
14295TIP3    H164300   3.955   3.971   2.229 -0.5263 -1.4600  0.8560
14295TIP3    H264301   3.915   4.087   2.317 -0.0101 -0.3549 -0.3287
14296TIP3   OH264302   1.286   3.091  12.872  0.5013 -0.2359  0.6397
14296TIP3    H164303   1.313   3.004  12.904 -1.2349 -1.0406  0.0495
14296TIP3    H264304   1.259   3.138  12.951 -1.0126 -1.1848  0.7286
14297TIP3   OH264305   1.996   2.878  14.178 -0.4151  0.0036 -0.1157
14297TIP3    H164306   1.964   2.962  14.210  0.2982 -0.2033  1.1914
14297TIP3    H264307   2.050   2.900  14.102 -0.9299  0.6411 -0.3032
14298TIP3   OH264308   0.285   4.034   0.685  0.0851 -0.0333 -0.1346
14298TIP3    H164309   0.193   4.048   0.660  0.0964 -1.3877 -0.9924
14298TIP3    H264310   0.288   3.944   0.718  0.9650  0.2627  0.6386
14299TIP3   OH264311   2.723   1.405   2.952  0.1654  0.0214 -0.4749
14299TIP3    H164312   2.733   1.453   2.870  0.2331 -1.0040 -1.0697
14299TIP3    H264313   2.630   1.385   2.958 -0.1126  1.4503  0.4878
14300TIP3   OH264314   5.441   1.967   4.689  0.6434 -0.4319  0.1223
14300TIP3    H164315   5.484   2.052   4.677  0.1282 -0.2770 -0.8422
14300TIP3    H264316   5.432   1.957   4.783  0.9232  0.4849  0.2556
14301TIP3   OH264317   5.539   4.088  12.948  0.1494 -0.3374  0.3088
14301TIP3    H164318   5.600   4.161  12.952  1.5803 -1.4438 -0.5486
14301TIP3    H264319   5.571   4.026  13.014 -0.2809 -0.7647  0.1224
14302TIP3   OH264320   3.532   3.911   5.747  0.0262  0.6539 -0.8198
14302TIP3    H164321   3.439   3.901   5.730 -0.4476  0.5620  1.4697
14302TIP3    H264322   3.575   3.873   5.670 -1.8045 -0.1130 -1.5175
14303TIP3   OH264323   1.946   1.023  15.744 -0.0063 -0.1138 -0.0624
14303TIP3    H164324   1.891   1.043  15.820 -1.3474 -1.2676 -0.6603
14303TIP3    H264325   1.965   1.108  15.705 -0.5266  0.3937  0.7569
14304TIP3   OH264326   0.090   4.657  14.141 -0.0819 -0.0574 -0.2050
14304TIP3    H164327   0.055   4.745  14.154  2.0128  0.7550  0.3096
14304TIP3    H264328   0.049   4.626  14.060 -1.6340  0.9401  0.1442
14305TIP3   OH264329   0.966   2.497   0.790  0.3744  0.3402  0.3624
14305TIP3    H164330   0.922   2.530   0.868 -0.3559  1.0587 -0.3266
14305TIP3    H264331   0.898   2.496   0.722  0.9171 -0.5615 -0.1911
14306TIP3   OH264332   2.095   5.072   5.966  0.2292 -0.3988 -0.4811
14306TIP3    H164333   2.056   5.094   5.882  1.8577  0.1837 -1.1164
14306TIP3    H264334   2.134   5.154   5.997  0.6548 -0.8736  0.2895
14307TIP3   OH264335   1.076   0.252  12.572  0.0784  0.1440  0.5969
14307TIP3    H164336   1.108   0.284  12.488 -0.7810  0.2973  0.3115
14307TIP3    H264337   1.097   0.322  12.634 -2.3937  1.6914 -0.1366
14308TIP3   OH264338   1.424   5.840  10.943 -0.1301 -0.4552  0.5493
14308TIP3    H164339   1.502   5.892  10.925  0.2942 -1.2417  0.0601
14308TIP3    H264340   1.359   5.872  10.880  0.3831 -1.0674 -0.3047
14309TIP3   OH264341   3.733   5.271   3.202  0.5776 -0.3095  0.5225
14309TIP3    H164342   3.674   5.212   3.155 -0.0655  0.4715  0.3281
14309TIP3    H264343   3.676   5.338   3.239  1.3900  0.7719 -0.1252
14310TIP3   OH264344   1.427   4.155  12.524 -0.2837  0.5236 -0.0632
14310TIP3    H164345   1.510   4.113  12.547 -0.6262  0.8424  1.9266
14310TIP3    H264346   1.361   4.103  12.569 -1.0389  1.1477 -0.4345
14311TIP3   OH264347   1.039   2.403  11.556  0.1152 -0.0327  0.0788
14311TIP3    H164348   0.956   2.412  11.508  1.0123  2.7859 -1.1539
14311TIP3    H264349   1.080   2.326  11.518 -0.2340  0.8064 -2.1462
14312TIP3   OH264350   4.297   4.166  14.808 -0.2897  0.0550  0.0972
14312TIP3    H164351   4.378   4.203  14.772 -0.0374 -0.7005 -0.1146
14312TIP3    H264352   4.303   4.184  14.902  0.7832 -1.1985  0.2991
14313TIP3   OH264353   4.701   0.533  14.939 -0.3836 -0.2891  0.2511
14313TIP3    H164354   4.729   0.606  14.884  0.2792 -1.2351 -0.6984
14313TIP3    H264355   4.696   0.459  14.880 -0.0216 -1.2559  1.4037
14314TIP3   OH264356   0.136   4.995  14.579  0.6492  0.9336 -0.2083
14314TIP3    H164357   0.209   5.010  14.639 -2.7123  2.0958  4.1255
14314TIP3    H264358   0.131   4.900  14.572  2.0575  0.8124  0.0658
14315TIP3   OH264359   4.580   2.091  14.321 -0.0196  0.0407 -0.2410
14315TIP3    H164360   4.670   2.068  14.344  0.6323  1.6263 -1.0666
14315TIP3    H264361   4.529   2.013  14.344  1.5294 -0.8393  0.3760
14316TIP3   OH264362   0.082   0.508   3.376  0.2407 -0.2075 -0.0633
14316TIP3    H164363   0.135   0.529   3.453  0.5455 -0.4434 -0.2084
14316TIP3    H264364  -0.008   0.517   3.406  0.3585 -0.0793  0.2600
14317TIP3   OH264365   2.958   2.705  13.232  0.2611 -0.5837  0.3372
14317TIP3    H164366   3.049   2.729  13.247  0.1277  0.2568 -0.1120
14317TIP3    H264367   2.908   2.778  13.268 -0.1783 -0.3448 -0.7173
14318TIP3   OH264368   5.323   6.671  13.371 -0.2541  0.0271 -0.4301
14318TIP3    H164369   5.356   6.627  13.292 -0.7773 -0.0532 -0.6102
14318TIP3    H264370   5.369   6.755  13.371 -0.3157  0.0670 -0.8740
14319TIP3   OH264371   4.742   6.758   0.640  0.4644  0.0138 -0.1348
14319TIP3    H164372   4.753   6.776   0.547 -2.1118  1.4310 -0.2430
14319TIP3    H264373   4.764   6.840   0.684 -2.5050  0.7704  0.1001
14320TIP3   OH264374   4.050   1.857  12.376  0.1548  0.3640  0.0731
14320TIP3    H164375   4.003   1.923  12.325 -0.0476  0.7337  0.7256
14320TIP3    H264376   3.995   1.842  12.453  0.6968  0.1838  0.4321
14321TIP3   OH264377   6.411   1.260   1.619 -0.2405  0.1492 -0.2692
14321TIP3    H164378   6.325   1.274   1.659 -0.5109 -0.0950 -0.7531
14321TIP3    H264379   6.415   1.166   1.603  0.7567 -0.0867  1.1677
14322TIP3   OH264380   6.053   5.293   5.233  0.8348  0.6776 -0.1319
14322TIP3    H164381   6.091   5.209   5.208 -1.1692 -0.2994 -0.1109
14322TIP3    H264382   6.004   5.274   5.314  1.1723  2.1129  0.4470
14323TIP3   OH264383   6.051   1.138   5.356 -0.6912 -0.2372 -0.5761
14323TIP3    H164384   6.096   1.212   5.316 -1.0815 -0.6292 -1.7955
14323TIP3    H264385   5.961   1.168   5.367 -0.2302  0.4968  1.7298
14324TIP3   OH264386   6.444   3.414   3.569  0.0117  0.7652 -1.2152
14324TIP3    H164387   6.415   3.495   3.610 -0.3448  1.0223 -1.9525
14324TIP3    H264388   6.389   3.405   3.491 -0.3788 -0.5055 -0.8282
14325TIP3   OH264389   0.323   4.520  12.799  0.8253 -0.2701 -0.1280
14325TIP3    H164390   0.397   4.569  12.763  1.3197  0.0486  1.2341
14325TIP3    H264391   0.364   4.450  12.849  0.2095 -0.2134  0.4704
14326TIP3   OH264392   0.590   3.365   4.917  0.1317 -0.6644 -0.3022
14326TIP3    H164393   0.516   3.312   4.948 -0.8691 -0.5250 -2.2434
14326TIP3    H264394   0.579   3.366   4.822  0.0433  3.0530 -0.4154
14327TIP3   OH264395   6.291   6.341   0.564 -0.0357  0.2373 -0.2757
14327TIP3    H164396   6.236   6.415   0.540  2.4553  2.0272 -0.8683
14327TIP3    H264397   6.286   6.282   0.488 -1.6458 -0.0225 -0.0004
14328TIP3   OH264398   2.173   2.092   5.330 -0.8635  0.1466  0.0485
14328TIP3    H164399   2.141   2.003   5.323 -1.0217  0.3126 -1.5274
14328TIP3    H264400   2.254   2.084   5.381  0.6758 -1.3240 -2.4302
14329TIP3   OH264401   0.462   4.417   2.369  0.5276 -0.5474  0.4338
14329TIP3    H164402   0.530   4.462   2.319  0.1901 -1.8100 -1.2606
14329TIP3    H264403   0.476   4.445   2.460  0.8481  2.2518 -0.3683
14330TIP3   OH264404   1.675   0.034  13.895  0.5071  0.4763 -0.0293
14330TIP3    H164405   1.690   0.030  13.990 -0.9279  0.9951  0.2437
14330TIP3    H264406   1.662   0.128  13.877  1.1500  0.4258 -0.8147
14331TIP3   OH264407   6.416   2.985  13.963  0.0306  0.0840 -0.7064
14331TIP3    H164408   6.327   3.001  13.993  1.3225  0.5483  3.4120
14331TIP3    H264409   6.447   3.071  13.934 -0.3170  0.2529 -0.5875
14332TIP3   OH264410   5.796   4.145   0.923 -0.3870  0.4936 -0.2357
14332TIP3    H164411   5.875   4.200   0.924 -0.3655  0.4763 -0.6731
14332TIP3    H264412   5.755   4.165   0.839 -0.9989  0.7075  0.1129
14333TIP3   OH264413   4.423   4.449  10.765 -0.1246 -0.0772  0.2370
14333TIP3    H164414   4.467   4.365  10.776  0.0089  0.2281  2.6353
14333TIP3    H264415   4.481   4.501  10.710 -0.1129 -1.4684 -1.0936
14334TIP3   OH264416   4.736   0.802  14.191  0.2047  0.4249 -0.2863
14334TIP3    H164417   4.734   0.745  14.114  2.6141  0.5180 -0.4929
14334TIP3    H264418   4.686   0.880  14.165 -0.7680 -0.3926 -0.9712
14335TIP3   OH264419   2.671   1.193   3.672 -0.2411  0.7790 -0.0169
14335TIP3    H164420   2.743   1.234   3.719 -0.2168  0.4829  0.2097
14335TIP3    H264421   2.598   1.255   3.680 -0.0408  1.0307 -0.1578
14336TIP3   OH264422   1.315   0.005  11.418 -0.0659  0.0673 -0.3269
14336TIP3    H164423   1.284  -0.074  11.462  0.6955 -0.8174 -1.3384
14336TIP3    H264424   1.380  -0.026  11.355  0.2023  1.4966 -0.7918
14337TIP3   OH264425   5.036   2.192   3.213 -0.3343 -0.2165  0.3671
14337TIP3    H164426   5.102   2.123   3.201  0.7510  0.7728  0.4413
14337TIP3    H264427   4.956   2.155   3.176  0.6133 -0.8853 -1.1245
14338TIP3   OH264428   5.210   3.841  15.315 -0.0410  0.1734  0.6049
14338TIP3    H164429   5.184   3.931  15.293  0.3281  0.3611  0.9434
14338TIP3    H264430   5.207   3.795  15.231 -0.9550  0.3133  0.5421
14339TIP3   OH264431   2.710   1.960  14.806 -0.2477  0.8148  0.3055
14339TIP3    H164432   2.766   1.888  14.775 -1.3793  0.5058 -1.1663
14339TIP3    H264433   2.622   1.925  14.802 -0.6342  1.5500  1.8447
14340TIP3   OH264434   3.503   3.818  11.657  0.0653 -0.1614  0.5802
14340TIP3    H164435   3.428   3.760  11.643  0.1268  0.3113 -2.2363
14340TIP3    H264436   3.478   3.900  11.614  1.7998  0.3086  0.4144
14341TIP3   OH264437   4.088   2.577   0.870 -0.1237  0.6407  0.5597
14341TIP3    H164438   4.078   2.579   0.774 -1.8352 -0.2770  0.6738
14341TIP3    H264439   4.048   2.659   0.900 -0.9388  0.2496  0.5648
14342TIP3   OH264440   4.105   0.319  12.872 -0.3205  0.1149 -0.5046
14342TIP3    H164441   4.195   0.351  12.874 -0.0455 -0.6579 -0.0893
14342TIP3    H264442   4.085   0.297  12.963 -1.0433  0.5733 -0.5421
14343TIP3   OH264443   4.156   0.391  14.148  0.3939  0.2176  0.4654
14343TIP3    H164444   4.094   0.326  14.114  1.4238 -0.2113 -0.6727
14343TIP3    H264445   4.230   0.338  14.178 -0.4505  0.5688  3.4929
14344TIP3   OH264446   4.336   3.211  12.036 -0.5525  0.8612 -0.1876
14344TIP3    H164447   4.369   3.132  11.993 -0.7947  0.6468  0.0165
14344TIP3    H264448   4.351   3.195  12.130  0.8668  1.7297 -0.2321
14345TIP3   OH264449   2.656   2.455  15.957  0.5799 -0.3237  0.2706
14345TIP3    H164450   2.676   2.492  15.871 -0.9876 -1.0189 -0.4239
14345TIP3    H264451   2.615   2.527  16.005 -1.8545 -0.8465 -0.8517
14346TIP3   OH264452   5.643   3.676  13.975 -0.0697  0.3646 -0.1190
14346TIP3    H164453   5.673   3.758  14.016 -0.5764 -1.0215  3.3486
14346TIP3    H264454   5.549   3.674  13.992 -0.2626 -0.4167 -1.1998
14347TIP3   OH264455   2.378   1.600  17.159  0.4907  0.7024 -0.8228
14347TIP3    H164456   2.310   1.635  17.217  1.5403  2.4154 -0.5704
14347TIP3    H264457   2.330   1.566  17.083 -0.8401 -0.7199  0.5624
14348TIP3   OH264458   6.242   5.071  11.550  0.1968 -0.4598 -0.3905
14348TIP3    H164459   6.260   4.991  11.500  1.9584 -0.1128 -0.3907
14348TIP3    H264460   6.240   5.042  11.641  1.9038 -0.4048 -0.2919
14349TIP3   OH264461   4.304   4.946  15.466 -0.0137  0.4653 -0.1399
14349TIP3    H164462   4.253   5.013  15.510 -1.1819 -0.5294  0.0830
14349TIP3    H264463   4.385   4.990  15.441 -1.0082  2.1262 -0.6148
14350TIP3   OH264464   2.446   3.162  12.779 -0.3414  0.2153  0.6592
14350TIP3    H164465   2.443   3.118  12.864 -0.2157 -0.6139  0.2383
14350TIP3    H264466   2.424   3.253  12.799  0.9231  0.3028  1.7654
14351TIP3   OH264467   4.447   6.472  16.135 -0.0207  0.1881  0.8527
14351TIP3    H164468   4.436   6.513  16.221  0.2011  0.9103  0.5468
14351TIP3    H264469   4.457   6.379  16.153  0.5566  0.3995  1.6439
14352TIP3   OH264470   5.155   6.497  14.644 -1.1956 -0.6774 -0.3632
14352TIP3    H164471   5.248   6.503  14.621 -1.5619  1.0873 -1.6327
14352TIP3    H264472   5.118   6.438  14.578 -1.2165 -0.1641 -0.8253
14353TIP3   OH264473   6.679   2.198   1.231  0.6500  0.4813  0.2517
14353TIP3    H164474   6.598   2.190   1.181 -0.5974 -1.0130  2.3425
14353TIP3    H264475   6.719   2.112   1.227 -0.1797 -0.1150  2.8036
14354TIP3   OH264476   5.974   5.126   5.454 -0.4990 -0.2776  0.2736
14354TIP3    H164477   6.015   5.041   5.465  2.9523  1.0083 -1.0992
14354TIP3    H264478   5.962   5.159   5.543  0.3782 -1.2422  0.7655
14355TIP3   OH264479   5.197   5.970  12.512  0.3304  0.2424 -0.0748
14355TIP3    H164480   5.140   6.039  12.545 -0.9384 -1.3991  1.3284
14355TIP3    H264481   5.259   5.952  12.584 -1.9043 -2.7570  1.3251
14356TIP3   OH264482   0.231   5.624  11.112 -0.4168  0.9356 -0.5329
14356TIP3    H164483   0.296   5.681  11.072  3.0543 -1.8766  0.4812
14356TIP3    H264484   0.222   5.656  11.202  1.0198  0.3531 -0.1563
14357TIP3   OH264485   2.498   6.016  13.465 -0.2811 -0.2335  0.4838
14357TIP3    H164486   2.551   5.948  13.508  0.6320  0.5519  0.6362
14357TIP3    H264487   2.504   5.995  13.372  1.5395  0.6563  0.3505
14358TIP3   OH264488   1.286   3.009  17.150  0.1345 -0.6302  0.0046
14358TIP3    H164489   1.336   3.048  17.078  0.1847  0.4085  0.5834
14358TIP3    H264490   1.254   2.926  17.115  0.5366 -0.3477 -1.0617
14359TIP3   OH264491   1.847   4.607  15.206  0.3971 -0.0281 -0.1343
14359TIP3    H164492   1.760   4.568  15.196  0.4908 -0.3237  0.1669
14359TIP3    H264493   1.834   4.700  15.188  0.0415 -0.0899 -0.2141
14360TIP3   OH264494   3.425   4.862  15.658  0.6852 -0.2258 -0.5301
14360TIP3    H164495   3.330   4.877  15.659  0.7611  0.2721  0.0867
14360TIP3    H264496   3.451   4.877  15.567  0.2213 -0.0210 -0.6313
14361TIP3   OH264497   2.762   1.096   2.627  0.2073 -0.0231 -0.3547
14361TIP3    H164498   2.671   1.072   2.645  0.3170 -0.1347  0.0537
14361TIP3    H264499   2.801   1.109   2.713  0.3166  1.0247 -0.5477
14362TIP3   OH264500   4.862   1.056   0.100 -0.0696 -0.0867  0.1358
14362TIP3    H164501   4.880   1.057   0.194 -0.7106 -0.6022  0.2685
14362TIP3    H264502   4.772   1.024   0.092  0.7216 -2.2720 -0.7591
14363TIP3   OH264503   0.542   2.643  15.335  0.0584 -0.5774 -0.1877
14363TIP3    H164504   0.632   2.649  15.304 -0.0637  0.6817 -0.3965
14363TIP3    H264505   0.493   2.613  15.258  0.4223 -2.2895  0.2214
14364TIP3   OH264506   6.014   6.181   5.551 -0.2851 -0.1402  0.1481
14364TIP3    H164507   6.103   6.150   5.570 -0.6475 -0.2251  1.8773
14364TIP3    H264508   6.024   6.276   5.542 -0.0600 -0.1047  0.6960
14365TIP3   OH264509   3.376   0.071   5.484 -0.7156 -0.0314  0.7144
14365TIP3    H164510   3.336   0.008   5.424  0.0798  1.1775 -1.1644
14365TIP3    H264511   3.462   0.035   5.504 -0.1291  0.5748 -0.6238
14366TIP3   OH264512   3.180   0.965   0.967 -0.5251 -0.8556 -0.1802
14366TIP3    H164513   3.160   0.898   0.901 -0.1926 -0.6279 -0.5101
14366TIP3    H264514   3.160   1.048   0.924  1.4326 -0.5920 -0.6421
14367TIP3   OH264515   1.418   1.845  16.801 -0.1445  0.5631 -0.2778
14367TIP3    H164516   1.358   1.779  16.768  1.3255 -0.3704 -1.1652
14367TIP3    H264517   1.374   1.928  16.783 -1.5458 -0.1089 -0.0942
14368TIP3   OH264518   5.749   0.002   2.785 -0.6037  0.2543  0.0889
14368TIP3    H164519   5.680   0.036   2.729 -0.7167  0.8974  0.6075
14368TIP3    H264520   5.747   0.058   2.863 -1.7177 -1.7768  1.5991
14369TIP3   OH264521   1.789   6.324  14.681 -0.4959 -0.2805 -0.4372
14369TIP3    H164522   1.778   6.386  14.753  0.4838  0.1012 -0.5923
14369TIP3    H264523   1.784   6.237  14.722 -1.6167 -0.1072 -0.1798
14370TIP3   OH264524   4.761   1.035   5.562 -0.1278 -0.0846  0.3279
14370TIP3    H164525   4.828   1.076   5.508  1.1517 -1.1939  1.0096
14370TIP3    H264526   4.760   1.088   5.642 -0.6083  0.3760  0.0215
14371TIP3   OH264527   4.588   6.053  14.923 -0.2900  0.2592  0.6342
14371TIP3    H164528   4.681   6.068  14.942 -0.6740  1.3034  1.8198
14371TIP3    H264529   4.575   5.959  14.937  0.7308 -0.0329 -0.2561
14372TIP3   OH264530   1.478   4.020   0.383 -0.3185  0.1625  0.3579
14372TIP3    H164531   1.500   4.067   0.303 -0.7769 -0.6922 -0.2809
14372TIP3    H264532   1.383   4.030   0.392 -0.3966 -0.4998  0.3038
14373TIP3   OH264533   3.504   0.918  13.786  0.3287 -0.0478  0.0721
14373TIP3    H164534   3.591   0.895  13.820 -0.2286 -0.5148  1.2613
14373TIP3    H264535   3.458   0.834  13.782 -0.7054  0.4194  1.3974
14374TIP3   OH264536   3.942   2.796  12.372 -0.1544 -0.1166 -0.5765
14374TIP3    H164537   3.876   2.812  12.304  0.7590  1.4947 -1.1337
14374TIP3    H264538   3.944   2.701  12.381 -1.0362 -0.3133 -2.0782
14375TIP3   OH264539   4.971   2.272   6.243 -0.4454 -0.1012  0.4672
14375TIP3    H164540   4.967   2.221   6.324  0.7368  0.0827  0.6594
14375TIP3    H264541   4.951   2.361   6.271 -1.6672 -0.2921  0.2688
14376TIP3   OH264542   4.731   6.208   1.605  0.2817  0.4885 -0.0343
14376TIP3    H164543   4.787   6.244   1.537  0.6514 -1.0455 -0.5904
14376TIP3    H264544   4.643   6.238   1.583  0.0273 -1.6553 -2.5030
14377TIP3   OH264545   5.219   1.952   4.197  0.6785  0.1548  0.3568
14377TIP3    H164546   5.283   1.898   4.151  0.5000  0.9495 -0.8529
14377TIP3    H264547   5.159   1.983   4.129 -0.1170  0.6504  1.2501
14378TIP3   OH264548   4.975   5.696  13.700 -0.0462  0.2984  0.5158
14378TIP3    H164549   4.904   5.743  13.656 -0.4033 -0.7214 -0.0642
14378TIP3    H264550   5.044   5.690  13.633 -1.0673 -2.3421 -0.4460
14379TIP3   OH264551   3.835   0.435   3.214 -0.3110 -0.2435 -0.5804
14379TIP3    H164552   3.765   0.412   3.274 -0.8834 -0.1629 -1.2143
14379TIP3    H264553   3.793   0.444   3.129  0.2217  1.1844 -0.7179
14380TIP3   OH264554   6.419   0.905   0.478  0.6909  1.1530 -0.0502
14380TIP3    H164555   6.507   0.889   0.512  0.6721  1.8217  0.3279
14380TIP3    H264556   6.432   0.935   0.389  0.9452  2.7615  0.5061
14381TIP3   OH264557   4.276   0.828   4.959 -0.8587 -0.0289 -0.0683
14381TIP3    H164558   4.369   0.842   4.945 -0.4060 -1.4007  1.3918
14381TIP3    H264559   4.256   0.746   4.915 -1.7783  1.0268 -1.7573
14382TIP3   OH264560   0.549   4.489  15.128  0.1874  0.4952 -0.6432
14382TIP3    H164561   0.629   4.463  15.082  0.8474 -0.1554  0.8047
14382TIP3    H264562   0.501   4.407  15.141  0.6806  0.4364  1.0071
14383TIP3   OH264563   2.408   4.395   3.777 -0.4979 -0.5006 -0.8939
14383TIP3    H164564   2.459   4.351   3.845  0.1749  0.0525 -1.0295
14383TIP3    H264565   2.321   4.407   3.816 -1.8816 -4.9369 -1.9839
14384TIP3   OH264566   2.601   0.279  11.785  0.4081 -0.1883  0.0344
14384TIP3    H164567   2.657   0.334  11.730  0.8381 -0.8860 -0.2429
14384TIP3    H264568   2.630   0.190  11.767 -0.7017 -0.5584  0.0052
14385TIP3   OH264569   2.469   2.805   5.379 -0.5171 -0.0646  0.6770
14385TIP3    H164570   2.463   2.872   5.311  0.0573 -0.1996  0.4928
14385TIP3    H264571   2.498   2.726   5.333 -3.9754 -1.3179  0.2999
14386TIP3   OH264572   2.156   5.927   1.807 -0.0858  0.7328  0.2732
14386TIP3    H164573   2.154   5.952   1.899  1.1930  0.6224  0.3473
14386TIP3    H264574   2.105   5.996   1.763 -1.2751  0.4175  1.1212
14387TIP3   OH264575   0.789   0.993  12.567 -0.3184 -0.0589  0.0240
14387TIP3    H164576   0.789   0.912  12.619  0.9293  0.4894  0.9628
14387TIP3    H264577   0.830   0.968  12.484 -3.4241 -1.2282 -1.3067
14388TIP3   OH264578   0.823   0.824   3.403 -0.1418 -0.4023 -0.2639
14388TIP3    H164579   0.768   0.780   3.468 -0.6986 -0.1652 -0.5681
14388TIP3    H264580   0.801   0.917   3.412  0.8215 -0.1956  0.1839
14389TIP3   OH264581   2.013   1.593   0.579  0.1526  0.7115  0.1881
14389TIP3    H164582   1.997   1.536   0.654  0.3147  0.8897  0.3588
14389TIP3    H264583   2.010   1.534   0.504  2.4026  0.1012  0.5143
14390TIP3   OH264584   6.516   3.188   2.270 -0.3296  0.2255 -0.1524
14390TIP3    H164585   6.458   3.163   2.343  1.1145 -0.0340  0.9634
14390TIP3    H264586   6.554   3.271   2.298 -0.8370  0.8648 -1.3003
14391TIP3   OH264587   2.605   3.762   4.192  0.4136  0.2103 -0.1102
14391TIP3    H164588   2.600   3.857   4.203 -2.2545  0.1064  0.3037
14391TIP3    H264589   2.599   3.748   4.098  0.5795  0.4465 -0.1564
14392TIP3   OH264590   3.533   4.362  11.537  0.3636 -0.0095  0.0126
14392TIP3    H164591   3.528   4.321  11.451  1.4158 -1.2553  0.5192
14392TIP3    H264592   3.625   4.352  11.563 -0.2780 -1.1732  1.9942
14393TIP3   OH264593   5.624   2.136   5.773  0.6217  0.3511  0.3777
14393TIP3    H164594   5.651   2.176   5.690  0.3182  1.0442  0.6067
14393TIP3    H264595   5.529   2.138   5.771  0.5918 -0.6746  0.2538
14394TIP3   OH264596   2.434   4.330   4.055 -0.2333 -0.4090  0.1066
14394TIP3    H164597   2.420   4.240   4.084 -0.0908 -0.4437  0.0674
14394TIP3    H264598   2.365   4.345   3.990  1.2346 -1.3288 -1.7519
14395TIP3   OH264599   3.626   3.153  11.375 -0.2928 -0.6234 -0.4315
14395TIP3    H164600   3.625   3.236  11.327 -0.8239 -0.7205 -0.5938
14395TIP3    H264601   3.564   3.167  11.447  0.3609 -0.5408  0.1312
14396TIP3   OH264602   3.284   4.859  16.944  0.3807 -0.0656  0.7478
14396TIP3    H164603   3.280   4.787  17.007 -2.2395 -0.0029  0.7635
14396TIP3    H264604   3.312   4.935  16.996  0.6229 -0.5249  1.3000
14397TIP3   OH264605   2.278   0.477  12.566  0.4518  0.7590  0.0442
14397TIP3    H164606   2.330   0.551  12.538 -0.2312  1.5204  0.7435
14397TIP3    H264607   2.253   0.497  12.656  1.4459 -0.9841  0.7722
14398TIP3   OH264608   6.338   2.970   6.267 -1.1440  0.4993  0.0191
14398TIP3    H164609   6.359   2.896   6.324 -0.5000 -1.3343 -2.3853
14398TIP3    H264610   6.424   3.003   6.239 -1.4228  0.5082 -0.8520
14399TIP3   OH264611   6.599   3.888  17.113 -0.0148 -0.0421 -0.1519
14399TIP3    H164612   6.552   3.812  17.080  0.1845 -1.2793  2.2369
14399TIP3    H264613   6.688   3.877  17.079 -0.0886 -0.6387 -0.1612
14400TIP3   OH264614   3.401   2.538  11.848 -0.3927 -0.2102 -0.3792
14400TIP3    H164615   3.394   2.442  11.841  0.4774 -0.4104  1.0334
14400TIP3    H264616   3.327   2.563  11.905 -0.6778 -0.0259 -0.8297
14401TIP3   OH264617   1.251   2.566  16.831  0.4298  0.1619 -0.1063
14401TIP3    H164618   1.258   2.470  16.834 -0.2148  0.0927 -0.5795
14401TIP3    H264619   1.244   2.586  16.738  0.0692  0.6345  0.0240
14402TIP3   OH264620   6.532   2.082  11.506 -0.1271 -0.4000 -0.6955
14402TIP3    H164621   6.600   2.145  11.483 -1.3940  1.3422  0.1062
14402TIP3    H264622   6.459   2.103  11.447 -2.0417  1.6520  2.1541
14403TIP3   OH264623   1.407   6.452   5.467 -0.4261  0.3658 -0.1339
14403TIP3    H164624   1.395   6.506   5.388  0.0626  1.4181  0.4839
14403TIP3    H264625   1.370   6.505   5.538 -1.0407 -0.6536  0.3296
14404TIP3   OH264626   2.996   5.197  14.523  0.8151 -0.5199  1.1172
14404TIP3    H164627   3.056   5.258  14.479  0.6244 -0.6429  0.6835
14404TIP3    H264628   3.041   5.113  14.519 -0.0436 -0.9458 -0.5996
14405TIP3   OH264629   1.738   2.665   1.799 -0.4190 -0.3738  0.1511
14405TIP3    H164630   1.698   2.710   1.724  0.1627  0.0175  0.0759
14405TIP3    H264631   1.812   2.618   1.761 -0.2195 -0.3049  0.4587
14406TIP3   OH264632   0.928   4.224  12.758 -0.5260 -0.3158 -0.1760
14406TIP3    H164633   0.914   4.319  12.754 -0.9652 -0.2851  1.2602
14406TIP3    H264634   1.000   4.213  12.820 -0.7231 -0.9322 -0.0452
14407TIP3   OH264635   1.896   6.630   1.737  0.8281 -0.4990  0.8205
14407TIP3    H164636   1.817   6.638   1.790 -1.6787 -0.0420 -2.6508
14407TIP3    H264637   1.936   6.717   1.741 -0.6276  0.2432  0.1967
14408TIP3   OH264638   3.520   4.151   0.744  0.1900  0.2284 -0.1419
14408TIP3    H164639   3.487   4.235   0.712  1.2927 -0.0427 -2.1546
14408TIP3    H264640   3.608   4.171   0.776  0.0934  0.0039  0.2659
14409TIP3   OH264641   6.751   5.204  11.300  0.7446 -0.8259  0.1225
14409TIP3    H164642   6.814   5.259  11.252  0.1915  0.1644  0.5188
14409TIP3    H264643   6.744   5.125  11.246  0.2625  0.1879 -1.3782
14410TIP3   OH264644   5.819   5.596   1.735 -0.2885 -0.6264 -0.1208
14410TIP3    H164645   5.819   5.668   1.798  0.7248 -1.9922  1.5605
14410TIP3    H264646   5.763   5.529   1.776 -0.1184 -1.3023 -0.9720
14411TIP3   OH264647   1.799   0.304  14.825 -0.2459 -0.1016 -0.6690
14411TIP3    H164648   1.822   0.355  14.747 -1.6233 -2.0198 -2.4560
14411TIP3    H264649   1.717   0.343  14.855 -0.8031 -0.6052 -1.4736
14412TIP3   OH264650   5.161   3.298  12.542 -0.6322  0.6533 -0.1762
14412TIP3    H164651   5.154   3.287  12.637 -0.1406  1.3179 -0.0507
14412TIP3    H264652   5.143   3.391  12.528 -0.3190  0.6401 -0.6897
14413TIP3   OH264653   4.316   5.503  15.588  0.0544 -0.1252 -0.0886
14413TIP3    H164654   4.364   5.517  15.506 -1.3643 -0.4261 -1.0158
14413TIP3    H264655   4.229   5.540  15.571 -0.7367 -1.5220  0.7425
14414TIP3   OH264656   3.221   3.861   4.280  0.4997 -0.1767 -0.7517
14414TIP3    H164657   3.172   3.825   4.206  0.7370  0.0846 -1.0428
14414TIP3    H264658   3.157   3.869   4.350  0.3544 -0.7612 -0.8205
14415TIP3   OH264659   5.146   3.122   2.861  0.8333  0.3423 -0.2264
14415TIP3    H164660   5.115   3.047   2.810 -1.2203 -0.6319  2.2349
14415TIP3    H264661   5.104   3.197   2.819 -1.7934 -0.5477  0.5621
14416TIP3   OH264662   4.952   5.109   4.687  0.8346  0.4268  0.1038
14416TIP3    H164663   4.983   5.193   4.721 -2.3363  1.4566  0.8355
14416TIP3    H264664   4.886   5.080   4.751 -1.9540  0.0444 -2.6663
14417TIP3   OH264665   4.723   4.866  11.210 -0.0670  0.2711 -0.0573
14417TIP3    H164666   4.740   4.953  11.244 -0.2705  1.0255 -1.7995
14417TIP3    H264667   4.765   4.807  11.273  2.2677  1.7078 -0.1715
14418TIP3   OH264668   1.204   5.576   0.692 -0.0807 -0.1416  0.1199
14418TIP3    H164669   1.140   5.551   0.626  0.8375 -1.8691 -0.1627
14418TIP3    H264670   1.218   5.670   0.677 -0.4146 -0.3404 -1.6771
14419TIP3   OH264671   1.858   0.533   0.253 -0.7087 -0.2921  0.1211
14419TIP3    H164672   1.832   0.572   0.336  0.4766  0.8640 -0.0319
14419TIP3    H264673   1.876   0.441   0.274  2.0334  0.5143  1.7338
14420TIP3   OH264674   0.407   6.120   3.599  0.2225 -0.0435 -0.3997
14420TIP3    H164675   0.408   6.101   3.693 -0.3256 -1.0358 -0.5740
14420TIP3    H264676   0.399   6.215   3.594  1.4590  0.1410  0.5445
14421TIP3   OH264677   4.227   4.700  15.547  0.1839  0.2496  0.4999
14421TIP3    H164678   4.267   4.783  15.519 -0.7029  0.6145  0.3042
14421TIP3    H264679   4.134   4.712  15.532  0.0141 -0.6679  0.7939
14422TIP3   OH264680   5.475   0.808   1.577  0.7750 -0.6548 -0.5048
14422TIP3    H164681   5.476   0.756   1.497 -1.6062 -0.3856 -0.7698
14422TIP3    H264682   5.427   0.755   1.640 -0.2623  0.4821 -0.2916
14423TIP3   OH264683   1.628   4.180   2.248 -0.0716 -0.3082 -0.0848
14423TIP3    H164684   1.675   4.263   2.246  2.3042 -1.4570  2.0725
14423TIP3    H264685   1.671   4.126   2.182 -1.2290 -0.0731 -1.0712
14424TIP3   OH264686   6.151   6.028   1.534 -0.4574  0.6359  0.1031
14424TIP3    H164687   6.100   5.953   1.564 -4.5699  3.3743  0.6727
14424TIP3    H264688   6.113   6.050   1.449  1.1122  1.7432 -0.3600
14425TIP3   OH264689   3.591   5.883   4.115 -0.0731 -0.2142  0.4613
14425TIP3    H164690   3.631   5.965   4.085 -0.1748 -0.4337 -0.3168
14425TIP3    H264691   3.522   5.910   4.175  0.7541  0.2041  1.2571
14426TIP3   OH264692   5.908   4.111   3.443 -0.3230 -0.0252  0.4712
14426TIP3    H164693   5.848   4.039   3.423 -0.7442  0.6129 -0.6903
14426TIP3    H264694   5.938   4.141   3.357 -1.1282  1.9849  0.8376
14427TIP3   OH264695   4.539   5.051  13.702 -0.1364 -0.1189 -0.2732
14427TIP3    H164696   4.577   4.979  13.651  1.6628  0.5287  0.0994
14427TIP3    H264697   4.501   5.008  13.779 -0.4250 -0.8200 -0.7990
14428TIP3   OH264698   1.505   1.172   1.513  0.6845  0.7851  0.4005
14428TIP3    H164699   1.585   1.124   1.534  0.1108  0.1394  1.1698
14428TIP3    H264700   1.518   1.204   1.424  0.3706 -2.3475 -0.8774
14429TIP3   OH264701   1.007   3.413  17.098  1.0218 -0.0481  0.1728
14429TIP3    H164702   1.000   3.507  17.113  0.8067 -0.3101  2.0557
14429TIP3    H264703   0.991   3.401  17.005  0.9516  1.7675 -0.0664
14430TIP3   OH264704   0.029   5.461   4.318  0.8337  0.0339  1.3384
14430TIP3    H164705  -0.065   5.463   4.297  1.3056 -0.5189 -1.0658
14430TIP3    H264706   0.033   5.414   4.402 -1.0416  0.3644  1.6624
14431TIP3   OH264707   4.301   4.253  13.021 -0.0047  0.0536  0.0884
14431TIP3    H164708   4.347   4.329  12.986 -0.9890  0.0903 -1.1838
14431TIP3    H264709   4.365   4.210  13.078  0.8362  1.3591  0.1626
14432TIP3   OH264710   1.738   4.717   2.213  0.2672  0.0377 -0.0082
14432TIP3    H164711   1.700   4.688   2.130  0.0458  0.5914 -0.1086
14432TIP3    H264712   1.765   4.807   2.196 -0.3421  0.3665  0.6946
14433TIP3   OH264713   4.673   3.154   5.659  0.3169 -0.0551 -0.3013
14433TIP3    H164714   4.588   3.109   5.667 -0.7244  1.8785  0.2351
14433TIP3    H264715   4.705   3.159   5.749 -0.1265  1.2353 -0.2030
14434TIP3   OH264716   1.502   6.592   4.443  0.3633 -0.2320  0.2693
14434TIP3    H164717   1.508   6.506   4.402  0.1520  0.6235 -1.6777
14434TIP3    H264718   1.428   6.634   4.400  0.8037  1.1300  0.7835
14435TIP3   OH264719   1.358   4.325   3.592 -0.4513  0.8110 -0.0342
14435TIP3    H164720   1.436   4.277   3.619  0.0080  0.6486 -1.5569
14435TIP3    H264721   1.369   4.412   3.631 -0.4210  0.2533  1.2650
14436TIP3   OH264722   5.840   2.408   4.405 -0.2572 -0.9825 -0.3958
14436TIP3    H164723   5.829   2.443   4.493  0.0285  1.0937 -1.1200
14436TIP3    H264724   5.934   2.411   4.389 -0.4547  0.7833 -1.5181
14437TIP3   OH264725   6.133   1.619   0.986  0.5239 -0.1392  0.0611
14437TIP3    H164726   6.054   1.655   1.025 -0.7219 -0.9925 -1.5232
14437TIP3    H264727   6.148   1.537   1.033  0.7925  0.2883  0.7261
14438TIP3   OH264728   1.202   3.800  16.264  0.0316  0.6966  0.0890
14438TIP3    H164729   1.156   3.877  16.296 -1.5081 -0.2271  0.2157
14438TIP3    H264730   1.234   3.824  16.177 -0.7202  1.3555 -0.0102
14439TIP3   OH264731   1.585   2.602   4.305  0.6365 -0.0210  0.3186
14439TIP3    H164732   1.572   2.519   4.351  0.4523  0.0862  0.4621
14439TIP3    H264733   1.646   2.650   4.360 -0.4037  0.5415  1.0211
14440TIP3   OH264734   0.578   4.134   0.665 -0.5367 -0.1586 -0.4068
14440TIP3    H164735   0.633   4.211   0.682 -0.2293 -0.7996  1.7722
14440TIP3    H264736   0.554   4.101   0.751 -0.7179 -2.4870 -1.2539
14441TIP3   OH264737   3.735   3.326   0.889  0.6453  0.4383  0.0943
14441TIP3    H164738   3.665   3.301   0.949  0.7652  0.5472  0.2794
14441TIP3    H264739   3.690   3.349   0.807  0.4601  0.5946  0.2410
14442TIP3   OH264740   3.022   6.122  17.019 -0.1350 -0.4455  0.0159
14442TIP3    H164741   3.019   6.202  17.070  3.6823 -0.0949 -0.0016
14442TIP3    H264742   2.935   6.084  17.028 -1.1258  2.1007  2.5997
14443TIP3   OH264743   4.875   6.465   1.187 -0.4685  0.1926 -0.1600
14443TIP3    H164744   4.888   6.554   1.154 -0.5086  0.3783  0.3226
14443TIP3    H264745   4.950   6.449   1.244 -0.6864  0.0796  0.0979
14444TIP3   OH264746   1.536   0.385   5.329 -0.8364 -0.1361 -0.2657
14444TIP3    H164747   1.623   0.424   5.332 -1.0288  0.3683 -1.0019
14444TIP3    H264748   1.498   0.418   5.247 -2.7149  1.8006  1.2807
14445TIP3   OH264749   2.561   3.887   3.373  0.2856  0.1133  0.0313
14445TIP3    H164750   2.646   3.930   3.385  0.5321 -0.4653  0.3640
14445TIP3    H264751   2.518   3.897   3.457  0.4604 -0.5513  0.1986
14446TIP3   OH264752   3.871   3.417   3.773 -0.5074  0.3099 -0.0921
14446TIP3    H164753   3.878   3.358   3.697  0.1057  0.7071 -0.3509
14446TIP3    H264754   3.800   3.380   3.825 -0.6394 -0.2259 -0.6368
14447TIP3   OH264755   3.367   0.380   5.844 -0.1323 -0.1211  0.1332
14447TIP3    H164756   3.407   0.303   5.885 -2.5679 -1.6337 -0.1824
14447TIP3    H264757   3.438   0.419   5.793  0.9665 -2.6701 -0.4098
14448TIP3   OH264758   1.177   3.589  12.600 -0.3150  0.1501 -0.1461
14448TIP3    H164759   1.192   3.622  12.511  0.7143 -0.1534 -0.0972
14448TIP3    H264760   1.182   3.494  12.591  0.4140  0.1394  0.3415
14449TIP3   OH264761   2.516   2.525  13.134  0.7037  0.4210 -0.1457
14449TIP3    H164762   2.599   2.532  13.180  1.6448  1.8342 -1.8989
14449TIP3    H264763   2.478   2.613  13.140 -1.8673 -0.6874  2.5531
14450TIP3   OH264764   2.876   0.352   1.611  0.6227 -0.8010 -0.3359
14450TIP3    H164765   2.884   0.431   1.665  2.7454 -0.6892 -0.7451
14450TIP3    H264766   2.825   0.381   1.535 -2.7377 -1.0509  1.6114
14451TIP3   OH264767   3.246   6.675   3.389  0.6983 -0.5310 -0.5915
14451TIP3    H164768   3.249   6.582   3.411  3.3614 -0.0603  1.7385
14451TIP3    H264769   3.176   6.711   3.443  0.2379 -1.0435 -0.8465
14452TIP3   OH264770   0.280   4.089  14.324 -0.0371  0.0743 -0.5096
14452TIP3    H164771   0.247   4.109  14.236 -0.3846 -1.7814 -0.8324
14452TIP3    H264772   0.225   4.141  14.382 -0.2203  0.8342 -1.3266
14453TIP3   OH264773   5.544   3.230  15.531 -0.0852  0.0439 -0.1117
14453TIP3    H164774   5.524   3.305  15.587 -0.3694  1.2105 -1.7119
14453TIP3    H264775   5.635   3.243  15.504  0.0181 -0.4565 -0.0219
14454TIP3   OH264776   6.312   6.142  13.644 -0.1313  0.5911  0.9822
14454TIP3    H164777   6.257   6.112  13.717 -1.4691  2.4282  0.8207
14454TIP3    H264778   6.249   6.175  13.580  1.0326 -0.7080 -0.8960
14455TIP3   OH264779   4.450   0.878   0.849  0.5015  0.0422 -0.1243
14455TIP3    H164780   4.432   0.920   0.933  0.9233  2.9978 -1.3792
14455TIP3    H264781   4.531   0.829   0.863  0.2325 -0.0056  1.3380
14456TIP3   OH264782   1.157   3.285   1.259  0.4056 -0.2587 -0.0021
14456TIP3    H164783   1.094   3.317   1.324 -0.8505  0.9871 -1.7453
14456TIP3    H264784   1.212   3.361   1.241 -0.9206  0.2739 -2.2392
14457TIP3   OH264785   3.998   6.432  12.661 -0.3259 -0.9556  0.0607
14457TIP3    H164786   4.041   6.350  12.684  2.7368 -0.0545 -1.7401
14457TIP3    H264787   4.002   6.484  12.742 -1.0952 -2.0906  0.8466
14458TIP3   OH264788   2.359   2.517   5.336  0.2640 -0.3081  0.4929
14458TIP3    H164789   2.322   2.445   5.387 -0.4747 -0.1164  0.2495
14458TIP3    H264790   2.438   2.482   5.296 -1.1509 -1.6462 -1.3030
14459TIP3   OH264791   1.633   4.926   1.635  0.2027 -0.0597 -0.0809
14459TIP3    H164792   1.654   5.007   1.681  1.2500  0.3111 -1.1867
14459TIP3    H264793   1.565   4.951   1.573  0.3639 -0.0809 -0.2653
14460TIP3   OH264794   4.944   3.061  14.957 -0.0280  0.7000 -0.7905
14460TIP3    H164795   4.867   3.041  14.902 -1.0046  2.0035  0.0390
14460TIP3    H264796   5.009   3.094  14.895 -0.3005  0.0084 -1.4577
14461TIP3   OH264797   4.285   3.081   4.335  0.0020 -0.4002 -0.0953
14461TIP3    H164798   4.277   3.141   4.260  0.3933  2.0081  1.6511
14461TIP3    H264799   4.380   3.069   4.346 -0.0876 -2.0396 -0.8978
14462TIP3   OH264800   1.155   4.659  15.640 -0.5334 -0.6587  0.3024
14462TIP3    H164801   1.118   4.722  15.701 -1.1122 -1.9481  1.3365
14462TIP3    H264802   1.249   4.680  15.637 -0.9195  1.1346 -0.5174
14463TIP3   OH264803   2.977   4.337  14.753  0.1918  0.2936  0.1375
14463TIP3    H164804   3.029   4.300  14.682  0.2415  0.7295 -0.0591
14463TIP3    H264805   2.982   4.432  14.739  1.1066  0.4487  1.3485
14464TIP3   OH264806   6.149   2.702   4.653 -0.6360 -0.1614  0.1596
14464TIP3    H164807   6.119   2.793   4.643 -1.0549 -0.2945  0.2076
14464TIP3    H264808   6.219   2.708   4.718 -1.3015  0.0015  0.8790
14465TIP3   OH264809   1.283   2.855   2.585 -0.0822 -0.7371 -0.3654
14465TIP3    H164810   1.211   2.880   2.527  0.4531 -0.9217 -1.1146
14465TIP3    H264811   1.350   2.820   2.527  0.7561 -0.2618  0.2982
14466TIP3   OH264812   5.635   2.888   3.859  0.2622  0.7661  0.4094
14466TIP3    H164813   5.547   2.867   3.828  0.5974 -0.2029  0.0749
14466TIP3    H264814   5.665   2.808   3.901  2.1416 -0.0345 -2.1746
14467TIP3   OH264815   6.151   6.215  14.913  0.4173  0.0663 -0.1054
14467TIP3    H164816   6.156   6.305  14.943  0.5945 -0.0059  0.0887
14467TIP3    H264817   6.185   6.163  14.987  1.5567 -0.0631 -0.6927
14468TIP3   OH264818   4.254   0.896  14.016 -0.1096  0.0578 -0.2858
14468TIP3    H164819   4.316   0.968  14.030  0.5240 -0.0509 -2.1618
14468TIP3    H264820   4.173   0.938  13.988  0.0183  0.0968 -0.6085
14469TIP3   OH264821   6.657   4.662   2.057 -0.3958 -0.4780 -0.2266
14469TIP3    H164822   6.666   4.582   2.006  1.4222 -0.9295  0.7144
14469TIP3    H264823   6.564   4.669   2.076 -0.4707 -3.0974  0.7911
14470TIP3   OH264824   0.288   1.388   1.777 -0.2789  1.0719  0.4246
14470TIP3    H164825   0.381   1.368   1.771  0.2827  3.5514 -0.5016
14470TIP3    H264826   0.270   1.392   1.871  0.6912  1.0937  0.6185
14471TIP3   OH264827   2.216   1.849   5.010  0.4368  0.3683  0.4580
14471TIP3    H164828   2.175   1.934   4.990  0.1346  0.2477  0.5604
14471TIP3    H264829   2.309   1.870   5.020  0.7551  0.2998 -1.9201
14472TIP3   OH264830   3.011   1.453  10.763 -0.6316  0.2154 -0.4909
14472TIP3    H164831   3.055   1.443  10.678 -2.2273  0.8848 -1.4557
14472TIP3    H264832   2.918   1.456  10.741 -1.0150  2.0803  1.0979
14473TIP3   OH264833   6.619   2.656   3.288 -0.0887  0.1216  0.2135
14473TIP3    H164834   6.637   2.712   3.363 -3.6827  0.3269  1.0971
14473TIP3    H264835   6.563   2.709   3.232 -0.8270 -1.4514 -0.5972
14474TIP3   OH264836   4.582   6.224  13.937  0.4675 -0.0918 -0.2015
14474TIP3    H164837   4.511   6.221  14.001  1.5801  1.4899  1.1895
14474TIP3    H264838   4.539   6.208  13.853 -1.8144  2.2403  0.4071
14475TIP3   OH264839   1.403   3.143   1.420  0.5756  0.5343 -0.6160
14475TIP3    H164840   1.457   3.217   1.392  0.7396  0.6379 -0.0402
14475TIP3    H264841   1.322   3.152   1.371  0.9935  0.5016 -1.3312
14476TIP3   OH264842   2.324   6.571   3.681 -0.3657  0.9480  0.1384
14476TIP3    H164843   2.342   6.604   3.594  0.6641  1.6514  0.5950
14476TIP3    H264844   2.313   6.476   3.669 -0.5291  1.0786 -0.7807
14477TIP3   OH264845   2.976   1.241  11.511 -0.3036 -0.1031 -0.4995
14477TIP3    H164846   3.056   1.292  11.508 -0.5210  0.2347 -0.5897
14477TIP3    H264847   3.004   1.151  11.494  0.0604  0.0053 -0.4748
14478TIP3   OH264848   4.701   3.126   3.846  0.4946  0.2916  0.3008
14478TIP3    H164849   4.676   3.215   3.819  1.1941  0.0805 -1.2001
14478TIP3    H264850   4.716   3.080   3.763  0.3380 -1.1775  1.0602
14479TIP3   OH264851   5.483   2.642   0.432 -0.4420 -0.1085  0.0147
14479TIP3    H164852   5.431   2.569   0.400 -1.2408  0.1711  0.6486
14479TIP3    H264853   5.572   2.623   0.402 -0.2264 -2.3371  1.7765
14480TIP3   OH264854   1.497   3.468   2.431 -0.3758 -0.0676 -0.2997
14480TIP3    H164855   1.434   3.541   2.434 -0.2044  0.0619  0.4427
14480TIP3    H264856   1.445   3.392   2.458  0.2114  0.3844  2.4037
14481TIP3   OH264857   4.222   4.267  11.114 -0.2034  0.4692 -0.4589
14481TIP3    H164858   4.245   4.360  11.121  0.4162  0.1654  2.2416
14481TIP3    H264859   4.190   4.258  11.024  1.7818  2.8141 -1.5078
14482TIP3   OH264860   6.543   6.736   1.478 -0.0904 -0.0646  0.2610
14482TIP3    H164861   6.603   6.663   1.494  0.9562  0.6880 -0.0967
14482TIP3    H264862   6.479   6.730   1.549  1.3581  0.0652  1.6340
14483TIP3   OH264863   0.540   5.838   2.450  0.3989 -0.6383  0.2401
14483TIP3    H164864   0.602   5.779   2.493  1.1463 -2.6254 -3.1874
14483TIP3    H264865   0.462   5.785   2.438 -0.7652  0.7367  1.3520
14484TIP3   OH264866   2.353   3.175  10.597 -0.3066 -0.4389  0.3549
14484TIP3    H164867   2.426   3.127  10.557 -0.9207 -1.5591  0.5357
14484TIP3    H264868   2.344   3.137  10.685 -1.3935 -0.6536  0.1719
14485TIP3   OH264869   3.277   1.099   4.448  0.0432  0.0323  0.4555
14485TIP3    H164870   3.237   1.139   4.525 -1.4259 -0.6521  0.0934
14485TIP3    H264871   3.326   1.024   4.482  1.0250  0.8543  0.9028
14486TIP3   OH264872   3.004   5.470   6.243  0.2386  0.5273 -0.2299
14486TIP3    H164873   3.012   5.378   6.270  2.8821  0.7454 -0.0087
14486TIP3    H264874   2.972   5.465   6.153 -0.4443 -0.5542  0.0414
14487TIP3   OH264875   1.928   2.505  11.412 -0.5163 -0.1840 -0.3286
14487TIP3    H164876   1.956   2.477  11.324  0.4016  1.0109 -0.4408
14487TIP3    H264877   1.840   2.541  11.398 -1.3806 -2.1422 -0.3188
14488TIP3   OH264878   0.725   2.991  12.864  0.2161 -0.2034 -0.2685
14488TIP3    H164879   0.681   3.021  12.784  0.7217 -1.4089 -1.0429
14488TIP3    H264880   0.735   3.069  12.918 -1.7967  0.3175 -0.5778
14489TIP3   OH264881   0.030   2.674   0.538  0.0606 -0.5802  0.2013
14489TIP3    H164882   0.004   2.680   0.630 -0.8612  0.3061 -0.0875
14489TIP3    H264883   0.111   2.624   0.538 -1.0047 -2.3923  1.2886
14490TIP3   OH264884   4.003   1.285  15.516 -0.0367 -0.6284  0.1177
14490TIP3    H164885   4.074   1.269  15.577  0.0208 -1.5171 -0.1670
14490TIP3    H264886   3.984   1.199  15.477  1.3104  0.1801 -2.6100
14491TIP3   OH264887   6.466   2.007  11.765  0.4771  0.4318 -0.0449
14491TIP3    H164888   6.492   2.011  11.673  2.2562 -0.2487  0.3808
14491TIP3    H264889   6.516   2.077  11.807  1.4561 -0.6992  0.7558
14492TIP3   OH264890   3.156   0.440   4.665  0.4695  0.5282  0.3307
14492TIP3    H164891   3.169   0.511   4.728 -0.5081  1.2972 -0.3170
14492TIP3    H264892   3.080   0.466   4.613 -0.5706 -1.4476  0.7290
14493TIP3   OH264893   1.005   5.850  15.558 -0.1612  0.5557 -0.5600
14493TIP3    H164894   1.020   5.824  15.649  1.0032 -0.0822 -0.9071
14493TIP3    H264895   0.950   5.928  15.564  2.4436  2.4674  0.8854
14494TIP3   OH264896   1.868   0.455  12.139 -0.2456  0.2423  0.4556
14494TIP3    H164897   1.835   0.411  12.218 -1.9704  0.2112 -0.2318
14494TIP3    H264898   1.901   0.384  12.084 -0.6408  0.0738  0.4314
14495TIP3   OH264899   0.388   3.367   1.336  0.5616 -0.1440 -0.2752
14495TIP3    H164900   0.361   3.379   1.245 -0.2783  0.2751  0.0117
14495TIP3    H264901   0.347   3.440   1.382  0.6819 -0.5530  0.4908
14496TIP3   OH264902   0.760   4.783  11.739 -0.1694  0.2122 -0.3741
14496TIP3    H164903   0.826   4.751  11.800 -0.4620  1.8166  0.8430
14496TIP3    H264904   0.787   4.872  11.718 -1.9625  0.9503  0.2327
14497TIP3   OH264905   1.685   4.241  15.052  0.2980  0.1947 -0.5149
14497TIP3    H164906   1.761   4.247  15.110 -0.6240  0.2811  0.7284
14497TIP3    H264907   1.611   4.265  15.107 -0.6433  0.0967 -1.6945
14498TIP3   OH264908   2.330   5.178   4.585 -0.1453 -0.9580  0.7925
14498TIP3    H164909   2.329   5.149   4.494 -1.6830 -0.5673  0.6528
14498TIP3    H264910   2.421   5.202   4.602  0.0318 -0.3007 -0.8876
14499TIP3   OH264911   3.534   5.266  15.387 -0.7385  0.5718  0.5729
14499TIP3    H164912   3.520   5.199  15.454 -0.1334 -0.4541 -0.2900
14499TIP3    H264913   3.628   5.262  15.368 -1.2608 -1.0088 -2.1524
14500TIP3   OH264914   3.462   6.551  12.793 -0.6531  0.5763  0.4497
14500TIP3    H164915   3.546   6.558  12.837 -1.5242 -0.0695  2.3146
14500TIP3    H264916   3.417   6.479  12.837 -1.7618  0.1800 -1.2364
14501TIP3   OH264917   1.623   4.106   5.301 -0.3023  0.3724  0.1875
14501TIP3    H164918   1.687   4.086   5.233  0.6330  0.6298  0.9638
14501TIP3    H264919   1.674   4.107   5.382 -1.2383  0.8922  0.7873
14502TIP3   OH264920   3.477   4.796   2.462 -0.0849  0.0990 -0.8602
14502TIP3    H164921   3.569   4.771   2.459 -0.0992 -0.0568 -0.0600
14502TIP3    H264922   3.468   4.846   2.543 -0.8298 -0.4233 -0.6064
14503TIP3   OH264923   5.496   0.495  15.895  0.3142 -0.1682  0.7890
14503TIP3    H164924   5.571   0.502  15.837  0.4996 -0.0365  1.0436
14503TIP3    H264925   5.431   0.444  15.845 -1.0274  3.0930 -1.0733
14504TIP3   OH264926   2.340   6.436   3.055  0.1302 -0.0049 -0.3423
14504TIP3    H164927   2.425   6.479   3.058  1.0097 -1.5886 -0.9215
14504TIP3    H264928   2.276   6.505   3.073  1.5713  1.0963  0.7472
14505TIP3   OH264929   2.243   1.676   4.664 -0.0018 -0.2800 -0.6157
14505TIP3    H164930   2.248   1.594   4.714 -0.6673  1.0538  1.7959
14505TIP3    H264931   2.245   1.648   4.572  0.6174 -2.9236  0.1043
14506TIP3   OH264932   0.164   4.870  16.134  0.0173 -0.2398  0.1880
14506TIP3    H164933   0.085   4.816  16.128 -1.4102  1.8856 -1.2604
14506TIP3    H264934   0.133   4.960  16.125  2.3729  0.8627  1.9870
14507TIP3   OH264935   5.844   1.990   0.342 -0.9403  0.0289 -0.1729
14507TIP3    H164936   5.914   2.054   0.327 -1.0211 -0.4264 -2.9799
14507TIP3    H264937   5.881   1.929   0.406  1.0754  0.0676 -1.2234
14508TIP3   OH264938   4.989   5.926  14.845 -0.2678  0.0038  0.2850
14508TIP3    H164939   5.018   5.875  14.769 -0.7989 -0.3548  0.3191
14508TIP3    H264940   4.966   5.861  14.911  2.6263  0.2850  1.7427
14509TIP3   OH264941   2.093   0.263  16.571  0.3145  0.2304  0.0407
14509TIP3    H164942   2.136   0.235  16.490  0.1404  1.1131 -0.3640
14509TIP3    H264943   2.000   0.251  16.554  0.2327  1.1410 -0.1728
14510TIP3   OH264944   3.628   2.687  13.766  0.0937 -0.1169 -0.2883
14510TIP3    H164945   3.677   2.623  13.817 -0.4505  1.2147  2.0350
14510TIP3    H264946   3.543   2.646  13.751  0.6445 -0.9804 -1.1988
14511TIP3   OH264947   6.124   5.392  16.174  0.5820 -0.1556 -0.1417
14511TIP3    H164948   6.065   5.327  16.214 -0.4715  0.6593 -0.3341
14511TIP3    H264949   6.067   5.446  16.120  1.2984  1.4490  0.6504
14512TIP3   OH264950   0.188   6.203  11.945 -0.1887  0.2772 -0.8347
14512TIP3    H164951   0.260   6.254  11.908  1.5800 -2.4225 -1.3748
14512TIP3    H264952   0.109   6.245  11.911  1.1731  1.9404 -2.1230
14513TIP3   OH264953   1.755   1.874   1.374 -0.0003 -0.5057  0.0357
14513TIP3    H164954   1.709   1.812   1.316  0.2800 -1.1861  0.5306
14513TIP3    H264955   1.685   1.924   1.415 -0.3096 -1.3836  0.6146
14514TIP3   OH264956   5.784   2.013  15.095 -0.3015 -0.1453 -0.2823
14514TIP3    H164957   5.818   2.086  15.147  2.1032 -0.4604 -1.2906
14514TIP3    H264958   5.757   1.948  15.160  1.4938 -0.0431  0.6459
14515TIP3   OH264959   4.302   2.946  15.883 -0.7148  0.0557  0.4122
14515TIP3    H164960   4.248   2.874  15.915 -0.7853  0.4988  1.3234
14515TIP3    H264961   4.269   2.964  15.794 -0.0315 -1.6749 -0.2231
14516TIP3   OH264962   0.664   4.261  11.053 -0.7025  0.1829 -0.1017
14516TIP3    H164963   0.587   4.210  11.026 -1.3362  1.3539 -0.6015
14516TIP3    H264964   0.703   4.289  10.970  0.1975 -0.2835  0.1573
14517TIP3   OH264965   3.827   4.408  11.472  0.2932 -0.0033  0.1507
14517TIP3    H164966   3.865   4.345  11.411  0.7361  1.4091 -1.1142
14517TIP3    H264967   3.797   4.480  11.416 -0.2367  0.8791  1.5262
14518TIP3   OH264968   4.651   1.122   5.260 -0.5855  0.0837  0.6310
14518TIP3    H164969   4.742   1.098   5.243 -0.3689  1.7630 -0.8240
14518TIP3    H264970   4.654   1.173   5.341 -0.5779 -1.6231  1.7710
14519TIP3   OH264971   4.827   6.573   2.181  0.3550 -0.0881 -0.2640
14519TIP3    H164972   4.829   6.489   2.134  0.9637  0.0963 -0.5674
14519TIP3    H264973   4.849   6.550   2.272  0.1855 -0.2990 -0.2750
14520TIP3   OH264974   6.704   3.715   5.930 -0.3998  0.3771 -0.2308
14520TIP3    H164975   6.615   3.693   5.905 -0.9299 -0.8845  2.3914
14520TIP3    H264976   6.730   3.646   5.991  2.1734  1.0106 -0.4829
14521TIP3   OH264977   0.183   3.547   0.169 -0.4125  0.0022 -0.3205
14521TIP3    H164978   0.273   3.566   0.194 -0.9917  1.9918  0.5142
14521TIP3    H264979   0.166   3.460   0.205  0.8468  0.0464  0.4440
14522TIP3   OH264980   5.491   0.450  16.765  0.1340  0.3589 -0.6790
14522TIP3    H164981   5.425   0.383  16.749  1.0424 -1.0064  0.8899
14522TIP3    H264982   5.462   0.494  16.846 -0.2106  1.5868 -1.4393
14523TIP3   OH264983   1.769   1.288  14.445 -0.3124 -0.4267 -0.3730
14523TIP3    H164984   1.793   1.235  14.521  0.6809 -1.4786 -1.3691
14523TIP3    H264985   1.787   1.378  14.472 -0.4022 -0.7352  0.7775
14524TIP3   OH264986   3.937   0.724  16.319  0.5239 -0.9716 -0.3426
14524TIP3    H164987   3.857   0.693  16.275  0.6937 -2.8943  0.6063
14524TIP3    H264988   4.006   0.665  16.288  1.3567 -0.0784 -0.2405
14525TIP3   OH264989   1.937   0.478   3.131 -0.6010 -0.0842 -0.5715
14525TIP3    H164990   1.955   0.507   3.041 -1.0374 -0.7581 -0.8845
14525TIP3    H264991   2.011   0.421   3.153 -0.8255 -0.4512 -0.7537
14526TIP3   OH264992   5.333   1.852  11.184  0.2624  0.1391  0.2989
14526TIP3    H164993   5.359   1.882  11.097 -1.4536  0.6943 -0.0643
14526TIP3    H264994   5.393   1.780  11.204 -0.4352 -1.2243 -2.1211
14527TIP3   OH264995   0.084   2.820  12.123  0.0822  0.6599 -0.2248
14527TIP3    H164996   0.051   2.905  12.152  2.5834  1.6104  0.0642
14527TIP3    H264997   0.070   2.820  12.028 -0.8305  0.9656 -0.0944
14528TIP3   OH264998   2.721   2.662   0.081  0.3093  0.0662  0.1988
14528TIP3    H164999   2.629   2.661   0.107  1.0316  1.0685  3.2044
14528TIP3    H265000   2.720   2.633  -0.010 -2.6121 -3.8640  1.1925
14529TIP3   OH265001   0.320   1.980  10.480  0.4616  0.0027  0.3568
14529TIP3    H165002   0.256   1.951  10.545  1.4142 -1.3015  0.7473
14529TIP3    H265003   0.363   1.899  10.451  2.3384  0.8870  0.5410
14530TIP3   OH265004   0.470   4.220   1.887 -0.3864  0.1808 -0.1887
14530TIP3    H165005   0.399   4.285   1.890 -0.5161  0.0761 -0.7945
14530TIP3    H265006   0.499   4.212   1.977  0.0212  1.5180 -0.1874
14531TIP3   OH265007   1.276   4.919   0.590 -0.6647  0.8765 -0.5028
14531TIP3    H165008   1.297   4.827   0.580 -0.6128  0.7580  0.5547
14531TIP3    H265009   1.316   4.944   0.674 -0.2071  1.9950 -1.0207
14532TIP3   OH265010   5.053   0.946   1.249 -0.1905 -0.8036  0.4432
14532TIP3    H165011   5.049   0.934   1.343  0.7457 -0.1244  0.5922
14532TIP3    H265012   5.144   0.971   1.232 -1.0337  2.3312 -0.1949
14533TIP3   OH265013   2.850   3.585  13.630 -0.0373  0.9169 -0.1428
14533TIP3    H165014   2.924   3.608  13.686  0.9762 -1.8184 -0.2186
14533TIP3    H265015   2.856   3.646  13.557  1.1862  1.7715  0.6228
14534TIP3   OH265016   5.943   6.626  14.551  0.1467 -0.3483  0.0800
14534TIP3    H165017   6.020   6.640  14.605 -0.1924 -0.8430  0.7157
14534TIP3    H265018   5.870   6.660  14.604 -0.0261  0.5419 -0.7045
14535TIP3   OH265019   2.329   3.335  13.775 -0.3842  0.6707  0.2833
14535TIP3    H165020   2.279   3.280  13.714 -0.4215  0.7803  0.2143
14535TIP3    H265021   2.406   3.283  13.797 -0.5642  0.4685  0.4487
14536TIP3   OH265022   3.438   5.972  12.477  0.3713 -0.4495 -0.5462
14536TIP3    H165023   3.446   5.882  12.509 -1.7456 -0.2863  0.6497
14536TIP3    H265024   3.485   6.025  12.541 -1.9991 -0.3487  1.2359
14537TIP3   OH265025   3.780   6.212  14.103  0.8554 -0.0820 -0.6072
14537TIP3    H165026   3.782   6.142  14.169 -1.6021 -2.0066 -2.3920
14537TIP3    H265027   3.773   6.293  14.154 -2.8881 -1.5814  1.6191
14538TIP3   OH265028   5.740   3.769  16.267 -0.2084 -0.5204 -0.3764
14538TIP3    H165029   5.802   3.738  16.201  0.2318 -0.4178 -0.0222
14538TIP3    H265030   5.719   3.858  16.242  1.5139  0.2432  0.6886
14539TIP3   OH265031   5.618   3.496  16.295  0.1171 -0.5296 -0.1599
14539TIP3    H165032   5.698   3.549  16.295  0.0036 -0.3482 -0.8940
14539TIP3    H265033   5.625   3.441  16.217 -0.7724 -0.0514 -0.5881
14540TIP3   OH265034   3.584   0.450  13.465 -0.2987  0.0775  0.4812
14540TIP3    H165035   3.561   0.459  13.558 -1.1043  0.4424  0.2517
14540TIP3    H265036   3.583   0.356  13.449 -0.1919  0.0137  0.8349
14541TIP3   OH265037   6.141   3.610   5.535 -0.3221 -0.4349  0.0633
14541TIP3    H165038   6.186   3.647   5.611 -0.8309 -1.4349  0.8674
14541TIP3    H265039   6.076   3.551   5.572 -0.6186 -0.8972 -1.1571
14542TIP3   OH265040   2.716   1.837   2.038 -0.2663  0.3979  0.0245
14542TIP3    H165041   2.772   1.782   1.982 -0.3728 -0.4092  0.6911
14542TIP3    H265042   2.756   1.924   2.034  0.7651 -0.0634  0.1203
14543TIP3   OH265043   6.226   4.959   0.751 -0.0475  0.0694 -0.3522
14543TIP3    H165044   6.284   4.930   0.822 -0.1451 -0.9400 -0.6780
14543TIP3    H265045   6.156   5.006   0.795 -0.9920 -1.9410  0.4011
14544TIP3   OH265046   6.356   2.228   3.760 -0.5558 -0.2313 -0.2381
14544TIP3    H165047   6.309   2.292   3.706  0.7090  1.0856  0.1577
14544TIP3    H265048   6.313   2.234   3.846  1.8885  3.0243  0.9694
14545TIP3   OH265049   2.054   2.147  17.268 -0.0243  0.1503 -0.0235
14545TIP3    H165050   2.011   2.082  17.213 -1.3761  0.4943  0.5836
14545TIP3    H265051   2.029   2.124  17.357  2.5371 -0.7042  0.5681
14546TIP3   OH265052   4.958   3.444   4.744 -0.4854  0.2705  0.0761
14546TIP3    H165053   5.041   3.398   4.753 -0.7054 -0.0270  0.6646
14546TIP3    H265054   4.959   3.481   4.656 -0.5943 -1.4148 -0.6560
14547TIP3   OH265055   0.196   2.881  13.529  0.2618  0.0757  0.3205
14547TIP3    H165056   0.249   2.803  13.541 -0.8892 -0.5747  1.3607
14547TIP3    H265057   0.107   2.855  13.555 -0.3057  1.5037 -0.0626
14548TIP3   OH265058   4.653   1.044   3.286 -0.1618  0.4125  0.1100
14548TIP3    H165059   4.604   1.029   3.367  1.6394 -1.7844  0.8856
14548TIP3    H265060   4.649   0.960   3.240  1.8909  0.4989 -0.3172
14549TIP3   OH265061   3.708   5.879  14.538 -0.1720  0.1964 -0.2699
14549TIP3    H165062   3.679   5.829  14.461  1.8193 -0.8342 -0.4305
14549TIP3    H265063   3.652   5.849  14.609  1.0515 -2.5174 -0.3178
14550TIP3   OH265064   4.595   0.987   5.985  0.1584  0.7113  0.1243
14550TIP3    H165065   4.568   0.961   5.897 -1.3642  2.2035  0.1158
14550TIP3    H265066   4.527   1.047   6.015 -0.1784 -0.8726  2.9209
14551TIP3   OH265067   4.097   2.138  12.921 -0.0237  0.2924  0.5725
14551TIP3    H165068   4.189   2.113  12.930  0.4720  1.6162 -0.4652
14551TIP3    H265069   4.077   2.124  12.828 -0.5527  0.9879  0.5710
14552TIP3   OH265070   5.703   4.993  12.625  0.1705  0.3856  0.7360
14552TIP3    H165071   5.778   5.003  12.684  1.9489  0.8176 -1.4803
14552TIP3    H265072   5.741   4.975  12.540 -2.1690  2.2243 -0.8312
14553TIP3   OH265073   4.960   2.956   5.299 -0.3518  0.7662  0.2683
14553TIP3    H165074   4.875   2.924   5.268  0.0587 -0.2200  0.1230
14553TIP3    H265075   5.015   2.878   5.302  0.8242  1.5345 -0.5018
14554TIP3   OH265076   0.718   2.567   2.442 -0.4233  0.1336 -0.7270
14554TIP3    H165077   0.665   2.642   2.417  0.5751  1.0183 -0.2530
14554TIP3    H265078   0.788   2.564   2.377 -0.0082  0.1092 -0.2855
14555TIP3   OH265079   5.446   5.160   2.077 -0.5147  0.4664  0.6251
14555TIP3    H165080   5.506   5.235   2.083 -1.2989  1.2655 -0.8262
14555TIP3    H265081   5.396   5.162   2.158 -0.3590  1.3979  0.7083
14556TIP3   OH265082   0.952   0.376   3.839  0.3189 -0.1408  0.7766
14556TIP3    H165083   1.012   0.306   3.867  1.0818  0.4516  0.6508
14556TIP3    H265084   0.881   0.329   3.795  1.1050 -0.8210  0.1849
14557TIP3   OH265085   6.324   3.932   3.124 -0.6228  0.0720 -0.1967
14557TIP3    H165086   6.410   3.902   3.093  0.0056  3.0850 -1.7093
14557TIP3    H265087   6.340   3.959   3.214  0.5055  2.1093 -0.9445
14558TIP3   OH265088   0.889   5.659   0.522  0.0307 -0.2501  0.0776
14558TIP3    H165089   0.902   5.693   0.433 -0.7778  0.6951  0.2981
14558TIP3    H265090   0.880   5.564   0.510  0.3511 -0.1848 -0.7955
14559TIP3   OH265091   3.023   2.052  15.015 -0.4095 -0.5227  0.0987
14559TIP3    H165092   3.089   2.040  14.946  0.0812  0.9627  0.2945
14559TIP3    H265093   2.961   2.114  14.978 -0.0858  0.3750  1.0230
14560TIP3   OH265094   0.413   3.761  14.108 -0.5092  0.1381  0.4369
14560TIP3    H165095   0.376   3.849  14.120  0.6200  0.5364  1.1108
14560TIP3    H265096   0.422   3.727  14.197  1.1489  0.2410  0.3375
14561TIP3   OH265097   5.692   0.154  14.908 -0.3322 -0.5422  0.6134
14561TIP3    H165098   5.687   0.060  14.887  0.8435 -0.4756 -0.0333
14561TIP3    H265099   5.703   0.156  15.004  0.0316 -1.0852  0.5915
14562TIP3   OH265100   5.000   1.802   2.180  0.1879  0.5259 -0.8109
14562TIP3    H165101   4.905   1.795   2.187  0.2564  0.8190  0.7020
14562TIP3    H265102   5.019   1.892   2.208  1.1020 -0.3610  1.7062
14563TIP3   OH265103   3.651   4.333  15.851  0.4188  0.2873 -0.0757
14563TIP3    H165104   3.707   4.279  15.907  0.7247 -0.6185 -1.2293
14563TIP3    H265105   3.646   4.417  15.897  0.0739 -0.6297  1.6688
14564TIP3   OH265106   0.330   3.331  13.514  0.0263  0.3828 -0.0586
14564TIP3    H165107   0.282   3.413  13.512  0.5024  0.6518 -1.3931
14564TIP3    H265108   0.401   3.343  13.451  1.0622 -0.4811  0.8958
14565TIP3   OH265109   3.232   6.256  16.041 -0.2250 -0.4562  0.0584
14565TIP3    H165110   3.221   6.192  16.111  0.5464  0.2716  0.8549
14565TIP3    H265111   3.164   6.233  15.977  1.0423 -3.0958 -0.4746
14566TIP3   OH265112   0.926   1.881   6.018 -0.7232 -0.2187  0.0514
14566TIP3    H165113   0.859   1.937   6.056  0.6025  0.3846  1.6049
14566TIP3    H265114   0.883   1.796   6.007 -1.2533 -0.4046  2.8580
14567TIP3   OH265115   1.491   0.127   1.202  0.1680 -0.7806  0.1485
14567TIP3    H165116   1.506   0.032   1.201 -0.9973 -0.9825  0.6217
14567TIP3    H265117   1.559   0.162   1.146  1.5533 -1.7664  1.1279
14568TIP3   OH265118   1.151   4.130  11.345 -0.5443 -0.4957  0.4107
14568TIP3    H165119   1.183   4.041  11.357 -0.3746 -0.2662  1.8929
14568TIP3    H265120   1.189   4.159  11.262 -0.8198 -1.8710 -0.2264
14569TIP3   OH265121   3.893   2.275   5.932  0.3467 -0.4401 -0.4477
14569TIP3    H165122   3.947   2.245   6.005 -0.2181 -0.9162 -0.2170
14569TIP3    H265123   3.861   2.195   5.891 -0.2922 -0.1697 -0.4934
14570TIP3   OH265124   5.399   4.217  12.340 -0.2921 -0.6309  0.4150
14570TIP3    H165125   5.451   4.287  12.379 -0.0381 -0.5188 -0.1103
14570TIP3    H265126   5.319   4.260  12.310 -0.0307 -0.5087 -0.1290
14571TIP3   OH265127   2.655   0.173   1.176 -0.0119  0.1160  0.1714
14571TIP3    H165128   2.713   0.181   1.100 -0.6192 -0.2650 -0.3495
14571TIP3    H265129   2.606   0.255   1.177 -1.0761 -0.4726 -0.7807
14572TIP3   OH265130   0.814   4.907  16.371 -0.1792  0.1271  0.3111
14572TIP3    H165131   0.749   4.945  16.312 -1.1769  0.7604  1.7592
14572TIP3    H265132   0.863   4.983  16.404 -0.7134 -0.0312  1.5215
14573TIP3   OH265133   4.763   2.648   1.391 -0.1499  0.3131 -0.2590
14573TIP3    H165134   4.773   2.564   1.347  1.5463  1.2425 -1.7935
14573TIP3    H265135   4.823   2.644   1.466  0.4558  0.3733 -0.7298
14574TIP3   OH265136   1.612   6.136  14.836  0.3053  0.5302  0.2595
14574TIP3    H165137   1.552   6.067  14.865 -0.0173 -0.2241 -2.0395
14574TIP3    H265138   1.584   6.213  14.885 -1.5127 -0.1936  0.4319
14575TIP3   OH265139   5.353   2.033   5.447 -0.2540 -0.8703 -0.2183
14575TIP3    H165140   5.420   2.084   5.492 -1.0091  0.3322 -0.4275
14575TIP3    H265141   5.375   1.942   5.468  1.4408 -0.5136 -0.3003
14576TIP3   OH265142   1.721   0.484   1.105  0.5998  0.0682  0.1642
14576TIP3    H165143   1.628   0.485   1.127 -0.2606  1.3891 -3.0045
14576TIP3    H265144   1.743   0.575   1.085  2.2274 -0.4019 -0.3829
14577TIP3   OH265145   3.044   5.789   2.771  0.3116 -0.5985 -0.1319
14577TIP3    H165146   3.069   5.766   2.860 -3.8306 -2.3128  0.8571
14577TIP3    H265147   3.000   5.711   2.737 -2.5455  1.4933 -1.7800
14578TIP3   OH265148   1.232   3.863   2.566 -0.4161  0.0476  0.2285
14578TIP3    H165149   1.151   3.813   2.555 -1.4533  1.8071 -0.5626
14578TIP3    H265150   1.274   3.823   2.642 -0.8094 -2.4428 -0.7445
14579TIP3   OH265151   4.923   4.549   4.067 -0.3409  0.0848  0.5086
14579TIP3    H165152   4.986   4.615   4.039  0.9913 -0.7690  1.4334
14579TIP3    H265153   4.898   4.575   4.156  0.6296 -0.9440  1.1012
14580TIP3   OH265154   5.096   6.157   0.840  0.2493 -0.6553 -0.8964
14580TIP3    H165155   5.041   6.232   0.865  1.8488  0.1923  0.2334
14580TIP3    H265156   5.130   6.181   0.753  1.7549  0.5709 -0.0169
14581TIP3   OH265157   0.243   2.136   0.957 -0.1606 -0.0664  0.4880
14581TIP3    H165158   0.247   2.088   1.039 -0.1624  0.7122  0.9601
14581TIP3    H265159   0.300   2.087   0.897 -0.8431 -1.1230  0.6792
14582TIP3   OH265160   2.955   2.104   5.858 -0.1405 -0.0641  0.9750
14582TIP3    H165161   2.924   2.108   5.948  0.2186 -1.9725  1.2268
14582TIP3    H265162   3.030   2.045   5.861 -0.8398 -1.1251 -0.7596
14583TIP3   OH265163   6.039   5.541  15.494  0.6687 -0.0041  0.2235
14583TIP3    H165164   5.971   5.505  15.437 -1.6245  1.7054  1.7277
14583TIP3    H265165   6.096   5.590  15.435 -0.9613  0.7509 -0.8032
14584TIP3   OH265166   4.118   3.534  14.600 -0.0156 -0.1563  0.0395
14584TIP3    H165167   4.183   3.566  14.663  0.5750 -0.2039 -0.5357
14584TIP3    H265168   4.142   3.576  14.517 -0.0627 -1.0227 -0.4236
14585TIP3   OH265169   0.635   0.447   4.008  0.0753  0.0749 -0.3990
14585TIP3    H165170   0.607   0.525   4.055 -1.1758 -1.0570  0.8264
14585TIP3    H265171   0.722   0.427   4.043 -0.1039  0.2428  0.1422
14586TIP3   OH265172   3.521   5.238   3.885  0.4789  0.2751  0.1493
14586TIP3    H165173   3.539   5.283   3.803  3.0375 -0.1542  0.3705
14586TIP3    H265174   3.445   5.183   3.866 -0.6192  2.1336 -1.1043
14587TIP3   OH265175   2.863   6.531   0.505  0.1830 -0.0023  0.1835
14587TIP3    H165176   2.778   6.496   0.532 -0.6839  0.5404 -1.6470
14587TIP3    H265177   2.876   6.495   0.417  0.0102  2.8614 -1.1309
14588TIP3   OH265178   6.611   2.767  17.120  0.3882 -0.2729  0.4578
14588TIP3    H165179   6.672   2.806  17.057 -0.0760  0.4964  0.4617
14588TIP3    H265180   6.664   2.705  17.170  1.1491  0.3218  0.4075
14589TIP3   OH265181   0.372   0.508   1.716  0.2705  0.2028 -0.0249
14589TIP3    H165182   0.291   0.463   1.739  0.0094  0.3487 -0.6136
14589TIP3    H265183   0.354   0.600   1.734 -0.0369  0.3543 -1.0325
14590TIP3   OH265184   3.292   1.550  10.761  0.3968 -0.4444  0.0068
14590TIP3    H165185   3.241   1.532  10.681 -0.5645  1.0847  0.2316
14590TIP3    H265186   3.383   1.546  10.732  0.0794 -0.2878 -1.0943
14591TIP3   OH265187   1.464   0.622   1.572 -0.0886  0.0743  0.2300
14591TIP3    H165188   1.503   0.541   1.606  0.3304  0.7886  1.5567
14591TIP3    H265189   1.496   0.690   1.632 -1.1141  1.0975 -0.3486
14592TIP3   OH265190   4.369   1.049   0.601  0.3607  0.0655  0.6361
14592TIP3    H165191   4.315   1.127   0.607 -2.7388 -1.9733  2.0186
14592TIP3    H265192   4.383   1.022   0.692 -1.6564 -2.7548  0.2451
14593TIP3   OH265193   6.460   2.390   1.740 -0.0287  0.2671 -0.3865
14593TIP3    H165194   6.487   2.480   1.758  0.4332 -0.1850  1.4013
14593TIP3    H265195   6.413   2.395   1.657  0.7216  2.0073 -0.7413
14594TIP3   OH265196   2.600   6.007   4.669  0.3024  0.0173 -0.4033
14594TIP3    H165197   2.680   6.057   4.661  0.7727 -0.5741  0.4038
14594TIP3    H265198   2.629   5.916   4.674 -0.2786 -0.1214  1.3576
14595TIP3   OH265199   6.787   1.489   5.707  0.4296 -0.3143  0.0147
14595TIP3    H165200   6.798   1.559   5.771 -1.8920  0.0407  0.1088
14595TIP3    H265201   6.780   1.409   5.759 -3.6750  0.1973  0.5593
14596TIP3   OH265202   6.724   4.340  11.749  0.1411 -0.0071 -0.4466
14596TIP3    H165203   6.774   4.300  11.820 -1.8594  0.0661  1.0895
14596TIP3    H265204   6.783   4.337  11.674  2.5225  0.3133  1.2890
14597TIP3   OH265205   6.376   3.398   2.091  0.2195  0.4493 -1.0154
14597TIP3    H165206   6.440   3.342   2.135 -0.9158  0.1656  0.3443
14597TIP3    H265207   6.311   3.336   2.056 -0.2249  0.8294 -0.8647
14598TIP3   OH265208   6.698   1.687  12.054  0.5580  0.0024  0.2431
14598TIP3    H165209   6.613   1.722  12.027  0.7439  0.5216  0.3180
14598TIP3    H265210   6.676   1.614  12.112  0.1637  0.1017  0.2232
14599TIP3   OH265211   3.162   2.427  16.459 -1.0409  0.1562 -0.6146
14599TIP3    H165212   3.229   2.493  16.474 -2.6602  1.4814  1.3366
14599TIP3    H265213   3.172   2.366  16.531 -0.0819 -1.3786 -1.9673
14600TIP3   OH265214   0.716   1.954   4.160  0.2396 -0.8485 -0.2027
14600TIP3    H165215   0.630   1.996   4.172  1.0474  0.5714  0.8691
14600TIP3    H265216   0.724   1.895   4.235  0.4189 -0.5888 -0.0173
14601TIP3   OH265217   5.381   0.161  15.089 -0.7065  0.3550 -0.1631
14601TIP3    H165218   5.402   0.140  14.998 -0.0552 -0.8936  0.2572
14601TIP3    H265219   5.286   0.155  15.093 -0.6576 -0.9366 -0.4648
14602TIP3   OH265220   1.088   4.779  11.512  0.0380  0.3155  0.0985
14602TIP3    H165221   1.118   4.801  11.600  1.1213  2.6088 -0.7627
14602TIP3    H265222   1.048   4.692  11.521 -0.1940  0.6199  2.8868
14603TIP3   OH265223   1.072   1.543  11.680  0.2039 -0.2768  0.5921
14603TIP3    H165224   0.990   1.587  11.655 -0.5332 -1.5029  0.7569
14603TIP3    H265225   1.109   1.599  11.747 -0.5891  0.2213  0.6384
14604TIP3   OH265226   2.821   4.506  13.308  0.3422  0.1377  0.2953
14604TIP3    H165227   2.846   4.452  13.383 -0.4481  1.7798  1.8148
14604TIP3    H265228   2.801   4.592  13.345  1.3071  1.4502 -1.9923
14605TIP3   OH265229   1.987   4.903   2.220  0.0212 -0.1672 -0.1660
14605TIP3    H165230   2.068   4.872   2.261 -0.2588 -0.6560  0.0376
14605TIP3    H265231   2.012   4.982   2.173  0.9207 -1.0735 -1.2780
14606TIP3   OH265232   1.827   0.485   5.666  0.0840 -0.0395  0.5899
14606TIP3    H165233   1.835   0.444   5.753  1.3340 -0.4186  0.3114
14606TIP3    H265234   1.733   0.503   5.657 -0.5170 -2.5485  0.8907
14607TIP3   OH265235   2.682   1.256  13.590 -1.1557  0.2045  0.3709
14607TIP3    H165236   2.632   1.333  13.616 -1.1594  0.2597  0.2002
14607TIP3    H265237   2.761   1.291  13.549  0.3414  0.1679  3.0155
14608TIP3   OH265238   1.762   2.131   2.900  0.1704  0.2574 -0.5293
14608TIP3    H165239   1.681   2.092   2.867 -0.1875  0.8393 -0.3564
14608TIP3    H265240   1.734   2.189   2.971  0.3605  2.7796 -2.3786
14609TIP3   OH265241   0.436   1.610  12.395  0.3997 -0.0150  0.0028
14609TIP3    H165242   0.354   1.659  12.389 -0.0337 -0.8486 -2.1067
14609TIP3    H265243   0.409   1.520  12.412  0.8190 -0.3443 -0.9701
14610TIP3   OH265244   2.168   4.246   0.415 -0.1274  0.6954 -0.5085
14610TIP3    H165245   2.234   4.206   0.359  0.1189  1.0252 -0.4649
14610TIP3    H265246   2.140   4.176   0.474 -1.5801 -0.0911 -2.0815
14611TIP3   OH265247   1.380   6.296  11.967 -0.2535 -0.0360  0.6253
14611TIP3    H165248   1.443   6.249  12.021 -1.5647 -0.8699  1.5067
14611TIP3    H265249   1.386   6.255  11.881 -0.2289 -0.7352  0.9527
14612TIP3   OH265250   5.135   3.086   5.047  0.0786 -0.0642 -0.2366
14612TIP3    H165251   5.093   3.015   5.096 -1.8334  0.4821 -0.9689
14612TIP3    H265252   5.073   3.105   4.976  2.3476 -0.2588 -2.3906
14613TIP3   OH265253   3.347   4.890  13.905  0.5898  0.4570  0.0493
14613TIP3    H165254   3.365   4.934  13.988  0.1083 -0.2597  0.5471
14613TIP3    H265255   3.252   4.897  13.895  0.4472 -0.7919  0.3433
14614TIP3   OH265256   2.419   4.118  16.567 -0.3091  0.1981 -0.4695
14614TIP3    H165257   2.387   4.171  16.639 -1.8369 -0.6260 -0.5073
14614TIP3    H265258   2.444   4.182  16.500  1.7783  1.0123  0.9592
14615TIP3   OH265259   1.507   4.284  15.246 -0.1924 -0.4071 -0.3568
14615TIP3    H165260   1.514   4.204  15.297 -1.5181 -0.5820 -0.4210
14615TIP3    H265261   1.414   4.292  15.226  0.1967 -0.0302 -2.2387
14616TIP3   OH265262   1.449   4.253  14.043 -0.1205  0.6474  0.0941
14616TIP3    H165263   1.520   4.233  13.981  0.6731  0.4755  1.0421
14616TIP3    H265264   1.492   4.257  14.128 -1.4666 -0.8311  0.8935
14617TIP3   OH265265   4.805   4.071   2.823  0.0108 -0.3496  0.0435
14617TIP3    H165266   4.722   4.092   2.780 -1.3193 -2.0220  1.5915
14617TIP3    H265267   4.847   4.155   2.838 -1.8934  0.6375  0.1196
14618TIP3   OH265268   4.209   4.056   5.400  0.8575 -0.2469  0.7565
14618TIP3    H165269   4.144   3.987   5.395  1.1647 -0.6201  1.7047
14618TIP3    H265270   4.280   4.019   5.453  2.4887 -0.3586 -1.3740
14619TIP3   OH265271   2.696   5.553   6.235 -0.1740  0.0664  0.1493
14619TIP3    H165272   2.640   5.584   6.163  0.9059 -0.5350 -0.9853
14619TIP3    H265273   2.673   5.460   6.244 -0.2238  0.1146  0.5137
14620TIP3   OH265274   3.923   0.094  13.388  1.1518 -0.3865 -0.0307
14620TIP3    H165275   3.834   0.127  13.379  0.8572 -0.6764  1.5602
14620TIP3    H265276   3.929   0.065  13.479  2.5065 -1.4532 -0.4224
14621TIP3   OH265277   6.354   1.062   6.447  0.0639  0.2324  0.7187
14621TIP3    H165278   6.341   1.155   6.464 -1.8126  0.5005 -1.5650
14621TIP3    H265279   6.445   1.055   6.418 -0.1147  1.5924 -0.2453
14622TIP3   OH265280   3.797   4.194  16.025 -0.0213  0.5215 -0.1599
14622TIP3    H165281   3.874   4.167  16.076  1.2949  1.2167 -1.6916
14622TIP3    H265282   3.730   4.214  16.091  1.3697  0.7124  1.2601
14623TIP3   OH265283   1.389   1.787   0.871  0.1506  0.2353 -0.3285
14623TIP3    H165284   1.449   1.836   0.927 -0.8818  2.9905 -1.4969
14623TIP3    H265285   1.353   1.719   0.928 -0.2177  2.3565  2.1564
14624TIP3   OH265286   1.022   1.779   4.252  0.1856  0.3659  0.2770
14624TIP3    H165287   1.078   1.844   4.208 -0.5235  0.9245  0.1747
14624TIP3    H265288   1.083   1.725   4.302  1.1291 -0.7575 -1.9341
14625TIP3   OH265289   3.851   0.580   5.772  0.1425  0.3595 -0.1736
14625TIP3    H165290   3.924   0.575   5.833 -1.1188 -0.2393  1.3546
14625TIP3    H265291   3.806   0.496   5.781 -0.2668  0.3847 -1.7104
14626TIP3   OH265292   4.813   0.320  16.441 -0.4128 -0.4782 -0.1795
14626TIP3    H165293   4.785   0.249  16.498 -2.1565  0.4165  0.1567
14626TIP3    H265294   4.748   0.389  16.455  1.5852  1.4679  0.0331
14627TIP3   OH265295   6.638   1.202   0.678 -0.2973 -0.1146  0.5327
14627TIP3    H165296   6.607   1.233   0.593  0.5042  0.6613  0.5096
14627TIP3    H265297   6.733   1.218   0.677 -0.2073 -0.5229  1.3910
14628TIP3   OH265298   4.280   5.621  13.361  0.0412  0.2813  0.0600
14628TIP3    H165299   4.349   5.650  13.419  0.1407  0.0347  0.0683
14628TIP3    H265300   4.204   5.608  13.418 -0.0660  0.7228  0.0238
14629TIP3   OH265301   2.729   5.166   3.650  0.0065  0.2619  0.3870
14629TIP3    H165302   2.806   5.223   3.652  0.1507  0.0562  1.2461
14629TIP3    H265303   2.655   5.227   3.646  0.0982  0.6100  2.5347
14630TIP3   OH265304   6.791   5.738   3.769  0.6021 -0.0344 -0.3301
14630TIP3    H165305   6.769   5.652   3.805  0.2764  0.4687  0.7049
14630TIP3    H265306   6.742   5.742   3.687 -3.3219  0.9660  1.7822
14631TIP3   OH265307   4.337   2.201  13.261  0.3241 -0.5368 -0.1173
14631TIP3    H165308   4.255   2.153  13.273 -1.0658  1.6632 -0.2296
14631TIP3    H265309   4.370   2.215  13.349 -1.0397  1.1114  0.1830
14632TIP3   OH265310   5.510   6.390   1.284  0.3309 -0.0233  1.0474
14632TIP3    H165311   5.478   6.301   1.298  1.5812 -0.6841 -0.0849
14632TIP3    H265312   5.512   6.400   1.189  0.2245  1.2156  1.1616
14633TIP3   OH265313   6.093   5.881   2.014  0.2411  0.1501 -0.1127
14633TIP3    H165314   6.139   5.858   2.095 -0.6158 -0.4841  0.2031
14633TIP3    H265315   6.152   5.853   1.944  0.5476 -0.2045  0.2821
14634TIP3   OH265316   5.957   6.617  16.005  0.1867 -0.4201 -0.5184
14634TIP3    H165317   6.023   6.549  16.016  0.7328  0.2276  0.3580
14634TIP3    H265318   5.934   6.614  15.913  1.5740 -0.5541 -0.8836
14635TIP3   OH265319   3.524   4.230  16.177  0.3665  0.1968 -0.3316
14635TIP3    H165320   3.535   4.200  16.267 -1.1651  0.9109  0.1277
14635TIP3    H265321   3.475   4.160  16.134 -1.8289  1.2453  0.3216
14636TIP3   OH265322   1.466   4.274   1.793 -0.6444 -0.4529  0.3432
14636TIP3    H165323   1.522   4.246   1.866 -1.4984 -1.2244  0.7143
14636TIP3    H265324   1.423   4.354   1.824  2.7183  2.2111 -1.1533
14637TIP3   OH265325   5.802   4.767   5.336  0.7238 -0.3057  0.0653
14637TIP3    H165326   5.893   4.743   5.319  0.5133 -0.1270 -1.3940
14637TIP3    H265327   5.780   4.721   5.417  1.6995 -1.4259 -0.2838
14638TIP3   OH265328   5.744   6.408  16.908  0.0606 -0.1955 -0.0185
14638TIP3    H165329   5.761   6.457  16.988 -1.2008  0.7275 -0.2904
14638TIP3    H265330   5.782   6.322  16.924  3.4326  1.1337  0.0590
14639TIP3   OH265331   3.438   1.439  11.219  0.2386  0.5592 -0.4721
14639TIP3    H165332   3.468   1.356  11.183  0.6624  0.6490 -0.3262
14639TIP3    H265333   3.411   1.490  11.142  1.5982  0.9342 -0.7206
14640TIP3   OH265334   4.423   1.759  16.084 -0.2760 -0.0966  0.1134
14640TIP3    H165335   4.401   1.764  16.177  0.3467 -0.2788  0.2758
14640TIP3    H265336   4.509   1.716  16.082 -0.3033 -0.1301 -0.5467
14641TIP3   OH265337   3.961   2.450  16.031 -0.2442 -0.4676 -0.3458
14641TIP3    H165338   3.944   2.500  15.951  0.0164 -0.7425 -0.5795
14641TIP3    H265339   3.977   2.361  16.000 -0.4761 -0.6476  0.0462
14642TIP3   OH265340   5.741   3.892  11.621 -0.1781 -0.5046  0.3929
14642TIP3    H165341   5.705   3.973  11.584 -3.3105 -1.2382  1.5368
14642TIP3    H265342   5.747   3.832  11.547 -1.9553 -0.4965  0.1901
14643TIP3   OH265343   4.572   6.203  13.095 -0.0940 -0.0820  0.6759
14643TIP3    H165344   4.583   6.261  13.171  0.2627  1.7803 -0.7227
14643TIP3    H265345   4.635   6.132  13.111 -0.2505  0.0911  2.2603
14644TIP3   OH265346   1.041   0.830  15.302 -0.3593 -0.0707  0.1876
14644TIP3    H165347   0.994   0.892  15.358 -1.2367 -0.5739  0.0178
14644TIP3    H265348   0.985   0.820  15.226 -0.4336 -1.4032  0.4046
14645TIP3   OH265349   3.519   0.135  16.545  0.3113  0.0196  0.1024
14645TIP3    H165350   3.497   0.124  16.452  1.0859 -2.4442  0.1531
14645TIP3    H265351   3.613   0.155  16.545  0.3167 -0.0013  0.3559
14646TIP3   OH265352   4.275   3.704  11.821 -0.1437  0.5260 -0.2927
14646TIP3    H165353   4.274   3.609  11.830 -3.4901  0.4076 -0.9788
14646TIP3    H265354   4.295   3.719  11.728 -1.1026  0.4228 -0.5202
14647TIP3   OH265355   5.411   3.169  12.536  0.1182 -0.1431  0.7508
14647TIP3    H165356   5.319   3.193  12.540  0.5024  1.8882 -0.9366
14647TIP3    H265357   5.454   3.228  12.598  0.3971 -0.3925  0.7966
14648TIP3   OH265358   3.992   4.320  11.879  0.7741 -0.2877 -0.1369
14648TIP3    H165359   3.998   4.231  11.915  1.1079  0.0803  0.7398
14648TIP3    H265360   3.969   4.374  11.954 -1.8068  0.0647 -1.0907
14649TIP3   OH265361   1.347   2.765  14.535 -0.3278 -0.0511 -0.7086
14649TIP3    H165362   1.405   2.841  14.543 -0.0846 -0.2965 -0.0586
14649TIP3    H265363   1.276   2.783  14.596 -0.2728 -0.3413 -0.5590
14650TIP3   OH265364   6.678   5.533   3.447 -0.1213  0.2174 -0.0473
14650TIP3    H165365   6.648   5.553   3.536  1.7518  0.3127  0.6078
14650TIP3    H265366   6.680   5.617   3.403 -1.3193  0.1343 -0.2888
14651TIP3   OH265367   3.293   1.034  15.708 -0.2838  0.1829  0.5122
14651TIP3    H165368   3.209   1.066  15.673  0.1745  0.4490 -0.3624
14651TIP3    H265369   3.331   0.983  15.636  0.6691  0.7256  0.6218
14652TIP3   OH265370   4.301   2.774   2.510  0.8510 -0.1191 -0.2477
14652TIP3    H165371   4.299   2.847   2.571 -0.0572 -0.4496  0.1386
14652TIP3    H265372   4.342   2.703   2.558 -1.2506 -0.8532  0.5670
14653TIP3   OH265373   4.266   6.564   2.574  0.1831 -0.1519  0.4317
14653TIP3    H165374   4.175   6.543   2.556  0.2603 -0.6167  0.5656
14653TIP3    H265375   4.314   6.530   2.498  0.2417  0.1466  0.3315
14654TIP3   OH265376   0.667   0.326   2.512 -0.4805 -0.0059  0.2252
14654TIP3    H165377   0.682   0.382   2.589  0.9469 -1.2373  0.8827
14654TIP3    H265378   0.710   0.372   2.440  1.4999 -0.6444  0.9457
14655TIP3   OH265379   3.065   2.699   1.956  0.0368  0.2135 -0.4252
14655TIP3    H165380   3.144   2.678   2.005  1.1465 -0.4991 -2.4033
14655TIP3    H265381   3.067   2.794   1.947  1.1014  0.1343 -1.1200
14656TIP3   OH265382   1.847   1.176  14.684  0.2626 -0.2428  0.0768
14656TIP3    H165383   1.875   1.087  14.707  0.3584  0.0062  0.9444
14656TIP3    H265384   1.901   1.233  14.738 -0.3683  0.3170  0.1296
14657TIP3   OH265385   1.294   4.086   4.167  0.5404 -0.6252 -0.4358
14657TIP3    H165386   1.362   4.140   4.127  1.7027 -1.5192  0.2663
14657TIP3    H265387   1.224   4.083   4.101  0.8050  1.0077 -0.8202
14658TIP3   OH265388   5.149   2.946  15.390 -0.8691 -0.2020  0.2083
14658TIP3    H165389   5.080   2.920  15.451 -0.3194 -2.0577  0.0918
14658TIP3    H265390   5.132   2.895  15.311 -0.4422  0.7392 -0.5122
14659TIP3   OH265391   3.301   3.125  10.671 -0.0579  0.0536 -0.0057
14659TIP3    H165392   3.393   3.112  10.649  0.0209  1.1525 -0.3780
14659TIP3    H265393   3.291   3.220  10.679 -1.1457 -0.0538  0.0657
14660TIP3   OH265394   2.517   0.604  13.398 -0.3270  0.3769  0.0833
14660TIP3    H165395   2.499   0.510  13.390 -1.1962  0.5965 -0.7336
14660TIP3    H265396   2.437   0.641  13.434 -0.7442  1.0670 -1.4562
14661TIP3   OH265397   1.489   0.226  12.678 -1.1886 -0.7253 -0.2000
14661TIP3    H165398   1.503   0.320  12.690  1.3530 -1.2103  1.3490
14661TIP3    H265399   1.536   0.206  12.597 -0.8004 -0.8278  0.0487
14662TIP3   OH265400   0.088   0.475   6.215 -0.0196 -0.4163  0.3477
14662TIP3    H165401   0.083   0.554   6.269  0.8728  0.4412 -0.7827
14662TIP3    H265402   0.001   0.435   6.223 -0.3466  0.4369  1.2831
14663TIP3   OH265403   4.467   4.523  11.317  0.1987 -0.2837  0.3947
14663TIP3    H165404   4.384   4.476  11.324  0.7797 -1.8619 -2.2109
14663TIP3    H265405   4.460   4.573  11.235  0.5613  2.3763  1.8544
14664TIP3   OH265406   2.541   2.582  15.511  0.1964 -0.9990 -0.1352
14664TIP3    H165407   2.480   2.516  15.478  0.5325 -0.5604 -1.7558
14664TIP3    H265408   2.486   2.657  15.533 -0.1001 -1.5163  0.9086
14665TIP3   OH265409   1.189   6.340   4.527  0.1912 -0.3307 -0.3435
14665TIP3    H165410   1.240   6.361   4.448  0.4686 -0.0798 -0.1005
14665TIP3    H265411   1.220   6.403   4.593  0.9853 -1.4660  0.3916
14666TIP3   OH265412   6.082   2.617   3.025  0.2113  0.3113  0.7152
14666TIP3    H165413   6.049   2.704   3.004  0.2918  0.5168  1.4273
14666TIP3    H265414   6.158   2.605   2.968  0.6239  0.9868  1.1234
14667TIP3   OH265415   3.283   6.596  15.854  0.5480  0.7774  0.1418
14667TIP3    H165416   3.323   6.558  15.776  0.5232  0.1087  0.4413
14667TIP3    H265417   3.194   6.559  15.855  1.3089 -1.2272  1.7870
14668TIP3   OH265418   5.923   5.262  16.495 -0.0028  0.0915 -0.2382
14668TIP3    H165419   5.908   5.227  16.408 -2.7151 -1.4237  0.7248
14668TIP3    H265420   5.870   5.341  16.500  2.0838  1.6022 -0.6926
14669TIP3   OH265421   2.487   6.054  12.750 -0.0006  0.1598 -0.7844
14669TIP3    H165422   2.534   6.088  12.827  0.5678 -0.3941 -0.8806
14669TIP3    H265423   2.407   6.107  12.745 -0.1911 -0.0015  0.3667
14670TIP3   OH265424   1.312   5.386  14.384 -0.1210 -0.1543  0.1318
14670TIP3    H165425   1.375   5.453  14.411 -0.8306  0.1320  1.1413
14670TIP3    H265426   1.341   5.307  14.429  0.7952 -0.5908 -1.1662
14671TIP3   OH265427   6.045   0.143   0.072 -0.1011  0.2557 -0.0718
14671TIP3    H165428   5.977   0.194   0.117  0.1646  1.7000 -1.2446
14671TIP3    H265429   6.126   0.190   0.089  0.1822  0.1326 -1.0208
14672TIP3   OH265430   5.198   4.142  12.675 -0.6218 -0.1175 -0.3800
14672TIP3    H165431   5.199   4.183  12.761 -0.2920 -0.9859  0.0465
14672TIP3    H265432   5.106   4.132  12.654 -0.7175 -0.9632  0.4017
14673TIP3   OH265433   4.890   5.038   2.327  0.2678  0.0246  0.0584
14673TIP3    H165434   4.804   5.076   2.311 -0.1392 -1.0635 -0.3947
14673TIP3    H265435   4.937   5.049   2.245  0.3912  0.1593  0.1458
14674TIP3   OH265436   2.376   6.289  13.089 -0.0887  0.1608 -0.5949
14674TIP3    H165437   2.416   6.228  13.026  2.1977  2.0345 -1.1455
14674TIP3    H265438   2.303   6.328  13.041 -0.3326 -0.7055 -0.9414
14675TIP3   OH265439   0.070   2.795   2.137 -0.3118  0.7218  0.2482
14675TIP3    H165440   0.089   2.863   2.202 -0.3723  0.9648  0.0135
14675TIP3    H265441   0.023   2.841   2.068 -2.5360  0.0091  1.1917
14676TIP3   OH265442   5.505   0.978   1.795 -0.2158 -0.2001 -0.0613
14676TIP3    H165443   5.455   0.932   1.862 -0.5460 -0.6962 -0.6408
14676TIP3    H265444   5.506   0.919   1.720  1.8584 -0.5390  0.1644
14677TIP3   OH265445   4.025   0.892   0.615 -0.0965 -0.5838  0.4635
14677TIP3    H165446   4.017   0.924   0.524 -0.1671  1.4408  1.1261
14677TIP3    H265447   4.114   0.859   0.621 -0.5909 -2.2958 -0.7725
14678TIP3   OH265448   1.107   3.383  14.921 -0.0904 -0.4143  0.0132
14678TIP3    H165449   1.186   3.438  14.914  0.2934 -0.3325  3.3255
14678TIP3    H265450   1.140   3.294  14.911 -0.1753 -0.2800 -1.8993
14679TIP3   OH265451   3.966   4.463   3.671 -0.3875  0.3413  0.0308
14679TIP3    H165452   3.907   4.470   3.596  0.3147 -1.0792 -0.6786
14679TIP3    H265453   4.003   4.551   3.680  3.0465 -0.3311 -4.2883
14680TIP3   OH265454   3.530   4.584   3.124  0.1250  0.0554  0.3622
14680TIP3    H165455   3.453   4.539   3.160  0.7787 -1.3807  0.0337
14680TIP3    H265456   3.499   4.673   3.105 -1.3030 -0.3331  0.7407
14681TIP3   OH265457   5.060   2.843   1.665  0.2719  0.8007  0.1933
14681TIP3    H165458   4.998   2.892   1.720 -0.6166 -0.7945  0.6788
14681TIP3    H265459   5.046   2.751   1.689  2.2501  0.3250 -0.3156
14682TIP3   OH265460   5.377   5.409   3.386  0.5023 -0.0472 -0.4674
14682TIP3    H165461   5.405   5.426   3.296 -0.5635  1.0542 -0.6254
14682TIP3    H265462   5.388   5.315   3.398  1.5914 -0.0609 -1.4106
14683TIP3   OH265463   1.061   5.837  10.443  0.1039 -0.4947 -0.4887
14683TIP3    H165464   1.018   5.754  10.462 -1.3680  0.5614  1.1283
14683TIP3    H265465   1.123   5.849  10.515  1.2032 -0.7134 -1.3607
14684TIP3   OH265466   4.671   1.955  16.309 -0.0465  0.3193 -0.5937
14684TIP3    H165467   4.765   1.975  16.311  0.7303 -2.9257  0.4189
14684TIP3    H265468   4.657   1.895  16.382 -2.7932  0.1595 -1.1466
14685TIP3   OH265469   4.152   0.756  10.258 -0.0312 -0.3503 -0.1826
14685TIP3    H165470   4.163   0.665  10.231 -0.6613 -0.2557 -0.7884
14685TIP3    H265471   4.229   0.775  10.312  0.2918 -1.1254 -0.3620
14686TIP3   OH265472   0.460   3.195  15.232 -0.4472 -0.2659 -0.0345
14686TIP3    H165473   0.542   3.150  15.213 -1.2879 -1.5920 -0.5962
14686TIP3    H265474   0.426   3.151  15.310  0.4503  1.7791  1.6357
14687TIP3   OH265475   2.570   1.524   2.025 -0.5774  0.1905  0.3379
14687TIP3    H165476   2.495   1.464   2.025 -1.0473  0.7531  0.7344
14687TIP3    H265477   2.630   1.488   1.961 -0.2147 -1.4734  1.5475
14688TIP3   OH265478   1.153   0.369   4.946  1.0820  0.1681  0.1302
14688TIP3    H165479   1.143   0.282   4.909 -2.1230  0.5125 -0.0234
14688TIP3    H265480   1.216   0.357   5.018  3.1606 -1.5532 -1.8329
14689TIP3   OH265481   4.216   4.681  12.728 -0.1196  0.8805  0.3242
14689TIP3    H165482   4.299   4.691  12.775 -1.4125 -0.7661  3.1562
14689TIP3    H265483   4.229   4.605  12.672 -0.3768 -0.8595  2.5222
14690TIP3   OH265484   5.287   4.438   4.965 -0.4490 -0.5122 -0.1868
14690TIP3    H165485   5.196   4.465   4.953 -0.2455 -0.3065 -1.3593
14690TIP3    H265486   5.338   4.506   4.922  0.3798  0.2593  1.8801
14691TIP3   OH265487   3.689   0.927   2.915 -0.0716 -0.1843 -0.0857
14691TIP3    H165488   3.675   0.899   3.005 -2.0360  1.6115  0.2402
14691TIP3    H265489   3.781   0.906   2.897  0.5156 -0.1028  2.5180
14692TIP3   OH265490   0.085   0.378  10.991  0.2709 -0.7111 -0.2825
14692TIP3    H165491   0.032   0.370  10.912  0.4108 -1.8522 -0.2804
14692TIP3    H265492   0.146   0.448  10.972  0.8162 -1.4910 -1.5028
14693TIP3   OH265493   2.263   5.365  10.992  0.1721  0.2111  0.4030
14693TIP3    H165494   2.177   5.400  10.971  0.3295  0.2082 -0.2500
14693TIP3    H265495   2.311   5.367  10.910  1.2102  1.3594  1.0048
14694TIP3   OH265496   5.938   6.193  12.083 -0.2766 -0.2355 -0.5179
14694TIP3    H165497   5.946   6.110  12.036  0.6797 -0.1291 -0.5729
14694TIP3    H265498   5.990   6.180  12.162 -0.1291  0.3090 -0.5233
14695TIP3   OH265499   3.607   4.226   2.429 -0.8318  0.4192  0.7168
14695TIP3    H165500   3.608   4.146   2.377  0.0677  0.7077  0.2673
14695TIP3    H265501   3.572   4.293   2.370 -0.7899  0.5316  0.8196
14696TIP3   OH265502   3.153   1.879   0.357  0.0414 -0.2359  0.0823
14696TIP3    H165503   3.104   1.956   0.386  1.6151  0.8272  0.0239
14696TIP3    H265504   3.145   1.880   0.262  1.3426  0.8061 -0.0522
14697TIP3   OH265505   4.933   6.449   0.685  0.1156  0.4827 -0.4147
14697TIP3    H165506   5.013   6.479   0.729  0.1668 -0.2330  0.0043
14697TIP3    H265507   4.949   6.465   0.592  1.1992 -0.6136 -0.4446
14698TIP3   OH265508   6.642   3.145  13.810  0.0517 -0.0484  0.4614
14698TIP3    H165509   6.717   3.200  13.830 -0.4823  0.0870  2.2404
14698TIP3    H265510   6.566   3.196  13.838 -0.7350 -0.1910 -1.2788
14699TIP3   OH265511   0.861   0.646  15.154  0.0762 -0.1092 -0.2172
14699TIP3    H165512   0.889   0.582  15.090 -0.0011 -0.3523 -0.0115
14699TIP3    H265513   0.898   0.616  15.237  0.8227  0.6229 -0.2714
14700TIP3   OH265514   4.279   3.563  13.769  0.0538  0.0250  0.2860
14700TIP3    H165515   4.359   3.543  13.818  0.4049  1.1996  0.2334
14700TIP3    H265516   4.213   3.502  13.804  0.6910 -0.2069  1.1172
14701TIP3   OH265517   4.907   2.416   0.881  0.5283 -0.5135 -0.2753
14701TIP3    H165518   4.910   2.323   0.859  1.4812 -0.7374  0.6911
14701TIP3    H265519   4.951   2.460   0.809 -0.1278 -0.7701 -0.8475
14702TIP3   OH265520   6.638   3.723   1.922  0.0454 -0.3406  0.0338
14702TIP3    H165521   6.701   3.667   1.877 -0.1997 -0.4217 -0.2148
14702TIP3    H265522   6.650   3.810   1.884 -0.3689 -0.4721 -0.4124
14703TIP3   OH265523   0.831   0.653  12.500 -0.4602  0.4095  0.3739
14703TIP3    H165524   0.845   0.563  12.529  1.4277 -0.0867 -1.7558
14703TIP3    H265525   0.737   0.661  12.489 -0.7279 -1.0286  1.3894
14704TIP3   OH265526   5.262   0.957  17.142 -0.5712  0.2413  0.2667
14704TIP3    H165527   5.248   1.047  17.173 -0.0205  0.8729 -1.2165
14704TIP3    H265528   5.273   0.905  17.222  1.7186  1.9186  1.1474
14705TIP3   OH265529   3.470   0.040   3.275 -0.2757  0.7506  0.1321
14705TIP3    H165530   3.553   0.006   3.308 -0.6068 -0.5616 -0.3345
14705TIP3    H265531   3.403  -0.005   3.326 -0.7198  1.0869 -0.1478
14706TIP3   OH265532   5.841   1.388   5.148 -0.1278 -0.2102  0.1823
14706TIP3    H165533   5.823   1.470   5.101 -2.6790 -0.6507  0.2107
14706TIP3    H265534   5.844   1.321   5.079 -1.1758 -0.4907  0.3942
14707TIP3   OH265535   6.286   1.469   4.461 -0.6213  0.2965  0.4191
14707TIP3    H165536   6.354   1.460   4.394  0.8055 -0.6392  1.9210
14707TIP3    H265537   6.205   1.477   4.412  0.1236 -2.2343 -1.4521
14708TIP3   OH265538   3.918   4.390  13.512  0.0059 -0.3994 -0.4787
14708TIP3    H165539   3.904   4.305  13.554 -0.4605 -0.1744 -0.1657
14708TIP3    H265540   3.862   4.389  13.435 -1.4822  0.3219  0.5253
14709TIP3   OH265541   4.962   6.265  13.384  0.0521  0.0022  0.1714
14709TIP3    H165542   5.001   6.184  13.418  1.2996  0.9005  0.9938
14709TIP3    H265543   4.932   6.310  13.463 -0.0597  0.6114 -0.2201
14710TIP3   OH265544   6.204   3.466   0.949 -0.2992 -0.1132 -0.1389
14710TIP3    H165545   6.283   3.506   0.986 -0.4149  0.4298 -0.4631
14710TIP3    H265546   6.182   3.395   1.009  1.3202 -1.2848 -0.8323
14711TIP3   OH265547   0.100   5.805  13.404  0.2755 -0.6426  0.8743
14711TIP3    H165548   0.031   5.866  13.378  1.6896 -0.1337 -2.1024
14711TIP3    H265549   0.058   5.745  13.465 -2.0014  1.3748  1.4215
14712TIP3   OH265550   6.180   5.395  13.203 -0.0031  0.5203  0.1311
14712TIP3    H165551   6.202   5.305  13.181  0.6112  0.7217 -0.1254
14712TIP3    H265552   6.148   5.391  13.293 -0.2389  0.0097  0.0254
14713TIP3   OH265553   6.757   0.335  16.575 -0.5812  0.2828  0.2050
14713TIP3    H165554   6.791   0.415  16.536 -2.3640 -0.6174 -3.7649
14713TIP3    H265555   6.662   0.347  16.575 -1.1166 -2.4642 -2.6713
14714TIP3   OH265556   6.289   6.577   2.872  0.4048  0.8201  0.5552
14714TIP3    H165557   6.370   6.603   2.916  1.0021 -1.9686  1.3016
14714TIP3    H265558   6.306   6.592   2.779  1.2534  1.5395  0.8134
14715TIP3   OH265559   1.515   2.640   5.326  0.6016  0.1014 -0.1955
14715TIP3    H165560   1.582   2.619   5.262  0.1090  0.7466 -0.9406
14715TIP3    H265561   1.434   2.646   5.275 -0.1585 -1.3077  0.7723
14716TIP3   OH265562   4.690   0.072  14.615  0.1117 -0.0699  0.2161
14716TIP3    H165563   4.705   0.137  14.683  0.3437 -1.5494  1.6316
14716TIP3    H265564   4.682  -0.011  14.662  0.9763 -1.2535 -1.6113
14717TIP3   OH265565   1.031   1.206   3.304  0.1748 -0.4026 -0.4271
14717TIP3    H165566   1.067   1.120   3.281 -0.4409 -0.2671 -2.0803
14717TIP3    H265567   0.937   1.198   3.285  0.2971  0.9897 -1.8195
14718TIP3   OH265568   2.487   2.921  13.647  0.1738 -0.4045 -0.2175
14718TIP3    H165569   2.447   2.874  13.573 -1.3205  0.8929 -0.2960
14718TIP3    H265570   2.481   2.859  13.720  0.4378 -1.2026 -0.8480
14719TIP3   OH265571   2.332   4.415   0.789  0.4660  0.1733  0.4092
14719TIP3    H165572   2.243   4.404   0.757  0.8466 -0.7006 -0.3794
14719TIP3    H265573   2.388   4.387   0.717  1.4018  1.0942  0.7453
14720TIP3   OH265574   3.915   2.129   2.584 -0.0557  0.1285  0.1166
14720TIP3    H165575   3.932   2.222   2.601  0.8373 -0.0917  0.5072
14720TIP3    H265576   3.841   2.128   2.523 -0.0437  1.0926  0.0780
14721TIP3   OH265577   4.765   2.210  14.580  0.2442  0.0478 -0.1711
14721TIP3    H165578   4.678   2.180  14.604 -0.0311  0.8765 -0.1045
14721TIP3    H265579   4.768   2.302  14.608  0.7687  0.3316 -1.1023
14722TIP3   OH265580   3.251   2.342   4.973 -0.3045 -0.0713  1.0076
14722TIP3    H165581   3.164   2.307   4.953 -0.1019  0.2371 -0.5647
14722TIP3    H265582   3.265   2.410   4.907  1.3459 -0.4723  0.9127
14723TIP3   OH265583   0.718   6.428  15.409  0.2026  0.6103 -0.7547
14723TIP3    H165584   0.766   6.348  15.429  1.5285  1.9012  1.6356
14723TIP3    H265585   0.630   6.399  15.385  0.9878 -1.5802 -1.1894
14724TIP3   OH265586   5.316   4.772  13.763  0.6483  0.1116 -0.2998
14724TIP3    H165587   5.277   4.710  13.701  0.4763 -0.8621  0.7354
14724TIP3    H265588   5.409   4.773  13.740  0.9144 -1.6156  0.4918
14725TIP3   OH265589   5.982   1.278  12.635  0.3333 -0.8744  0.2055
14725TIP3    H165590   5.988   1.271  12.731 -2.4874 -2.8857  0.3475
14725TIP3    H265591   5.968   1.372  12.619  1.4658 -0.4096  1.6654
14726TIP3   OH265592   1.567   3.788   3.600  0.1645 -0.4718 -0.7255
14726TIP3    H165593   1.520   3.847   3.541 -1.6416 -0.2004  0.9088
14726TIP3    H265594   1.587   3.712   3.546 -1.5968 -0.3125 -1.6755
14727TIP3   OH265595   1.917   0.195  16.340 -0.2074  0.0980 -0.1193
14727TIP3    H165596   1.869   0.262  16.390 -2.1707 -0.5929 -1.0093
14727TIP3    H265597   1.945   0.240  16.261 -0.9923  0.0432 -0.4340
14728TIP3   OH265598   2.924   3.053   2.807 -0.0245  0.1713 -0.6039
14728TIP3    H165599   2.872   3.133   2.799  1.0027  0.9773  0.3767
14728TIP3    H265600   2.896   3.014   2.889  0.4130  0.2590 -0.4056
14729TIP3   OH265601   3.022   3.970  16.452  0.5320  0.5367 -0.0946
14729TIP3    H165602   3.066   3.928  16.378 -0.5743  0.0818 -0.5072
14729TIP3    H265603   3.016   4.062  16.427 -1.9227  0.0403 -1.6939
14730TIP3   OH265604   1.077   2.599  12.322  0.5077  0.3750  0.4782
14730TIP3    H165605   1.127   2.525  12.359  0.3432 -0.0366 -0.1057
14730TIP3    H265606   0.993   2.596  12.367  0.0513 -0.5514 -0.3859
14731TIP3   OH265607   0.835   4.200  14.701 -0.1144 -0.0620  0.0652
14731TIP3    H165608   0.760   4.234  14.750  1.3758  0.2959  2.2602
14731TIP3    H265609   0.837   4.107  14.723  2.3999  0.6147  3.5843
14732TIP3   OH265610   3.342   2.213   1.525  0.3457 -0.3776  0.2783
14732TIP3    H165611   3.249   2.227   1.510  0.1459 -1.2756  0.5999
14732TIP3    H265612   3.381   2.300   1.518 -0.2842 -0.1913 -1.4127
14733TIP3   OH265613   0.881   6.120   3.950  0.0921 -0.0981  0.5471
14733TIP3    H165614   0.923   6.102   4.034  1.0035 -1.3291 -0.1311
14733TIP3    H265615   0.918   6.054   3.890  0.5674  1.6244 -1.1663
14734TIP3   OH265616   0.552   1.391   1.838 -0.0976 -0.2332 -0.2610
14734TIP3    H165617   0.620   1.325   1.856 -0.8977 -0.7644  0.9162
14734TIP3    H265618   0.594   1.452   1.777  1.2374 -0.8711 -0.0212
14735TIP3   OH265619   4.956   1.628   1.607 -0.1735  0.9915 -0.4910
14735TIP3    H165620   4.965   1.708   1.659  2.3610  0.5339 -0.0932
14735TIP3    H265621   4.914   1.566   1.666 -3.3413  2.2719 -1.1976
14736TIP3   OH265622   4.699   6.544  10.689  0.3127 -0.3282  0.4376
14736TIP3    H165623   4.731   6.473  10.633 -0.0029  0.1177 -0.3216
14736TIP3    H265624   4.671   6.612  10.628  2.4344  1.3040  1.1464
14737TIP3   OH265625   2.656   4.904   2.830  0.2314  0.3828  0.3701
14737TIP3    H165626   2.628   4.831   2.885 -0.5368 -0.1019 -0.6516
14737TIP3    H265627   2.729   4.869   2.779  0.5290  0.6419  0.6136
14738TIP3   OH265628   2.308   0.060  17.010  0.0002  0.1468  0.2894
14738TIP3    H165629   2.229   0.083  16.962 -0.8712 -1.8932  0.6297
14738TIP3    H265630   2.281   0.056  17.101  0.4624 -0.6484  0.3994
14739TIP3   OH265631   5.271   0.395   2.643  0.6932 -0.1319  0.1296
14739TIP3    H165632   5.343   0.381   2.704 -0.5288 -2.9221  1.0700
14739TIP3    H265633   5.308   0.373   2.557  0.9451 -1.8074  0.6310
14740TIP3   OH265634   3.126   6.506  12.608 -0.4544 -0.2393  0.0928
14740TIP3    H165635   3.108   6.556  12.528  0.9747  0.4558  0.1666
14740TIP3    H265636   3.186   6.437  12.580 -0.7129 -0.5973  0.4062
14741TIP3   OH265637   3.484   0.229  13.791  0.0229  0.5382  0.3170
14741TIP3    H165638   3.542   0.161  13.825  0.0331 -0.0121 -0.7700
14741TIP3    H265639   3.523   0.311  13.821  2.2288  0.2819 -1.5724
14742TIP3   OH265640   3.797   4.246  12.118  0.2072  0.6079 -0.6211
14742TIP3    H165641   3.733   4.297  12.069 -0.1909  0.9604  0.2349
14742TIP3    H265642   3.819   4.173  12.061 -1.2558  0.2607 -0.7695
14743TIP3   OH265643   0.923   5.860   4.240 -0.1412  0.1577 -0.3922
14743TIP3    H165644   0.872   5.789   4.200  0.9011  0.0342 -1.5645
14743TIP3    H265645   0.870   5.889   4.314 -1.5304 -0.4911 -1.0992
14744TIP3   OH265646   1.360   5.787   5.812  0.7158  0.1742  0.6319
14744TIP3    H165647   1.307   5.738   5.750  1.2914 -0.2779  0.4882
14744TIP3    H265648   1.368   5.729   5.888  0.4019  0.5365  0.9500
14745TIP3   OH265649   4.490   4.581  12.429  0.7566 -0.1356  0.8490
14745TIP3    H165650   4.528   4.655  12.476  0.5497 -0.0515  0.8859
14745TIP3    H265651   4.526   4.587  12.341 -1.8663  2.0310 -0.1931
14746TIP3   OH265652   1.440   4.212   4.404  0.4887  0.3957  0.2635
14746TIP3    H165653   1.407   4.126   4.433 -0.3554  0.3435 -0.7872
14746TIP3    H265654   1.531   4.196   4.379 -0.0584 -0.5484 -1.2810
14747TIP3   OH265655   2.682   5.084   1.288  0.0017  0.9912 -0.5944
14747TIP3    H165656   2.598   5.038   1.290  1.5181 -1.9971  1.0226
14747TIP3    H265657   2.704   5.091   1.195 -1.1092 -0.0239 -0.9579
14748TIP3   OH265658   4.277   5.279  11.081  0.1285 -0.1808 -0.3025
14748TIP3    H165659   4.256   5.207  11.141 -1.1534  0.4050 -0.0139
14748TIP3    H265660   4.347   5.327  11.125 -0.5827  0.0627  0.6005
14749TIP3   OH265661   4.776   6.230  12.310  0.2161 -0.0494  0.3190
14749TIP3    H165662   4.703   6.179  12.274  0.6404 -1.5132  1.4173
14749TIP3    H265663   4.834   6.244  12.235 -0.2505 -0.6013 -0.1578
14750TIP3   OH265664   5.162   3.096  13.525  0.3100 -0.8374 -0.0584
14750TIP3    H165665   5.199   3.174  13.484 -0.9199 -0.6039 -0.7873
14750TIP3    H265666   5.109   3.056  13.456 -2.3609 -0.0879  1.3958
14751TIP3   OH265667   0.415   1.775   3.400 -0.4597  0.8500 -0.9604
14751TIP3    H165668   0.417   1.680   3.411 -1.5776  1.0086  1.1336
14751TIP3    H265669   0.368   1.789   3.318 -1.5272 -0.3854 -0.5948
14752TIP3   OH265670   4.428   1.642   2.650 -0.3613  0.2294 -0.2880
14752TIP3    H165671   4.444   1.736   2.644 -0.1044  0.0875 -3.1112
14752TIP3    H265672   4.333   1.633   2.653 -0.4722  0.6023  4.1471
14753TIP3   OH265673   3.509   1.759  16.208 -0.0934 -0.7191  0.4087
14753TIP3    H165674   3.568   1.711  16.149 -0.1444  0.0146 -0.2576
14753TIP3    H265675   3.436   1.699  16.222 -0.6094 -0.5012 -1.1825
14754TIP3   OH265676   5.660   6.593   3.557 -0.1809 -0.5886  0.1459
14754TIP3    H165677   5.733   6.539   3.527  0.2356  0.5800 -1.0478
14754TIP3    H265678   5.702   6.673   3.590 -0.7692 -1.0258  2.0508
14755TIP3   OH265679   0.759   3.173  16.124 -0.2649 -0.5350 -0.2327
14755TIP3    H165680   0.700   3.132  16.061 -1.2384  0.9208 -0.3365
14755TIP3    H265681   0.734   3.137  16.209  1.2156 -2.6947 -0.6455
14756TIP3   OH265682   3.969   4.653  14.430  0.6721  0.1124 -0.4782
14756TIP3    H165683   3.965   4.573  14.483  2.3467  0.3485  0.0362
14756TIP3    H265684   3.880   4.662  14.396 -0.3411 -0.3542  1.8204
14757TIP3   OH265685   2.967   2.992  13.046  0.3104  0.2864 -0.8625
14757TIP3    H165686   2.935   3.051  12.977  0.2316  0.6285 -0.5343
14757TIP3    H265687   3.028   2.934  13.001  0.1257  0.3943 -1.2584
14758TIP3   OH265688   0.142   1.821   0.958 -0.4693 -0.3567  0.3760
14758TIP3    H165689   0.108   1.814   1.047 -0.0527  0.7069  0.6268
14758TIP3    H265690   0.183   1.736   0.942 -0.8441 -0.6766  1.0628
14759TIP3   OH265691   5.547   0.423   4.568 -0.0811  0.3374  0.4633
14759TIP3    H165692   5.629   0.387   4.603  0.2292  1.1432  0.5918
14759TIP3    H265693   5.502   0.458   4.645  0.2041  1.3411  0.1872
14760TIP3   OH265694   0.924   3.030   5.028 -0.6166  0.5189  0.0266
14760TIP3    H165695   0.862   3.033   5.101 -0.5045 -0.7249  0.1947
14760TIP3    H265696   0.938   2.937   5.013 -1.7849  0.6944 -2.5830
14761TIP3   OH265697   4.488   4.213   5.597  0.1391 -0.2243 -0.1631
14761TIP3    H165698   4.486   4.139   5.658  0.0917 -0.7950 -0.8467
14761TIP3    H265699   4.497   4.173   5.511 -0.7789  0.5179 -0.6265
14762TIP3   OH265700   6.327   0.606   3.730  0.4807  0.7334  0.0529
14762TIP3    H165701   6.344   0.624   3.638  1.5856 -0.6657 -0.0454
14762TIP3    H265702   6.322   0.510   3.736 -0.9074  0.8283  1.2373
14763TIP3   OH265703   4.905   1.995   1.897  0.2439  0.3827  0.1144
14763TIP3    H165704   4.902   1.902   1.921  2.4480 -0.1709 -1.3672
14763TIP3    H265705   4.931   2.040   1.977  0.1635 -0.4359  0.6129
14764TIP3   OH265706   3.662   2.974   2.484  0.3265 -0.8714  0.0391
14764TIP3    H165707   3.653   3.035   2.557  1.8412  0.3941 -0.7749
14764TIP3    H265708   3.574   2.938   2.472 -0.0786 -0.6596  2.0769
14765TIP3   OH265709   6.324   5.148   6.113 -0.0937  0.3333  0.6116
14765TIP3    H165710   6.350   5.076   6.170  0.6046 -1.0303 -1.3168
14765TIP3    H265711   6.404   5.199   6.101  0.0169  0.0348  0.0597
14766TIP3   OH265712   5.262   0.589  17.243  0.3003 -0.0071 -0.0286
14766TIP3    H165713   5.268   0.593  17.147  0.0695 -1.3771 -0.1179
14766TIP3    H265714   5.353   0.583  17.272  0.3167 -2.4372 -0.3590
14767TIP3   OH265715   0.235   1.715  12.084 -0.6185  0.2659 -0.3347
14767TIP3    H165716   0.287   1.634  12.092 -1.7486 -0.5060 -0.5605
14767TIP3    H265717   0.183   1.702  12.005 -0.0122  1.7043 -1.0072
14768TIP3   OH265718   4.421   5.135   5.005 -0.0530 -0.0888 -0.5089
14768TIP3    H165719   4.454   5.162   5.091 -1.1144 -0.8732  0.1750
14768TIP3    H265720   4.339   5.184   4.995 -0.6892 -1.0905 -0.3879
14769TIP3   OH265721   4.533   0.513   4.270  0.1205 -0.5055  0.4493
14769TIP3    H165722   4.443   0.510   4.238 -0.4146 -1.8479  1.9235
14769TIP3    H265723   4.570   0.428   4.246  0.5371 -0.5037  1.0588
14770TIP3   OH265724   4.114   3.855  15.782 -1.0636  0.0116 -0.3266
14770TIP3    H165725   4.026   3.887  15.765 -1.1295  0.6947  1.0905
14770TIP3    H265726   4.104   3.795  15.856 -0.2136  1.0818  0.7129
14771TIP3   OH265727   2.090   6.546   4.809 -0.3878 -0.3356 -0.2294
14771TIP3    H165728   2.011   6.495   4.792  0.7407 -2.2522 -0.0201
14771TIP3    H265729   2.067   6.602   4.883 -1.8800 -0.0172 -0.9085
14772TIP3   OH265730   1.212   4.327  15.548  0.4252  0.1612  0.3391
14772TIP3    H165731   1.299   4.328  15.588  2.3715 -0.3299 -3.4805
14772TIP3    H265732   1.208   4.408  15.498 -0.8559 -0.3597 -0.4459
14773TIP3   OH265733   4.056   1.797   1.826  0.3942  0.8452  0.9337
14773TIP3    H165734   4.069   1.809   1.921  0.6292  0.5626  0.9429
14773TIP3    H265735   4.068   1.884   1.789  1.5829  0.7551  1.0373
14774TIP3   OH265736   1.401   3.644  17.094 -0.1035 -0.3385 -0.4088
14774TIP3    H165737   1.380   3.568  17.149  0.5484 -0.7624 -0.7339
14774TIP3    H265738   1.411   3.716  17.157 -0.7223 -0.5154 -0.0978
14775TIP3   OH265739   6.277   2.284   0.107 -0.3181  0.4304  0.7412
14775TIP3    H165740   6.187   2.311   0.089 -0.2882  0.4687  0.6501
14775TIP3    H265741   6.270   2.231   0.187 -0.5209 -0.1690  0.3311
14776TIP3   OH265742   0.699   5.558   5.012 -0.4393  0.0828 -0.1358
14776TIP3    H165743   0.647   5.530   5.087 -0.6203 -0.1016 -0.3236
14776TIP3    H265744   0.784   5.582   5.048 -0.4815 -0.1333  0.1090
14777TIP3   OH265745   4.707   5.525  14.191  0.2695  0.2531 -0.1668
14777TIP3    H165746   4.737   5.479  14.270 -0.6642  0.2234  0.1758
14777TIP3    H265747   4.726   5.464  14.119 -0.2411 -0.3567  0.2003
14778TIP3   OH265748   0.059   3.326  16.825  0.0687 -0.3656  0.2220
14778TIP3    H165749   0.021   3.371  16.901  0.2991  0.3934 -0.1060
14778TIP3    H265750   0.065   3.234  16.853 -2.1759 -0.5744  0.2223
14779TIP3   OH265751   2.430   1.329   3.037  0.5796 -0.1864 -0.7666
14779TIP3    H165752   2.388   1.359   2.956 -1.3388 -0.0860  0.2117
14779TIP3    H265753   2.371   1.261   3.071  0.5175  0.8250  1.3063
14780TIP3   OH265754   1.281   0.183  12.004  0.3857  0.2670 -0.3967
14780TIP3    H165755   1.260   0.251  11.939  0.8393  0.6471 -0.1546
14780TIP3    H265756   1.359   0.216  12.048  0.0521  0.0349  0.3805
14781TIP3   OH265757   0.125   0.938  12.725  0.4019  0.2801 -0.1216
14781TIP3    H165758   0.124   1.002  12.796  0.6806  0.9618 -0.7233
14781TIP3    H265759   0.047   0.885  12.740  0.8374 -0.0325  1.0913
14782TIP3   OH265760   0.773   3.725   0.441  0.2743 -0.8823  0.3644
14782TIP3    H165761   0.707   3.716   0.510 -0.4042  1.5351  0.1358
14782TIP3    H265762   0.855   3.739   0.487 -0.1081  0.3099  0.7208
14783TIP3   OH265763   4.520   2.565   1.057 -0.2979 -0.0342  0.0676
14783TIP3    H165764   4.528   2.644   1.003  0.5916  0.0288  0.2864
14783TIP3    H265765   4.447   2.517   1.018  0.2874  0.0430 -1.1340
14784TIP3   OH265766   4.735   4.678   0.705  0.0291 -0.2786  0.1798
14784TIP3    H165767   4.671   4.687   0.776  1.3119 -3.0073  1.8322
14784TIP3    H265768   4.818   4.703   0.745  0.3473  1.3315 -1.3842
14785TIP3   OH265769   1.288   2.002  15.767 -0.4199 -0.0598  0.0688
14785TIP3    H165770   1.333   2.068  15.713 -0.2728 -0.0727  0.1766
14785TIP3    H265771   1.343   1.925  15.761 -0.1695  0.0737  0.6018
14786TIP3   OH265772   5.464   3.226   3.849 -0.2649 -0.0542  0.1250
14786TIP3    H165773   5.381   3.249   3.807 -0.0147  0.6854  0.0091
14786TIP3    H265774   5.448   3.243   3.942 -0.1631  0.3604  0.0702
14787TIP3   OH265775   0.686   1.728  12.915  0.5476  0.5688  0.1432
14787TIP3    H165776   0.758   1.696  12.862 -0.2116  1.9388 -1.8058
14787TIP3    H265777   0.608   1.717  12.860 -0.6483 -0.1043  1.8659
14788TIP3   OH265778   5.677   4.430   3.530 -0.2463  0.1720  0.8741
14788TIP3    H165779   5.632   4.476   3.460  2.4861  2.5503  0.4854
14788TIP3    H265780   5.643   4.469   3.610  0.3456  1.2701  0.6187
14789TIP3   OH265781   5.012   3.231   0.205 -0.4473  0.4226  0.3330
14789TIP3    H165782   5.070   3.263   0.274  1.0502  1.3887 -1.2904
14789TIP3    H265783   4.992   3.141   0.230  1.6227  0.1073  1.0583
14790TIP3   OH265784   2.521   6.432  13.718  0.1413 -0.9879 -0.3661
14790TIP3    H165785   2.591   6.465  13.662  0.9930  0.5370  1.5004
14790TIP3    H265786   2.460   6.390  13.657  0.8978  0.7518 -2.4703
14791TIP3   OH265787   0.345   0.367  13.495 -0.1616  0.1424  0.0438
14791TIP3    H165788   0.292   0.447  13.498  0.2148  0.4891 -1.5734
14791TIP3    H265789   0.414   0.382  13.560 -0.6167  0.7358  0.4047
14792TIP3   OH265790   5.283   2.238   5.104 -0.5650 -0.3475 -0.1290
14792TIP3    H165791   5.360   2.284   5.070 -2.3607  1.9828 -1.3563
14792TIP3    H265792   5.275   2.161   5.048  2.1704 -2.0483  1.5811
14793TIP3   OH265793   6.108   2.547   3.338  0.1116 -0.1964  0.6022
14793TIP3    H165794   6.109   2.560   3.244 -2.5048  0.0157  0.5174
14793TIP3    H265795   6.069   2.627   3.373 -0.3326 -0.8693  1.7062
14794TIP3   OH265796   2.441   0.371   1.183  0.6808 -0.3407 -0.5069
14794TIP3    H165797   2.470   0.400   1.096  0.0647  1.5404 -0.1277
14794TIP3    H265798   2.350   0.343   1.169  0.6344 -0.1921 -0.5092
14795TIP3   OH265799   5.773   4.133  13.837  0.1341  0.1745  0.2197
14795TIP3    H165800   5.856   4.159  13.797 -0.2321 -1.3106 -1.6803
14795TIP3    H265801   5.719   4.104  13.763 -0.8887 -1.9682  1.7068
14796TIP3   OH265802   2.568   6.361  12.349 -0.3202 -0.4504  0.4738
14796TIP3    H165803   2.513   6.435  12.374 -0.9091 -0.5421 -0.4904
14796TIP3    H265804   2.527   6.285  12.391 -2.2556 -0.8545 -1.9014
14797TIP3   OH265805   4.847   1.968  16.791  0.1701 -0.4101  0.3403
14797TIP3    H165806   4.867   2.054  16.828  1.7454 -0.5218 -0.1911
14797TIP3    H265807   4.823   1.987  16.700 -1.6570 -0.3502  0.7826
14798TIP3   OH265808   4.668   1.054  14.091  0.2846  0.1156 -0.2653
14798TIP3    H165809   4.691   1.105  14.014 -0.5761 -0.8376 -1.2037
14798TIP3    H265810   4.671   1.116  14.164  2.4409  0.7479 -0.8215
14799TIP3   OH265811   4.819   3.060  11.585 -0.2531 -0.1004 -0.6298
14799TIP3    H165812   4.865   3.002  11.647 -0.8381 -0.1959 -0.2748
14799TIP3    H265813   4.821   3.145  11.628 -0.5968 -0.1514 -0.5134
14800TIP3   OH265814   0.357   2.837   3.057 -0.0158 -0.6067  0.4410
14800TIP3    H165815   0.267   2.827   3.027 -0.9408  0.8578  2.4858
14800TIP3    H265816   0.349   2.860   3.150  2.3852  1.0285  0.3449
14801TIP3   OH265817   6.536   4.132  10.412  0.1629 -0.1470  0.5584
14801TIP3    H165818   6.475   4.180  10.467 -0.4600 -0.7709  0.4316
14801TIP3    H265819   6.612   4.116  10.468  0.1241  0.4479  0.7857
14802TIP3   OH265820   1.955   2.360   4.000  0.2709  0.4893  0.2099
14802TIP3    H165821   1.921   2.273   3.981  1.9300 -0.2632  0.5016
14802TIP3    H265822   1.966   2.362   4.095  0.2935  1.0041  0.2030
14803TIP3   OH265823   1.113   6.198   4.858  0.4492  0.5654 -0.4987
14803TIP3    H165824   1.019   6.188   4.875  0.3953  0.0729 -1.0436
14803TIP3    H265825   1.152   6.211   4.944  0.1978 -1.7702  0.0185
14804TIP3   OH265826   4.812   1.490  16.486 -0.0014  0.1860  0.3467
14804TIP3    H165827   4.758   1.569  16.478 -0.0893  0.2690  1.5083
14804TIP3    H265828   4.757   1.429  16.537 -0.2418 -0.9230 -1.1736
14805TIP3   OH265829   5.275   3.738   5.564 -0.2367  0.1807  0.3325
14805TIP3    H165830   5.342   3.670   5.554  0.0639  0.7250 -1.8167
14805TIP3    H265831   5.315   3.817   5.527 -1.9799  0.5455 -0.8789
14806TIP3   OH265832   0.956   2.745  17.039 -0.2179  0.4342  0.1456
14806TIP3    H165833   1.050   2.759  17.052 -0.0837  1.5349 -1.6605
14806TIP3    H265834   0.940   2.657  17.072  1.2232  0.6196  1.4722
14807TIP3   OH265835   5.344   5.106   5.544  0.0750 -0.0853 -0.1095
14807TIP3    H165836   5.389   5.152   5.615 -0.6618 -0.5631  0.6919
14807TIP3    H265837   5.412   5.054   5.502  0.2078 -1.2900  1.4845
14808TIP3   OH265838   5.002   3.704   5.537 -0.5123  0.5610 -0.0579
14808TIP3    H165839   4.985   3.634   5.600  1.7176 -3.1112 -3.0611
14808TIP3    H265840   5.092   3.732   5.556 -1.1862  2.3526  0.7379
14809TIP3   OH265841   1.739   3.996   3.248  0.1994 -0.6143 -0.2911
14809TIP3    H165842   1.718   4.051   3.173 -0.5619  1.5513  1.3942
14809TIP3    H265843   1.831   3.972   3.236  0.0446 -0.4463 -1.9579
14810TIP3   OH265844   4.988   6.702   1.586 -0.3637  0.6808 -0.3716
14810TIP3    H165845   4.902   6.707   1.544 -0.1894 -0.1768 -0.8524
14810TIP3    H265846   5.050   6.701   1.513 -0.0217 -0.1269 -0.0836
14811TIP3   OH265847   4.888   0.052  16.367 -0.1077  0.3206  0.2406
14811TIP3    H165848   4.954   0.020  16.305 -0.3699 -1.1075  0.6771
14811TIP3    H265849   4.931   0.046  16.452 -1.2827 -2.1419  0.7328
14812TIP3   OH265850   5.265   0.308  16.998 -0.2057  0.0203 -0.3974
14812TIP3    H165851   5.281   0.401  16.983 -0.2880  0.0271 -0.4438
14812TIP3    H265852   5.231   0.303  17.087  0.0940  0.0014 -0.2822
14813TIP3   OH265853   2.081   6.248  14.206 -0.2750 -0.0297 -0.3416
14813TIP3    H165854   2.112   6.159  14.186 -0.8399  0.3043 -3.0652
14813TIP3    H265855   1.999   6.234  14.254 -0.6280 -1.0179 -1.1894
14814TIP3   OH265856   3.852   3.193   6.247 -0.7969  0.2250 -0.0373
14814TIP3    H165857   3.921   3.249   6.211  0.4456  0.0740  1.9729
14814TIP3    H265858   3.781   3.252   6.267  0.2689  1.0577  1.4852
14815TIP3   OH265859   0.889   1.775  16.751 -0.8333 -0.1107  0.7102
14815TIP3    H165860   0.830   1.752  16.678 -1.1559 -2.9464  1.7463
14815TIP3    H265861   0.832   1.778  16.828 -0.0389 -0.1556  1.3132
14816TIP3   OH265862   2.306   6.085  16.035  0.3468  0.3363 -0.2483
14816TIP3    H165863   2.309   6.165  15.981 -0.3171  0.4751 -0.0857
14816TIP3    H265864   2.372   6.028  15.995 -0.5334  0.2007 -1.5832
14817TIP3   OH265865   2.285   1.318  12.511  0.6804 -0.2532 -0.1058
14817TIP3    H165866   2.290   1.230  12.474 -0.3853 -0.3872  0.0241
14817TIP3    H265867   2.194   1.345  12.496  0.9603  0.7736 -0.0247
14818TIP3   OH265868   6.704   6.090  15.218  0.8859  0.3343 -0.7913
14818TIP3    H165869   6.757   6.158  15.259  0.7330  0.1095 -0.2134
14818TIP3    H265870   6.638   6.138  15.167  1.7251  0.6144 -1.6360
14819TIP3   OH265871   2.773   0.015   1.721 -0.1228 -0.1109 -0.2003
14819TIP3    H165872   2.811   0.041   1.638 -0.8911 -1.6687 -1.0729
14819TIP3    H265873   2.691  -0.028   1.698 -0.7567  0.1322  1.4232
14820TIP3   OH265874   0.547   2.312  12.389  0.3089  0.4570 -0.2123
14820TIP3    H165875   0.626   2.332  12.439  0.3630  0.3454 -0.2532
14820TIP3    H265876   0.570   2.235  12.338 -0.3542 -0.5897  1.0140
14821TIP3   OH265877   4.188   6.321   3.610 -0.0510  0.3549  0.4915
14821TIP3    H165878   4.131   6.305   3.535 -0.1426  1.1538  0.3801
14821TIP3    H265879   4.270   6.277   3.587 -1.1152 -2.3157  1.4058
14822TIP3   OH265880   2.209   2.442   5.544  0.5436  0.2095 -0.5048
14822TIP3    H165881   2.149   2.507   5.580  0.0064  0.4063 -1.6803
14822TIP3    H265882   2.152   2.374   5.507  0.9631  0.8377 -2.4370
14823TIP3   OH265883   5.985   0.496  14.205 -0.1230 -0.2637 -0.3982
14823TIP3    H165884   6.037   0.477  14.283 -1.2526  0.3839  0.5668
14823TIP3    H265885   6.035   0.562  14.158 -0.2659  0.7388  0.7840
14824TIP3   OH265886   5.169   2.749   5.368  0.1144  0.1552  0.1489
14824TIP3    H165887   5.173   2.781   5.458  1.6247 -0.7256  0.4452
14824TIP3    H265888   5.233   2.802   5.321 -0.6519  0.5951 -0.4239
14825TIP3   OH265889   1.865   6.295   2.336 -0.0888 -0.0237  0.0798
14825TIP3    H165890   1.860   6.230   2.267  0.0214 -0.1608  0.2004
14825TIP3    H265891   1.843   6.378   2.294 -3.6337 -0.5749  0.5826
14826TIP3   OH265892   2.238   0.635  11.785  0.1723 -0.5618 -0.6883
14826TIP3    H165893   2.183   0.656  11.709 -0.5851 -0.2854 -0.0803
14826TIP3    H265894   2.177   0.637  11.859  1.1009  0.2298  0.0748
14827TIP3   OH265895   1.917   5.004  12.502  0.6564  0.7291  0.0117
14827TIP3    H165896   1.942   4.930  12.447  3.4842  2.8624 -1.8832
14827TIP3    H265897   1.996   5.024  12.553 -1.0809  0.4654  3.0932
14828TIP3   OH265898   6.332   3.539   2.623 -1.0414  0.0764  0.0225
14828TIP3    H165899   6.288   3.553   2.539 -0.0919 -1.2046 -0.7072
14828TIP3    H265900   6.292   3.604   2.681 -0.8935  1.7976 -1.7034
14829TIP3   OH265901   1.160   5.649   3.666 -0.3143  0.2219  0.8162
14829TIP3    H165902   1.184   5.738   3.691 -1.0123  0.2558  1.4036
14829TIP3    H265903   1.172   5.598   3.746  1.5784 -0.5448  0.1154
14830TIP3   OH265904   0.125   0.292  13.719 -0.3449  0.3627  0.2539
14830TIP3    H165905   0.045   0.258  13.678  1.9304 -1.7625 -2.9162
14830TIP3    H265906   0.143   0.373  13.672  0.6984 -0.5377 -0.9532
14831TIP3   OH265907   5.536   4.686  14.900 -0.0171 -0.4101 -0.3046
14831TIP3    H165908   5.609   4.692  14.961 -0.4717  0.5053  0.1663
14831TIP3    H265909   5.458   4.703  14.953 -0.6587 -1.9978 -0.6687
14832TIP3   OH265910   1.201   2.408  14.766 -0.7037 -0.1601  0.5563
14832TIP3    H165911   1.159   2.328  14.736  0.4667 -0.9322  0.9398
14832TIP3    H265912   1.133   2.475  14.756 -1.5300 -1.0843 -0.2604
14833TIP3   OH265913   3.458   4.339   1.919 -0.5230 -0.3150  0.4711
14833TIP3    H165914   3.413   4.401   1.860  0.7129 -1.1411 -1.4470
14833TIP3    H265915   3.472   4.261   1.865  2.0605 -0.5662  1.3615
14834TIP3   OH265916   5.624   0.835  11.568 -0.4857 -0.1567 -0.3285
14834TIP3    H165917   5.613   0.929  11.576 -1.4768 -0.2154 -0.9530
14834TIP3    H265918   5.566   0.809  11.497 -0.1827 -1.2339 -0.2051
14835TIP3   OH265919   1.596   0.475   1.801  0.3668 -0.4671 -0.2318
14835TIP3    H165920   1.662   0.406   1.796  1.3424  0.3913  0.4229
14835TIP3    H265921   1.641   0.554   1.773 -1.0675 -0.2750 -2.1725
14836TIP3   OH265922   3.843   5.048   4.624  0.2324 -0.2281 -0.0475
14836TIP3    H165923   3.863   5.076   4.713  1.6469 -0.7307 -0.1803
14836TIP3    H265924   3.889   4.964   4.615  0.6745  0.1473 -1.4692
14837TIP3   OH265925   2.138   0.108   3.560  0.2261 -0.2773 -0.4040
14837TIP3    H165926   2.220   0.156   3.572  0.0312  0.3590 -1.4746
14837TIP3    H265927   2.070   0.176   3.567 -0.1876 -0.7175 -0.0394
14838TIP3   OH265928   5.741   0.620  16.498 -0.5655 -0.4426 -0.1282
14838TIP3    H165929   5.722   0.527  16.484 -0.8277 -0.3540 -0.3736
14838TIP3    H265930   5.662   0.654  16.541 -0.7124 -0.2015 -0.5907
14839TIP3   OH265931   0.503   4.841   2.454  0.4890 -0.3383  0.1285
14839TIP3    H165932   0.421   4.800   2.426  0.1418  0.8945 -0.7200
14839TIP3    H265933   0.478   4.928   2.484  1.6747  0.6844 -1.6997
14840TIP3   OH265934   0.406   3.725  17.156  0.3353 -0.0948  0.2372
14840TIP3    H165935   0.362   3.744  17.074  0.2689 -0.9146  0.0781
14840TIP3    H265936   0.395   3.631  17.169  0.1385  0.0602  1.3082
14841TIP3   OH265937   0.140   5.330  11.137 -0.3375 -0.4417 -0.2465
14841TIP3    H165938   0.196   5.259  11.167 -1.7713 -2.5568 -2.1818
14841TIP3    H265939   0.191   5.410  11.152  0.8481 -1.6827  3.1912
14842TIP3   OH265940   0.237   1.313  14.467 -0.3150 -0.4920  0.0038
14842TIP3    H165941   0.143   1.293  14.472 -0.3534 -0.7764 -1.3861
14842TIP3    H265942   0.246   1.398  14.510 -1.5217  0.4147 -1.4589
14843TIP3   OH265943   5.063   5.637  15.783 -0.0609 -0.0576  0.4755
14843TIP3    H165944   5.140   5.653  15.729 -0.4073  1.7248  0.4670
14843TIP3    H265945   5.097   5.591  15.859  0.7880 -0.5119 -0.1509
14844TIP3   OH265946   6.204   0.437   3.325 -0.3750 -0.0104  0.0554
14844TIP3    H165947   6.266   0.418   3.254 -0.2569  0.7757 -0.0625
14844TIP3    H265948   6.254   0.487   3.388 -0.7038  0.0115  0.3029
14845TIP3   OH265949   4.837   0.947  11.445 -0.5893 -0.0066  0.7449
14845TIP3    H165950   4.910   0.982  11.395  0.7552 -0.5336  2.2504
14845TIP3    H265951   4.827   0.857  11.413  0.8142 -0.6208  1.9328
14846TIP3   OH265952   4.830   5.752  11.959  0.2314  0.6779  0.1494
14846TIP3    H165953   4.907   5.716  12.002 -1.1347  0.2576  2.4101
14846TIP3    H265954   4.797   5.680  11.905  0.3672  0.2353  0.6503
14847TIP3   OH265955   2.098   0.306  14.393 -0.1907  0.5395  0.0599
14847TIP3    H165956   2.095   0.211  14.404  0.3066  0.4754 -0.3118
14847TIP3    H265957   2.132   0.318  14.304  0.4964  1.0674  0.3826
14848TIP3   OH265958   0.895   1.642   4.577 -0.3286 -0.2820 -0.2566
14848TIP3    H165959   0.867   1.566   4.626 -0.0665  0.4642  1.0887
14848TIP3    H265960   0.987   1.625   4.555  0.3243  0.4493  1.7287
14849TIP3   OH265961   2.396   0.250  11.406  0.0665 -0.1516 -0.6737
14849TIP3    H165962   2.333   0.307  11.361  0.4115  1.2054  0.4744
14849TIP3    H265963   2.374   0.259  11.499  3.7247  2.8400  0.1622
14850TIP3   OH265964   3.510   4.524   0.410  0.4391 -0.4043 -0.6242
14850TIP3    H165965   3.591   4.561   0.373 -0.2418  0.8229 -0.9533
14850TIP3    H265966   3.475   4.469   0.340  1.1269 -1.1995 -0.3675
14851TIP3   OH265967   0.274   4.242   5.591  0.0311  0.7827  0.2603
14851TIP3    H165968   0.276   4.267   5.499 -3.1038 -1.9389 -0.7328
14851TIP3    H265969   0.254   4.324   5.637 -0.9055  1.7484 -1.7491
14852TIP3   OH265970   4.875   2.684   5.369 -0.0136  0.0217  0.2643
14852TIP3    H165971   4.886   2.688   5.274 -3.4076 -0.8821 -0.2935
14852TIP3    H265972   4.811   2.753   5.389  0.5116  0.0855  1.8772
14853TIP3   OH265973   3.956   4.798  16.722  0.1358  0.2568 -0.4729
14853TIP3    H165974   3.882   4.765  16.671 -0.6890  2.3849 -0.7515
14853TIP3    H265975   3.986   4.722  16.773 -0.9924 -1.1283 -1.7738
14854TIP3   OH265976   1.382   2.685   1.819  0.1975  0.0593 -0.8144
14854TIP3    H165977   1.395   2.591   1.807 -0.2621 -0.0507 -0.4676
14854TIP3    H265978   1.403   2.700   1.911 -0.8656  0.0954 -0.5719
14855TIP3   OH265979   0.274   0.818   3.961  0.6737  0.1846  0.2545
14855TIP3    H165980   0.302   0.741   3.911  0.2439  1.1448 -1.5518
14855TIP3    H265981   0.334   0.887   3.933 -0.0854  0.9449  0.4710
14856TIP3   OH265982   3.468   2.896   2.882 -0.4818 -0.4232 -0.0401
14856TIP3    H165983   3.407   2.868   2.815 -0.4845 -1.2520  0.2941
14856TIP3    H265984   3.531   2.824   2.890  0.0813  0.0765  0.1694
14857TIP3   OH265985   4.452   0.662   1.796 -0.4695  0.0999 -0.5210
14857TIP3    H165986   4.510   0.651   1.872 -0.9988  0.0744 -0.1189
14857TIP3    H265987   4.364   0.655   1.832 -0.7208 -0.4708 -1.2316
14858TIP3   OH265988   5.154   6.100   5.101  0.2183  0.5773  0.1645
14858TIP3    H165989   5.216   6.029   5.119 -0.1853  0.7809  2.8801
14858TIP3    H265990   5.195   6.177   5.142 -1.9234  0.6256  2.4457
14859TIP3   OH265991   1.155   2.447  12.085  0.0882  0.1505  0.3230
14859TIP3    H165992   1.069   2.416  12.112 -0.0184  0.9405  0.9207
14859TIP3    H265993   1.192   2.374  12.035 -0.2992 -0.7824  1.3620
14860TIP3   OH265994   5.661   6.304   2.085  0.5023  0.0020  0.2392
14860TIP3    H165995   5.612   6.228   2.113  0.8995 -1.9814 -3.7480
14860TIP3    H265996   5.735   6.269   2.035  0.8053  2.9516 -1.6733
14861TIP3   OH265997   1.815   5.640   3.522  0.2288 -0.2093 -0.3598
14861TIP3    H165998   1.837   5.549   3.545 -1.4626 -0.3785  0.8070
14861TIP3    H265999   1.761   5.631   3.443 -2.6026 -0.6065  1.4555
14862TIP3   OH266000   2.040   0.977  14.829 -0.0276 -0.5303 -0.3584
14862TIP3    H166001   2.088   1.020  14.758  1.8531  0.3132  1.3168
14862TIP3    H266002   2.061   0.884  14.820  3.1698 -0.0943  1.0430
14863TIP3   OH266003   0.284   4.467   3.917  0.4768  0.0533 -0.6148
14863TIP3    H166004   0.212   4.413   3.951  2.3790 -1.2964  1.5871
14863TIP3    H266005   0.341   4.405   3.871  2.0906  0.3352  0.9170
14864TIP3   OH266006   4.641   4.277   4.907  0.3487 -0.0264  0.1191
14864TIP3    H166007   4.664   4.249   4.995 -1.3183 -0.6728  0.3950
14864TIP3    H266008   4.626   4.196   4.859 -2.1037  0.2601  0.2367
14865TIP3   OH266009   3.390   5.108   5.645 -0.2680 -0.5814 -0.0518
14865TIP3    H166010   3.298   5.088   5.663 -0.1847 -2.3377 -1.3294
14865TIP3    H266011   3.430   5.116   5.732 -1.3858 -1.0125  0.5232
14866TIP3   OH266012   0.004   5.771   5.856  0.4661  1.1185 -0.2728
14866TIP3    H166013   0.010   5.757   5.761  1.4549  0.3617 -0.1169
14866TIP3    H266014   0.094   5.766   5.887  0.0122 -0.3601  0.9259
14867TIP3   OH266015   4.486   0.541  16.883  0.2763  0.1233  0.2046
14867TIP3    H166016   4.488   0.524  16.977  0.1835  1.1142  0.3951
14867TIP3    H266017   4.537   0.470  16.845 -0.3500 -0.7497  0.9245
14868TIP3   OH266018   0.715   5.332  14.441 -0.8545 -0.1358 -0.3023
14868TIP3    H166019   0.655   5.396  14.403  0.6888  1.2616 -0.4889
14868TIP3    H266020   0.718   5.261  14.377 -0.7289  0.7288 -1.2753
14869TIP3   OH266021   6.692   4.028   3.783 -0.6349 -0.2846 -0.1052
14869TIP3    H166022   6.708   4.118   3.756 -0.5732 -0.7138 -1.5371
14869TIP3    H266023   6.685   3.979   3.702  3.0136 -2.2450  0.5563
14870TIP3   OH266024   0.902   5.524  16.940 -0.1985  0.4785  0.4345
14870TIP3    H166025   0.975   5.498  16.884 -1.1068 -0.8084 -0.2087
14870TIP3    H266026   0.824   5.495  16.892 -1.0104 -0.8576  2.4505
14871TIP3   OH266027   4.952   4.560  16.306  0.0985  0.1037  0.2923
14871TIP3    H166028   5.040   4.564  16.345  0.8311 -1.4031 -1.0969
14871TIP3    H266029   4.938   4.647  16.270  0.9509  0.4085  0.6595
14872TIP3   OH266030   2.650   3.335   4.745 -0.3562  0.3295 -0.4885
14872TIP3    H166031   2.558   3.317   4.759 -0.5764  0.5998 -1.4823
14872TIP3    H266032   2.695   3.256   4.776 -0.9372  0.0839 -0.2649
14873TIP3   OH266033   1.043   0.429  15.055 -0.2970 -0.1256 -0.2809
14873TIP3    H166034   0.991   0.352  15.079  0.6901 -0.6104  0.3430
14873TIP3    H266035   1.112   0.434  15.121  0.3935  0.5666 -1.0302
14874TIP3   OH266036   1.716   5.367  15.584  0.6989 -0.3546  0.5541
14874TIP3    H166037   1.674   5.284  15.560  2.7104 -1.0018 -1.0186
14874TIP3    H266038   1.645   5.431  15.584 -0.9863 -2.0801  2.1525
14875TIP3   OH266039   0.929   4.123   2.816  0.1515  0.3493  0.2416
14875TIP3    H166040   0.904   4.052   2.875  0.3236  1.7209  2.0523
14875TIP3    H266041   1.011   4.156   2.852  0.7680  0.6288 -1.3559
14876TIP3   OH266042   3.064   0.756   4.544 -0.5224  0.2471  0.3842
14876TIP3    H166043   3.027   0.673   4.513  1.4370 -0.0477 -1.3370
14876TIP3    H266044   3.019   0.823   4.493  0.5991 -0.0551 -1.0619
14877TIP3   OH266045   0.871   5.829   5.170 -0.3601 -0.2616  0.0693
14877TIP3    H166046   0.847   5.791   5.255  1.1786 -2.0246 -0.2414
14877TIP3    H266047   0.913   5.758   5.122 -1.1832  0.6889 -2.2118
14878TIP3   OH266048   4.224   0.509  10.404  0.5649  0.8993  0.0401
14878TIP3    H166049   4.259   0.595  10.425 -0.7509  1.3973  0.3085
14878TIP3    H266050   4.149   0.499  10.463  1.1953 -0.8007  0.6152
14879TIP3   OH266051   3.137   4.520   4.399  0.2969  0.4448  0.3749
14879TIP3    H166052   3.122   4.588   4.463  0.8080  0.2745  0.6845
14879TIP3    H266053   3.216   4.474   4.430  0.5070  0.3115 -0.3239
14880TIP3   OH266054   1.238   0.341   3.901  0.1811 -0.2309 -0.3896
14880TIP3    H166055   1.184   0.404   3.949  0.5468 -0.5644  0.4681
14880TIP3    H266056   1.286   0.294   3.968 -0.8045 -2.1359 -0.9262
14881TIP3   OH266057   2.605   2.671  15.193  0.2314 -0.6961 -0.2582
14881TIP3    H166058   2.528   2.627  15.157 -1.1302  0.5447  0.9928
14881TIP3    H266059   2.653   2.602  15.239  0.8315 -1.8401 -2.4756
14882TIP3   OH266060   0.259   5.102   0.759  0.6122 -0.5950 -0.1652
14882TIP3    H166061   0.170   5.100   0.794  1.3264 -1.9986  1.6853
14882TIP3    H266062   0.284   5.194   0.765 -0.3810 -0.3267  0.1573
14883TIP3   OH266063   1.555   6.310  13.969 -0.2462  0.2324 -0.4182
14883TIP3    H166064   1.593   6.394  13.946 -0.7375  0.7880  0.6780
14883TIP3    H266065   1.626   6.262  14.012 -0.2643  0.5405 -0.0358
14884TIP3   OH266066   2.347   2.988   5.836 -0.0351  0.5071  0.4537
14884TIP3    H166067   2.330   3.077   5.807  0.0564  0.8141  1.3226
14884TIP3    H266068   2.400   2.950   5.765 -2.9426 -0.0291 -1.6284
14885TIP3   OH266069   4.418   6.211  14.170  0.2466 -0.3243  0.2480
14885TIP3    H166070   4.398   6.222  14.263 -0.0104 -1.9954  0.4239
14885TIP3    H266071   4.338   6.240  14.126  0.0231 -0.4075  0.5877
14886TIP3   OH266072   3.205   2.706  14.697  0.1473  0.3669  0.4046
14886TIP3    H166073   3.159   2.701  14.781 -0.3218 -1.0342  0.0985
14886TIP3    H266074   3.297   2.687  14.719 -0.4152 -3.1004  0.3041
14887TIP3   OH266075   6.037   0.531   2.606  0.1442  0.2118  0.3143
14887TIP3    H166076   6.000   0.602   2.659 -1.2145  0.0838 -0.4163
14887TIP3    H266077   5.993   0.539   2.521  1.5260 -0.2230 -0.4666
14888TIP3   OH266078   5.855   1.181  11.733 -0.1770  0.0817  0.0857
14888TIP3    H166079   5.833   1.225  11.815 -0.6505  1.5529 -0.7997
14888TIP3    H266080   5.900   1.101  11.760  0.7153  1.0919  1.7584
14889TIP3   OH266081   1.064   0.231   1.754 -0.2109  0.3509  0.0693
14889TIP3    H166082   0.973   0.251   1.731 -0.0622  0.3923 -0.4932
14889TIP3    H266083   1.087   0.297   1.819 -0.0463  1.4298 -1.0460
14890TIP3   OH266084   6.472   1.228   4.505  0.4656  0.1084  0.0081
14890TIP3    H166085   6.480   1.203   4.597  1.1822  2.1012  0.5366
14890TIP3    H266086   6.387   1.193   4.478 -0.7986  1.3695  2.0873
14891TIP3   OH266087   4.369   5.985   4.402 -0.7258  0.7755  0.3037
14891TIP3    H166088   4.370   6.067   4.352  2.0312 -0.3018 -1.6152
14891TIP3    H266089   4.326   5.922   4.345  0.5871  0.0176  0.1176
14892TIP3   OH266090   5.530   4.631   0.294  0.1087 -0.8091 -0.1011
14892TIP3    H166091   5.567   4.552   0.255 -0.0468 -0.4954 -0.9113
14892TIP3    H266092   5.600   4.665   0.350  0.7120 -0.7432 -0.8764
14893TIP3   OH266093   3.065   1.417   6.598  0.0114  0.1800  0.4408
14893TIP3    H166094   3.155   1.435   6.570  0.1585 -2.6139 -1.2970
14893TIP3    H266095   3.060   1.321   6.603 -2.5149  0.2922  1.8577
14894TIP3   OH266096   0.853   0.083   3.912 -0.0103  0.1527 -0.3257
14894TIP3    H166097   0.810   0.148   3.857  0.4697  0.0080 -0.8863
14894TIP3    H266098   0.905   0.030   3.851  0.7246  0.1379  0.2881
14895TIP3   OH266099   1.210   5.848   2.603 -0.3056  0.8615  0.0878
14895TIP3    H166100   1.194   5.770   2.550  0.1436  2.5557 -2.8183
14895TIP3    H266101   1.282   5.825   2.661  2.2546  0.0449 -3.1453
14896TIP3   OH266102   3.869   6.167  10.713 -0.3159 -0.0563 -0.0836
14896TIP3    H166103   3.926   6.144  10.786  0.7528  0.5636 -0.6939
14896TIP3    H266104   3.854   6.084  10.667 -2.5173 -0.8115  1.8131
14897TIP3   OH266105   2.671   3.810   2.434 -0.7969  0.3935 -0.0356
14897TIP3    H166106   2.730   3.845   2.501 -0.8752 -1.1383  0.9071
14897TIP3    H266107   2.592   3.863   2.441 -0.7384  0.3733  1.0000
14898TIP3   OH266108   0.226   0.803   2.158  0.4229  0.2759 -0.0219
14898TIP3    H166109   0.308   0.828   2.200  1.3273  0.5299 -1.8260
14898TIP3    H266110   0.242   0.716   2.122  0.2834  0.7312 -1.2515
14899TIP3   OH266111   1.249   4.661  16.614  0.6300  0.0691 -0.3182
14899TIP3    H166112   1.319   4.624  16.561  1.2530 -1.0924  1.2316
14899TIP3    H266113   1.168   4.627  16.575  1.0729 -0.7480 -0.5506
14900TIP3   OH266114   4.344   0.962  16.644  0.3413  0.4579  0.2457
14900TIP3    H166115   4.417   0.970  16.706  0.2650 -1.2219  0.5893
14900TIP3    H266116   4.345   1.045  16.596  1.4233  1.1437  1.3735
14901TIP3   OH266117   0.203   6.650  15.175  0.2589 -0.0300 -0.0142
14901TIP3    H166118   0.250   6.734  15.171  1.7159 -0.8613 -1.6383
14901TIP3    H266119   0.222   6.608  15.091  0.8373 -2.6385  1.3113
14902TIP3   OH266120   1.848   3.369  15.528  0.3066 -0.3090  0.2673
14902TIP3    H166121   1.788   3.363  15.602  2.1385 -2.9345  1.6841
14902TIP3    H266122   1.899   3.449  15.545 -0.1506 -0.1987  1.1588
14903TIP3   OH266123   4.146   2.735  16.854 -0.2353  0.2818 -0.1511
14903TIP3    H166124   4.199   2.707  16.928 -3.1473 -1.7543  1.3330
14903TIP3    H266125   4.069   2.775  16.893 -1.1098  0.6926 -2.1527
14904TIP3   OH266126   6.551   2.796   2.678  0.4982 -0.3754  0.2626
14904TIP3    H166127   6.579   2.713   2.640  0.4214 -1.0235  1.5600
14904TIP3    H266128   6.630   2.849   2.682  0.1445  0.5094 -2.6492
14905TIP3   OH266129   1.648   0.015   4.456  0.0422  0.1517 -0.3839
14905TIP3    H166130   1.607  -0.072   4.457 -0.6578  0.4560 -1.3080
14905TIP3    H266131   1.658   0.036   4.363 -0.5935  1.4309 -0.1836
14906TIP3   OH266132   0.495   6.589  13.029 -0.0279  1.1790  0.2373
14906TIP3    H166133   0.481   6.586  13.123 -3.3745  0.8112 -0.1534
14906TIP3    H266134   0.460   6.674  13.002 -0.1359  0.8182 -0.8025
14907TIP3   OH266135   2.915   0.414   5.585  0.0490  0.3981 -0.2361
14907TIP3    H166136   2.991   0.401   5.643  0.2678  0.5919 -0.4748
14907TIP3    H266137   2.884   0.502   5.605 -0.7660 -0.0561  0.6056
14908TIP3   OH266138   0.927   1.145  14.181  0.1598  0.4897  0.0686
14908TIP3    H166139   0.852   1.090  14.157  1.4209 -0.6488 -1.4861
14908TIP3    H266140   0.999   1.112  14.127  1.5716  2.1328  0.8586
14909TIP3   OH266141   5.851   6.540  13.727  0.4226  0.1640 -0.3367
14909TIP3    H166142   5.945   6.528  13.742  0.5888  1.2632 -0.4244
14909TIP3    H266143   5.825   6.608  13.789 -0.1625  0.3932 -0.8182
14910TIP3   OH266144   1.263   6.628   4.021 -0.2198 -0.0666  0.4655
14910TIP3    H166145   1.206   6.551   4.023  0.3726 -0.5026  1.3823
14910TIP3    H266146   1.215   6.692   3.970 -1.1316 -0.7347  0.4552
14911TIP3   OH266147   2.793   2.765   5.936 -0.0126  0.1935 -0.0236
14911TIP3    H166148   2.704   2.736   5.917 -0.7569  1.6440  1.0679
14911TIP3    H266149   2.784   2.826   6.010  1.5116  2.5540 -1.6355
14912TIP3   OH266150   0.175   5.062  14.939  0.1911  0.0351  0.0029
14912TIP3    H166151   0.240   5.076  15.008  1.3035 -1.2515 -0.7319
14912TIP3    H266152   0.227   5.059  14.858 -0.8416 -0.5425 -0.6628
14913TIP3   OH266153   4.538   4.192  13.447  0.2425  0.0980  0.2192
14913TIP3    H166154   4.519   4.098  13.445  0.9723 -0.0517 -0.8797
14913TIP3    H266155   4.594   4.203  13.524  0.6759 -0.4982  0.0054
14914TIP3   OH266156   4.814   1.466   1.769 -0.1210 -0.8354  0.1875
14914TIP3    H166157   4.719   1.474   1.764  0.0346  1.4560 -0.1664
14914TIP3    H266158   4.829   1.404   1.840 -1.8709  0.8441  2.1692
14915TIP3   OH266159   0.257   0.809   3.516  0.2747 -0.2528 -0.1957
14915TIP3    H166160   0.177   0.813   3.569  1.4605  0.9455  1.6172
14915TIP3    H266161   0.261   0.893   3.472  0.9075  0.0110  0.3414
14916TIP3   OH266162   3.917   0.405   0.133 -0.5383  0.3250  0.2786
14916TIP3    H166163   3.896   0.448   0.050  0.7907  1.5256  0.5223
14916TIP3    H266164   3.875   0.461   0.199  2.2111  2.0690  0.6868
14917TIP3   OH266165   2.585   3.724  13.529 -0.0729 -0.0023  0.1816
14917TIP3    H166166   2.575   3.661  13.600 -2.0861  0.7154  0.5816
14917TIP3    H266167   2.645   3.681  13.467  1.3303 -0.8395  2.0437
14918TIP3   OH266168   2.073   2.465  14.111  0.6763 -0.3003 -0.0079
14918TIP3    H166169   2.064   2.521  14.034 -0.8618  1.3551  1.2931
14918TIP3    H266170   2.064   2.525  14.186 -0.4267 -2.1637  1.4565
14919TIP3   OH266171   2.493   1.535   3.903 -0.2815 -0.0111  0.6366
14919TIP3    H166172   2.501   1.631   3.901 -0.3018 -0.0188  0.0122
14919TIP3    H266173   2.521   1.511   3.992 -2.1899  0.7231  1.5055
14920TIP3   OH266174   4.012   5.789   2.150  0.0544 -0.2800 -0.5599
14920TIP3    H166175   4.009   5.771   2.244 -3.2601  0.3598 -0.4423
14920TIP3    H266176   3.945   5.733   2.112  1.0648 -0.2460 -2.5267
14921TIP3   OH266177   5.063   0.369   0.807  0.3138  0.0367 -0.1393
14921TIP3    H166178   4.988   0.429   0.799  0.3381  0.0388 -0.3622
14921TIP3    H266179   5.043   0.316   0.883 -0.5579 -0.8686 -0.9772
14922TIP3   OH266180   5.759   5.486  10.638 -0.0181 -0.1125 -0.1462
14922TIP3    H166181   5.691   5.438  10.591 -0.4997 -0.0011  0.4298
14922TIP3    H266182   5.841   5.459  10.595 -0.5179  0.9188 -1.8717
14923TIP3   OH266183   1.201   1.917   4.788 -0.7440 -0.5964  0.1657
14923TIP3    H166184   1.247   1.849   4.738 -0.3234 -0.2716  0.1011
14923TIP3    H266185   1.159   1.971   4.721 -1.9458 -1.3846  0.2554
14924TIP3   OH266186   3.522   2.435   6.384 -0.5515  0.0170  0.1205
14924TIP3    H166187   3.507   2.341   6.380  0.0298 -0.0595 -2.1623
14924TIP3    H266188   3.617   2.444   6.380 -0.6328  0.6707 -1.1749
14925TIP3   OH266189   0.210   0.719   6.066  0.9480  0.4107  0.0138
14925TIP3    H166190   0.252   0.804   6.083 -0.2795  1.0006  0.1962
14925TIP3    H266191   0.186   0.687   6.153  1.4869 -0.1757 -0.0498
14926TIP3   OH266192   1.143   0.712  11.562 -0.0288  0.4884 -0.3928
14926TIP3    H166193   1.192   0.793  11.551 -0.6237  1.0463  0.9525
14926TIP3    H266194   1.058   0.729  11.520 -0.0129  0.4301 -0.4483
14927TIP3   OH266195   4.651   5.755  14.704 -0.0337 -0.3160  0.3986
14927TIP3    H166196   4.701   5.727  14.781  0.2720  0.2598  0.4139
14927TIP3    H266197   4.561   5.766  14.737  0.3924  1.4537  1.0632
14928TIP3   OH266198   2.063   4.211   3.265  0.3868 -0.4453 -0.2889
14928TIP3    H166199   2.057   4.116   3.271  0.6223 -0.5102 -0.9972
14928TIP3    H266200   2.002   4.243   3.331 -1.0942 -1.0876 -1.3103
14929TIP3   OH266201   5.126   2.515  14.169  0.2591  0.0927 -0.0030
14929TIP3    H166202   5.202   2.471  14.132 -0.0675 -0.1934 -0.3414
14929TIP3    H266203   5.096   2.573  14.099  0.2701  0.3376  0.1923
14930TIP3   OH266204   0.883   5.324   3.554 -0.0573 -0.5664 -0.7128
14930TIP3    H166205   0.967   5.279   3.557 -0.3754 -1.1368  1.9443
14930TIP3    H266206   0.818   5.253   3.552 -0.5165 -0.1462 -1.1293
14931TIP3   OH266207   4.091   2.967   2.291 -0.0695 -0.3940  0.1390
14931TIP3    H166208   4.090   2.879   2.329  0.1665 -0.3651  0.2129
14931TIP3    H266209   4.157   3.014   2.342 -2.7489  0.9502  2.6557
14932TIP3   OH266210   1.219   6.694   3.065 -0.6143  0.1612 -0.0341
14932TIP3    H166211   1.203   6.674   2.972  1.4310  1.1047 -0.6537
14932TIP3    H266212   1.136   6.731   3.095 -0.7313  1.8138 -2.1066
14933TIP3   OH266213   5.461   4.817  12.668 -0.3348  0.3471  0.1732
14933TIP3    H166214   5.409   4.828  12.589  0.2857  1.2100 -0.1411
14933TIP3    H266215   5.520   4.893  12.668 -1.9273  1.7454  2.7148
14934TIP3   OH266216   2.815   2.831   3.339 -0.2614  0.3637 -0.1555
14934TIP3    H166217   2.731   2.851   3.382 -0.5567  2.1202 -1.4312
14934TIP3    H266218   2.880   2.879   3.390  0.0098 -0.9582  0.8031
14935TIP3   OH266219   2.612   5.410   4.908  0.0307 -0.3127 -0.0221
14935TIP3    H166220   2.519   5.419   4.885 -0.7844  0.8485  3.1351
14935TIP3    H266221   2.650   5.496   4.888 -0.1772  0.0006  0.8857
14936TIP3   OH266222   5.867   0.638   2.987 -0.4253 -0.3429  0.0476
14936TIP3    H166223   5.959   0.648   3.010 -0.1968  0.1968 -1.0071
14936TIP3    H266224   5.822   0.701   3.043 -0.4474 -2.0537  2.0780
14937TIP3   OH266225   6.131   2.927  13.066  0.4791 -0.3684  0.0452
14937TIP3    H166226   6.169   2.931  13.153  2.6864 -3.2217 -0.6255
14937TIP3    H266227   6.154   3.010  13.025  0.6671  0.4132  1.6809
14938TIP3   OH266228   2.059   4.531  15.369  0.4384  0.1379  0.1895
14938TIP3    H166229   1.990   4.559  15.309  1.1461 -0.6384 -1.0170
14938TIP3    H266230   2.139   4.530  15.316  1.7386  2.5341  1.9173
14939TIP3   OH266231   4.454   0.459  17.139  0.3359  1.0814 -0.6137
14939TIP3    H166232   4.406   0.376  17.148 -1.0483  1.6939 -1.9918
14939TIP3    H266233   4.486   0.477  17.228 -1.1465  0.1436  0.1587
14940TIP3   OH266234   4.994   3.856   0.304 -0.7829 -0.3083  0.2876
14940TIP3    H166235   5.080   3.814   0.302 -1.4044 -1.7445  1.6288
14940TIP3    H266236   5.008   3.939   0.349 -0.2037 -0.8190  1.0584
14941TIP3   OH266237   0.488   5.313  16.383 -0.0862  0.1080  0.3058
14941TIP3    H166238   0.454   5.380  16.443 -1.3678 -1.0847  0.9685
14941TIP3    H266239   0.579   5.300  16.412 -0.6422 -0.3526  1.9592
14942TIP3   OH266240   0.983   2.838  11.486  0.8612 -0.5290  0.1566
14942TIP3    H166241   1.005   2.929  11.508 -2.1214  0.1080  0.9178
14942TIP3    H266242   1.022   2.786  11.556  0.0030  0.5022  1.4342
14943TIP3   OH266243   0.145   4.258  12.240 -0.2595 -0.8034  0.2775
14943TIP3    H166244   0.061   4.220  12.268  1.1228 -2.3417  2.6550
14943TIP3    H266245   0.207   4.186  12.247  1.3837  0.4016 -1.0881
14944TIP3   OH266246   5.345   1.864   2.441  0.1127  0.0706 -0.4923
14944TIP3    H166247   5.281   1.928   2.410  0.3008 -0.7577 -2.7455
14944TIP3    H266248   5.302   1.779   2.432  0.7953 -0.3453 -0.0299
14945TIP3   OH266249   5.229   4.493  10.816  0.2358 -0.4351  0.5170
14945TIP3    H166250   5.261   4.583  10.814 -2.3359  0.5696  0.4230
14945TIP3    H266251   5.306   4.439  10.799  1.6642  1.7769 -0.4153
14946TIP3   OH266252   1.272   1.384  17.045  0.4848  0.1581 -0.3692
14946TIP3    H166253   1.284   1.479  17.038  0.4031  0.2548  0.6633
14946TIP3    H266254   1.361   1.349  17.043  0.5406  0.2938 -0.3005
14947TIP3   OH266255   4.729   3.506  15.457  0.0109 -0.1528 -0.2401
14947TIP3    H166256   4.664   3.509  15.527  0.5131 -0.1293  0.2232
14947TIP3    H266257   4.732   3.595  15.422 -0.1609 -0.1404 -0.2236
14948TIP3   OH266258   5.986   2.514   0.881 -0.2733 -0.4331  0.2062
14948TIP3    H166259   5.983   2.489   0.789  2.0313 -2.0423  0.4883
14948TIP3    H266260   5.963   2.434   0.929 -1.1592  0.3068  1.0572
14949TIP3   OH266261   5.667   3.162   1.620  0.8634  0.0162  0.2057
14949TIP3    H166262   5.653   3.086   1.563  1.7039 -0.4141  0.5609
14949TIP3    H266263   5.620   3.233   1.576 -0.1005 -0.7385 -0.0383
14950TIP3   OH266264   4.344   4.304   4.660 -0.4290 -0.0327 -0.2989
14950TIP3    H166265   4.288   4.378   4.679 -1.3988 -0.4979 -1.2319
14950TIP3    H266266   4.284   4.229   4.655  0.7400 -1.3889  2.9419
14951TIP3   OH266267   1.627   0.663   0.557 -0.1980  0.2352 -0.4828
14951TIP3    H166268   1.713   0.704   0.555 -0.2948  0.4327 -0.5819
14951TIP3    H266269   1.600   0.668   0.649  0.7337 -1.5750 -0.0504
14952TIP3   OH266270   4.575   3.840  16.112  0.7687 -0.0276 -0.1858
14952TIP3    H166271   4.560   3.918  16.058 -1.5083 -0.1573  0.1920
14952TIP3    H266272   4.576   3.873  16.202 -0.2927 -0.4267 -0.0176
14953TIP3   OH266273   2.249   0.470   5.068  0.5882 -0.4560  0.0271
14953TIP3    H166274   2.159   0.478   5.101  0.2755 -0.8223 -0.7192
14953TIP3    H266275   2.290   0.407   5.127  0.5563  0.2013  0.7670
14954TIP3   OH266276   3.712   0.261  11.454 -0.5236 -0.0251  0.4185
14954TIP3    H166277   3.781   0.198  11.477 -0.8764  0.0696  1.7868
14954TIP3    H266278   3.746   0.346  11.482 -1.3787 -0.0415  1.5654
14955TIP3   OH266279   3.839   0.568  14.088 -0.2553 -0.1900  0.0952
14955TIP3    H166280   3.847   0.657  14.124  0.5633 -0.9177  1.8085
14955TIP3    H266281   3.917   0.556  14.035  0.7787 -0.6233  1.6435
14956TIP3   OH266282   1.720   2.970   2.016 -0.3616  0.2527  0.1002
14956TIP3    H166283   1.652   3.030   2.045 -0.6325 -0.4089  0.8976
14956TIP3    H266284   1.726   2.983   1.921  0.2957  2.2313  0.3715
14957TIP3   OH266285   0.787   4.770   1.768  0.2397  0.1489  0.3382
14957TIP3    H166286   0.846   4.818   1.710 -2.1495  0.9460 -1.6508
14957TIP3    H266287   0.746   4.705   1.711 -1.0725 -0.1003  1.5155
14958TIP3   OH266288   4.910   6.728   1.123  0.2448  0.1457 -0.4929
14958TIP3    H166289   4.929   6.786   1.197 -0.0103  2.3200 -2.0333
14958TIP3    H266290   4.818   6.745   1.103  0.7972  1.0861 -2.4783
14959TIP3   OH266291   0.800   1.400  16.021 -0.2850 -0.3206  0.2570
14959TIP3    H166292   0.720   1.371  15.976 -0.5286 -0.2395  0.6362
14959TIP3    H266293   0.795   1.496  16.018 -3.2845  0.0327  5.4595
14960TIP3   OH266294   2.224   0.823   2.079  0.3115  0.3000  0.1052
14960TIP3    H166295   2.236   0.762   2.151 -0.3027  2.6697  2.3517
14960TIP3    H266296   2.305   0.875   2.079  0.1039  0.6315 -0.6052
14961TIP3   OH266297   5.048   6.024  16.658  0.0229  0.4677 -0.0496
14961TIP3    H166298   4.981   6.064  16.602 -0.4132  0.8624  0.7373
14961TIP3    H266299   5.131   6.054  16.622 -0.2624  0.9640 -0.2971
14962TIP3   OH266300   0.998   6.510  16.266  0.2499 -0.5556 -0.2874
14962TIP3    H166301   0.930   6.467  16.214  0.5586 -1.3672 -0.0359
14962TIP3    H266302   1.043   6.438  16.311  0.7226  0.0413  0.2116
14963TIP3   OH266303   0.509   5.317   0.444 -0.4670  0.7691  0.3851
14963TIP3    H166304   0.494   5.235   0.491 -1.1554  0.8542  0.3185
14963TIP3    H266305   0.557   5.292   0.365 -0.4516  0.4675  0.4901
14964TIP3   OH266306   4.142   6.405  13.835  0.0014  0.0177 -0.1147
14964TIP3    H166307   4.126   6.318  13.872 -2.6068  0.2609 -0.5002
14964TIP3    H266308   4.092   6.406  13.754  0.6863  1.5949 -0.5559
14965TIP3   OH266309   5.347   2.072  14.265 -0.1238  0.1653 -0.0148
14965TIP3    H166310   5.346   2.070  14.169  0.3729  0.1851 -0.0249
14965TIP3    H266311   5.270   2.123  14.289  0.2604  0.9754 -0.4399
14966TIP3   OH266312   2.345   3.484  12.161  0.0022 -0.0657  0.0597
14966TIP3    H166313   2.258   3.461  12.196 -0.9189  0.5658 -1.6701
14966TIP3    H266314   2.369   3.564  12.207  0.3085 -0.9554  1.5090
14967TIP3   OH266315   6.776   5.515  12.036  0.4467  0.1101 -0.2185
14967TIP3    H166316   6.764   5.535  12.129 -0.8309  0.0475 -0.3544
14967TIP3    H266317   6.772   5.601  11.993  4.1051  0.5444  0.0080
14968TIP3   OH266318   0.179   1.897  10.975  0.1242  0.5633 -0.0182
14968TIP3    H166319   0.272   1.879  10.961  0.2880  1.0655  0.3905
14968TIP3    H266320   0.134   1.817  10.948  0.7575 -0.0885  0.8401
14969TIP3   OH266321   2.304   6.750   6.564  0.5727  0.2230 -0.1703
14969TIP3    H166322   2.388   6.771   6.524  0.2107  1.5512 -0.2938
14969TIP3    H266323   2.302   6.655   6.569  2.4015  0.1943  0.5444
14970TIP3   OH266324   5.158   1.499  14.587  0.1715 -0.0781 -0.1880
14970TIP3    H166325   5.193   1.502  14.676  1.5762 -0.7542 -0.6841
14970TIP3    H266326   5.063   1.493  14.599  0.4315 -2.2608  1.3212
14971TIP3   OH266327   4.847   5.929   5.204 -0.3067 -0.0808  0.6317
14971TIP3    H166328   4.861   5.977   5.122  0.6109 -0.1219  0.7558
14971TIP3    H266329   4.765   5.882   5.190 -0.9128  1.0412  0.2784
14972TIP3   OH266330   0.980   5.052   3.322  0.7787 -0.1726 -0.0608
14972TIP3    H166331   1.032   5.115   3.272 -0.5225  0.3335 -0.8602
14972TIP3    H266332   0.994   4.969   3.278  0.9266 -0.0424 -0.2618
14973TIP3   OH266333   0.310   6.408   5.480  0.2679 -0.0812  1.1074
14973TIP3    H166334   0.261   6.373   5.553  1.5479 -2.0020  1.1085
14973TIP3    H266335   0.348   6.489   5.513 -2.0386  0.9626  1.3874
14974TIP3   OH266336   1.680   0.297  11.799 -0.2511  0.0704  0.9791
14974TIP3    H166337   1.711   0.215  11.837 -0.3098 -0.3772  0.0831
14974TIP3    H266338   1.611   0.271  11.737 -1.0987  0.8891  1.5409
14975TIP3   OH266339   1.029   6.156  15.749  0.2702  0.2329  0.3396
14975TIP3    H166340   1.024   6.247  15.718  0.3324  0.5345  1.1959
14975TIP3    H266341   1.110   6.122  15.711  0.9184  0.9438  1.0560
14976TIP3   OH266342   4.763   4.053  12.247 -0.4775 -0.3136 -0.5857
14976TIP3    H166343   4.726   4.068  12.334 -1.2164 -1.1431 -0.7548
14976TIP3    H266344   4.857   4.067  12.259 -0.7522  1.2570 -0.0379
14977TIP3   OH266345   4.903   1.777   3.897  0.4417  0.0381  0.0979
14977TIP3    H166346   4.820   1.813   3.928  1.2548  1.6842  0.4577
14977TIP3    H266347   4.904   1.796   3.803 -0.3150 -1.5318 -0.2675
14978TIP3   OH266348   1.643   3.361  15.717  0.0540  0.1140 -0.3856
14978TIP3    H166349   1.611   3.292  15.775 -0.4904  0.7536  0.0983
14978TIP3    H266350   1.568   3.383  15.662  0.3681 -0.0118 -0.8668
14979TIP3   OH266351   4.539   5.835  15.638 -0.6442  0.2486  0.3672
14979TIP3    H166352   4.505   5.746  15.627 -0.6322  0.2692  0.1632
14979TIP3    H266353   4.563   5.863  15.550 -3.4088  1.5855 -0.0650
14980TIP3   OH266354   6.526   3.482  14.729  0.1418 -0.5865  0.2250
14980TIP3    H166355   6.443   3.483  14.777  0.2221  0.7404  0.3760
14980TIP3    H266356   6.516   3.411  14.666 -0.1179 -2.1141  1.9144
14981TIP3   OH266357   4.427   4.543  14.593  0.0167  0.1142 -0.1107
14981TIP3    H166358   4.437   4.615  14.531 -0.0373 -0.3583 -0.6809
14981TIP3    H266359   4.419   4.585  14.678  2.8270  0.7045 -0.0523
14982TIP3   OH266360   4.993   6.352   1.418 -0.1098 -0.5708 -0.2503
14982TIP3    H166361   5.055   6.379   1.486 -0.8156  0.8618 -0.1266
14982TIP3    H266362   5.040   6.286   1.368  1.3821  0.1968  0.0683
14983TIP3   OH266363   2.629   3.034   1.621 -0.0839  0.2796  0.3014
14983TIP3    H166364   2.548   3.063   1.579  0.6450  0.5156 -0.9869
14983TIP3    H266365   2.604   2.957   1.671 -0.9554 -0.1327 -0.7393
14984TIP3   OH266366   0.505   5.114  14.987  0.1640  0.5021  0.3144
14984TIP3    H166367   0.489   5.104  14.894  0.2059  1.8095  0.1422
14984TIP3    H266368   0.519   5.025  15.019  0.1629  0.0394 -0.9192
14985TIP3   OH266369   6.693   0.187   3.025 -0.6219  0.3044  0.1785
14985TIP3    H166370   6.776   0.150   3.056 -1.9306 -2.7256  0.3576
14985TIP3    H266371   6.694   0.277   3.057  2.3843  0.2356  0.5304
14986TIP3   OH266372   2.630   2.680   4.323  0.1052 -0.7934  0.6815
14986TIP3    H166373   2.541   2.686   4.289  0.4161  0.5892  0.0593
14986TIP3    H266374   2.631   2.739   4.399  1.2855  1.8476 -1.2125
14987TIP3   OH266375   4.885   5.320  13.621 -0.1148  0.1204  0.5552
14987TIP3    H166376   4.901   5.383  13.551  0.7668  0.8074  1.3447
14987TIP3    H266377   4.944   5.247  13.601 -1.5393 -0.7370 -0.6650
14988TIP3   OH266378   6.412   6.646  13.477 -0.0663 -0.2524 -0.4759
14988TIP3    H166379   6.463   6.684  13.405  1.1903 -1.4513 -0.2636
14988TIP3    H266380   6.476   6.595  13.527 -1.2230 -0.6815  0.6157
14989TIP3   OH266381   2.066   2.557   0.012 -0.5187  0.3519 -0.2085
14989TIP3    H166382   2.046   2.649   0.030  1.9032  1.2910 -1.8582
14989TIP3    H266383   2.122   2.530   0.085  1.4367  1.2521 -1.2963
14990TIP3   OH266384   2.972   5.222   2.463 -0.2062  0.3987 -0.0812
14990TIP3    H166385   3.019   5.268   2.394  2.2396 -0.2158  1.0551
14990TIP3    H266386   2.973   5.130   2.435 -0.3335  0.3247  0.1567
14991TIP3   OH266387   2.794   3.835  11.023 -0.0818  0.3114  0.1783
14991TIP3    H166388   2.806   3.906  11.086 -2.5136 -0.4120  1.5459
14991TIP3    H266389   2.864   3.849  10.959  1.6841  1.8546  2.2783
14992TIP3   OH266390   2.214   3.358  11.544 -0.1009  0.3392 -0.3822
14992TIP3    H166391   2.277   3.316  11.485 -0.2804  0.0369 -0.3567
14992TIP3    H266392   2.136   3.373  11.491 -0.6560 -0.9073  0.0474
14993TIP3   OH266393   3.596   4.123  11.006 -0.0154 -0.1304  0.3586
14993TIP3    H166394   3.519   4.140  10.951  0.9561  0.4156 -0.9011
14993TIP3    H266395   3.602   4.028  11.010 -0.4408 -0.1774 -0.0125
14994TIP3   OH266396   0.613   1.698  11.312  0.1990 -0.2404  0.0322
14994TIP3    H166397   0.559   1.747  11.250 -2.3601 -2.2387  0.5201
14994TIP3    H266398   0.551   1.665  11.376  2.3345 -1.0337  1.7938
14995TIP3   OH266399   2.618   6.125   3.039  0.7681 -0.1119 -0.5249
14995TIP3    H166400   2.637   6.073   3.117  0.7612  0.3526 -0.2087
14995TIP3    H266401   2.522   6.130   3.036  0.7714  1.9577  0.8659
14996TIP3   OH266402   3.695   2.612  10.801  0.1189  0.6024  0.5618
14996TIP3    H166403   3.681   2.610  10.706 -0.7891  0.4858  0.6906
14996TIP3    H266404   3.763   2.678  10.814 -0.5290  1.4223 -0.0908
14997TIP3   OH266405   5.866   0.874   1.430 -0.0415 -0.2668 -0.4357
14997TIP3    H166406   5.796   0.937   1.445 -0.4105 -0.4327 -1.3774
14997TIP3    H266407   5.932   0.894   1.496 -0.2709  0.9330 -0.5605
14998TIP3   OH266408   6.403   1.994  16.142  0.1471 -0.3212 -0.2753
14998TIP3    H166409   6.471   1.947  16.094  0.5137 -0.3427  0.2596
14998TIP3    H266410   6.332   1.930  16.151  0.4031 -0.5800 -0.0739
14999TIP3   OH266411   1.018   4.469   0.962 -0.1672  0.7275 -0.4305
14999TIP3    H166412   1.079   4.542   0.961 -0.6272  1.1340  0.5165
14999TIP3    H266413   0.933   4.508   0.981 -0.2072 -0.1803  1.4734
15000TIP3   OH266414   4.618   1.200  13.136  0.1081 -0.5883 -0.5765
15000TIP3    H166415   4.625   1.106  13.151 -2.9108 -0.8193 -0.0710
15000TIP3    H266416   4.704   1.234  13.161  0.9669 -3.0742  0.1654
15001TIP3   OH266417   4.368   2.135   1.960  0.2395  0.2991 -0.1777
15001TIP3    H166418   4.406   2.088   2.034  2.5948  1.4870 -0.5395
15001TIP3    H266419   4.424   2.112   1.886 -1.1024  0.3950 -1.2465
15002TIP3   OH266420   1.349   4.561   5.766  0.2734  0.2088 -0.4547
15002TIP3    H166421   1.425   4.609   5.733  1.4623 -0.0540  1.7604
15002TIP3    H266422   1.287   4.629   5.793 -0.2065  0.4213 -1.9585
15003TIP3   OH266423   6.785   2.395  11.903  0.4069  0.4869 -0.4323
15003TIP3    H166424   6.811   2.400  11.995  2.4926 -2.2512 -0.7469
15003TIP3    H266425   6.865   2.414  11.854 -0.0931 -0.3190 -1.6215
15004TIP3   OH266426   1.040   2.488  16.011 -0.2305  0.0485  0.3983
15004TIP3    H166427   1.108   2.437  15.967  1.0466 -1.3239  3.6887
15004TIP3    H266428   1.018   2.557  15.948  3.0496 -0.3896 -1.4530
15005TIP3   OH266429   4.133   2.556   3.256 -0.0745  0.1080  0.4536
15005TIP3    H166430   4.061   2.493   3.267  0.1824 -0.0649  1.2165
15005TIP3    H266431   4.133   2.607   3.337  1.2401 -0.5031  0.8668
15006TIP3   OH266432   4.070   1.495   0.019 -0.0328 -0.0307  0.6389
15006TIP3    H166433   4.075   1.408  -0.021 -1.2115  0.8618 -1.6281
15006TIP3    H266434   3.997   1.488   0.081  0.2566 -0.8093  0.9025
15007TIP3   OH266435   0.869   0.017   6.491 -0.1084 -0.4353 -0.7102
15007TIP3    H166436   0.805   0.088   6.498  0.4891 -0.0674  2.5230
15007TIP3    H266437   0.823  -0.060   6.525  0.5965 -0.5797 -0.0638
15008TIP3   OH266438   1.382   2.367  13.130 -0.2319 -0.8320 -0.5386
15008TIP3    H166439   1.336   2.289  13.098  1.8214 -1.9537 -0.9542
15008TIP3    H266440   1.470   2.360  13.091  0.3683  1.0909  0.3674
15009TIP3   OH266441   2.422   3.450   3.713  0.5113  0.6263  0.3204
15009TIP3    H166442   2.460   3.473   3.628 -1.4967  0.0142 -0.8012
15009TIP3    H266443   2.470   3.372   3.740  0.9325  0.6155 -0.4150
15010TIP3   OH266444   5.283   4.103   5.806 -0.7950  0.4285  0.3487
15010TIP3    H166445   5.307   4.176   5.749  1.0640  0.5700  1.2450
15010TIP3    H266446   5.187   4.098   5.799 -0.7886  1.6629 -1.2509
15011TIP3   OH266447   0.827   4.297   3.908  0.0455 -0.0998 -0.1491
15011TIP3    H166448   0.866   4.250   3.982  1.3089 -0.3674 -0.9672
15011TIP3    H266449   0.845   4.241   3.832 -0.4011  0.6293 -0.8053
15012TIP3   OH266450   2.083   2.714   2.588  0.2095 -0.0475 -0.6618
15012TIP3    H166451   2.168   2.729   2.548  1.3275 -0.8569  1.2755
15012TIP3    H266452   2.040   2.800   2.585  1.9861  0.9381  0.2586
15013TIP3   OH266453   5.631   1.253  11.963  0.2217  1.0922  0.5292
15013TIP3    H166454   5.579   1.300  11.898  0.3980 -2.2616 -2.3260
15013TIP3    H266455   5.573   1.246  12.039 -2.4471  0.0912 -1.4334
15014TIP3   OH266456   2.248   6.766   4.802 -0.1084 -0.1573  0.1507
15014TIP3    H166457   2.336   6.740   4.830 -0.4397 -0.3667  1.0588
15014TIP3    H266458   2.202   6.683   4.792 -0.0061 -0.0791 -1.0345
15015TIP3   OH266459   4.684   2.169   2.037  0.4282  0.1347 -0.3215
15015TIP3    H166460   4.618   2.235   2.058  0.9052  0.4990  0.0846
15015TIP3    H266461   4.751   2.181   2.105  0.8872 -0.2503 -0.7024
15016TIP3   OH266462   0.474   3.585  12.537 -0.3076  0.4358  0.2451
15016TIP3    H166463   0.437   3.537  12.462 -1.3536 -0.1499  1.0985
15016TIP3    H266464   0.544   3.637  12.500 -0.0590 -0.6999 -0.9660
15017TIP3   OH266465   3.617   5.269   0.559 -0.6273  0.3907 -0.6292
15017TIP3    H166466   3.676   5.209   0.605  0.5098  1.1352 -1.0738
15017TIP3    H266467   3.546   5.213   0.527  0.0961 -0.6198 -0.5186
15018TIP3   OH266468   3.376   6.026  11.171 -0.0821 -0.4375 -0.1057
15018TIP3    H166469   3.463   6.031  11.133 -0.3621 -0.4357 -0.7695
15018TIP3    H266470   3.345   5.939  11.148 -0.0898 -0.5943  0.4986
15019TIP3   OH266471   2.964   5.621   4.259  0.5984 -0.1660 -0.4395
15019TIP3    H166472   3.046   5.671   4.265 -0.7155  1.8883  1.8183
15019TIP3    H266473   2.899   5.684   4.228 -0.5608 -1.2482 -0.2998
15020TIP3   OH266474   4.812   1.223  16.888 -0.0336 -0.5451  0.5415
15020TIP3    H166475   4.872   1.204  16.960 -0.5658 -1.8496  0.6627
15020TIP3    H266476   4.850   1.178  16.812 -0.7748 -1.2860  0.5930
15021TIP3   OH266477   0.904   5.030  11.738 -0.6504  0.0538 -0.3132
15021TIP3    H166478   0.865   5.112  11.708 -0.6894  0.9010  1.8790
15021TIP3    H266479   0.950   5.053  11.818  0.5081 -1.8286 -0.3766
15022TIP3   OH266480   0.415   4.793   2.749  1.3455 -0.4734  0.2609
15022TIP3    H166481   0.487   4.783   2.687  0.0356 -1.1553 -1.2264
15022TIP3    H266482   0.403   4.887   2.757  0.5307 -0.3644 -1.7957
15023TIP3   OH266483   4.481   4.457   4.024  0.2741 -0.7358  0.1217
15023TIP3    H166484   4.531   4.396   3.969  1.4900 -1.4956  1.9871
15023TIP3    H266485   4.531   4.538   4.022 -0.8577 -0.0169 -1.6095
15024TIP3   OH266486   5.811   5.982   2.240  0.2835  0.3834 -0.6635
15024TIP3    H166487   5.885   5.959   2.185  0.9472  3.0652 -1.0012
15024TIP3    H266488   5.742   6.008   2.178 -0.0311  0.4836 -0.2775
15025TIP3   OH266489   1.486   5.707   0.045  0.3395  0.2587  0.4035
15025TIP3    H166490   1.403   5.693   0.000 -0.5298  1.8574  1.4432
15025TIP3    H266491   1.546   5.735  -0.025 -0.4481  0.7286 -0.1031
15026TIP3   OH266492   6.636   2.333  12.209  0.7863  0.4426 -0.1824
15026TIP3    H166493   6.555   2.378  12.232  0.6379 -0.0399  0.2544
15026TIP3    H266494   6.701   2.403  12.199  0.2372  0.8627 -0.9028
15027TIP3   OH266495   4.430   2.441   5.930 -0.0972  0.2291  0.4633
15027TIP3    H166496   4.452   2.524   5.973 -0.0263 -0.5640  2.0202
15027TIP3    H266497   4.361   2.464   5.867  0.4144  1.5721  0.3517
15028TIP3   OH266498   1.338   6.179  15.838 -0.1602 -0.2864 -0.7305
15028TIP3    H166499   1.288   6.164  15.919  0.2178 -0.1377 -0.4635
15028TIP3    H266500   1.336   6.275  15.828  0.2517 -0.2632 -0.5985
15029TIP3   OH266501   4.538   2.448  14.402  0.3196 -0.4419 -0.1258
15029TIP3    H166502   4.508   2.496  14.324  1.9025 -0.6207 -0.8936
15029TIP3    H266503   4.492   2.364  14.397 -2.0361  0.6949  0.9191
15030TIP3   OH266504   5.803   5.252   0.953 -0.1061 -0.4591  0.2081
15030TIP3    H166505   5.815   5.215   1.040 -0.4132  0.7806  0.8007
15030TIP3    H266506   5.810   5.347   0.966  1.1740 -0.3100 -1.3329
15031TIP3   OH266507   3.081   2.339   1.704 -0.4886 -0.0956  0.2790
15031TIP3    H166508   3.022   2.286   1.757 -1.3028  1.1780  0.6961
15031TIP3    H266509   3.050   2.328   1.614 -0.2804 -0.7862  0.2928
15032TIP3   OH266510   6.231   3.564  12.626  0.3161  0.5613 -0.6835
15032TIP3    H166511   6.309   3.594  12.673  0.8405 -0.4742 -0.8659
15032TIP3    H266512   6.238   3.605  12.539 -0.4727  2.1906 -0.0272
15033TIP3   OH266513   0.319   5.654   1.881  0.1661 -0.0943  0.0506
15033TIP3    H166514   0.324   5.560   1.870  0.2230 -0.0096 -0.7028
15033TIP3    H266515   0.401   5.678   1.924 -0.1450 -0.4633  0.8740
15034TIP3   OH266516   6.185   0.886  10.794 -0.9504 -0.1009  0.1145
15034TIP3    H166517   6.195   0.920  10.882 -0.0008 -0.4048  0.1413
15034TIP3    H266518   6.265   0.913  10.748 -2.1086  1.3972 -1.1283
15035TIP3   OH266519   3.495   4.363   5.321  0.4152  0.6004 -0.5556
15035TIP3    H166520   3.499   4.277   5.279  1.0542 -0.5136  1.6226
15035TIP3    H266521   3.539   4.350   5.406  1.0819  3.2366 -0.4178
15036TIP3   OH266522   0.173   4.284   6.370  0.2254 -0.1273 -0.2495
15036TIP3    H166523   0.182   4.378   6.387  0.4704  0.1709 -1.8532
15036TIP3    H266524   0.085   4.274   6.335  0.5697 -0.3126 -1.0936
15037TIP3   OH266525   5.565   0.062   0.380 -0.1622 -0.1868  0.0297
15037TIP3    H166526   5.654   0.087   0.404 -0.7689  0.2062  2.1606
15037TIP3    H266527   5.520   0.146   0.367 -0.6483 -0.3140  0.8251
15038TIP3   OH266528   3.294   1.211  17.102 -0.1501 -0.4549  0.4261
15038TIP3    H166529   3.371   1.169  17.141 -0.0976 -1.5615 -0.7895
15038TIP3    H266530   3.328   1.259  17.027 -0.3877  0.7834  1.0901
15039TIP3   OH266531   6.471   1.252  15.734 -0.3522  0.1016  0.2678
15039TIP3    H166532   6.402   1.301  15.689  0.2045  0.0630 -0.6645
15039TIP3    H266533   6.539   1.317  15.752  0.3319 -0.2538 -0.8571
15040TIP3   OH266534   2.382   4.334  13.841 -0.2529  0.3261  0.1458
15040TIP3    H166535   2.307   4.286  13.807  0.3949 -1.4094  1.0418
15040TIP3    H266536   2.405   4.396  13.772 -2.0917  0.4426 -0.3945
15041TIP3   OH266537   6.346   4.810  13.137  0.1622  0.5292 -0.1138
15041TIP3    H166538   6.395   4.728  13.143 -0.9134 -0.0989  0.3158
15041TIP3    H266539   6.394   4.871  13.192 -0.9977 -0.8363  2.5769
15042TIP3   OH266540   1.889   5.280  13.225  0.1057  0.4794  0.0389
15042TIP3    H166541   1.949   5.225  13.176  2.2190 -0.2089  3.0965
15042TIP3    H266542   1.814   5.223  13.245  2.2330 -1.5042  3.1147
15043TIP3   OH266543   0.275   2.850  14.217 -0.2045  0.0111 -0.2241
15043TIP3    H166544   0.259   2.779  14.279 -0.2177  0.3056  0.1084
15043TIP3    H266545   0.222   2.827  14.140 -1.5684  0.5430  0.5340
15044TIP3   OH266546   4.745   0.278   5.104 -0.2892 -0.3134  0.1800
15044TIP3    H166547   4.773   0.189   5.125  0.8126  0.5036  2.5112
15044TIP3    H266548   4.827   0.326   5.091 -0.8333  0.5665 -0.1045
15045TIP3   OH266549   3.355   4.955   4.386  0.3216 -0.3986  0.4031
15045TIP3    H166550   3.445   4.946   4.353 -0.2451 -0.7225 -1.1355
15045TIP3    H266551   3.301   4.957   4.307 -1.2773 -2.9470  1.2953
15046TIP3   OH266552   2.555   6.362  14.352 -0.1638  0.1405  0.0784
15046TIP3    H166553   2.486   6.383  14.289  0.7485  1.9431 -0.4066
15046TIP3    H266554   2.566   6.267  14.345 -0.2308  0.2376 -2.3753
15047TIP3   OH266555   1.881   1.425  13.361  0.7709  0.6120 -0.4016
15047TIP3    H166556   1.845   1.368  13.429  1.4952  2.8991  2.0552
15047TIP3    H266557   1.962   1.383  13.334  0.4437 -0.3641  0.0985
15048TIP3   OH266558   1.033   6.462   3.363 -0.4099  0.2267  0.5979
15048TIP3    H166559   1.031   6.386   3.421  2.1980  1.3819  2.3800
15048TIP3    H266560   1.124   6.469   3.335 -0.6776  2.3923  0.0537
15049TIP3   OH266561   0.115   4.371   5.020  0.0951 -0.1422  0.5199
15049TIP3    H166562   0.209   4.356   5.020 -0.1368 -1.7508  1.1591
15049TIP3    H266563   0.082   4.324   5.097 -1.2641  0.1418  0.1506
15050TIP3   OH266564   6.375   0.982  15.379 -0.4022 -0.7263 -0.6587
15050TIP3    H166565   6.413   0.953  15.462 -2.5309 -0.6723  0.4003
15050TIP3    H266566   6.364   0.902  15.328 -0.6574 -0.9967 -0.1847
15051TIP3   OH266567   4.211   2.874   4.602 -0.1247 -0.0091 -0.1936
15051TIP3    H166568   4.143   2.851   4.665 -0.7495  2.8697  0.3151
15051TIP3    H266569   4.279   2.916   4.655  0.8999 -0.5285 -1.0486
15052TIP3   OH266570   3.571   5.303  16.572  0.1241 -0.1422  0.2178
15052TIP3    H166571   3.536   5.282  16.659 -0.2936 -0.5090 -0.0355
15052TIP3    H266572   3.645   5.361  16.590 -0.7404  0.8397  0.7643
15053TIP3   OH266573   0.569   2.934   3.430 -0.3613 -0.0581 -0.0974
15053TIP3    H166574   0.574   2.911   3.338  0.9026 -2.1639  0.4515
15053TIP3    H266575   0.658   2.956   3.455 -0.2899 -1.5305  1.0776
15054TIP3   OH266576   4.699   5.324   6.128  0.0129  0.6987 -0.9281
15054TIP3    H166577   4.612   5.315   6.168 -0.6250  1.4079 -2.0921
15054TIP3    H266578   4.760   5.316   6.201 -1.0570  0.6920 -0.0051
15055TIP3   OH266579   1.646   3.996  16.560  0.2595 -0.1053  0.1925
15055TIP3    H166580   1.612   3.952  16.482 -1.5153  0.2319  0.7257
15055TIP3    H266581   1.652   3.927  16.626  0.7190 -0.1800  0.0755
15056TIP3   OH266582   0.403   1.511  15.170 -0.0738 -0.3001  0.4517
15056TIP3    H166583   0.327   1.463  15.202 -0.1566 -0.1229  0.5261
15056TIP3    H266584   0.419   1.476  15.082 -0.2450 -0.3357  0.4347
15057TIP3   OH266585   5.797   5.402   3.453 -0.0079 -0.0681 -0.6595
15057TIP3    H166586   5.789   5.359   3.368  0.3128  0.7491 -1.1107
15057TIP3    H266587   5.731   5.470   3.452  0.5595  0.4908 -0.5934
15058TIP3   OH266588   3.537   5.071   4.247  0.1035 -0.2082  0.2542
15058TIP3    H166589   3.611   5.090   4.305  0.7398 -0.0063 -0.6005
15058TIP3    H266590   3.476   5.144   4.260  0.1656 -0.2485  0.7844
15059TIP3   OH266591   6.064   4.297  13.441 -1.0639 -0.4212 -0.3032
15059TIP3    H166592   6.133   4.283  13.506 -1.2420  0.4044  0.0802
15059TIP3    H266593   6.078   4.229  13.376 -0.4879 -0.8676  0.2774
15060TIP3   OH266594   3.844   6.242   1.370  0.2313  0.4958  0.3422
15060TIP3    H166595   3.869   6.322   1.417  0.7584  1.4036 -1.4130
15060TIP3    H266596   3.909   6.234   1.300 -0.5064 -0.8349 -0.2200
15061TIP3   OH266597   3.674   5.184   4.462  0.0086 -0.1902 -0.6635
15061TIP3    H166598   3.588   5.201   4.501 -0.4887  0.3935 -1.9305
15061TIP3    H266599   3.724   5.141   4.531 -1.0529  0.1443  0.3525
15062TIP3   OH266600   6.727   5.176   0.749  0.5708 -0.6213  0.0635
15062TIP3    H166601   6.657   5.114   0.727 -0.7576  1.3244 -1.5578
15062TIP3    H266602   6.718   5.246   0.684  1.8311  1.4047  1.9447
15063TIP3   OH266603   1.434   0.272   2.911 -0.2131 -0.1963  0.8017
15063TIP3    H166604   1.389   0.354   2.929 -0.8700 -0.1787 -0.7686
15063TIP3    H266605   1.417   0.218   2.989 -0.9915  0.6399  1.2346
15064TIP3   OH266606   2.698   3.827  10.705 -0.6187  0.0872 -0.7917
15064TIP3    H166607   2.616   3.846  10.751 -0.2879 -1.1728  0.4159
15064TIP3    H266608   2.762   3.885  10.746 -0.2064 -1.4159  0.8513
15065TIP3   OH266609   4.503   0.145  12.454 -0.0504 -0.0657 -0.0149
15065TIP3    H166610   4.506   0.110  12.543 -2.8241  2.3487  1.1753
15065TIP3    H266611   4.434   0.094  12.411 -0.7551  0.6949  0.1932
15066TIP3   OH266612   1.363   0.993  15.338 -0.4895 -0.1429  0.3986
15066TIP3    H166613   1.353   0.900  15.355 -1.0316 -0.6246 -2.1607
15066TIP3    H266614   1.452   1.002  15.305 -1.2018 -0.2267 -1.6916
15067TIP3   OH266615   5.085   5.365  16.665 -0.3512 -0.3901 -0.4731
15067TIP3    H166616   5.019   5.295  16.663 -1.0299  0.2344 -0.2832
15067TIP3    H266617   5.064   5.415  16.744  0.2726 -0.1090 -0.4823
15068TIP3   OH266618   3.969   4.055  13.222  0.0943 -0.2082  0.2068
15068TIP3    H166619   4.018   4.111  13.282  2.3023 -1.9896  0.1930
15068TIP3    H266620   4.002   3.967  13.238 -1.6195 -1.2261 -1.3489
15069TIP3   OH266621   0.510   1.150   5.705 -0.2315  0.3123  0.5185
15069TIP3    H166622   0.533   1.155   5.612  0.7063  2.3359  0.7981
15069TIP3    H266623   0.428   1.199   5.712  0.6767  1.8078  1.0063
15070TIP3   OH266624   5.500   0.664  10.531  0.1096 -0.0223  0.2644
15070TIP3    H166625   5.489   0.758  10.544  1.2759  0.4470 -1.6343
15070TIP3    H266626   5.427   0.624  10.578 -1.2218  1.9198 -0.0357
15071TIP3   OH266627   4.301   2.248  14.098  0.0081 -0.6720 -0.5817
15071TIP3    H166628   4.333   2.326  14.144 -0.4372 -0.8907  0.1158
15071TIP3    H266629   4.379   2.193  14.088  0.3512 -0.0954 -1.1846
15072TIP3   OH266630   0.631   2.851   2.933  0.2572  0.6407 -0.1209
15072TIP3    H166631   0.541   2.832   2.959  0.3856 -0.3274 -0.3418
15072TIP3    H266632   0.651   2.936   2.972  0.0390 -0.2028  1.9169
15073TIP3   OH266633   4.231   1.101  12.216  0.6939 -0.1782 -0.1012
15073TIP3    H166634   4.273   1.032  12.268 -0.3496 -0.8615 -0.1265
15073TIP3    H266635   4.238   1.070  12.125 -0.8682 -0.9213 -0.0193
15074TIP3   OH266636   2.384   5.580   5.134 -0.0373  0.2534 -1.0180
15074TIP3    H166637   2.336   5.560   5.214 -0.6418  0.9891 -1.1835
15074TIP3    H266638   2.345   5.525   5.067 -0.7538  0.9457 -1.1799
15075TIP3   OH266639   1.746   4.316   1.865 -0.2893 -0.2087 -0.2830
15075TIP3    H166640   1.828   4.306   1.913 -0.3512 -0.9828 -0.3295
15075TIP3    H266641   1.700   4.387   1.910  0.8078  0.8719 -0.8294
15076TIP3   OH266642   0.622   0.174  15.929  0.1850 -0.0848  0.5997
15076TIP3    H166643   0.549   0.139  15.980 -1.6105  0.6796 -1.3064
15076TIP3    H266644   0.646   0.103  15.869 -0.6437  0.4674 -0.4115
15077TIP3   OH266645   2.448   0.945   2.124  0.3327 -0.1567  0.2386
15077TIP3    H166646   2.457   0.928   2.217  0.9532  1.0192  0.4125
15077TIP3    H266647   2.530   0.916   2.086 -0.3583 -1.7178 -0.1376
15078TIP3   OH266648   1.915   0.343   5.960  0.2447 -1.0765  0.1753
15078TIP3    H166649   1.875   0.256   5.957  1.7709 -1.8200  0.2035
15078TIP3    H266650   1.899   0.374   6.049  0.3412 -1.6595  0.3998
15079TIP3   OH266651   6.333   4.175   3.903  0.7257 -0.2933  0.1663
15079TIP3    H166652   6.243   4.149   3.921  0.3431 -0.9398 -2.3319
15079TIP3    H266653   6.383   4.143   3.978 -0.6324 -2.9864  0.0339
15080TIP3   OH266654   3.352   3.181   2.332  0.4183 -0.3938  0.8075
15080TIP3    H166655   3.301   3.261   2.320 -0.4786 -0.8898  1.2922
15080TIP3    H266656   3.339   3.132   2.251  0.9954 -0.0480  0.4963
15081TIP3   OH266657   2.047   4.193  15.022  0.8783 -0.7384 -0.0131
15081TIP3    H166658   2.084   4.105  15.028  0.8989 -0.7987 -0.9540
15081TIP3    H266659   2.000   4.204  15.105  0.0673 -2.0076 -0.2670
15082TIP3   OH266660   6.677   6.038   4.727  0.0315  0.1568 -0.0272
15082TIP3    H166661   6.672   6.064   4.635 -2.7870 -1.5921 -0.4834
15082TIP3    H266662   6.617   6.099   4.772 -0.8243 -0.7795  0.1293
15083TIP3   OH266663   5.337   3.301  13.448 -0.1880 -0.7702 -0.2059
15083TIP3    H166664   5.411   3.244  13.471 -1.0302 -2.3980 -1.3123
15083TIP3    H266665   5.346   3.316  13.354  0.0878  1.1120  0.0787
15084TIP3   OH266666   5.227   0.766   5.124  0.2250 -0.5585  0.1512
15084TIP3    H166667   5.282   0.692   5.096  0.9891 -0.3734  1.1321
15084TIP3    H266668   5.184   0.795   5.043  0.2693 -1.7773 -0.3322
15085TIP3   OH266669   6.427   3.750  12.065  0.3290 -0.6407  0.5266
15085TIP3    H166670   6.377   3.695  12.125  0.4553 -1.2427  0.0897
15085TIP3    H266671   6.365   3.817  12.037  0.6918  0.6167  2.5343
15086TIP3   OH266672   6.573   6.629  11.908  0.0553  0.0682 -0.3011
15086TIP3    H166673   6.640   6.562  11.892 -0.5354 -0.9793  1.3495
15086TIP3    H266674   6.565   6.633  12.003 -0.8757  1.5672 -0.4079
15087TIP3   OH266675   1.992   0.397   2.135  0.2939 -0.5299  0.4628
15087TIP3    H166676   1.913   0.404   2.187  0.5897 -0.6746  0.9429
15087TIP3    H266677   2.063   0.405   2.198  0.6720 -2.9895  0.4527
15088TIP3   OH266678   6.542   6.358   2.703  0.5821 -0.4375  0.2513
15088TIP3    H166679   6.480   6.420   2.664 -0.3236  0.4293  2.8852
15088TIP3    H266680   6.504   6.272   2.684  0.3524 -0.0846 -1.0060
15089TIP3   OH266681   3.103   0.656   3.929  0.3460  0.1111 -0.0543
15089TIP3    H166682   3.082   0.662   3.836  0.5834 -1.1817 -0.2150
15089TIP3    H266683   3.031   0.701   3.973  0.3404  0.9162 -0.8630
15090TIP3   OH266684   4.899   2.520  16.040  0.6540  0.0734  0.4539
15090TIP3    H166685   4.859   2.433  16.044  0.3083  0.1014 -1.3705
15090TIP3    H266686   4.853   2.571  16.106 -1.2909 -0.3350 -0.4880
15091TIP3   OH266687   5.392   4.120   6.135 -0.9827  0.3677  0.2666
15091TIP3    H166688   5.301   4.123   6.164 -0.3056 -0.4589  2.7925
15091TIP3    H266689   5.441   4.101   6.215  1.4121  0.7410 -1.0296
15092TIP3   OH266690   1.234   6.172  14.398  0.1998  0.2198 -0.2222
15092TIP3    H166691   1.168   6.113  14.432  0.8109 -0.1227  0.3904
15092TIP3    H266692   1.310   6.159  14.455 -0.2169  2.8854  1.0780
15093TIP3   OH266693   2.995   4.549  14.995  0.5616 -0.2691  0.1469
15093TIP3    H166694   3.045   4.626  14.968 -0.0344 -0.3626 -1.3544
15093TIP3    H266695   3.025   4.530  15.084  0.3259  2.0271  0.7744
15094TIP3   OH266696   6.051   3.939  12.127 -0.2593 -0.3581 -0.3086
15094TIP3    H166697   6.005   4.014  12.088  0.3065 -0.7413 -1.7767
15094TIP3    H266698   6.137   3.940  12.086  0.2352 -1.0372  0.6727
15095TIP3   OH266699   4.182   1.897   0.782 -0.6856 -1.0170 -0.0911
15095TIP3    H166700   4.185   1.877   0.688  0.3180  0.0845 -0.3278
15095TIP3    H266701   4.136   1.981   0.787  0.1770 -0.5503  0.2769
15096TIP3   OH266702   4.278   6.208   4.024  0.5144  0.1674 -0.5838
15096TIP3    H166703   4.216   6.138   4.043 -0.3746  0.9221 -0.6730
15096TIP3    H266704   4.348   6.196   4.090 -0.9175  0.7791  1.1254
15097TIP3   OH266705   2.580   2.890  12.073 -0.4546  0.4867 -0.2708
15097TIP3    H166706   2.665   2.914  12.037  0.2462  0.9606  1.5962
15097TIP3    H266707   2.536   2.844  12.002  1.4888 -0.0785 -1.1678
15098TIP3   OH266708   1.376   4.377  11.422  0.0470  0.5616  0.0698
15098TIP3    H166709   1.367   4.287  11.454  2.4585  0.9126  1.9286
15098TIP3    H266710   1.372   4.368  11.326 -1.2923 -1.2803  0.2378
15099TIP3   OH266711   2.041   1.388  12.737 -0.3918 -0.4968  0.1300
15099TIP3    H166712   2.062   1.467  12.687  0.2769 -1.5015 -1.2293
15099TIP3    H266713   2.023   1.420  12.825 -1.8900  1.3675 -0.7913
15100TIP3   OH266714   2.141   6.224   0.738  0.3504  0.5163  0.1799
15100TIP3    H166715   2.130   6.132   0.763  1.3121  0.4450  0.3848
15100TIP3    H266716   2.150   6.270   0.821 -3.0383  1.2660  0.2695
15101TIP3   OH266717   6.278   1.357  16.112 -0.4063 -0.2817  0.1131
15101TIP3    H166718   6.203   1.349  16.170  0.1124  2.3956  1.3333
15101TIP3    H266719   6.244   1.405  16.036 -0.4653 -1.2937 -0.5079
15102TIP3   OH266720   3.901   5.827   0.860 -0.2619 -0.0983 -0.2042
15102TIP3    H166721   3.928   5.737   0.840 -1.1999 -0.7399  1.1976
15102TIP3    H266722   3.853   5.819   0.943 -2.4213  1.3268 -1.2092
15103TIP3   OH266723   4.281   4.732  16.470 -0.0020  0.0864  0.0089
15103TIP3    H166724   4.338   4.734  16.393  1.0131  2.1547  0.7604
15103TIP3    H266725   4.210   4.793  16.450  0.2557  0.6202  0.6828
15104TIP3   OH266726   1.735   5.468   0.025 -0.1047  0.1270 -0.0798
15104TIP3    H166727   1.699   5.537  -0.031  2.3911  0.3850 -1.4799
15104TIP3    H266728   1.819   5.502   0.055 -0.0962 -1.1915  1.5234
15105TIP3   OH266729   0.197   2.983  10.873 -0.1906 -0.1156 -0.4376
15105TIP3    H166730   0.208   2.888  10.864 -1.0729 -0.2162 -0.5955
15105TIP3    H266731   0.149   3.008  10.794  0.9745  0.6342 -0.9152
15106TIP3   OH266732   1.210   1.053   1.034  0.0955  0.0317 -0.8159
15106TIP3    H166733   1.150   0.990   1.074 -1.6849  0.7544 -2.1678
15106TIP3    H266734   1.251   1.098   1.107  0.5246 -1.8628  0.1711
15107TIP3   OH266735   0.873   3.919  14.697  0.2512 -0.0995  0.5261
15107TIP3    H166736   0.789   3.875  14.711  0.1522  0.0692  0.4751
15107TIP3    H266737   0.888   3.911  14.603  0.1532  0.1128  0.4904
15108TIP3   OH266738   3.499   1.384  11.535  0.3710  0.4028  0.1953
15108TIP3    H166739   3.528   1.469  11.501 -1.4561  1.3883  0.9135
15108TIP3    H266740   3.544   1.320  11.481 -2.2211  1.8102 -4.2147
15109TIP3   OH266741   4.722   2.387   3.463 -0.1634 -0.1553 -0.2886
15109TIP3    H166742   4.810   2.353   3.446  0.2248  0.8947 -0.4174
15109TIP3    H266743   4.670   2.357   3.388  0.3401  0.1291 -0.7579
15110TIP3   OH266744   0.304   6.780  14.384 -0.4292  0.0243 -0.1437
15110TIP3    H166745   0.279   6.826  14.304  1.0379 -0.0918 -0.6955
15110TIP3    H266746   0.364   6.840  14.428 -0.3346 -0.3918  0.2954
15111TIP3   OH266747   6.082   0.115  10.576  0.0781  0.6178 -0.4887
15111TIP3    H166748   6.176   0.101  10.567  0.3880  2.0324  0.1498
15111TIP3    H266749   6.048   0.034  10.613  0.8061 -0.4411 -2.0843
15112TIP3   OH266750   2.008   4.115   1.399  0.2876  0.3095 -0.3137
15112TIP3    H166751   2.039   4.025   1.409  0.1696  0.3394  0.3804
15112TIP3    H266752   1.977   4.120   1.308 -0.3132 -0.5346 -0.1659
15113TIP3   OH266753   0.225   6.007  14.400 -0.0952 -0.4953 -0.8369
15113TIP3    H166754   0.167   5.932  14.388  1.5054 -1.6335 -1.7387
15113TIP3    H266755   0.257   6.028  14.312  2.5272 -1.3234 -0.1839
15114TIP3   OH266756   0.416   6.783   4.659 -0.4486 -0.5999 -0.4065
15114TIP3    H166757   0.479   6.772   4.587 -1.1272  1.0015 -1.2856
15114TIP3    H266758   0.342   6.829   4.620 -0.3368  1.4313  1.5756
15115TIP3   OH266759   2.714   1.004  14.526  0.7865  0.2726  0.3366
15115TIP3    H166760   2.765   1.040  14.453  2.2148 -0.1211  1.0968
15115TIP3    H266761   2.778   0.990  14.595 -0.4150 -0.0520  1.4236
15116TIP3   OH266762   5.631   3.075  14.747  0.3891 -0.6524  0.2544
15116TIP3    H166763   5.540   3.095  14.722  0.7345 -0.4064 -0.8892
15116TIP3    H266764   5.623   3.025  14.828 -0.7212  0.2897  0.7654
15117TIP3   OH266765   3.008   5.407  11.803 -0.5745 -0.7870 -0.1259
15117TIP3    H166766   2.918   5.381  11.819 -0.7267  0.4640  1.2946
15117TIP3    H266767   3.055   5.382  11.882  0.4869 -2.0140 -1.1076
15118TIP3   OH266768   4.161   3.466  12.840 -0.1171 -0.3801  0.0063
15118TIP3    H166769   4.077   3.441  12.879 -0.0134  0.4376  0.7899
15118TIP3    H266770   4.216   3.388  12.849 -1.2777 -1.5219 -2.0624
15119TIP3   OH266771   6.275   3.986  16.990 -0.0147  0.0077  0.3255
15119TIP3    H166772   6.368   3.977  16.968 -0.2294 -1.0066 -0.2654
15119TIP3    H266773   6.255   4.078  16.977  0.5892 -0.0161 -0.8920
15120TIP3   OH266774   3.429   4.550  13.847  0.8070 -0.0857  0.0317
15120TIP3    H166775   3.401   4.626  13.797  0.2246  0.4848  1.1658
15120TIP3    H266776   3.391   4.475  13.801 -1.8426  0.5857  0.9386
15121TIP3   OH266777   2.483   0.802   5.055 -0.2250 -0.2102 -0.2106
15121TIP3    H166778   2.493   0.826   5.147  0.5211  0.4992 -0.4688
15121TIP3    H266779   2.393   0.769   5.048  0.4212 -2.5414  1.2686
15122TIP3   OH266780   4.435   4.182   3.629  0.1715 -0.0852 -0.1455
15122TIP3    H166781   4.522   4.145   3.647 -1.3423 -3.6724  0.4875
15122TIP3    H266782   4.404   4.214   3.714 -0.0482 -0.9552  0.1034
15123TIP3   OH266783   5.670   4.258  14.743 -0.2217  0.6486  0.1676
15123TIP3    H166784   5.629   4.344  14.751 -0.5805  0.4389  0.5985
15123TIP3    H266785   5.664   4.220  14.830 -0.4307  0.0170 -0.1157
15124TIP3   OH266786   5.438   1.764   1.403  0.1238 -0.5346  0.5674
15124TIP3    H166787   5.485   1.681   1.398  0.0457 -0.4937 -2.3727
15124TIP3    H266788   5.506   1.831   1.395 -0.1150 -0.4187 -0.6633
15125TIP3   OH266789   4.099   1.676   5.430 -0.3516 -0.5183 -0.3370
15125TIP3    H166790   4.187   1.682   5.467 -2.0431 -1.3632  4.4367
15125TIP3    H266791   4.064   1.765   5.436  0.1125 -0.1460 -2.3922
15126TIP3   OH266792   6.317   6.459  16.714  0.3584 -0.0862 -0.3194
15126TIP3    H166793   6.312   6.554  16.726 -0.8036 -0.1231 -0.3923
15126TIP3    H266794   6.228   6.428  16.729  1.1434 -1.4447  1.9363
15127TIP3   OH266795   0.181   6.740  14.858 -0.7529 -0.1163  0.0550
15127TIP3    H166796   0.225   6.707  14.780 -2.8925 -3.2075  0.0016
15127TIP3    H266797   0.251   6.780  14.910  1.2746 -0.8420 -1.9729
15128TIP3   OH266798   1.633   3.284   1.690  0.1258 -0.2725 -0.5031
15128TIP3    H166799   1.602   3.374   1.681 -0.5610 -0.5743 -1.3187
15128TIP3    H266800   1.729   3.292   1.690  0.1322  0.7057  2.4324
15129TIP3   OH266801   4.880   4.156  16.255  0.5624 -0.0867  0.0978
15129TIP3    H166802   4.899   4.062  16.259 -1.8880 -0.6086  2.9285
15129TIP3    H266803   4.803   4.163  16.198 -0.7800 -0.1949  1.8240
15130TIP3   OH266804   5.860   4.497   2.473  0.1065  0.1216  0.3746
15130TIP3    H166805   5.816   4.416   2.447  0.4341  0.7166 -2.3588
15130TIP3    H266806   5.953   4.478   2.464  0.1718  0.9300 -0.8251
15131TIP3   OH266807   1.164   4.732   5.825 -0.4239 -0.2576 -0.3154
15131TIP3    H166808   1.077   4.726   5.866 -0.2218 -0.8448  0.0341
15131TIP3    H266809   1.169   4.823   5.794 -0.5320  0.2304  1.0437
15132TIP3   OH266810   1.467   2.552  11.736 -0.4389 -0.0935 -0.4539
15132TIP3    H166811   1.479   2.500  11.816 -2.4709  0.2040  0.1107
15132TIP3    H266812   1.380   2.592  11.746 -0.7407 -0.0006 -2.7883
15133TIP3   OH266813   2.226   4.772  15.575 -0.0226  0.0693 -0.1941
15133TIP3    H166814   2.239   4.867  15.586  3.0696 -0.3825  1.0652
15133TIP3    H266815   2.205   4.741  15.663  0.1272 -0.5820 -0.3891
15134TIP3   OH266816   1.279   6.721   0.016 -0.2215  0.1678  0.2863
15134TIP3    H166817   1.196   6.692  -0.022  0.1486  0.1914 -0.5565
15134TIP3    H266818   1.302   6.800  -0.032  1.2187 -0.8562 -0.8069
15135TIP3   OH266819   3.538   2.445  12.802 -0.1371  0.4304  0.5143
15135TIP3    H166820   3.533   2.359  12.843  0.6183  0.0029 -0.2626
15135TIP3    H266821   3.453   2.485  12.820 -1.7733 -1.7006 -1.7591
15136TIP3   OH266822   1.061   4.729   1.891  0.7985  0.3833  0.1548
15136TIP3    H166823   1.059   4.823   1.875 -0.8555  0.4107  0.3670
15136TIP3    H266824   0.969   4.702   1.888  1.3480 -1.5959 -1.9592
15137TIP3   OH266825   1.023   2.842  14.896  0.2355  0.1360 -0.2687
15137TIP3    H166826   1.052   2.819  14.808 -2.3857 -0.7939 -0.9817
15137TIP3    H266827   1.096   2.816  14.953  2.0753  0.9708 -2.1242
15138TIP3   OH266828   3.546   5.204  11.913 -0.2317  0.1928 -0.0952
15138TIP3    H166829   3.476   5.269  11.903 -0.5743 -0.2799 -0.8938
15138TIP3    H266830   3.619   5.239  11.861  0.8522  1.6156  2.2182
15139TIP3   OH266831   3.884   1.476   5.111 -0.5007  0.0493  0.7914
15139TIP3    H166832   3.828   1.510   5.041 -0.3921  0.5924  0.9677
15139TIP3    H266833   3.823   1.430   5.169 -0.3297 -2.4142 -0.8116
15140TIP3   OH266834   3.102   5.735  14.040 -0.5413 -0.1289  0.0243
15140TIP3    H166835   3.058   5.819  14.052 -0.8230 -0.0257 -1.5575
15140TIP3    H266836   3.105   5.722  13.945  1.9832 -0.5737  0.0765
15141TIP3   OH266837   6.170   4.297  15.526  0.4477  0.7515  0.1665
15141TIP3    H166838   6.122   4.215  15.515 -1.8506  1.9462  0.7381
15141TIP3    H266839   6.166   4.339  15.441  2.0810  0.1041 -0.2735
15142TIP3   OH266840   4.749   0.438  16.831  0.0700 -0.7151 -0.1268
15142TIP3    H166841   4.766   0.466  16.922  1.3648 -1.1551 -0.2053
15142TIP3    H266842   4.825   0.469  16.783  0.4221 -2.3255 -0.6569
15143TIP3   OH266843   6.291   5.765  16.184 -0.4034  0.3924  0.5436
15143TIP3    H166844   6.371   5.816  16.173 -0.5136  0.8233  1.6597
15143TIP3    H266845   6.220   5.828  16.168 -0.5771 -0.3327 -2.0477
15144TIP3   OH266846   0.828   2.641  12.475  0.9320  0.5345  0.0273
15144TIP3    H166847   0.751   2.637  12.531  0.2137  0.6816 -0.9323
15144TIP3    H266848   0.865   2.728  12.493  0.0879  1.0183 -0.5199
15145TIP3   OH266849   0.646   1.081   5.141 -0.6312 -0.1136 -0.0059
15145TIP3    H166850   0.698   1.156   5.115 -0.2255 -0.3548  0.0926
15145TIP3    H266851   0.563   1.118   5.170 -0.3294  0.3211  0.3167
15146TIP3   OH266852   2.131   3.576  11.142 -0.2923 -0.3740  0.5369
15146TIP3    H166853   2.226   3.582  11.130 -0.3369  0.2935  0.4676
15146TIP3    H266854   2.102   3.667  11.150 -0.9441 -0.5672  0.4332
15147TIP3   OH266855   5.961   3.621  16.418 -0.1876  0.2120 -0.0059
15147TIP3    H166856   5.890   3.676  16.386 -0.1998  0.6529  0.7727
15147TIP3    H266857   5.931   3.589  16.503 -0.4334 -1.4928 -0.7081
15148TIP3   OH266858   3.762   2.520   1.115 -0.5232  0.3553 -0.0838
15148TIP3    H166859   3.743   2.455   1.048  0.9941 -2.0704  1.6857
15148TIP3    H266860   3.707   2.495   1.190 -2.2021  3.0068 -0.3041
15149TIP3   OH266861   5.781   0.030   3.627 -0.2726 -0.5522 -0.2998
15149TIP3    H166862   5.843   0.068   3.690 -0.8316 -0.2044  0.0554
15149TIP3    H266863   5.804   0.069   3.543 -0.2081 -0.1806 -0.1105
15150TIP3   OH266864   0.837   3.707   6.005  0.3904  0.0093  0.0151
15150TIP3    H166865   0.816   3.670   5.919  0.8461  0.0252 -0.1057
15150TIP3    H266866   0.755   3.747   6.035  0.1478 -0.2676 -0.2737
15151TIP3   OH266867   3.766   1.275  11.032  0.1290 -0.6183 -0.8622
15151TIP3    H166868   3.803   1.332  11.099 -0.3771 -1.1145 -0.1572
15151TIP3    H266869   3.673   1.298  11.029  0.3584  0.3247 -2.3267
15152TIP3   OH266870   1.590   2.075  12.161 -0.1231 -0.5027  0.5159
15152TIP3    H166871   1.670   2.076  12.108 -0.5999  0.9181 -0.2314
15152TIP3    H266872   1.528   2.025  12.108 -0.2493 -0.0921  0.2735
15153TIP3   OH266873   4.501   6.169  11.382  0.0709  0.6283  0.2822
15153TIP3    H166874   4.490   6.243  11.441 -1.6172  0.6742 -0.0362
15153TIP3    H266875   4.506   6.208  11.295  0.6725  0.4572  0.2416
15154TIP3   OH266876   3.996   1.414   3.706  0.1663 -0.8743 -0.3991
15154TIP3    H166877   3.907   1.385   3.722 -1.2773  1.9427 -2.4335
15154TIP3    H266878   4.017   1.472   3.780 -0.7507  0.4517 -1.1315
15155TIP3   OH266879   0.228   3.745  14.880  0.9286  0.3720 -0.0228
15155TIP3    H166880   0.198   3.730  14.970  1.0655  0.1674 -0.0111
15155TIP3    H266881   0.259   3.660  14.851 -1.2619 -0.1289 -1.0858
15156TIP3   OH266882   0.193   2.536  14.877  0.1624 -0.4871  0.0755
15156TIP3    H166883   0.260   2.522  14.810  0.8662  0.1225  0.6294
15156TIP3    H266884   0.129   2.467  14.862  1.5879 -1.9386  0.3461
15157TIP3   OH266885   6.253   1.344  10.959  0.4902  0.2490  0.2185
15157TIP3    H166886   6.210   1.260  10.970  1.1286 -0.0738  0.2807
15157TIP3    H266887   6.298   1.360  11.042 -0.6628  1.2634  0.6814
15158TIP3   OH266888   5.071   0.827  14.772 -0.5365 -0.0509 -0.7732
15158TIP3    H166889   5.026   0.907  14.746  0.1599  0.2688 -1.0084
15158TIP3    H266890   5.085   0.780  14.690 -1.3446 -0.6346 -0.5874
15159TIP3   OH266891   6.759   5.536  11.013 -0.1282  0.0856  0.0493
15159TIP3    H166892   6.807   5.606  11.058  0.2357  0.3881 -0.7912
15159TIP3    H266893   6.807   5.456  11.037 -0.3257  0.1566  0.7139
15160TIP3   OH266894   1.615   5.353  15.197 -0.1037 -0.3203  0.0903
15160TIP3    H166895   1.537   5.398  15.166 -0.4387 -0.7034  0.3626
15160TIP3    H266896   1.600   5.342  15.291 -0.7629 -2.4331 -0.2309
15161TIP3   OH266897   3.683   4.707  11.640  0.2856 -0.1866  0.0721
15161TIP3    H166898   3.688   4.799  11.668  1.6473 -0.3963  0.5842
15161TIP3    H266899   3.590   4.685  11.647  0.1797  0.6335  1.6861
15162TIP3   OH266900   2.214   2.174  15.009 -0.1149 -0.2933  0.2275
15162TIP3    H166901   2.286   2.196  15.068  0.8027 -1.6902 -0.3182
15162TIP3    H266902   2.213   2.244  14.944  0.8202 -0.2983  0.1979
15163TIP3   OH266903   4.822   2.428   3.746 -0.5608  0.0828  0.6630
15163TIP3    H166904   4.889   2.387   3.802  0.9136  0.8976 -0.4280
15163TIP3    H266905   4.833   2.386   3.661 -1.6851 -0.0003  0.5489
15164TIP3   OH266906   3.778   4.118  13.023  0.4799 -0.2305  0.0679
15164TIP3    H166907   3.762   4.026  13.045 -0.2143 -0.1257  0.0362
15164TIP3    H266908   3.849   4.145  13.081  1.0742 -0.9412 -0.3218
15165TIP3   OH266909   6.502   4.655  11.462  0.0114 -0.3371  0.1896
15165TIP3    H166910   6.525   4.586  11.525  1.4018 -1.0614 -1.0480
15165TIP3    H266911   6.565   4.644  11.391 -1.6304  0.2986 -1.4482
15166TIP3   OH266912   2.475   0.776   5.347 -0.1009  0.5601 -0.2701
15166TIP3    H166913   2.521   0.713   5.403 -1.2160  0.5698  0.7022
15166TIP3    H266914   2.386   0.777   5.381 -0.7540  0.7748 -1.8989
15167TIP3   OH266915   2.697   2.628  11.149  0.1354 -0.4886  0.3768
15167TIP3    H166916   2.657   2.624  11.063  1.1125  0.9076 -0.1812
15167TIP3    H266917   2.624   2.644  11.209 -0.2764  1.1090 -0.4999
15168TIP3   OH266918   4.068   5.670  13.128 -0.3922  0.2583  0.1144
15168TIP3    H166919   4.050   5.760  13.157 -3.9618 -0.6581  1.1357
15168TIP3    H266920   4.145   5.644  13.179 -2.4327  1.0220  3.9726
15169TIP3   OH266921   2.746   2.009  13.326  0.2471 -0.2493 -0.3628
15169TIP3    H166922   2.691   1.930  13.318  0.8638 -0.6306 -1.0087
15169TIP3    H266923   2.824   1.979  13.372 -0.8799  0.7341  2.3962
15170TIP3   OH266924   2.266   5.578   2.630  0.1928 -0.0354  0.3526
15170TIP3    H166925   2.196   5.588   2.696 -0.9321  0.1325 -0.8248
15170TIP3    H266926   2.328   5.649   2.650  0.4946 -0.7062  1.9438
15171TIP3   OH266927   2.689   2.543  11.495 -0.9180 -0.2218 -0.3518
15171TIP3    H166928   2.662   2.461  11.536 -1.4202 -0.2784 -0.7860
15171TIP3    H266929   2.775   2.523  11.457 -1.1922 -0.6501 -0.7587
15172TIP3   OH266930   6.444   2.764   1.543 -0.0200 -0.0694  0.2776
15172TIP3    H166931   6.479   2.850   1.567  0.6129 -0.2854  0.1446
15172TIP3    H266932   6.440   2.765   1.448  2.2863 -1.0361  0.1030
15173TIP3   OH266933   5.717   4.823   2.262 -0.2011 -0.2001 -0.0139
15173TIP3    H166934   5.644   4.763   2.276  0.1647 -1.1610 -1.9318
15173TIP3    H266935   5.676   4.904   2.233 -0.5462 -0.5084 -0.4004
15174TIP3   OH266936   6.068   1.814  12.126 -0.3473 -0.0988 -0.1787
15174TIP3    H166937   6.160   1.797  12.105 -0.3911 -0.3985 -0.1345
15174TIP3    H266938   6.019   1.755  12.070 -0.5197  0.1355 -0.2760
15175TIP3   OH266939   0.093   0.500   2.680  0.2027  0.4661  0.0006
15175TIP3    H166940   0.079   0.418   2.633 -0.3164  0.6834 -0.2275
15175TIP3    H266941   0.080   0.478   2.773 -0.8571  0.4766 -0.1297
15176TIP3   OH266942   5.613   5.536  15.010  0.0893 -0.5704  0.4080
15176TIP3    H166943   5.623   5.561  15.102 -1.9938  0.1720  0.4780
15176TIP3    H266944   5.655   5.607  14.962 -2.8634  1.5669  0.7167
15177TIP3   OH266945   2.740   5.386  16.648 -0.5445 -0.3940  0.0900
15177TIP3    H166946   2.684   5.325  16.601 -0.8536 -0.3313  0.3713
15177TIP3    H266947   2.682   5.430  16.710 -0.3733  0.3484 -0.2557
15178TIP3   OH266948   4.641   1.425   5.153 -0.3243  0.0850  0.0868
15178TIP3    H166949   4.690   1.485   5.210 -1.5269  0.1001  1.1528
15178TIP3    H266950   4.640   1.343   5.201  1.4481 -0.9008 -1.4384
15179TIP3   OH266951   6.446   1.853  11.985  0.5240  0.8230  0.3499
15179TIP3    H166952   6.428   1.931  12.039  1.9257  1.7781 -0.4978
15179TIP3    H266953   6.467   1.889  11.899 -0.7044 -0.6214 -0.5936
15180TIP3   OH266954   1.292   2.201  12.264  0.6147 -0.1145 -0.0026
15180TIP3    H166955   1.237   2.125  12.281  1.3406 -0.6810 -0.1332
15180TIP3    H266956   1.381   2.169  12.275  0.9535  0.5707 -0.6392
15181TIP3   OH266957   4.979   2.964  13.704 -0.1356  0.2844  0.6727
15181TIP3    H166958   5.034   3.035  13.671 -0.9734  1.2010  1.1670
15181TIP3    H266959   5.040   2.903  13.745  0.5664  0.9247  0.6067
15182TIP3   OH266960   1.268   4.376   1.259 -0.2267 -0.3715 -0.0821
15182TIP3    H166961   1.326   4.306   1.288 -0.8134 -0.4144  1.0276
15182TIP3    H266962   1.260   4.363   1.165  2.4974  0.3350 -0.4958
15183TIP3   OH266963   4.723   5.402   3.122  0.0055 -0.0124 -1.0499
15183TIP3    H166964   4.776   5.446   3.189  0.6572  0.9834 -2.1850
15183TIP3    H266965   4.655   5.356   3.172 -0.5342  2.0261  0.2268
15184TIP3   OH266966   5.827   5.473  10.908 -0.0828 -0.3725  0.0197
15184TIP3    H166967   5.777   5.456  10.829 -0.5013 -0.7412  0.3540
15184TIP3    H266968   5.905   5.418  10.900  1.2196  1.5409 -1.3439
15185TIP3   OH266969   6.479   3.083  11.609 -0.3828 -0.2307  0.5286
15185TIP3    H166970   6.481   3.178  11.611  0.0934 -0.2173 -0.0450
15185TIP3    H266971   6.397   3.059  11.652 -0.4373  0.4287  0.8010
15186TIP3   OH266972   3.867   5.572  11.946  0.1858 -0.2700  0.0408
15186TIP3    H166973   3.801   5.624  11.991 -0.8448  0.5664 -2.2651
15186TIP3    H266974   3.946   5.626  11.948 -1.0079  1.9085 -2.8247
15187TIP3   OH266975   5.610   1.100  11.618  0.5306  0.1992 -0.5968
15187TIP3    H166976   5.671   1.133  11.683  0.2025  0.2664 -0.3152
15187TIP3    H266977   5.623   1.156  11.541 -0.1638  1.1279 -0.0560
15188TIP3   OH266978   0.161   2.234  17.132  0.2734  0.3784 -0.3432
15188TIP3    H166979   0.153   2.322  17.170 -2.2775 -0.4416  1.2591
15188TIP3    H266980   0.227   2.191  17.186  2.0739  1.4498 -1.5815
15189TIP3   OH266981   2.174   3.583   1.332 -0.0917 -0.1195 -0.4883
15189TIP3    H166982   2.143   3.493   1.332 -1.7957  0.4224  0.2120
15189TIP3    H266983   2.152   3.615   1.244 -0.9959  0.0799 -0.1975
15190TIP3   OH266984   6.216   6.075  12.966  0.1165  0.1704 -0.7544
15190TIP3    H166985   6.273   6.064  12.891 -1.5823  3.7637 -2.8707
15190TIP3    H266986   6.241   6.160  13.003  0.5818 -1.2711  2.5730
15191TIP3   OH266987   2.958   5.316   4.707  0.2973  0.3860  0.3361
15191TIP3    H166988   2.935   5.248   4.770 -2.9632 -0.3127 -1.3784
15191TIP3    H266989   2.930   5.398   4.748  0.2621  0.2062  0.6728
15192TIP3   OH266990   4.991   0.523  13.072  0.1007 -0.2203  0.0132
15192TIP3    H166991   4.929   0.464  13.030 -0.4682 -1.5661  2.5512
15192TIP3    H266992   5.077   0.494  13.040 -0.3756 -0.2060 -1.3189
15193TIP3   OH266993   5.046   5.275   3.823  0.1456  0.0855  0.3744
15193TIP3    H166994   4.990   5.312   3.891  0.1792 -0.6050  0.7844
15193TIP3    H266995   5.091   5.351   3.785 -1.1585  0.6668 -0.0526
15194TIP3   OH266996   1.049   0.995   0.500  0.0922  0.2408 -0.1828
15194TIP3    H166997   1.050   1.084   0.534  0.4442  1.4108 -2.9855
15194TIP3    H266998   1.022   1.004   0.409 -3.0594 -2.9043  0.2021
15195TIP3   OH266999   1.205   5.048  11.626  0.4774  0.4602 -0.1325
15195TIP3    H167000   1.178   5.042  11.535 -0.1523 -0.8971  0.1158
15195TIP3    H267001   1.123   5.055  11.675  0.8440  3.3156  0.2628
15196TIP3   OH267002   6.464   1.473  12.668  0.0705  0.0485  0.0073
15196TIP3    H167003   6.434   1.520  12.591  0.2279 -0.2707 -0.2482
15196TIP3    H267004   6.506   1.394  12.634 -1.6840 -1.1575  0.4724
15197TIP3   OH267005   1.898   5.204  12.254  0.2721  0.0450 -0.6258
15197TIP3    H167006   1.967   5.139  12.265  1.9687  2.0575  1.6351
15197TIP3    H267007   1.823   5.167  12.301  1.1837 -0.3709  0.5693
15198TIP3   OH267008   2.599   5.399  14.917  0.0227 -0.1656 -0.1393
15198TIP3    H167009   2.661   5.422  14.847  0.3936 -0.9938 -0.0971
15198TIP3    H267010   2.534   5.343  14.874  1.3199 -2.3030  0.5265
15199TIP3   OH267011   6.580   5.049   5.280  0.1805  0.2784  0.3526
15199TIP3    H167012   6.507   4.990   5.297  0.4786  0.4284  2.2869
15199TIP3    H267013   6.638   4.998   5.223 -1.2359  0.0555 -0.9867
15200TIP3   OH267014   5.381   2.362   1.214  0.6983 -0.1947  0.3330
15200TIP3    H167015   5.400   2.334   1.303  1.4184  0.9120  0.5531
15200TIP3    H267016   5.467   2.360   1.170  0.3929 -0.4825 -0.2651
15201TIP3   OH267017   3.334   2.351  17.224 -0.1499  0.2437 -0.1234
15201TIP3    H167018   3.398   2.405  17.177 -0.5120 -0.3928 -1.3983
15201TIP3    H267019   3.275   2.414  17.266 -0.3828  0.8517 -1.3304
15202TIP3   OH267020   5.602   5.005  13.857 -0.0767 -0.4013 -0.0766
15202TIP3    H167021   5.537   5.036  13.920  1.0912 -1.6990  1.8516
15202TIP3    H267022   5.612   5.077  13.795 -0.6573  1.2773  1.6978
15203TIP3   OH267023   0.495   2.427  12.680 -0.0246  0.1427  0.0862
15203TIP3    H167024   0.570   2.395  12.629 -0.2247 -1.9902  0.9984
15203TIP3    H267025   0.442   2.474  12.617  0.1596 -1.6885 -1.5428
15204TIP3   OH267026   3.604   6.656  14.382 -0.5173 -0.0272  0.2609
15204TIP3    H167027   3.610   6.601  14.461  0.0713 -0.1745  0.1125
15204TIP3    H267028   3.517   6.695  14.388 -1.5050 -2.0016 -0.3013
15205TIP3   OH267029   1.617   3.536  13.535  0.0446 -0.1191  0.3235
15205TIP3    H167030   1.582   3.593  13.467  1.6119  3.6360  2.3112
15205TIP3    H267031   1.595   3.581  13.617  0.9089 -2.7828  2.1482
15206TIP3   OH267032   3.304   1.662  14.643  0.8150  0.0561  0.0583
15206TIP3    H167033   3.325   1.687  14.553 -0.2720  2.3439  0.3534
15206TIP3    H267034   3.230   1.602  14.634  0.3093  0.7524 -0.5803
15207TIP3   OH267035   3.137   0.384  10.836  0.1888 -0.5351  0.0986
15207TIP3    H167036   3.191   0.320  10.791  1.4047 -0.2949  1.1453
15207TIP3    H267037   3.159   0.373  10.929  1.1264  1.9821  0.2489
15208TIP3   OH267038   1.743   2.889   5.330  0.2457 -0.2113  0.1226
15208TIP3    H167039   1.650   2.907   5.318  0.0040 -1.3611  0.1675
15208TIP3    H267040   1.777   2.876   5.241  0.1672 -0.6650  0.1544
15209TIP3   OH267041   5.900   1.532  16.092  0.5032 -0.2990  0.3331
15209TIP3    H167042   5.920   1.439  16.102  1.8179  0.0509  1.0806
15209TIP3    H267043   5.935   1.573  16.170 -0.7952  0.7378  0.4047
15210TIP3   OH267044   6.615   5.640   0.106  0.0939  0.3889  0.1291
15210TIP3    H167045   6.609   5.552   0.143  0.5627  0.0994 -0.4614
15210TIP3    H267046   6.669   5.629   0.028 -2.8489  0.5395 -2.0585
15211TIP3   OH267047   1.644   5.151  16.552  0.4234  0.0817 -0.1596
15211TIP3    H167048   1.689   5.066  16.549  3.3298  1.4507  1.3107
15211TIP3    H267049   1.695   5.207  16.493 -1.0497  1.0417 -0.5806
15212TIP3   OH267050   6.373   4.684   3.877 -0.3933 -0.3401  0.1222
15212TIP3    H167051   6.297   4.712   3.826 -0.3589 -0.9195 -0.2565
15212TIP3    H267052   6.394   4.597   3.843 -0.8558 -1.0889  1.6584
15213TIP3   OH267053   3.486   1.593  12.224 -0.8472 -0.7974  0.0962
15213TIP3    H167054   3.429   1.517  12.237 -2.1826  0.0562 -0.5908
15213TIP3    H267055   3.457   1.631  12.141 -1.1159  1.2179  1.0580
15214TIP3   OH267056   0.962   6.386  17.180  0.2181 -0.2607 -0.3058
15214TIP3    H167057   1.057   6.378  17.168  0.1804 -0.7932 -0.2784
15214TIP3    H267058   0.951   6.457  17.244  0.6417 -0.8290  0.4085
15215TIP3   OH267059   0.733   2.939   4.190 -0.1506 -0.4146  0.2789
15215TIP3    H167060   0.742   2.956   4.284 -1.2170 -0.4019  0.4007
15215TIP3    H267061   0.788   3.004   4.148 -0.8019  0.5404  0.8603
15216TIP3   OH267062   3.850   0.883   1.304 -0.4032 -0.7747  0.2106
15216TIP3    H167063   3.905   0.805   1.292  2.0096  0.9377 -0.5795
15216TIP3    H267064   3.886   0.947   1.243  0.4924  2.3622  3.7222
15217TIP3   OH267065   4.650   4.067  12.500  0.1968  0.0400 -0.3890
15217TIP3    H167066   4.659   4.152  12.543 -0.5274  0.2478 -0.6325
15217TIP3    H267067   4.576   4.025  12.543  0.4842 -0.4314 -0.3415
15218TIP3   OH267068   4.735   0.230   1.927  0.3569 -0.1856 -0.4224
15218TIP3    H167069   4.749   0.200   2.017  0.0703 -0.0662 -0.3385
15218TIP3    H267070   4.752   0.324   1.930  0.0841 -0.1336 -0.4338
15219TIP3   OH267071   4.307   0.892   6.662  0.4724 -0.2826 -0.0805
15219TIP3    H167072   4.235   0.953   6.680 -0.0140 -0.1191 -2.2876
15219TIP3    H267073   4.347   0.876   6.747 -1.6600  0.2760  1.0981
15220TIP3   OH267074   2.156   2.437   4.801 -0.3363  0.0093  0.0179
15220TIP3    H167075   2.155   2.342   4.788  0.8542  0.1969 -1.8488
15220TIP3    H267076   2.216   2.451   4.874  0.1113 -0.6364 -0.2203
15221TIP3   OH267077   5.570   5.676  10.717 -0.8428 -0.2501  0.1620
15221TIP3    H167078   5.513   5.648  10.645 -0.2794 -1.0489  0.0152
15221TIP3    H267079   5.653   5.630  10.702  0.4483  2.1509 -0.5592
15222TIP3   OH267080   6.619   2.391   5.821 -0.0726 -0.2391 -0.0543
15222TIP3    H167081   6.563   2.334   5.875  1.0063 -3.0019 -1.6361
15222TIP3    H267082   6.573   2.397   5.737  0.8564 -0.6360 -0.6084
15223TIP3   OH267083   6.714   5.296  15.613  0.0510  0.0846  0.4366
15223TIP3    H167084   6.674   5.264  15.694  0.8116 -0.0094  0.7849
15223TIP3    H267085   6.650   5.357  15.577 -1.9598 -2.5394 -0.7924
15224TIP3   OH267086   0.348   0.685  14.218  0.0512  0.3641  0.1870
15224TIP3    H167087   0.410   0.685  14.145 -0.8592 -0.3117 -0.6127
15224TIP3    H267088   0.266   0.656  14.179 -0.9003  1.7230  1.1298
15225TIP3   OH267089   2.962   3.685  16.590  0.6337  0.6212 -0.1963
15225TIP3    H167090   2.913   3.603  16.596  0.8636  0.4190 -1.0125
15225TIP3    H267091   2.919   3.743  16.653  1.0038 -0.3879  1.0236
15226TIP3   OH267092   0.832   0.908   5.325 -0.2914 -0.7375 -0.1218
15226TIP3    H167093   0.917   0.930   5.365 -1.4004  2.2121  0.8561
15226TIP3    H267094   0.855   0.869   5.241  2.0574 -0.6916  0.4270
15227TIP3   OH267095   5.189   3.963   1.600  0.0341  0.7187  0.7598
15227TIP3    H167096   5.102   3.986   1.568 -0.1932  1.4081  1.8136
15227TIP3    H267097   5.248   4.023   1.553  0.0780 -0.3608 -0.6390
15228TIP3   OH267098   0.899   1.777  12.312 -0.0807  0.4892  0.2062
15228TIP3    H167099   0.820   1.731  12.341  0.4561 -0.3039  0.4693
15228TIP3    H267100   0.970   1.714  12.327  0.5642  1.0716 -0.3107
15229TIP3   OH267101   3.199   4.734   2.078 -0.1556  0.2894  0.6361
15229TIP3    H167102   3.200   4.829   2.090  1.3018  0.4443 -0.4187
15229TIP3    H267103   3.291   4.708   2.085 -0.0653 -0.5734 -2.2707
15230TIP3   OH267104   4.192   6.521  11.443  0.4905 -0.5120  0.0885
15230TIP3    H167105   4.282   6.522  11.473  0.7301 -0.4272 -0.6106
15230TIP3    H267106   4.141   6.555  11.517  0.8132 -2.1969  1.1188
15231TIP3   OH267107   4.996   5.600  10.740  0.4337 -0.1114  0.1205
15231TIP3    H167108   5.005   5.552  10.658 -1.7658 -1.0515  0.3655
15231TIP3    H267109   4.915   5.566  10.779  0.0316  2.1680  1.4289
15232TIP3   OH267110   2.178   0.413  11.338 -0.1161 -0.7969 -0.6366
15232TIP3    H167111   2.131   0.487  11.301  1.9503  0.7971 -0.2252
15232TIP3    H267112   2.114   0.370  11.395 -1.5521  0.2313 -1.4055
15233TIP3   OH267113   4.194   5.546   0.316  0.3364  0.5874  0.3355
15233TIP3    H167114   4.244   5.511   0.242  0.3089  0.0430  0.5632
15233TIP3    H267115   4.250   5.529   0.392 -0.0959  0.1709  0.5667
15234TIP3   OH267116   1.644   1.701   1.185 -0.6555 -0.6060  0.4430
15234TIP3    H167117   1.600   1.617   1.170  0.1753 -0.7882 -1.2113
15234TIP3    H267118   1.606   1.760   1.121  0.9773 -0.5984 -0.5852
15235TIP3   OH267119   4.431   2.566   0.297  0.4894  0.4770 -0.4561
15235TIP3    H167120   4.384   2.626   0.355 -0.0833 -0.0260 -0.3834
15235TIP3    H267121   4.492   2.520   0.354  1.9653  1.9796 -0.7518
15236TIP3   OH267122   2.080   6.509  13.661 -0.3433  0.3145  0.5578
15236TIP3    H167123   2.170   6.491  13.634 -0.1966  1.7920 -0.0233
15236TIP3    H267124   2.035   6.425  13.652  1.4075 -0.9733  2.8213
15237TIP3   OH267125   0.373   2.266   2.242 -0.1707  0.1477  0.1593
15237TIP3    H167126   0.441   2.225   2.295  0.0861  1.4836  0.9158
15237TIP3    H267127   0.291   2.242   2.286 -0.0540  0.0427  0.3204
15238TIP3   OH267128   1.089   6.695   2.385 -0.1044 -0.1464 -0.4304
15238TIP3    H167129   1.117   6.786   2.374 -0.8946  0.1302 -0.2158
15238TIP3    H267130   1.145   6.662   2.455 -1.3732  0.8972  1.1498
15239TIP3   OH267131   0.160   2.789  12.455 -0.1294  0.0913 -0.0710
15239TIP3    H167132   0.188   2.772  12.365 -0.4986 -0.1634 -0.1402
15239TIP3    H267133   0.069   2.759  12.458  0.3084 -1.2274  0.7736
15240TIP3   OH267134   3.802   3.445  15.155  0.3381  0.0040  0.1610
15240TIP3    H167135   3.761   3.471  15.073  0.9766  1.4168  0.2646
15240TIP3    H267136   3.822   3.352  15.143 -0.5060 -0.0647 -0.8743
15241TIP3   OH267137   3.731   6.717   3.325  0.2279  0.0023 -0.4553
15241TIP3    H167138   3.791   6.703   3.399  1.5639  0.8906 -1.3136
15241TIP3    H267139   3.695   6.630   3.307  0.3174 -0.3323  0.8609
15242TIP3   OH267140   5.159   5.269   5.357  0.3560 -0.1026  0.0235
15242TIP3    H167141   5.218   5.220   5.415  0.1805 -0.4817 -0.1182
15242TIP3    H267142   5.163   5.359   5.390  1.1019 -0.0993 -0.0517
15243TIP3   OH267143   1.773   6.711  11.650 -0.2436 -0.1338  0.1446
15243TIP3    H167144   1.854   6.761  11.663 -0.4735  0.9566 -2.1636
15243TIP3    H267145   1.724   6.725  11.731  0.6756  1.5742  0.4650
15244TIP3   OH267146   5.157   0.097   0.558  0.3581 -0.4431  0.0484
15244TIP3    H167147   5.065   0.111   0.581  1.0629  0.6814  2.5943
15244TIP3    H267148   5.163   0.120   0.466 -1.4829  1.8520  0.4040
15245TIP3   OH267149   0.453   5.798  15.859  0.0637  0.1905 -0.4504
15245TIP3    H167150   0.457   5.706  15.883  2.6305 -0.4902 -2.9318
15245TIP3    H267151   0.463   5.845  15.942 -0.6024 -1.7171  0.7810
15246TIP3   OH267152   2.010   2.652  14.333 -0.0051  1.0025  0.2999
15246TIP3    H167153   1.921   2.618  14.329  0.9785 -1.9276  0.0512
15246TIP3    H267154   2.003   2.744  14.310 -2.6531  0.2157 -2.7377
15247TIP3   OH267155   3.901   1.897  13.180 -0.2105  0.4439 -0.0610
15247TIP3    H167156   3.822   1.951  13.177  0.2486  1.1846  0.6443
15247TIP3    H267157   3.879   1.826  13.241 -0.8885 -0.3013 -1.1531
15248TIP3   OH267158   5.446   2.429  11.622 -0.0207  1.2372  0.5934
15248TIP3    H167159   5.399   2.414  11.539  1.7188  1.1572 -0.4174
15248TIP3    H267160   5.481   2.517  11.614  0.0497  1.2762  1.3189
15249TIP3   OH267161   2.164   1.959  12.010 -0.0601  0.5475  0.3027
15249TIP3    H167162   2.171   2.042  11.962  0.2400  0.8137  0.7998
15249TIP3    H267163   2.147   1.894  11.942  0.2813  0.9312 -0.1603
15250TIP3   OH267164   3.991   4.443   1.172  0.0849  0.3625 -0.3815
15250TIP3    H167165   4.087   4.444   1.171  0.1124  0.6232 -2.9810
15250TIP3    H267166   3.966   4.525   1.130 -1.2632 -0.2406 -0.7870
15251TIP3   OH267167   6.091   5.385   5.583 -0.2101  0.2678 -0.0819
15251TIP3    H167168   6.178   5.404   5.617 -0.4500  1.2637  0.0238
15251TIP3    H267169   6.051   5.472   5.569  0.1790 -0.0041 -3.8310
15252TIP3   OH267170   1.101   0.425  17.061  0.3479 -0.4443 -0.3128
15252TIP3    H167171   1.058   0.509  17.077  0.3199 -0.2754 -1.2284
15252TIP3    H267172   1.033   0.369  17.025  0.1926 -1.0948  0.9449
15253TIP3   OH267173   2.774   3.484   4.138 -0.3894  0.5830 -0.0865
15253TIP3    H167174   2.835   3.412   4.156  0.0491  1.3912  1.9441
15253TIP3    H267175   2.727   3.457   4.059  0.5338 -1.4182 -0.0047
15254TIP3   OH267176   5.652   5.395  15.516 -0.0024 -0.1067 -0.8111
15254TIP3    H167177   5.650   5.483  15.553 -0.2250 -0.0124 -1.0433
15254TIP3    H267178   5.618   5.339  15.586  1.8175 -0.2696  0.0002
15255TIP3   OH267179   4.595   6.397   5.839  0.2101 -0.4200 -0.4497
15255TIP3    H167180   4.645   6.477   5.859 -1.7019  0.4442  1.2455
15255TIP3    H267181   4.622   6.335   5.906 -0.6255 -0.0905  0.2119
15256TIP3   OH267182   0.176   2.098  16.538  0.1016  0.2682  0.5413
15256TIP3    H167183   0.175   2.115  16.443  0.0221  1.1490  0.6957
15256TIP3    H267184   0.246   2.034  16.550  1.3973  1.5665  0.1161
15257TIP3   OH267185   2.926   6.750  14.718  0.3458  0.0727  0.0358
15257TIP3    H167186   2.881   6.834  14.731 -0.4024 -0.4384  0.9352
15257TIP3    H267187   2.943   6.719  14.807  0.6574 -0.7127 -0.2902
15258TIP3   OH267188   6.328   6.052  13.343 -0.0558 -0.2978 -0.3174
15258TIP3    H167189   6.315   5.965  13.380 -1.0890  0.1804  0.5243
15258TIP3    H267190   6.253   6.103  13.376 -0.2268  0.5476 -1.8989
15259TIP3   OH267191   1.680   6.194  15.305  0.1762 -0.9314 -0.0784
15259TIP3    H167192   1.709   6.131  15.371  0.4332 -0.7449 -0.0142
15259TIP3    H267193   1.588   6.171  15.289 -0.2360 -0.2420  1.1968
15260TIP3   OH267194   6.759   2.186   0.285 -0.2319  0.2383 -0.7151
15260TIP3    H167195   6.671   2.153   0.266 -0.3731  0.9956 -1.4582
15260TIP3    H267196   6.752   2.281   0.274  0.1990  0.5301  1.2342
15261TIP3   OH267197   4.002   3.699  16.470 -0.1560 -0.3910 -0.2479
15261TIP3    H167198   3.953   3.617  16.468  0.1304 -0.5634 -1.8094
15261TIP3    H267199   4.091   3.674  16.496 -0.1754 -0.5099 -0.2965
15262TIP3   OH267200   3.152   3.091  16.360  0.2588  0.1956  0.7767
15262TIP3    H167201   3.213   3.138  16.417  2.7045 -0.9370 -0.7212
15262TIP3    H267202   3.141   3.006  16.402 -0.8383  0.5972  1.3471
15263TIP3   OH267203   3.444   6.565   2.242 -0.6982  0.3399  0.2039
15263TIP3    H167204   3.439   6.509   2.319  2.0668 -0.5666 -0.1821
15263TIP3    H267205   3.484   6.511   2.174  0.6027  2.2640 -0.6655
15264TIP3   OH267206   3.786   2.046   3.457  0.2478 -0.5028 -0.3326
15264TIP3    H167207   3.718   2.047   3.524 -0.1309  2.0801 -0.6542
15264TIP3    H267208   3.860   2.092   3.498  0.1618  0.7373 -1.4920
15265TIP3   OH267209   0.107   4.686   3.913 -0.4467 -0.6024  0.3769
15265TIP3    H167210   0.168   4.639   3.970 -0.2438 -0.2016  0.4988
15265TIP3    H267211   0.147   4.681   3.826 -0.7266 -1.1624  0.2754
15266TIP3   OH267212   1.062   4.232   3.687 -0.0584 -0.7786  0.0730
15266TIP3    H167213   1.040   4.208   3.597  0.2559 -0.8838  0.0212
15266TIP3    H267214   1.158   4.231   3.689 -0.0142  0.9547 -0.0564
15267TIP3   OH267215   6.549   2.142   4.094 -0.4680  0.4223  0.1762
15267TIP3    H167216   6.616   2.119   4.030 -0.5930  1.0916 -0.1953
15267TIP3    H267217   6.579   2.102   4.176 -0.8816 -1.4482 -0.5228
15268TIP3   OH267218   3.982   1.966   5.990 -0.1123 -0.0586 -0.5671
15268TIP3    H167219   4.048   2.030   6.016  0.8063 -0.1515 -2.4926
15268TIP3    H267220   4.003   1.945   5.899 -1.4497 -1.7849 -0.5418
15269TIP3   OH267221   0.726   6.069   2.102 -0.1147  0.3797  0.4118
15269TIP3    H167222   0.664   6.024   2.045  0.1370  1.1321 -0.4770
15269TIP3    H267223   0.758   6.001   2.161 -0.8916 -0.2672  0.1050
15270TIP3   OH267224   1.377   0.219  15.099 -0.2448  0.4123 -0.2838
15270TIP3    H167225   1.308   0.253  15.042 -0.3781 -0.3898 -0.6130
15270TIP3    H267226   1.341   0.227  15.188 -1.6557 -1.8940 -0.5663
15271TIP3   OH267227   3.566   3.869  15.825  0.1806 -0.0734 -0.2580
15271TIP3    H167228   3.488   3.815  15.815 -0.1969  0.7240 -1.8718
15271TIP3    H267229   3.638   3.813  15.795 -0.1081  0.0583 -1.2077
15272TIP3   OH267230   4.928   3.369  13.118 -0.3851 -0.5022  0.3926
15272TIP3    H167231   5.011   3.416  13.116  0.1607 -1.4092 -2.5717
15272TIP3    H267232   4.865   3.432  13.083 -0.4945 -0.6172  0.3831
15273TIP3   OH267233   5.441   1.267  13.194  0.1906  0.3684  0.9220
15273TIP3    H167234   5.511   1.304  13.140  0.5838 -0.5225  0.7928
15273TIP3    H267235   5.485   1.237  13.273  0.0514 -0.6040  0.6495
15274TIP3   OH267236   5.345   0.925   2.772  0.1078  0.0268 -0.7390
15274TIP3    H167237   5.378   0.921   2.682 -1.0216  1.7893 -1.2857
15274TIP3    H267238   5.370   1.012   2.802  1.1041 -0.8001  0.9451
15275TIP3   OH267239   1.805   0.537   3.571  0.2788 -0.2167 -0.1813
15275TIP3    H167240   1.747   0.562   3.643  0.5207  0.0704 -0.0859
15275TIP3    H267241   1.785   0.599   3.501 -1.5888 -1.8753 -1.2174
15276TIP3   OH267242   5.855   5.300  11.844  1.0090  0.5733 -0.2400
15276TIP3    H167243   5.885   5.218  11.804  0.9295  0.8990 -0.9914
15276TIP3    H267244   5.780   5.274  11.898  2.3598 -0.2009  1.3722
15277TIP3   OH267245   3.389   1.232  16.604 -0.0126 -0.6226  0.1788
15277TIP3    H167246   3.421   1.183  16.681 -0.6420  0.5960  1.2620
15277TIP3    H267247   3.325   1.293  16.640  1.2165  1.4604 -1.0211
15278TIP3   OH267248   1.556   3.797  16.315  0.5935 -0.2715  0.3616
15278TIP3    H167249   1.529   3.739  16.244 -0.0681 -0.5531  0.8380
15278TIP3    H267250   1.646   3.822  16.293  0.5018 -0.6039 -0.4084
15279TIP3   OH267251   3.641   5.686  12.749  0.2811  0.1161 -0.2447
15279TIP3    H167252   3.688   5.684  12.832 -0.3919 -0.2740  0.1375
15279TIP3    H267253   3.633   5.780  12.729  3.0745  0.2123 -1.4280
15280TIP3   OH267254   3.682   4.315  16.764  0.2501  0.2847  0.0735
15280TIP3    H167255   3.625   4.320  16.841  1.6563 -1.0270  1.2816
15280TIP3    H267256   3.768   4.344  16.796  0.1935  2.9429 -1.8726
15281TIP3   OH267257   3.419   5.710  13.882 -0.1585 -0.1511 -0.4030
15281TIP3    H167258   3.420   5.649  13.808  0.2866 -0.9175  0.2114
15281TIP3    H267259   3.506   5.701  13.921  0.4602  2.0039 -1.1715
15282TIP3   OH267260   0.954   4.710  14.795  0.0063 -0.6016 -0.1229
15282TIP3    H167261   0.905   4.645  14.845 -1.6013  0.2336 -0.5515
15282TIP3    H267262   0.986   4.771  14.862  0.0250 -0.8610  0.1109
15283TIP3   OH267263   4.425   0.861  15.899  0.0196  0.5764  0.2923
15283TIP3    H167264   4.331   0.873  15.887  0.0677  0.6682  0.0079
15283TIP3    H267265   4.447   0.916  15.974 -0.0888  0.8432  0.1298
15284TIP3   OH267266   6.315   1.337   1.971  0.3567  0.2764  0.1009
15284TIP3    H167267   6.403   1.335   2.011  1.2769  1.6308 -1.7176
15284TIP3    H267268   6.259   1.371   2.040  1.5390  0.7669  0.8563
15285TIP3   OH267269   5.426   1.658  15.887  0.2459  0.2972 -0.6558
15285TIP3    H167270   5.412   1.564  15.876  0.9434  0.2008 -0.7687
15285TIP3    H267271   5.509   1.664  15.934 -0.3276  0.8308  0.3207
15286TIP3   OH267272   1.144   5.323   4.514 -0.6491  0.3781  0.3238
15286TIP3    H167273   1.212   5.329   4.447 -1.1580  2.2988 -0.0670
15286TIP3    H267274   1.153   5.234   4.549  1.5886  0.3358 -0.2046
15287TIP3   OH267275   2.605   0.413   2.170 -0.6507  0.0343  0.0549
15287TIP3    H167276   2.551   0.409   2.091 -1.1183  1.0144  0.3166
15287TIP3    H267277   2.686   0.456   2.142  0.0952 -1.5478 -0.3673
15288TIP3   OH267278   0.113   2.156  12.515  0.0318 -0.1832  0.8425
15288TIP3    H167279   0.206   2.141  12.533  0.3681  0.7682  0.0711
15288TIP3    H267280   0.098   2.113  12.431  0.0833  0.6130  0.4097
15289TIP3   OH267281   4.978   0.871   5.725 -0.0556 -0.2447  0.3117
15289TIP3    H167282   4.929   0.951   5.705 -1.4292 -0.0797  3.6662
15289TIP3    H267283   4.934   0.803   5.674  1.0454  0.9430 -2.4937
15290TIP3   OH267284   3.851   6.414  11.900 -0.4153 -0.1463  0.2150
15290TIP3    H167285   3.878   6.496  11.941 -0.0242 -1.0259  1.8174
15290TIP3    H267286   3.922   6.353  11.922 -1.8765 -1.5399  1.2569
15291TIP3   OH267287   2.911   1.986  13.583  0.4409 -0.6113 -0.6238
15291TIP3    H167288   2.978   2.052  13.598 -0.1743 -0.4856  2.0203
15291TIP3    H267289   2.935   1.914  13.642 -0.1806 -1.8063 -1.7666
15292TIP3   OH267290   1.882   2.746   2.255 -0.4677 -0.4684  0.2957
15292TIP3    H167291   1.843   2.831   2.234 -0.6231 -0.4531  0.6501
15292TIP3    H267292   1.831   2.713   2.328 -0.8915 -1.2180 -0.3292
15293TIP3   OH267293   1.461   3.938   3.797 -0.0890  0.3615 -0.2345
15293TIP3    H167294   1.377   3.971   3.766 -1.5263 -1.3158  1.6083
15293TIP3    H267295   1.498   3.890   3.722 -1.9828 -0.9666 -0.3806
15294TIP3   OH267296   6.373   1.825   2.678 -0.4615 -0.1424 -0.0330
15294TIP3    H167297   6.398   1.812   2.586 -0.1036  0.2447  0.0106
15294TIP3    H267298   6.451   1.861   2.719 -0.0499 -1.8569  0.7982
15295TIP3   OH267299   0.919   4.492  12.707 -0.1222  0.1632 -0.2586
15295TIP3    H167300   0.946   4.584  12.709 -0.3567  0.2340 -0.2155
15295TIP3    H267301   0.897   4.475  12.616 -0.9500  0.4146 -0.1134
15296TIP3   OH267302   3.026   1.799  15.653  0.2089 -0.4085 -0.0474
15296TIP3    H167303   3.044   1.757  15.569  1.3282  1.4681 -0.8160
15296TIP3    H267304   3.111   1.804  15.697 -0.0002  0.4675  0.2854
15297TIP3   OH267305   2.259   5.557   2.334  0.4063 -0.3017 -0.0209
15297TIP3    H167306   2.264   5.652   2.325 -0.2515 -0.3189 -0.6734
15297TIP3    H267307   2.226   5.543   2.423 -0.3880  0.1203 -0.2340
15298TIP3   OH267308   5.274   2.565  12.637  0.4334 -0.2239 -0.6472
15298TIP3    H167309   5.282   2.630  12.567 -1.8824  0.1574 -0.6333
15298TIP3    H267310   5.200   2.510  12.609  1.0766 -1.6261  0.3130
15299TIP3   OH267311   6.789   4.923   3.243  0.4465  0.9643 -0.4068
15299TIP3    H167312   6.745   4.886   3.320  0.2238  1.3812 -0.3300
15299TIP3    H267313   6.880   4.895   3.251  0.4285  1.0218  0.0186
15300TIP3   OH267314   1.283   1.242   0.580  0.0279  0.0460 -0.1105
15300TIP3    H167315   1.321   1.319   0.539 -0.9747  0.5044 -0.2117
15300TIP3    H267316   1.189   1.253   0.570 -0.1406 -1.2214 -0.1648
15301TIP3   OH267317   3.384   6.152   1.257  0.0861  0.6021  0.5292
15301TIP3    H167318   3.453   6.189   1.201  3.0710 -1.4287  2.5697
15301TIP3    H267319   3.418   6.163   1.346 -1.5371 -1.8023  1.5292
15302TIP3   OH267320   4.481   0.866  15.543 -0.3994  0.3371 -0.2199
15302TIP3    H167321   4.575   0.851  15.538 -0.3796 -0.2537  1.4466
15302TIP3    H267322   4.465   0.935  15.479  1.4747  1.7810  0.7540
15303TIP3   OH267323   2.143   1.380   5.421  0.1929  0.6290  1.0164
15303TIP3    H167324   2.129   1.326   5.498 -1.4130  0.8994  0.9498
15303TIP3    H267325   2.238   1.378   5.407  0.3937 -0.3184  2.3270
15304TIP3   OH267326   2.183   4.796   1.063  0.8180  0.3705  0.0719
15304TIP3    H167327   2.168   4.860   1.133  0.3301 -0.2893  0.5753
15304TIP3    H267328   2.147   4.838   0.985 -2.2449 -0.4657  0.9189
15305TIP3   OH267329   0.337   6.492   4.774  0.0333 -0.1789  0.3425
15305TIP3    H167330   0.419   6.475   4.821 -0.1911 -0.1522  0.7494
15305TIP3    H267331   0.364   6.535   4.694  0.6075 -2.1003 -0.5590
15306TIP3   OH267332   0.487   4.096  15.813 -0.1054 -0.3066  0.2009
15306TIP3    H167333   0.483   4.001  15.816 -2.6101 -0.2578  1.0665
15306TIP3    H267334   0.566   4.119  15.862  1.2687 -1.9265 -1.1336
15307TIP3   OH267335   4.626   1.064   1.063  0.0801 -0.3224 -0.3047
15307TIP3    H167336   4.624   1.148   1.017 -0.0192  1.5547  2.8240
15307TIP3    H267337   4.535   1.037   1.066  0.1513 -0.7757 -1.6357
15308TIP3   OH267338   1.798   3.866   4.630 -0.0485 -0.1306  0.1020
15308TIP3    H167339   1.703   3.860   4.620  0.0482 -1.0008 -0.3651
15308TIP3    H267340   1.833   3.804   4.567  0.8679  0.7417 -0.2719
15309TIP3   OH267341   3.874   1.621  16.648 -0.1450 -0.4678 -0.6116
15309TIP3    H167342   3.862   1.631  16.554  3.2147 -2.2886 -1.3766
15309TIP3    H267343   3.881   1.526  16.662 -1.9259 -0.3617  1.7534
15310TIP3   OH267344   5.278   6.135  16.577  0.6546  0.0536  0.6278
15310TIP3    H167345   5.332   6.077  16.631  0.9587 -0.4279 -0.1802
15310TIP3    H267346   5.274   6.217  16.626 -0.1909 -0.7920  2.0261
15311TIP3   OH267347   1.308   4.240   6.114 -0.1278 -0.4355 -0.0528
15311TIP3    H167348   1.248   4.304   6.077 -0.1729 -0.0755  0.6500
15311TIP3    H267349   1.255   4.162   6.127  0.0589 -0.8301 -1.4631
15312TIP3   OH267350   3.389   3.401  16.183  0.3790 -0.3141  0.3466
15312TIP3    H167351   3.306   3.365  16.217  0.4731 -2.0829 -1.1283
15312TIP3    H267352   3.457   3.348  16.225  0.7826  0.9938  1.3918
15313TIP3   OH267353   0.644   0.613  16.900 -0.0771 -0.2313 -0.6249
15313TIP3    H167354   0.656   0.671  16.825 -0.6174  0.2300 -0.3568
15313TIP3    H267355   0.690   0.655  16.972 -0.0721 -0.3694 -0.5454
15314TIP3   OH267356   1.247   5.190  14.113 -0.3141  0.0169  0.1557
15314TIP3    H167357   1.236   5.181  14.018 -1.8193 -0.8834  0.3764
15314TIP3    H267358   1.258   5.100  14.144  1.5861  0.3968  0.7245
15315TIP3   OH267359   5.703   5.786  13.799 -0.6516  0.2957 -0.0049
15315TIP3    H167360   5.651   5.717  13.760 -1.4431  1.1910 -0.5764
15315TIP3    H267361   5.731   5.841  13.725  1.9219 -0.6575  0.1535
15316TIP3   OH267362   1.234   5.550  11.415 -0.2950 -0.6785 -0.2439
15316TIP3    H167363   1.254   5.641  11.438  1.1172 -0.5697 -1.7530
15316TIP3    H267364   1.198   5.555  11.327  0.0064 -1.6209 -0.4286
15317TIP3   OH267365   1.068   5.899   1.389 -0.1004 -0.0748  0.0805
15317TIP3    H167366   1.144   5.954   1.404 -0.3958  0.5754 -0.7736
15317TIP3    H267367   1.006   5.925   1.457  0.1732 -0.1351  0.3584
15318TIP3   OH267368   4.413   4.610   2.778  0.4772 -0.0055  0.1075
15318TIP3    H167369   4.492   4.627   2.727  0.6672 -1.9875 -0.3501
15318TIP3    H267370   4.344   4.602   2.712  0.2390 -0.0595  0.3614
15319TIP3   OH267371   3.970   3.625   6.507 -0.1800  0.0353  0.3721
15319TIP3    H167372   3.979   3.546   6.454 -0.1632 -0.9372  1.7715
15319TIP3    H267373   4.054   3.632   6.552 -0.3412  0.6122  0.5799
15320TIP3   OH267374   4.521   6.517   4.269 -0.1780  0.4071  0.2084
15320TIP3    H167375   4.565   6.516   4.355  2.1493  0.5696 -0.8973
15320TIP3    H267376   4.562   6.445   4.221 -1.1551  0.5727 -0.9033
15321TIP3   OH267377   1.000   4.123   3.436 -0.5288 -0.3073 -0.1016
15321TIP3    H167378   1.048   4.040   3.431 -1.4766 -0.8033 -1.7824
15321TIP3    H267379   0.926   4.111   3.378 -0.8010  1.6719 -0.2313
15322TIP3   OH267380   1.236   4.797   2.147 -0.4027  0.1008  0.2729
15322TIP3    H167381   1.271   4.721   2.193  1.2972  1.1701  0.8517
15322TIP3    H267382   1.219   4.766   2.059 -1.1987 -1.3212  0.8960
15323TIP3   OH267383   3.102   5.852   2.421 -0.3253  0.2991 -0.2840
15323TIP3    H167384   3.108   5.800   2.341  0.0514  1.4718 -1.0454
15323TIP3    H267385   3.126   5.941   2.394  1.6016  0.3940  1.4724
15324TIP3   OH267386   5.151   0.304  14.640 -0.0263 -0.0342  0.0066
15324TIP3    H167387   5.232   0.259  14.616 -0.0100 -0.4212  0.7413
15324TIP3    H267388   5.129   0.357  14.563  0.5077 -0.5113 -0.4887
15325TIP3   OH267389   3.506   4.560  15.573 -0.3321 -0.2867 -0.3657
15325TIP3    H167390   3.552   4.610  15.506 -0.4709 -1.3666 -1.2860
15325TIP3    H267391   3.552   4.582  15.655  0.3404  0.4248 -0.9216
15326TIP3   OH267392   6.366   2.667  11.872 -0.8790  0.6341 -1.1705
15326TIP3    H167393   6.326   2.744  11.832  1.9103  1.0440 -3.4529
15326TIP3    H267394   6.460   2.682  11.865 -0.1928 -1.1644  2.0840
15327TIP3   OH267395   1.280   3.471  14.545 -0.1910  0.7771  0.8066
15327TIP3    H167396   1.244   3.559  14.554  0.2162  0.9499  0.8080
15327TIP3    H267397   1.287   3.458  14.450 -2.9157 -0.3845  0.6820
15328TIP3   OH267398   3.215   2.724   2.822 -0.5517 -0.7698 -0.6272
15328TIP3    H167399   3.212   2.814   2.855 -2.2695 -0.7913 -0.6149
15328TIP3    H267400   3.219   2.734   2.727 -0.0139 -0.6834 -0.5958
15329TIP3   OH267401   5.205   1.449   3.819 -0.1196  0.5142  0.2628
15329TIP3    H167402   5.118   1.440   3.780 -0.3238  0.2201  0.7772
15329TIP3    H267403   5.250   1.513   3.763 -0.7101  0.7648  0.0678
15330TIP3   OH267404   0.841   0.375  12.524  0.2048 -0.0974  0.2289
15330TIP3    H167405   0.925   0.332  12.539  1.1317  1.7183  0.4668
15330TIP3    H267406   0.810   0.401  12.610  0.2119  0.6838  0.0076
15331TIP3   OH267407   5.960   4.672   1.294 -0.3473  0.3352 -0.2802
15331TIP3    H167408   5.892   4.691   1.359 -0.0005 -1.6731  0.7288
15331TIP3    H267409   6.035   4.724   1.323 -1.0047  1.5762 -0.6850
15332TIP3   OH267410   3.192   1.407  11.464 -0.4910  0.0414 -0.5609
15332TIP3    H167411   3.197   1.437  11.374  0.1733  0.3927 -0.4137
15332TIP3    H267412   3.282   1.386  11.488 -0.8669 -1.6341 -0.4976
15333TIP3   OH267413   6.658   6.130   4.475  1.1765 -0.2337  0.1839
15333TIP3    H167414   6.691   6.063   4.415 -1.2463  0.0145 -1.5874
15333TIP3    H267415   6.630   6.201   4.417 -0.1968  0.5193  1.7055
15334TIP3   OH267416   1.234   1.148   5.224 -0.0886  0.2991 -0.0144
15334TIP3    H167417   1.304   1.132   5.288  2.2790  1.1701 -2.2402
15334TIP3    H267418   1.230   1.243   5.217  0.3261  0.2096 -1.7802
15335TIP3   OH267419   2.337   0.103   2.596  0.5206  0.7373 -0.0666
15335TIP3    H167420   2.278   0.095   2.671  0.3853 -0.5839 -0.2933
15335TIP3    H267421   2.327   0.194   2.568 -1.0090  0.6947  0.2347
15336TIP3   OH267422   4.967   0.055  10.965 -0.3994 -0.3480  0.5620
15336TIP3    H167423   4.905   0.050  11.038  1.4227 -0.3846  2.1738
15336TIP3    H267424   4.923   0.111  10.901 -2.0948 -0.3660  1.6366
15337TIP3   OH267425   3.074   6.774  11.440  0.3637  0.3734  0.2321
15337TIP3    H167426   3.017   6.851  11.442 -0.1682  0.3539 -4.2857
15337TIP3    H267427   3.155   6.805  11.401  1.3465 -0.7931  1.2479
15338TIP3   OH267428   2.145   2.499   4.439 -0.2633 -0.1403 -0.2431
15338TIP3    H167429   2.071   2.483   4.497 -1.7890  2.1013 -1.4015
15338TIP3    H267430   2.120   2.457   4.356  0.1675 -0.1448 -0.3717
15339TIP3   OH267431   6.724   1.670  15.962 -0.3585  0.2187 -0.0857
15339TIP3    H167432   6.715   1.656  15.868  1.0705 -2.8413  0.1138
15339TIP3    H267433   6.640   1.642  15.999 -0.2121 -0.5955 -0.3397
15340TIP3   OH267434   5.361   3.370   0.254 -0.6161 -0.1217  0.5250
15340TIP3    H167435   5.303   3.375   0.330 -0.5361  0.4799  0.5500
15340TIP3    H267436   5.353   3.280   0.224 -1.1597 -0.1865  0.8468
15341TIP3   OH267437   1.328   3.086   1.745 -0.6767 -0.6049 -0.1026
15341TIP3    H167438   1.420   3.107   1.730 -1.4324  3.0296 -0.4839
15341TIP3    H267439   1.295   3.059   1.660 -0.7536  1.8360 -0.9089
15342TIP3   OH267440   2.370   1.086  11.592  0.1496 -0.5614  0.2897
15342TIP3    H167441   2.355   1.099  11.498  0.1591 -0.7014  0.2685
15342TIP3    H267442   2.332   1.164  11.633  0.3911 -0.3695  0.1509
15343TIP3   OH267443   0.199   5.184  17.127  0.1306 -0.0112 -0.2527
15343TIP3    H167444   0.277   5.162  17.076  0.8596 -0.8432  1.1496
15343TIP3    H267445   0.171   5.101  17.165 -0.5274  0.5366  0.4891
15344TIP3   OH267446   4.586   4.192   1.018 -0.1892  0.0051  0.4608
15344TIP3    H167447   4.492   4.199   1.002 -0.2595 -2.4603 -0.7595
15344TIP3    H267448   4.595   4.111   1.068  1.0491  2.1261  4.0293
15345TIP3   OH267449   3.599   2.850  17.273  0.1629  0.5977 -0.2791
15345TIP3    H167450   3.607   2.857  17.368 -0.5018  0.5141 -0.2113
15345TIP3    H267451   3.680   2.889  17.239  0.2657  0.9126  0.3122
15346TIP3   OH267452   5.886   3.705   4.914  0.1664 -0.1800 -0.2523
15346TIP3    H167453   5.846   3.666   4.992 -1.1004  1.3746 -0.0867
15346TIP3    H267454   5.820   3.765   4.880  1.9396  1.7135 -0.5862
15347TIP3   OH267455   3.376   4.395  14.069  0.1213 -0.5139  0.1638
15347TIP3    H167456   3.382   4.454  13.993  0.8203  0.5842  1.0396
15347TIP3    H267457   3.282   4.378  14.078 -0.1707  0.9643  0.2276
15348TIP3   OH267458   5.455   2.528  15.629  0.8398 -0.1072  0.3900
15348TIP3    H167459   5.541   2.553  15.597  0.2161  0.7783 -0.6348
15348TIP3    H267460   5.415   2.610  15.658 -0.0257 -0.3621 -0.0458
15349TIP3   OH267461   5.111   4.982   0.875 -0.1603 -0.2839 -0.4956
15349TIP3    H167462   5.196   4.943   0.898 -0.4948 -0.6544  0.1405
15349TIP3    H267463   5.130   5.036   0.798  0.8721  0.5141  0.2882
15350TIP3   OH267464   1.946   6.430   2.786 -0.1019  0.4252  0.5235
15350TIP3    H167465   1.956   6.522   2.763  0.6994 -0.1470 -1.6766
15350TIP3    H267466   1.976   6.382   2.708 -0.5542 -1.6976  1.5721
15351TIP3   OH267467   6.016   5.629  11.806 -0.5700  0.1664 -0.1688
15351TIP3    H167468   6.000   5.589  11.721 -0.2200  0.0026 -0.1603
15351TIP3    H267469   6.084   5.694  11.790 -0.1772 -0.1798  0.0651
15352TIP3   OH267470   0.251   6.017   4.438  0.3184  0.5046  0.0335
15352TIP3    H167471   0.213   6.100   4.465 -0.4362 -0.1086  0.9116
15352TIP3    H267472   0.176   5.958   4.429  1.0016 -0.6622  1.5236
15353TIP3   OH267473   4.925   4.530   0.021  0.0920  0.4232 -0.0530
15353TIP3    H167474   4.887   4.470  -0.043 -0.5926  0.1130  0.6371
15353TIP3    H267475   5.012   4.551  -0.015 -0.1383 -0.0244 -0.8975
15354TIP3   OH267476   4.064   6.610   0.201  0.4331  0.7496  0.0687
15354TIP3    H167477   4.078   6.569   0.116 -0.5822 -0.7591  0.5998
15354TIP3    H267478   3.977   6.651   0.194  0.2118  0.3575  0.4709
15355TIP3   OH267479   5.770   4.215  15.457 -0.6671  0.3944 -0.9039
15355TIP3    H167480   5.678   4.196  15.477 -0.3917 -1.2390 -1.0429
15355TIP3    H267481   5.790   4.162  15.380  0.2386  1.1835 -1.2320
15356TIP3   OH267482   2.688   5.655   5.040 -0.3491 -0.6591  0.5311
15356TIP3    H167483   2.706   5.746   5.017 -2.3929 -0.4711 -0.5383
15356TIP3    H267484   2.670   5.658   5.134 -2.8701  0.5497  0.0994
15357TIP3   OH267485   2.247   0.287  16.338  0.2545  0.2748 -0.2327
15357TIP3    H167486   2.198   0.363  16.305  0.4970  1.1722  1.3828
15357TIP3    H267487   2.337   0.304  16.310  0.1099 -0.0459 -0.9184
15358TIP3   OH267488   5.091   4.000  10.870  1.2078  0.2792 -0.3190
15358TIP3    H167489   5.060   4.080  10.912 -3.4598 -0.2397 -2.2694
15358TIP3    H267490   5.136   4.031  10.791  0.8738  0.9924 -0.2414
15359TIP3   OH267491   3.060   1.124   6.707 -0.7204  0.1158 -0.5632
15359TIP3    H167492   3.117   1.122   6.783  0.2277  1.5968 -1.1858
15359TIP3    H267493   3.066   1.035   6.670  3.6293  0.8712 -2.2823
15360TIP3   OH267494   3.158   5.540  13.452 -0.0586 -0.2146 -0.3085
15360TIP3    H167495   3.136   5.471  13.514 -2.1839  1.4063  0.8859
15360TIP3    H267496   3.093   5.531  13.382  0.3086 -0.0593 -0.6718
15361TIP3   OH267497   2.515   2.157  13.340 -0.5038 -0.3090  0.7089
15361TIP3    H167498   2.581   2.106  13.293  0.2083  2.1837 -1.1806
15361TIP3    H267499   2.432   2.114  13.320  0.1840 -1.4971  0.3117
15362TIP3   OH267500   6.481   1.167   3.769 -0.0779 -0.1436 -0.5185
15362TIP3    H167501   6.574   1.182   3.750 -0.2877 -0.3416 -1.8340
15362TIP3    H267502   6.459   1.088   3.720 -1.2748  0.7167 -1.4176
15363TIP3   OH267503   5.397   4.100   1.900  0.2209  0.1753  0.7904
15363TIP3    H167504   5.360   4.185   1.876  0.7344 -0.1711 -1.3818
15363TIP3    H267505   5.333   4.037   1.867 -0.1043 -0.3286  2.2965
15364TIP3   OH267506   4.848   5.938  15.373 -0.1395 -0.4236  0.2896
15364TIP3    H167507   4.845   5.977  15.460 -0.5543 -1.3676  0.7212
15364TIP3    H267508   4.940   5.921  15.357 -0.0684 -0.3293  0.5909
15365TIP3   OH267509   6.332   5.709   0.061  0.1913  0.5134 -0.4862
15365TIP3    H167510   6.418   5.676   0.085  0.4154  1.0022 -0.6088
15365TIP3    H267511   6.333   5.714  -0.034  0.2032  0.9877 -0.4620
15366TIP3   OH267512   4.446   5.201   0.431  0.2344 -0.4510  0.1189
15366TIP3    H167513   4.443   5.295   0.449  1.4478 -0.5753  1.1032
15366TIP3    H267514   4.531   5.187   0.390 -0.6008 -0.9042 -1.5392
15367TIP3   OH267515   3.239   3.375  12.557  0.0211 -0.5307  0.4175
15367TIP3    H167516   3.168   3.382  12.493  0.5869 -1.4024 -0.3407
15367TIP3    H267517   3.200   3.330  12.632 -1.0123  1.7119  1.3046
15368TIP3   OH267518   2.352   4.655  11.840 -0.3471  0.0812  0.1742
15368TIP3    H167519   2.278   4.595  11.850 -1.1699  1.1851  1.0277
15368TIP3    H267520   2.347   4.685  11.749  2.7873 -4.4627 -1.8569
15369TIP3   OH267521   3.463   6.503  14.825 -0.7864 -0.2042  0.0977
15369TIP3    H167522   3.381   6.459  14.843 -0.5771  0.0864  1.9573
15369TIP3    H267523   3.494   6.533  14.910  0.6015  0.8393 -0.7173
15370TIP3   OH267524   1.314   5.569  17.073  0.0117 -0.2392 -0.6690
15370TIP3    H167525   1.260   5.647  17.085  0.0704  0.0009 -1.8225
15370TIP3    H267526   1.363   5.587  16.993  0.3096 -1.3048 -0.7352
15371TIP3   OH267527   4.452   2.731   5.969  0.2420 -0.1996  0.0666
15371TIP3    H167528   4.495   2.716   5.885  2.6263  0.3237  1.1190
15371TIP3    H267529   4.451   2.827   5.978  0.6669 -0.2718  0.9463
15372TIP3   OH267530   5.105   1.988   2.383 -0.2384 -0.2423  0.0983
15372TIP3    H167531   5.121   2.082   2.383  1.4019 -0.4998  0.7832
15372TIP3    H267532   5.043   1.975   2.455 -0.1486  0.2542  0.2724
15373TIP3   OH267533   4.295   4.964  16.862  0.8735  0.0306  0.6002
15373TIP3    H167534   4.382   4.976  16.901  0.5979  1.0565  0.9347
15373TIP3    H267535   4.289   4.870  16.846  1.8756 -0.1143  0.9721
15374TIP3   OH267536   6.697   3.351   3.867 -0.0249  0.8081 -0.3305
15374TIP3    H167537   6.788   3.321   3.878 -0.1040 -0.3369 -2.3753
15374TIP3    H267538   6.705   3.432   3.818 -0.1165  0.4994 -0.8595
15375TIP3   OH267539   1.350   1.139   0.815 -0.6749 -0.0616 -0.7304
15375TIP3    H167540   1.290   1.087   0.868  0.0162  0.5991  0.7815
15375TIP3    H267541   1.299   1.165   0.738 -1.8443 -0.7208 -0.2007
15376TIP3   OH267542   4.800   3.219  13.413  0.0396  0.2018  0.4929
15376TIP3    H167543   4.865   3.283  13.441  0.3638  0.2516 -0.3713
15376TIP3    H267544   4.849   3.153  13.365 -0.4201 -0.2477  0.6302
15377TIP3   OH267545   2.590   3.632   3.012  0.4757  0.1115  0.4118
15377TIP3    H167546   2.634   3.599   3.090 -2.3241  0.0481  2.1199
15377TIP3    H267547   2.509   3.671   3.045 -0.3819  0.9716 -2.3979
15378TIP3   OH267548   6.113   0.675  14.003  0.3017  0.5613 -0.5608
15378TIP3    H167549   6.057   0.706  13.931 -0.1439  0.0932 -0.4242
15378TIP3    H267550   6.164   0.752  14.028  1.2664  0.4720 -2.0991
15379TIP3   OH267551   2.416   5.828   2.507  0.2291 -0.3882 -0.0863
15379TIP3    H167552   2.346   5.827   2.443 -0.1018 -0.8760  0.2743
15379TIP3    H267553   2.479   5.763   2.475  1.1776  0.9971 -1.1165
15380TIP3   OH267554   6.217   0.249   2.586 -0.8375  0.0108  0.3081
15380TIP3    H167555   6.208   0.198   2.506  2.3337 -0.9883  0.4286
15380TIP3    H267556   6.291   0.308   2.569  0.5023 -0.8311  2.7115
15381TIP3   OH267557   1.423   4.774   4.003 -0.3559 -0.0252  0.2806
15381TIP3    H167558   1.498   4.799   3.948  0.2090 -0.4715  0.8463
15381TIP3    H267559   1.461   4.745   4.085 -1.1173 -0.9222  0.3287
15382TIP3   OH267560   1.825   2.844   4.212 -0.1009 -0.1812  0.3894
15382TIP3    H167561   1.920   2.834   4.202  0.0040  1.3871 -0.3278
15382TIP3    H267562   1.789   2.817   4.128 -0.6270 -3.9442  1.6318
15383TIP3   OH267563   3.888   3.222   3.570 -0.2153  0.2056 -0.0193
15383TIP3    H167564   3.864   3.153   3.633  1.5121  0.4070  0.9281
15383TIP3    H267565   3.852   3.192   3.487 -0.4171 -1.3150  0.5791
15384TIP3   OH267566   5.282   6.021   1.852  0.0589  0.6253 -0.0233
15384TIP3    H167567   5.198   5.975   1.848  0.5975 -0.3842 -0.3626
15384TIP3    H267568   5.347   5.953   1.833  0.9322  1.4520 -0.0947
15385TIP3   OH267569   0.192   3.430  16.228 -0.5446 -0.2111 -0.3051
15385TIP3    H167570   0.260   3.363  16.240 -1.4859 -1.1164  0.1759
15385TIP3    H267571   0.147   3.433  16.313 -1.9086 -0.5486 -0.9931
15386TIP3   OH267572   6.749   4.680  16.102 -0.3964  0.1072  0.1811
15386TIP3    H167573   6.678   4.667  16.165  0.0243 -2.2807  0.2665
15386TIP3    H267574   6.706   4.681  16.017 -0.7272  0.9049  0.3485
15387TIP3   OH267575   0.098   5.749   6.148  0.4354  0.2414 -0.1922
15387TIP3    H167576   0.097   5.667   6.197  1.5106  0.2428 -0.1549
15387TIP3    H267577   0.175   5.744   6.092  0.5422  1.2378 -0.1634
15388TIP3   OH267578   4.941   3.827   4.711  0.5055 -0.3386  0.4435
15388TIP3    H167579   4.903   3.760   4.768  1.5106 -1.9685 -0.7121
15388TIP3    H267580   4.867   3.860   4.660  0.1689 -1.3921  0.2306
15389TIP3   OH267581   0.935   2.996  14.508 -0.3757  0.4335 -0.5175
15389TIP3    H167582   0.881   3.032  14.579 -1.5716  0.3819 -1.3755
15389TIP3    H267583   1.003   3.061  14.495  1.1062 -0.4709  2.0242
15390TIP3   OH267584   5.234   1.016   0.185  0.2598  0.6928  0.0427
15390TIP3    H167585   5.171   1.084   0.211  1.5502  2.4595 -1.2589
15390TIP3    H267586   5.317   1.062   0.177  1.0511 -0.9038 -1.5641
15391TIP3   OH267587   3.183   5.003   0.705 -0.3293 -0.0243 -0.2664
15391TIP3    H167588   3.112   4.953   0.663  0.0075  0.1633 -1.0684
15391TIP3    H267589   3.185   4.969   0.795 -1.7161  0.2574 -0.0992
15392TIP3   OH267590   3.256   0.706   1.913  0.3609  0.0634 -0.1440
15392TIP3    H167591   3.252   0.648   1.989 -1.0706 -0.5850 -0.6703
15392TIP3    H267592   3.238   0.649   1.838 -2.0249  1.2567 -0.5924
15393TIP3   OH267593   0.971   4.456  15.720 -0.1571  0.6050 -0.3195
15393TIP3    H167594   0.977   4.474  15.814  2.5747  1.0220 -0.4819
15393TIP3    H267595   1.041   4.509  15.681  0.8680 -1.8971 -2.1958
15394TIP3   OH267596   5.801   6.752   0.055  0.7731 -0.8043 -0.1569
15394TIP3    H167597   5.858   6.753   0.132  1.1712 -0.6257 -0.4542
15394TIP3    H267598   5.787   6.845   0.035  2.8702 -0.7837 -1.9188
15395TIP3   OH267599   1.147   4.193   3.105 -0.0398  0.0089  0.7350
15395TIP3    H167600   1.169   4.104   3.079 -0.9697  0.1378 -0.5956
15395TIP3    H267601   1.160   4.194   3.200  1.7532 -1.0002  0.5448
15396TIP3   OH267602   3.153   3.303  10.952 -0.0638  0.2083  0.0274
15396TIP3    H167603   3.186   3.351  11.028 -1.1337 -0.6443  1.0709
15396TIP3    H267604   3.215   3.323  10.882  0.1257  2.2277  0.7076
15397TIP3   OH267605   3.991   3.416   1.089 -0.3147 -0.3904  0.2273
15397TIP3    H167606   4.065   3.457   1.044  0.0405 -1.1554  0.0953
15397TIP3    H267607   3.916   3.433   1.031  0.0660 -1.0400 -0.4751
15398TIP3   OH267608   0.811   0.615   3.824 -0.0374  0.3872  0.3502
15398TIP3    H167609   0.768   0.621   3.909 -0.5326  1.6688  0.0384
15398TIP3    H267610   0.891   0.565   3.840 -1.5186 -1.9193  0.9899
15399TIP3   OH267611   6.638   5.577  10.777  0.3538  0.1308 -0.1437
15399TIP3    H167612   6.640   5.494  10.729 -1.5681 -0.0798  0.0528
15399TIP3    H267613   6.666   5.554  10.865 -0.6351 -0.4324  0.0408
15400TIP3   OH267614   0.800   1.238  15.119 -0.7633 -0.6374 -0.1943
15400TIP3    H167615   0.757   1.306  15.171 -0.3890 -1.3029  1.0349
15400TIP3    H267616   0.748   1.231  15.039 -1.9799 -0.2956  0.5485
15401TIP3   OH267617   1.114   4.366  13.500  0.3515  0.2523  0.2111
15401TIP3    H167618   1.099   4.272  13.514  1.2597 -0.0923 -0.9857
15401TIP3    H267619   1.026   4.403  13.491  0.0016 -0.5753  0.0913
15402TIP3   OH267620   5.660   5.171   4.104  0.1907 -0.5028  0.1216
15402TIP3    H167621   5.634   5.080   4.119  1.8836 -1.2063 -0.9407
15402TIP3    H267622   5.709   5.195   4.183  1.2193 -1.1120 -0.3147
15403TIP3   OH267623   6.201   0.886   0.648  0.4891  0.1844  0.6338
15403TIP3    H167624   6.211   0.939   0.726 -0.9304  1.2119  0.1610
15403TIP3    H267625   6.279   0.903   0.596  1.1035  0.0325  1.5035
15404TIP3   OH267626   5.364   3.168   5.528  0.1297 -0.2986  0.4094
15404TIP3    H167627   5.363   3.128   5.615 -1.2253 -0.2914  0.4221
15404TIP3    H267628   5.294   3.234   5.532  0.2440 -0.1047 -0.6039
15405TIP3   OH267629   1.735   0.644  13.218  0.8401 -0.2906 -0.4065
15405TIP3    H167630   1.787   0.723  13.233  2.7972 -1.5339 -0.4114
15405TIP3    H267631   1.799   0.574  13.204 -0.8286 -1.7201 -1.4089
15406TIP3   OH267632   4.214   1.654   5.716  0.1188  0.4642 -0.0642
15406TIP3    H167633   4.205   1.696   5.802 -0.4389  0.6722 -0.2154
15406TIP3    H267634   4.243   1.565   5.736 -1.7822 -0.0870  0.4741
15407TIP3   OH267635   0.604   4.176  14.878 -0.5317 -0.6765 -0.5549
15407TIP3    H167636   0.530   4.230  14.848 -0.5453 -1.0097 -1.1482
15407TIP3    H267637   0.563   4.104  14.926 -0.4227  0.8761  2.0092
15408TIP3   OH267638   6.219   0.997   3.694  0.4521 -0.5472  0.0001
15408TIP3    H167639   6.267   0.947   3.760  1.3364  1.3134  0.8415
15408TIP3    H267640   6.145   1.035   3.741 -0.8376 -1.8825 -0.8752
15409TIP3   OH267641   3.055   0.646  14.034  0.3537 -0.3482 -0.2512
15409TIP3    H167642   3.014   0.707  13.973  0.6456 -0.4280 -0.5258
15409TIP3    H267643   2.981   0.602  14.077  0.1416 -0.9872 -1.2374
15410TIP3   OH267644   5.662   5.335  14.713  0.1832 -0.0290 -0.2247
15410TIP3    H167645   5.738   5.283  14.741  1.3227  1.0728 -1.1799
15410TIP3    H267646   5.605   5.273  14.668  0.0715 -1.0549  1.2603
15411TIP3   OH267647   2.470   4.364   0.547  0.2865 -0.0707  0.1244
15411TIP3    H167648   2.458   4.408   0.463  0.6092  1.0290  0.6329
15411TIP3    H267649   2.565   4.351   0.553  0.1868 -0.8975 -0.0446
15412TIP3   OH267650   3.496   0.834  11.424 -0.1237 -0.4641  0.1205
15412TIP3    H167651   3.436   0.760  11.433 -0.8825  0.1923  0.5411
15412TIP3    H267652   3.488   0.882  11.507  2.2210 -1.2542  0.8949
15413TIP3   OH267653   6.723   4.280   2.612 -0.1929 -0.0838 -0.7250
15413TIP3    H167654   6.729   4.362   2.661 -0.3382 -0.2248 -0.4683
15413TIP3    H267655   6.652   4.232   2.653  1.1011 -1.1551  0.3639
15414TIP3   OH267656   3.150   2.046  15.560 -0.3423 -0.1598  0.0195
15414TIP3    H167657   3.103   2.043  15.643  0.8965 -1.7740  0.7165
15414TIP3    H267658   3.094   1.999  15.499 -0.9439  0.4365  0.1052
15415TIP3   OH267659   1.597   6.595   0.777  0.4736  0.0662  0.4100
15415TIP3    H167660   1.673   6.635   0.819  1.4255 -0.0951 -1.0996
15415TIP3    H267661   1.623   6.505   0.761  0.2696  0.2036 -0.7833
15416TIP3   OH267662   6.431   3.857  11.113 -0.0277 -0.4816  0.3121
15416TIP3    H167663   6.367   3.794  11.081 -0.2855 -0.0174 -0.1000
15416TIP3    H267664   6.382   3.938  11.123  0.7984  0.2749 -1.4203
15417TIP3   OH267665   5.883   1.200  15.371  0.6323 -0.4394  0.1464
15417TIP3    H167666   5.840   1.128  15.327  1.0187 -1.3204  1.1571
15417TIP3    H267667   5.948   1.158  15.428 -0.4895  0.5539  2.2826
15418TIP3   OH267668   3.383   1.472   1.686 -0.4400 -0.5357  0.0163
15418TIP3    H167669   3.409   1.491   1.776 -0.5689 -0.1567 -0.0224
15418TIP3    H267670   3.463   1.483   1.635 -0.7940  1.4250 -0.2170
15419TIP3   OH267671   2.676   4.139  13.539 -0.3479 -0.6130 -0.2806
15419TIP3    H167672   2.617   4.138  13.463  1.0736 -3.2278 -1.4908
15419TIP3    H267673   2.714   4.051  13.541 -0.0390 -0.5469  3.3039
15420TIP3   OH267674   0.045   6.432  12.429  0.2359 -0.7933 -0.6175
15420TIP3    H167675   0.036   6.410  12.521  1.8528  1.6666  0.2123
15420TIP3    H267676   0.115   6.374  12.397 -0.3949 -1.7144 -0.3685
15421TIP3   OH267677   3.885   1.435  17.029 -0.4463  0.2340  0.4679
15421TIP3    H167678   3.826   1.470  17.096 -0.7439 -0.4903  0.6000
15421TIP3    H267679   3.958   1.496  17.026 -1.3168  1.3006  0.1313
15422TIP3   OH267680   5.197   5.445   0.974  0.2209 -0.1448  0.3226
15422TIP3    H167681   5.112   5.403   0.986 -0.6358  0.5041 -2.6294
15422TIP3    H267682   5.178   5.525   0.924  2.5542 -0.1107 -0.6731
15423TIP3   OH267683   6.284   2.387  16.655  0.6448 -0.1502  0.0034
15423TIP3    H167684   6.207   2.431  16.691 -0.7813  0.6962 -3.6684
15423TIP3    H267685   6.275   2.296  16.682 -1.9320 -0.1627 -0.7062
15424TIP3   OH267686   3.424   4.052   2.081  0.1751  0.1503 -0.2182
15424TIP3    H167687   3.403   4.080   1.992 -0.6764  0.9545  0.2274
15424TIP3    H267688   3.510   4.010   2.072 -0.3007 -0.6231 -1.5717
15425TIP3   OH267689   2.469   6.131   5.648 -0.3304 -0.1289 -0.0833
15425TIP3    H167690   2.545   6.169   5.692  0.1333  0.2389 -1.1589
15425TIP3    H267691   2.453   6.048   5.694  1.0780 -0.4881 -0.2006
15426TIP3   OH267692   4.047   5.871  16.276 -0.5374  0.2620 -0.0725
15426TIP3    H167693   3.959   5.834  16.264 -0.9763  0.2927  2.5333
15426TIP3    H267694   4.105   5.797  16.260 -1.0970 -0.0776 -0.6050
15427TIP3   OH267695   5.353   0.251  16.113 -0.0150 -0.7888  0.6698
15427TIP3    H167696   5.395   0.284  16.192  0.9401 -0.7645  0.1681
15427TIP3    H267697   5.407   0.176  16.087  1.2692  0.7274 -1.3751
15428TIP3   OH267698   0.501   2.046   5.923  0.1474  0.2936 -0.5445
15428TIP3    H167699   0.594   2.025   5.914 -0.0784 -0.4587 -1.2238
15428TIP3    H267700   0.497   2.108   5.996  1.0736 -0.4431  0.1466
15429TIP3   OH267701   2.396   1.212   3.442  0.1924 -0.0445  0.3726
15429TIP3    H167702   2.469   1.271   3.426  1.5495 -0.9736  2.6397
15429TIP3    H267703   2.357   1.244   3.523  0.0466 -1.3826  0.8520
15430TIP3   OH267704   1.739   5.993   4.093 -0.3118  0.0277  0.0917
15430TIP3    H167705   1.677   5.993   4.166 -0.1451  1.1262  0.2573
15430TIP3    H267706   1.788   6.074   4.104  0.0934 -0.0685 -0.9291
15431TIP3   OH267707   3.334   5.067  14.401  0.3787 -0.5594 -0.2837
15431TIP3    H167708   3.341   4.971  14.401 -0.7932 -0.6635 -0.0906
15431TIP3    H267709   3.398   5.096  14.466 -0.5202 -1.3481  1.0148
15432TIP3   OH267710   4.967   0.056   2.622 -0.1766 -0.1135  0.7943
15432TIP3    H167711   5.005   0.103   2.548  2.1303  0.5884  2.3194
15432TIP3    H267712   5.034  -0.007   2.647 -1.1942 -0.8102  1.8649
15433TIP3   OH267713   5.548   3.475  15.684  0.7762  0.5208 -0.4991
15433TIP3    H167714   5.520   3.519  15.764  0.7811  1.3166 -0.9176
15433TIP3    H267715   5.589   3.545  15.632 -0.1905  0.2596 -1.6588
15434TIP3   OH267716   4.717   0.791  13.720  0.2109  0.3361  0.0423
15434TIP3    H167717   4.649   0.823  13.779 -1.8033  1.0864 -2.4851
15434TIP3    H267718   4.680   0.712  13.680  0.6673  0.8949 -1.5797
15435TIP3   OH267719   3.172   4.315  16.987 -0.0697 -0.2392 -0.0911
15435TIP3    H167720   3.263   4.342  16.973  0.1092 -0.4490  0.6324
15435TIP3    H267721   3.177   4.220  16.993  0.0291 -0.1520  2.2959
15436TIP3   OH267722   4.114   1.845  14.497  0.0556  0.3924  0.1906
15436TIP3    H167723   4.205   1.817  14.512 -0.0454  0.0074  0.1079
15436TIP3    H267724   4.121   1.931  14.456  0.4268 -0.3085 -1.2988
15437TIP3   OH267725   0.720   4.738  12.521  0.5689  0.0545 -0.3662
15437TIP3    H167726   0.697   4.800  12.451  0.1315 -1.1169 -1.2919
15437TIP3    H267727   0.675   4.772  12.598  0.5431  1.0272 -0.7892
15438TIP3   OH267728   0.145   2.278   4.412  0.5514 -0.0197  0.4660
15438TIP3    H167729   0.105   2.249   4.494  2.2399 -0.4577  1.1772
15438TIP3    H267730   0.174   2.368   4.431  0.0758  0.2308  0.0188
15439TIP3   OH267731   4.038   6.550   2.424  0.0997 -0.4568  0.2998
15439TIP3    H167732   3.947   6.566   2.399  0.5523 -0.9450 -1.8177
15439TIP3    H267733   4.089   6.582   2.350  1.6074 -1.0128  1.0637
15440TIP3   OH267734   4.578   4.363   4.525 -0.2422 -0.2093 -0.0279
15440TIP3    H167735   4.586   4.447   4.570 -1.3940  0.6099 -1.2549
15440TIP3    H267736   4.499   4.324   4.562 -1.0801  0.3776 -1.1386
15441TIP3   OH267737   4.113   1.215  10.341  0.2890 -0.1693  0.3771
15441TIP3    H167738   4.126   1.306  10.369 -0.4900  0.4977 -1.2908
15441TIP3    H267739   4.133   1.216  10.248  0.0408 -1.6787  0.2877
15442TIP3   OH267740   6.788   2.584  16.677 -0.2163 -0.4524  0.0700
15442TIP3    H167741   6.841   2.572  16.599  1.4212  0.0737  1.0389
15442TIP3    H267742   6.715   2.639  16.649  0.7508  0.3607 -0.9245
15443TIP3   OH267743   4.097   2.674  14.284  0.7601  0.6833 -0.7642
15443TIP3    H167744   4.017   2.696  14.333  1.2518 -0.6083  0.7239
15443TIP3    H267745   4.159   2.742  14.308  0.6263  0.7267 -0.5359
15444TIP3   OH267746   0.042   3.063  11.128  0.5002  0.2309 -0.2456
15444TIP3    H167747   0.071   3.154  11.131 -1.3290  0.8435 -0.0957
15444TIP3    H267748   0.077   3.030  11.046  0.5662  1.2835 -0.6602
15445TIP3   OH267749   4.314   4.814  13.606 -0.8108  0.7207 -0.0657
15445TIP3    H167750   4.224   4.784  13.592 -0.1503 -1.4905  0.0486
15445TIP3    H267751   4.321   4.892  13.551 -3.1414  1.7341  0.9045
15446TIP3   OH267752   6.326   2.554  15.992 -0.1231 -0.2953  0.0661
15446TIP3    H167753   6.375   2.472  15.995  1.8899  0.8575  3.2781
15446TIP3    H267754   6.285   2.561  16.079 -1.1848  1.5793 -0.5141
15447TIP3   OH267755   5.729   1.861  12.157  0.7567  0.0017  0.2550
15447TIP3    H167756   5.744   1.831  12.247  0.3503 -0.3818  0.1942
15447TIP3    H267757   5.753   1.785  12.103  0.1889 -0.0493  0.0787
15448TIP3   OH267758   1.231   1.588   0.350 -0.4520  0.0911 -0.0791
15448TIP3    H167759   1.190   1.571   0.435 -0.5665 -0.6105 -0.2651
15448TIP3    H267760   1.183   1.663   0.315 -0.4690  0.3223  0.4298
15449TIP3   OH267761   6.785   4.946   1.627  0.2220 -0.0769 -0.4328
15449TIP3    H167762   6.859   4.891   1.650  0.1267  0.6283  1.7661
15449TIP3    H267763   6.709   4.888   1.633  0.4644 -0.5206 -1.5547
15450TIP3   OH267764   3.949   0.181   4.960  0.0612 -0.3015 -0.2913
15450TIP3    H167765   3.909   0.179   5.047 -0.0372 -2.0919 -0.3385
15450TIP3    H267766   4.036   0.142   4.974  1.0691  1.7166 -0.5593
15451TIP3   OH267767   0.744   0.133  16.805 -0.2367 -0.4086 -0.1943
15451TIP3    H167768   0.714   0.201  16.746  0.5818 -0.3647 -0.5797
15451TIP3    H267769   0.679   0.132  16.876  0.0985  1.2728  0.1932
15452TIP3   OH267770   6.523   0.964   4.181  0.2555 -0.2417  0.2102
15452TIP3    H167771   6.543   0.870   4.183 -1.2091 -0.6735 -1.8845
15452TIP3    H267772   6.427   0.968   4.176  0.3452  1.2689 -1.2491
15453TIP3   OH267773   4.040   0.783  15.637  0.2322  0.3880 -0.2315
15453TIP3    H167774   4.104   0.760  15.704 -0.6338  0.0656  0.5026
15453TIP3    H267775   4.029   0.878  15.647  1.1538  0.5790 -0.8821
15454TIP3   OH267776   0.460   5.642   6.168 -0.8588  0.3556 -0.4827
15454TIP3    H167777   0.410   5.629   6.249 -0.4442 -0.2968 -0.3291
15454TIP3    H267778   0.551   5.648   6.196 -0.7242  0.2371 -0.8849
15455TIP3   OH267779   1.398   3.103   3.487 -0.1544 -0.3980  0.3276
15455TIP3    H167780   1.377   3.010   3.487  0.2885 -0.5137  1.6356
15455TIP3    H267781   1.473   3.111   3.427 -1.4875 -0.5255 -1.4587
15456TIP3   OH267782   4.821   6.136   4.993 -0.7617  0.4861 -0.4932
15456TIP3    H167783   4.827   6.197   4.920 -1.1731  0.3131 -0.6777
15456TIP3    H267784   4.727   6.128   5.009 -0.6725  0.5302  0.0619
15457TIP3   OH267785   0.512   0.484   5.379  0.3471 -0.1195 -0.1674
15457TIP3    H167786   0.598   0.511   5.347  1.0912  0.0785  1.8524
15457TIP3    H267787   0.486   0.553   5.440 -1.7561  0.3402 -1.4836
15458TIP3   OH267788   3.443   2.629  14.818  0.1210  0.4605 -0.4198
15458TIP3    H167789   3.469   2.617  14.910  1.8747  0.5527 -0.8665
15458TIP3    H267790   3.526   2.634  14.771 -0.7428  1.4289 -1.8953
15459TIP3   OH267791   1.654   0.160  15.071  0.2715  0.5375 -0.3503
15459TIP3    H167792   1.679   0.153  15.163  0.6383 -2.0902 -0.5536
15459TIP3    H267793   1.567   0.200  15.073  0.2778  0.5466  1.1363
15460TIP3   OH267794   4.689   6.725   0.059  0.3018  0.2629  0.7647
15460TIP3    H167795   4.647   6.800   0.101 -1.2984  0.1537 -0.5501
15460TIP3    H267796   4.617   6.670   0.029  1.4204 -1.9031  1.7675
15461TIP3   OH267797   6.627   4.457  12.845  0.6468  0.4523 -0.4202
15461TIP3    H167798   6.719   4.462  12.870  1.0430  0.2871 -1.8150
15461TIP3    H267799   6.619   4.516  12.771 -0.8560  2.1418  0.9822
15462TIP3   OH267800   2.507   0.947  12.931 -0.0938  0.4074  0.7501
15462TIP3    H167801   2.522   0.892  13.009 -0.5089  1.3350  1.5036
15462TIP3    H267802   2.590   0.992  12.917  0.8976 -1.8183 -1.0559
15463TIP3   OH267803   6.568   3.511  11.993 -1.1310 -0.9959 -0.5342
15463TIP3    H167804   6.522   3.581  12.040  1.9261  0.9379 -0.0970
15463TIP3    H267805   6.520   3.431  12.015 -2.3315  0.3890  2.4592
15464TIP3   OH267806   6.479   5.144   0.414 -0.3033  0.0060  0.1624
15464TIP3    H167807   6.478   5.117   0.506  1.1894  1.0551  0.5115
15464TIP3    H267808   6.411   5.211   0.408 -2.0570 -1.6811 -0.0820
15465TIP3   OH267809   2.802   1.934   6.740  0.5544  0.7620  0.3205
15465TIP3    H167810   2.788   2.009   6.798  0.4213  1.2653 -0.3591
15465TIP3    H267811   2.893   1.942   6.712  0.2626  1.2297 -0.5282
15466TIP3   OH267812   3.713   6.715  17.018  0.3657 -0.5558 -0.1952
15466TIP3    H167813   3.672   6.790  16.974  0.4450  0.0908  0.7845
15466TIP3    H267814   3.640   6.669  17.059  0.2974 -1.1318 -0.9431
15467TIP3   OH267815   5.308   4.489   1.442  0.0625 -0.1019 -0.2344
15467TIP3    H167816   5.346   4.524   1.362  1.3094  3.8222  1.7977
15467TIP3    H267817   5.383   4.470   1.498 -0.7871  0.7540  1.2483
15468TIP3   OH267818   3.849   1.239   3.345  0.1875 -0.0532  0.0357
15468TIP3    H167819   3.812   1.317   3.303  0.1430  1.1026  2.0718
15468TIP3    H267820   3.773   1.186   3.369  0.1450 -0.1300 -0.2706
15469TIP3   OH267821   3.676   1.143  14.298 -0.1094 -0.0541 -0.4321
15469TIP3    H167822   3.690   1.065  14.352  0.7726 -1.6119 -2.7793
15469TIP3    H267823   3.584   1.165  14.313 -0.0445 -0.7484  1.2392
15470TIP3   OH267824   6.739   6.445  15.750 -0.5103  0.2549  0.4861
15470TIP3    H167825   6.737   6.445  15.846  0.6085  0.2990  0.5301
15470TIP3    H267826   6.794   6.520  15.728 -2.7032  1.7149 -0.2886
15471TIP3   OH267827   1.854   6.612  13.482 -0.1967 -0.3733  0.1477
15471TIP3    H167828   1.939   6.570  13.497 -1.1931 -1.9572  2.0259
15471TIP3    H267829   1.816   6.564  13.409  0.8085  0.8915 -1.2515
15472TIP3   OH267830   4.982   3.293   6.220 -1.0336 -0.2719  0.1109
15472TIP3    H167831   5.016   3.350   6.289 -2.2204 -0.2321  0.6786
15472TIP3    H267832   4.916   3.239   6.264 -0.7684 -1.2813 -0.6746
15473TIP3   OH267833   0.013   0.376  14.749 -0.6407 -0.4055 -0.0822
15473TIP3    H167834   0.087   0.342  14.698 -1.1127 -2.2908  0.3808
15473TIP3    H267835  -0.031   0.297  14.781 -2.2860  0.6912  0.4705
15474TIP3   OH267836   5.889   3.949  11.138  0.1772 -0.1551  0.3665
15474TIP3    H167837   5.873   3.993  11.221  0.5955 -1.2035  1.0281
15474TIP3    H267838   5.836   3.997  11.074  1.8564  2.3243  0.7001
15475TIP3   OH267839   3.683   6.606  16.634  0.4770 -0.3174 -0.2588
15475TIP3    H167840   3.733   6.643  16.707 -0.0230 -0.6156  0.2383
15475TIP3    H267841   3.599   6.651  16.636 -0.3889 -1.8849  0.7522
15476TIP3   OH267842   1.676   0.078  14.179  0.3791  0.0951 -0.4209
15476TIP3    H167843   1.600   0.123  14.143  0.1444  0.8302  0.9545
15476TIP3    H267844   1.642   0.022  14.248  1.1258  0.8369  0.5784
15477TIP3   OH267845   0.597   1.881   6.132 -0.0653  0.1882  0.7288
15477TIP3    H167846   0.528   1.838   6.080  1.0999 -0.7618 -0.0948
15477TIP3    H267847   0.551   1.949   6.180 -1.5065 -0.0876 -0.1726
15478TIP3   OH267848   6.026   0.594   2.324  1.0034  0.6046  0.6487
15478TIP3    H167849   5.939   0.624   2.353  0.5509 -0.9584  1.0543
15478TIP3    H267850   6.084   0.667   2.341 -0.0859  1.3576  1.2488
15479TIP3   OH267851   3.520   1.430  13.937 -0.1502 -0.0625  0.3436
15479TIP3    H167852   3.595   1.370  13.943 -2.0532 -2.5522  0.5810
15479TIP3    H267853   3.506   1.442  13.843 -0.7409 -1.3340  0.2594
15480TIP3   OH267854   0.474   3.616  11.941  0.5884  0.0464 -0.3515
15480TIP3    H167855   0.509   3.643  11.856  0.6363  1.6835  0.1676
15480TIP3    H267856   0.387   3.581  11.921 -0.3720  2.5488 -0.8582
15481TIP3   OH267857   5.657   5.499  11.773 -0.6444 -0.1035  0.0410
15481TIP3    H167858   5.602   5.424  11.796 -2.2327  1.1058  0.3634
15481TIP3    H267859   5.745   5.462  11.763 -1.3435 -1.9683  0.3333
15482TIP3   OH267860   5.461   5.901   4.801 -0.3863 -0.0473 -0.2588
15482TIP3    H167861   5.517   5.935   4.871 -0.2931  0.0226 -0.3669
15482TIP3    H267862   5.509   5.921   4.721 -0.5298 -0.0590 -0.3466
15483TIP3   OH267863   0.241   2.453   0.024 -0.2505 -0.7288 -0.0654
15483TIP3    H167864   0.211   2.513  -0.044 -1.5818 -0.0185  1.0967
15483TIP3    H267865   0.333   2.437   0.004 -0.4283  0.0550 -1.5842
15484TIP3   OH267866   2.481   2.824  14.507 -0.4807  0.5578 -0.2990
15484TIP3    H167867   2.414   2.856  14.447  0.0182  1.1462 -0.5564
15484TIP3    H267868   2.476   2.883  14.582  1.9645  2.7922 -1.7316
15485TIP3   OH267869   5.075   4.943   5.056  0.1628 -0.5425  0.0023
15485TIP3    H167870   5.030   5.008   5.109  1.1901  0.3805 -0.2416
15485TIP3    H267871   5.149   4.989   5.016 -0.5423 -1.1999 -2.2226
15486TIP3   OH267872   5.916   2.855   2.906  0.4863 -0.3577  0.2979
15486TIP3    H167873   5.908   2.948   2.888  0.4782 -0.4176 -0.0146
15486TIP3    H267874   5.894   2.846   2.999 -2.5965 -0.4381 -0.3378
15487TIP3   OH267875   2.890   1.230   1.858  0.6527 -0.2836  0.2828
15487TIP3    H167876   2.902   1.152   1.912  0.5776 -0.1275  0.5215
15487TIP3    H267877   2.796   1.234   1.843  0.6756 -0.3398  0.1200
15488TIP3   OH267878   1.652   1.687   4.759 -0.0044 -0.0834  0.1771
15488TIP3    H167879   1.702   1.666   4.838  1.1904 -1.4185 -0.8748
15488TIP3    H267880   1.674   1.779   4.740 -0.9452  0.5139  1.8062
15489TIP3   OH267881   5.664   3.837   4.830 -0.0686  0.4092 -0.3110
15489TIP3    H167882   5.615   3.897   4.773 -1.4382 -0.0056  0.3824
15489TIP3    H267883   5.599   3.808   4.894  0.7070 -1.4159 -0.3159
15490TIP3   OH267884   1.376   1.877   1.651 -0.3196  0.6267  0.1433
15490TIP3    H167885   1.388   1.951   1.591 -0.7756  1.2491  0.8052
15490TIP3    H267886   1.344   1.916   1.732  1.1714 -0.0818  1.1272
15491TIP3   OH267887   0.708   6.100  15.386 -0.1856 -0.3101  0.1290
15491TIP3    H167888   0.638   6.162  15.406  0.2095  0.5284 -1.0020
15491TIP3    H267889   0.681   6.058  15.305  0.8772  0.4594 -0.6552
15492TIP3   OH267890   3.000   5.816  12.741 -0.1725  0.2823 -0.4325
15492TIP3    H167891   3.075   5.773  12.701  0.0999  0.3311  0.0212
15492TIP3    H267892   2.938   5.828  12.669 -1.0117 -2.4556 -0.2672
15493TIP3   OH267893   1.753   4.444   3.321 -0.7754 -0.1513  0.6381
15493TIP3    H167894   1.821   4.461   3.256 -0.9896  0.6899  0.6141
15493TIP3    H267895   1.671   4.453   3.272 -0.9108 -1.1659  0.6642
15494TIP3   OH267896   4.839   4.151   5.447 -0.5181 -0.1161 -0.0718
15494TIP3    H167897   4.744   4.147   5.445 -0.6345  2.0161 -0.3313
15494TIP3    H267898   4.866   4.121   5.360 -1.0140  0.4893 -0.4381
15495TIP3   OH267899   6.135   4.061  15.370  0.5287 -0.0520  0.4318
15495TIP3    H167900   6.104   4.090  15.284  0.1874 -1.4503  0.0657
15495TIP3    H267901   6.228   4.044  15.358  0.5820  0.2076  0.4692
15496TIP3   OH267902   1.722   3.089  12.786 -0.0980  0.1275  0.4260
15496TIP3    H167903   1.679   3.172  12.764 -0.5373 -0.3569 -0.6282
15496TIP3    H267904   1.698   3.030  12.714  1.0375 -0.6186  0.6326
15497TIP3   OH267905   0.213   2.311   4.039 -0.3912  0.5690  0.2002
15497TIP3    H167906   0.221   2.237   4.099  1.4770  0.6092  0.0835
15497TIP3    H267907   0.264   2.285   3.962 -0.2705  1.7053 -0.1179
15498TIP3   OH267908   1.812   2.825  11.817 -0.2430  0.6183  0.0599
15498TIP3    H167909   1.736   2.874  11.849  1.3232  3.5093 -0.3490
15498TIP3    H267910   1.785   2.792  11.731 -1.1166  1.4245  0.0065
15499TIP3   OH267911   0.620   0.120   2.262 -0.5246 -0.0142  0.4463
15499TIP3    H167912   0.704   0.075   2.258 -0.3725  0.2057  1.0566
15499TIP3    H267913   0.642   0.213   2.275 -0.7983  0.4354 -1.9088
15500TIP3   OH267914   3.423   6.367  16.820  0.1908  0.0275  0.2352
15500TIP3    H167915   3.351   6.401  16.766 -1.4033 -1.5325  1.2517
15500TIP3    H267916   3.431   6.275  16.795  1.2602 -0.0343  0.7515
15501TIP3   OH267917   4.325   6.335   0.991  0.2921 -0.2224 -0.1762
15501TIP3    H167918   4.419   6.334   1.010  0.2734 -1.5562 -0.0757
15501TIP3    H267919   4.317   6.389   0.912  0.8019  2.2104  1.3129
15502TIP3   OH267920   4.405   3.779  11.278 -0.4123  0.2582 -0.2218
15502TIP3    H167921   4.334   3.843  11.286 -1.0201 -0.5618  1.4582
15502TIP3    H267922   4.471   3.823  11.225 -1.5681  1.5902 -0.6249
15503TIP3   OH267923   3.634   5.421  10.868  0.0826  0.1626 -0.1743
15503TIP3    H167924   3.712   5.439  10.921  1.2966 -2.0437 -1.0814
15503TIP3    H267925   3.646   5.331  10.838 -3.4608 -0.7439  0.6948
15504TIP3   OH267926   0.369   6.501  10.988  0.2600  0.5349  0.2297
15504TIP3    H167927   0.293   6.446  10.969  0.2667  0.6840 -0.2229
15504TIP3    H267928   0.359   6.523  11.081  0.3824 -0.4221  0.4835
15505TIP3   OH267929   0.705   1.670   0.982  0.6012 -0.4849 -0.3380
15505TIP3    H167930   0.681   1.635   1.068  2.6277 -1.8110 -0.2503
15505TIP3    H267931   0.724   1.762   0.998  0.4207 -0.5846  0.5235
15506TIP3   OH267932   1.090   5.543   0.301 -0.4972  0.0448 -0.2325
15506TIP3    H167933   1.081   5.467   0.243  1.3261 -0.9042  0.6111
15506TIP3    H267934   1.169   5.587   0.270  0.1041 -0.0774  1.0351
15507TIP3   OH267935   6.010   6.391   2.039 -0.2411  0.1725  0.3496
15507TIP3    H167936   6.098   6.400   2.002 -0.8539 -1.2921 -1.6525
15507TIP3    H267937   6.016   6.316   2.098  0.3123  1.4280  1.9796
15508TIP3   OH267938   3.608   3.436   0.650  0.8005  0.2251 -0.4238
15508TIP3    H167939   3.614   3.530   0.667  1.2531  0.0657  0.3436
15508TIP3    H267940   3.593   3.430   0.556 -0.3169  1.1020 -0.3339
15509TIP3   OH267941   1.106   1.872   5.049  0.0619 -0.3837  0.2800
15509TIP3    H167942   1.134   1.894   4.961  0.6641  1.1718  0.8365
15509TIP3    H267943   1.011   1.880   5.047  0.1041  0.0536 -0.1223
15510TIP3   OH267944   2.260   4.613   2.082  0.0943 -0.1673 -0.2174
15510TIP3    H167945   2.179   4.564   2.088  1.0404 -1.6762  0.7036
15510TIP3    H267946   2.251   4.684   2.146  0.8349 -2.4168  2.5784
15511TIP3   OH267947   0.162   3.551   4.246  0.2618  0.1524  0.1584
15511TIP3    H167948   0.144   3.457   4.237  0.3934  0.1465 -0.0538
15511TIP3    H267949   0.257   3.558   4.236  0.4133  0.1681  1.3960
15512TIP3   OH267950   3.716   3.767   3.150  0.2954 -0.1431 -0.3720
15512TIP3    H167951   3.812   3.764   3.150  0.3076 -0.0612  1.0635
15512TIP3    H267952   3.689   3.681   3.183 -0.2872 -1.9790 -4.8203
15513TIP3   OH267953   4.254   3.404   1.294 -0.1351  0.1268  0.1594
15513TIP3    H167954   4.294   3.386   1.210 -1.5813 -0.6851 -0.3935
15513TIP3    H267955   4.160   3.401   1.277 -0.4515  1.2261  1.5445
15514TIP3   OH267956   5.693   6.555   6.729  0.0074  0.0078 -0.1085
15514TIP3    H167957   5.640   6.479   6.754  0.0526  0.1342  0.3891
15514TIP3    H267958   5.783   6.526   6.737  0.0323  0.2492  0.5384
15515TIP3   OH267959   3.201   2.474   4.064  0.1371  0.0753  0.1240
15515TIP3    H167960   3.194   2.569   4.057  2.4102  0.3591  0.7755
15515TIP3    H267961   3.163   2.453   4.149  0.8261  0.6089  0.5817
15516TIP3   OH267962   3.300   3.827  14.210 -0.2518  0.4408 -0.4647
15516TIP3    H167963   3.263   3.815  14.123  2.2834 -0.5967 -1.4845
15516TIP3    H267964   3.334   3.916  14.210 -1.7761  1.0701  0.1571
15517TIP3   OH267965   6.654   5.993  13.379 -0.0111  0.9360 -0.0696
15517TIP3    H167966   6.568   6.012  13.342 -0.4399 -1.5617 -0.5436
15517TIP3    H267967   6.635   5.951  13.463  0.6552 -0.6725 -0.6889
15518TIP3   OH267968   3.115   2.714   6.114 -0.6143  0.0406 -0.1520
15518TIP3    H167969   3.062   2.787   6.144  1.2409  0.6866  1.7875
15518TIP3    H267970   3.172   2.750   6.046 -1.7408 -0.3674 -1.3553
15519TIP3   OH267971   1.309   4.920   2.830  0.2486 -0.2260  0.7438
15519TIP3    H167972   1.320   4.847   2.769 -0.0942 -0.4547  0.9543
15519TIP3    H267973   1.393   4.925   2.876  1.5331  1.6653 -1.5771
15520TIP3   OH267974   2.563   0.775  14.591  0.2067  0.4462  0.0647
15520TIP3    H167975   2.605   0.857  14.562  0.7889  0.3453  0.6050
15520TIP3    H267976   2.596   0.709  14.531 -1.4280  0.8290 -1.3393
15521TIP3   OH267977   4.985   6.346  15.806 -0.1381  0.1350 -0.0808
15521TIP3    H167978   5.000   6.441  15.809  0.7763  0.0099 -0.4577
15521TIP3    H267979   4.892   6.336  15.824  0.0498  1.0075  1.6225
15522TIP3   OH267980   1.934   1.577  16.234  0.1429  0.7786 -0.1510
15522TIP3    H167981   1.964   1.487  16.246  1.4204  1.0717 -0.8821
15522TIP3    H267982   2.012   1.624  16.205 -0.3369  2.2678  0.8383
15523TIP3   OH267983   6.560   4.587  15.419 -0.6456  0.3990  0.0453
15523TIP3    H167984   6.568   4.604  15.513 -2.1321 -0.7169  0.4027
15523TIP3    H267985   6.651   4.587  15.387 -0.1266  0.9005  1.4473
15524TIP3   OH267986   2.648   6.773   4.527  0.0194 -0.0927 -0.1220
15524TIP3    H167987   2.605   6.702   4.575  0.0599  0.0131  0.0676
15524TIP3    H267988   2.683   6.831   4.594  0.0070  0.0963 -0.2763
15525TIP3   OH267989   0.358   4.400  16.621 -0.6946  0.6216 -0.0409
15525TIP3    H167990   0.361   4.470  16.556 -2.1950  0.4133 -0.3679
15525TIP3    H267991   0.270   4.406  16.659 -1.3142 -1.7834 -0.8943
15526TIP3   OH267992   6.753   6.544  15.443 -0.1099  0.5824 -0.2036
15526TIP3    H167993   6.841   6.518  15.415  0.2391  2.1916 -0.7622
15526TIP3    H267994   6.704   6.463  15.449  1.3137 -0.3147 -0.2610
15527TIP3   OH267995   0.926   2.063  13.515 -0.0754 -0.5827 -0.6678
15527TIP3    H167996   0.908   2.136  13.574  0.6669 -1.5069  0.7601
15527TIP3    H267997   0.965   2.104  13.437 -1.2516  0.6739 -0.6432
15528TIP3   OH267998   0.921   4.588  11.880 -0.1744  0.3874  0.1635
15528TIP3    H167999   0.881   4.518  11.932 -1.5349 -0.5484 -2.0045
15528TIP3    H268000   1.006   4.553  11.855  0.0372  0.3973  0.8583
15529TIP3   OH268001   3.428   1.398  13.628  0.1957 -0.3368 -0.1560
15529TIP3    H168002   3.351   1.375  13.680  0.5533 -1.3460 -0.0606
15529TIP3    H268003   3.392   1.428  13.544 -0.2990 -2.4539 -0.7729
15530TIP3   OH268004   1.109   1.008   2.736  0.2596  0.4466  0.1609
15530TIP3    H168005   1.194   0.966   2.754 -0.1135 -0.7776 -0.8140
15530TIP3    H268006   1.045   0.941   2.758 -0.4080  0.9059 -0.3721
15531TIP3   OH268007   4.732   2.372   0.031  0.4141  0.0533  0.3436
15531TIP3    H168008   4.659   2.358  -0.029 -1.6978  0.7734  2.5768
15531TIP3    H268009   4.752   2.285   0.067 -1.3703  0.1980  1.8304
15532TIP3   OH268010   6.423   3.091  11.301 -0.1740 -0.5620 -0.1754
15532TIP3    H168011   6.398   3.056  11.387  1.0509 -1.2771 -0.0922
15532TIP3    H268012   6.359   3.160  11.284 -2.5344 -2.6050 -0.2082
15533TIP3   OH268013   2.167   5.274   5.233  0.3478  0.6228 -0.0040
15533TIP3    H168014   2.166   5.329   5.311 -1.5341  1.0907 -0.3024
15533TIP3    H268015   2.075   5.254   5.217  0.6487  0.8074 -2.2989
15534TIP3   OH268016   3.359   3.014   6.482 -0.1360  0.2384 -0.1633
15534TIP3    H168017   3.420   3.016   6.556 -1.4701  1.3543  0.9798
15534TIP3    H268018   3.274   2.997   6.522 -1.3534  3.5044 -0.9978
15535TIP3   OH268019   0.543   0.831   0.372 -0.2688  0.1583  0.4086
15535TIP3    H168020   0.575   0.761   0.316  2.0859  0.9926  0.6072
15535TIP3    H268021   0.567   0.805   0.461 -0.9136  0.4292  0.6698
15536TIP3   OH268022   4.639   1.146  12.424  0.4039  0.1617 -0.1078
15536TIP3    H168023   4.668   1.142  12.515 -2.2535  1.8710  0.9215
15536TIP3    H268024   4.637   1.239  12.403 -0.2109 -0.1314 -1.4920
15537TIP3   OH268025   4.974   0.548  15.811  0.2803 -0.1092  0.4052
15537TIP3    H168026   5.033   0.614  15.848  0.3485  0.4936 -0.7316
15537TIP3    H268027   4.965   0.573  15.719 -1.0367 -0.7152  0.3465
15538TIP3   OH268028   6.520   5.368   6.135 -0.7368  0.0832  0.1459
15538TIP3    H168029   6.584   5.338   6.200 -0.5893  1.0973  0.4942
15538TIP3    H268030   6.549   5.457   6.114 -2.2603  0.7269  0.6193
15539TIP3   OH268031   4.180   4.646  11.713  0.4569  0.0236 -0.0055
15539TIP3    H168032   4.207   4.555  11.723 -0.4181 -0.3697 -0.9867
15539TIP3    H268033   4.091   4.641  11.678 -0.1996  1.2625  1.3686
15540TIP3   OH268034   5.658   6.724  15.553  0.2351 -0.7172  0.2157
15540TIP3    H168035   5.732   6.710  15.495 -0.9511 -1.4029 -1.1765
15540TIP3    H268036   5.584   6.682  15.509 -1.3861  1.5164  0.6436
15541TIP3   OH268037   0.450   5.022  15.985 -0.1676  0.3356 -0.3552
15541TIP3    H168038   0.419   4.931  15.977  0.9954 -0.2088  0.9689
15541TIP3    H268039   0.437   5.059  15.897 -0.6067 -1.1249 -0.9427
15542TIP3   OH268040   6.617   1.545  12.898  0.0692  0.0357  0.9977
15542TIP3    H168041   6.659   1.594  12.828 -0.6306  0.8901  1.1552
15542TIP3    H268042   6.555   1.487  12.853  0.6477 -0.4595  0.8316
15543TIP3   OH268043   6.230   2.176  14.030  0.3042  0.1089 -0.9087
15543TIP3    H168044   6.236   2.233  14.107 -0.6086 -0.2167 -0.5812
15543TIP3    H268045   6.177   2.225  13.967  0.7160  0.2074 -1.1845
15544TIP3   OH268046   4.801   5.869  13.563 -0.0289 -0.3749 -0.0815
15544TIP3    H168047   4.723   5.912  13.528 -1.0075 -0.5714  1.7240
15544TIP3    H268048   4.874   5.918  13.526 -1.0119  0.1483 -1.4074
15545TIP3   OH268049   1.564   4.161  14.323  0.5215  0.0666 -0.1426
15545TIP3    H168050   1.553   4.156  14.418  2.6031 -1.2808  0.0887
15545TIP3    H268051   1.649   4.202  14.311  0.4547 -0.1313 -1.4284
15546TIP3   OH268052   1.322   3.665  13.876  0.2947 -0.2820  0.0732
15546TIP3    H168053   1.313   3.744  13.928  1.3752  1.3303 -2.0134
15546TIP3    H268054   1.236   3.623  13.881 -0.4632  1.2803  0.8495
15547TIP3   OH268055   1.397   3.768  15.759  0.5439  0.1635  0.6381
15547TIP3    H168056   1.388   3.792  15.667 -1.7408 -1.0304  0.4832
15547TIP3    H268057   1.489   3.743  15.769  0.7293 -0.1157 -1.4204
15548TIP3   OH268058   5.786   2.208   3.171  0.0388 -0.3076  0.3879
15548TIP3    H168059   5.856   2.243   3.117  0.3698 -1.3690  0.1139
15548TIP3    H268060   5.817   2.219   3.261  0.0153  0.3451  0.3201
15549TIP3   OH268061   3.188   1.102   4.862  0.4645  0.2682 -0.0205
15549TIP3    H168062   3.242   1.166   4.908  1.4931 -0.0314 -0.7725
15549TIP3    H268063   3.191   1.129   4.770 -0.0053 -0.2180 -0.1852
15550TIP3   OH268064   3.155   5.690  11.971  0.0171 -0.0343  0.6246
15550TIP3    H168065   3.116   5.609  12.006  0.7366 -0.0017  1.5655
15550TIP3    H268066   3.238   5.698  12.018  1.0305  0.0596 -1.0961
15551TIP3   OH268067   4.199   6.273   1.374  0.2274 -0.3439  0.0450
15551TIP3    H168068   4.226   6.209   1.308 -1.3616 -0.8919 -0.1162
15551TIP3    H268069   4.180   6.222   1.452  1.7542  0.2678  0.8580
15552TIP3   OH268070   0.110   4.983  16.587  0.0661  0.1539 -0.2180
15552TIP3    H168071   0.069   4.946  16.509 -0.0166 -1.8638  0.7274
15552TIP3    H268072   0.152   4.909  16.630 -1.5067  0.7610  2.6619
15553TIP3   OH268073   1.841   2.257   5.022 -0.0987  0.0321  0.1505
15553TIP3    H168074   1.859   2.164   5.013 -1.3215 -0.3155  0.9178
15553TIP3    H268075   1.914   2.291   5.074 -0.3414 -0.8049  1.0839
15554TIP3   OH268076   6.465   0.235  11.213 -0.5292  0.0114  0.7754
15554TIP3    H168077   6.479   0.144  11.187  0.1185  0.5658 -0.9639
15554TIP3    H268078   6.378   0.235  11.253 -0.7577 -1.2912  0.3271
15555TIP3   OH268079   1.221   0.672   4.270 -0.4528 -0.9113 -0.1730
15555TIP3    H168080   1.258   0.635   4.350 -2.0070 -2.4034 -0.0923
15555TIP3    H268081   1.204   0.763   4.292  1.8668 -0.4904  0.1907
15556TIP3   OH268082   4.875   3.289   3.471  0.0411 -0.5858  0.0866
15556TIP3    H168083   4.812   3.333   3.415  0.4991 -0.4143 -0.3076
15556TIP3    H268084   4.931   3.240   3.410  1.3086  0.5743  0.2642
15557TIP3   OH268085   0.010   5.497  14.411  0.3001  0.5550  0.0936
15557TIP3    H168086  -0.074   5.471  14.449  0.4337 -0.9883 -0.5776
15557TIP3    H268087   0.066   5.420  14.423  1.8671  1.7767  1.1481
15558TIP3   OH268088   0.379   5.855  12.224  0.6999 -0.7341 -0.4776
15558TIP3    H168089   0.345   5.768  12.244  1.0475 -0.8177 -0.2354
15558TIP3    H268090   0.347   5.873  12.135  2.7008 -2.1887 -1.5930
15559TIP3   OH268091   1.539   0.432   5.702  0.0249 -0.1586 -0.3786
15559TIP3    H168092   1.463   0.419   5.760  0.3959  0.9063  0.3764
15559TIP3    H268093   1.553   0.346   5.662 -1.4118 -0.4488 -0.3360
15560TIP3   OH268094   4.390   3.653  16.276  0.1380  0.2650 -0.3152
15560TIP3    H168095   4.377   3.706  16.197  0.5863  1.1354  0.1843
15560TIP3    H268096   4.457   3.589  16.250  0.9833  1.1517 -0.3687
15561TIP3   OH268097   4.802   6.319   2.067  0.0183  0.3002  0.0852
15561TIP3    H168098   4.768   6.310   1.978 -0.4693  0.1931  0.2815
15561TIP3    H268099   4.755   6.253   2.118 -1.1592  1.6631  0.8329
15562TIP3   OH268100   3.586   3.466   1.888  0.1871  0.4350 -0.0685
15562TIP3    H168101   3.497   3.499   1.904 -0.1095 -0.1269 -0.5241
15562TIP3    H268102   3.593   3.389   1.945  1.1428  1.6532  1.5630
15563TIP3   OH268103   5.577   4.180   5.928  0.0749 -0.7309  0.1085
15563TIP3    H168104   5.657   4.158   5.976  0.1139  0.1164  0.4451
15563TIP3    H268105   5.508   4.180   5.994  0.0885  0.2093  0.1311
15564TIP3   OH268106   5.307   4.751  12.089  0.4681 -0.0787 -0.4098
15564TIP3    H168107   5.337   4.683  12.150  2.3128 -0.3895 -1.5957
15564TIP3    H268108   5.232   4.711  12.045  0.2311 -0.5293  0.3801
15565TIP3   OH268109   3.837   6.223   5.039  0.5017 -0.5111  0.0574
15565TIP3    H168110   3.752   6.225   5.083  0.0394  0.8720 -0.8129
15565TIP3    H268111   3.823   6.171   4.961 -0.7439  2.8044 -2.1702
15566TIP3   OH268112   1.664   2.158   2.480 -0.3743  0.2492  0.8895
15566TIP3    H168113   1.745   2.107   2.485 -0.0523  0.7612  0.9312
15566TIP3    H268114   1.675   2.227   2.545  0.7435  2.5594 -1.5662
15567TIP3   OH268115   1.137   0.076  15.602 -0.1830 -0.1954  0.0117
15567TIP3    H168116   1.229   0.069  15.576 -0.6912 -0.9799 -1.7736
15567TIP3    H268117   1.118  -0.007  15.646  0.2009  0.3886  1.3297
15568TIP3   OH268118   2.457   4.556   4.224 -0.0692  0.3109  0.4480
15568TIP3    H168119   2.500   4.541   4.307 -0.8706 -1.2734  0.6314
15568TIP3    H268120   2.487   4.484   4.168  0.5895  1.4421 -0.6995
15569TIP3   OH268121   2.314   4.348   2.631 -0.0767 -0.2353  0.1266
15569TIP3    H168122   2.321   4.443   2.642  2.0832 -0.3250  0.0119
15569TIP3    H268123   2.231   4.335   2.587 -0.3389  1.6195 -0.0126
15570TIP3   OH268124   6.650   5.461  12.824 -0.4975  0.0209  0.1142
15570TIP3    H168125   6.665   5.510  12.905 -1.5736  0.8396 -0.1634
15570TIP3    H268126   6.659   5.526  12.754  1.6723 -0.9178 -0.5554
15571TIP3   OH268127   4.790   2.108  12.746 -0.0128 -0.0128 -0.2601
15571TIP3    H168128   4.869   2.088  12.696  1.3173  1.6848  1.0341
15571TIP3    H268129   4.729   2.037  12.725  2.2263 -1.9719 -0.4951
15572TIP3   OH268130   1.694   1.514   1.726  0.1302 -0.0481  0.4020
15572TIP3    H168131   1.631   1.548   1.663  0.3059 -1.2038 -0.4187
15572TIP3    H268132   1.734   1.592   1.764 -0.8339  0.6784 -0.0340
15573TIP3   OH268133   3.506   6.383  10.777 -0.5049  0.1591  0.1747
15573TIP3    H168134   3.493   6.436  10.698 -1.6050 -0.3242  0.0089
15573TIP3    H268135   3.427   6.329  10.782  0.7973 -1.8715  0.0408
15574TIP3   OH268136   4.584   5.341  14.412  0.4548  0.2892 -0.3725
15574TIP3    H168137   4.528   5.391  14.353  0.2219 -0.8584 -1.1302
15574TIP3    H268138   4.611   5.406  14.478 -0.0690  1.3495 -1.1610
15575TIP3   OH268139   3.361   6.444   0.817 -0.2585  0.1907  0.4180
15575TIP3    H168140   3.331   6.469   0.730  0.1118 -2.8190 -0.6848
15575TIP3    H268141   3.456   6.449   0.812 -0.1632 -1.4000  0.1081
15576TIP3   OH268142   5.938   0.549  15.791  0.5580  0.2035 -0.2975
15576TIP3    H168143   5.941   0.454  15.804 -0.4696  0.3461  1.2606
15576TIP3    H268144   5.844   0.569  15.789  0.6853  0.8900 -3.3460
15577TIP3   OH268145   0.781   4.626   0.103  0.3618 -0.4260 -0.0961
15577TIP3    H168146   0.867   4.650   0.068 -0.6003  0.6611 -1.8598
15577TIP3    H268147   0.770   4.534   0.078  0.7752 -0.4097 -0.3566
15578TIP3   OH268148   1.730   3.190  10.858 -0.1635  0.4327  0.1489
15578TIP3    H168149   1.783   3.267  10.840  0.5911 -0.0779  0.1304
15578TIP3    H268150   1.758   3.126  10.792 -1.0707  0.2821 -0.0964
15579TIP3   OH268151   3.068   2.202  11.247  0.5904 -0.3119  0.4487
15579TIP3    H168152   3.038   2.228  11.160  3.7491  0.7410 -0.4524
15579TIP3    H268153   3.001   2.236  11.306 -2.1855 -1.9510 -1.5246
15580TIP3   OH268154   0.502   6.471  15.103 -0.2102 -0.2056  0.0646
15580TIP3    H168155   0.581   6.454  15.051 -1.7051  0.6871 -2.7016
15580TIP3    H268156   0.520   6.554  15.147  0.7582 -0.5274  0.3094
15581TIP3   OH268157   1.786   2.581   5.890 -0.3409 -0.0265  0.3731
15581TIP3    H168158   1.857   2.615   5.944 -0.0199  1.5168 -0.9378
15581TIP3    H268159   1.814   2.493   5.866  0.4979  0.0680  0.9610
15582TIP3   OH268160   0.034   0.850  13.205 -0.1695 -0.2702 -0.0647
15582TIP3    H168161  -0.047   0.896  13.225  1.2383  1.8838  1.0910
15582TIP3    H268162   0.086   0.858  13.285  1.1614 -1.6758 -0.7427
15583TIP3   OH268163   1.742   4.480  17.096  0.5686  0.5828  0.2940
15583TIP3    H168164   1.647   4.480  17.094  0.5215  2.5127  0.4253
15583TIP3    H268165   1.768   4.467  17.005  0.1408  1.1444  0.0850
15584TIP3   OH268166   0.650   3.270  10.995  0.2409 -0.3242 -0.5324
15584TIP3    H168167   0.598   3.346  11.020  1.4682  0.3881 -0.0597
15584TIP3    H268168   0.587   3.198  10.990 -0.5902  0.2303  1.2752
15585TIP3   OH268169   5.554   0.097  15.293  0.3337  0.1405 -0.5968
15585TIP3    H168170   5.522   0.010  15.317 -0.1399  0.0048 -1.6642
15585TIP3    H268171   5.488   0.131  15.233  0.3202  1.4062  0.1094
15586TIP3   OH268172   3.189   3.521   3.509  0.6668  0.0627  0.2041
15586TIP3    H168173   3.191   3.425   3.517 -0.2513 -0.0988 -1.1795
15586TIP3    H268174   3.263   3.542   3.452 -0.5656 -0.0852 -1.5020
15587TIP3   OH268175   1.684   0.674  12.176  0.0313  0.1071  0.0423
15587TIP3    H168176   1.745   0.601  12.170 -0.8092 -0.4932 -2.5155
15587TIP3    H268177   1.641   0.662  12.261  1.6448 -0.8951  0.7724
15588TIP3   OH268178   6.522   1.452  11.567 -0.2751 -0.4099  0.3152
15588TIP3    H168179   6.501   1.397  11.642 -2.3769  0.0178  0.1063
15588TIP3    H268180   6.520   1.541  11.601  1.5278 -0.3244  0.3051
15589TIP3   OH268181   6.267   1.712   3.845 -0.8713  0.1623 -0.1079
15589TIP3    H168182   6.314   1.742   3.767  0.6160  1.1254  1.0982
15589TIP3    H268183   6.286   1.779   3.911 -1.5330 -0.9687  1.2739
15590TIP3   OH268184   0.502   5.771   0.649  0.1950  0.3556 -0.2931
15590TIP3    H168185   0.568   5.787   0.581  0.3246 -0.7326 -0.4553
15590TIP3    H268186   0.461   5.688   0.622  0.2155 -0.0657  0.9206
15591TIP3   OH268187   4.760   5.072   4.893  0.0615 -0.3278 -0.3049
15591TIP3    H168188   4.774   5.100   4.983  1.2612 -0.3358 -0.4807
15591TIP3    H268189   4.773   4.977   4.895 -0.4386 -0.4048 -0.4008
15592TIP3   OH268190   4.158   0.441  11.937  0.7015 -0.5806  0.1051
15592TIP3    H168191   4.205   0.523  11.952  1.1922 -0.8082 -0.1546
15592TIP3    H268192   4.081   0.446  11.994 -0.2595  0.8431 -1.2472
15593TIP3   OH268193   1.110   6.711  13.971 -0.2107  0.5913  0.0295
15593TIP3    H168194   1.163   6.757  14.036 -0.1013  0.4143  0.0675
15593TIP3    H268195   1.174   6.671  13.912 -0.2177 -1.1855  1.1328
15594TIP3   OH268196   6.052   1.049   1.231 -0.1119  0.9792 -0.1269
15594TIP3    H168197   5.988   1.094   1.286 -0.8893 -0.0176 -0.1781
15594TIP3    H268198   6.136   1.089   1.253 -0.7073  2.0523  0.2163
15595TIP3   OH268199   4.989   6.577  15.091 -0.5509 -0.5623  0.5209
15595TIP3    H168200   4.982   6.482  15.087  1.2668 -0.8249  2.0752
15595TIP3    H268201   5.027   6.595  15.177 -0.2784  1.5194  0.0224
15596TIP3   OH268202   3.192   1.262   2.602 -0.4303  0.0881 -0.5902
15596TIP3    H168203   3.240   1.342   2.622 -0.8747 -0.1459  1.6926
15596TIP3    H268204   3.255   1.191   2.614 -1.1003 -0.1814  1.9186
15597TIP3   OH268205   1.440   0.449   2.036 -0.3114  0.7285  0.5180
15597TIP3    H168206   1.351   0.483   2.022 -1.3216 -2.3058 -1.4268
15597TIP3    H268207   1.485   0.465   1.954  0.0326 -0.1686  0.5224
15598TIP3   OH268208   6.700   3.826   3.519  0.0069  0.1872 -0.1753
15598TIP3    H168209   6.615   3.787   3.501 -0.2405 -0.0528  1.3624
15598TIP3    H268210   6.761   3.753   3.522  0.4516  0.4267 -2.0357
15599TIP3   OH268211   4.328   4.401   2.349 -0.1783 -0.2231 -0.0623
15599TIP3    H168212   4.234   4.416   2.347 -0.1684  0.0641 -2.8377
15599TIP3    H268213   4.366   4.477   2.305  1.1683 -1.1927 -0.6638
15600TIP3   OH268214   6.563   3.531  12.348 -0.0178  0.1753 -0.2853
15600TIP3    H168215   6.484   3.568  12.386  1.3370  2.2364  0.7109
15600TIP3    H268216   6.591   3.595  12.284  1.1467 -0.2454 -0.2208
15601TIP3   OH268217   0.681   6.694  14.090  0.4556 -0.1537  0.4609
15601TIP3    H168218   0.691   6.672  14.183 -2.1682 -0.1487  0.8302
15601TIP3    H268219   0.687   6.609  14.045  1.1869 -0.2245  0.6832
15602TIP3   OH268220   3.336   6.759  14.433 -0.6145 -0.1547  0.0894
15602TIP3    H168221   3.290   6.696  14.378 -1.5134  0.0446  0.5866
15602TIP3    H268222   3.271   6.828  14.448  1.1931  2.4287 -2.8558
15603TIP3   OH268223   1.474   4.884  15.510 -0.2237 -0.3120  0.2429
15603TIP3    H168224   1.393   4.903  15.463  0.4139 -0.1343 -0.8051
15603TIP3    H268225   1.456   4.801  15.555 -1.2317  0.1036  0.6491
15604TIP3   OH268226   3.586   4.339   2.159 -0.1909 -0.7796  0.4003
15604TIP3    H168227   3.522   4.394   2.204 -1.0228 -0.4866 -1.0872
15604TIP3    H268228   3.541   4.308   2.080  1.6248 -0.1807 -0.9496
15605TIP3   OH268229   3.218   6.104  15.352  0.8117  0.6437 -0.5518
15605TIP3    H168230   3.241   6.188  15.390  0.5281  0.7002 -0.5088
15605TIP3    H268231   3.152   6.067  15.411  1.6378 -0.0463 -0.0308
15606TIP3   OH268232   1.688   4.678  15.663 -0.4865 -0.5012  0.2146
15606TIP3    H168233   1.773   4.643  15.635 -0.3686  0.0183 -0.1058
15606TIP3    H268234   1.689   4.769  15.633 -0.7741 -0.2130  1.0443
15607TIP3   OH268235   0.766   4.186   2.179  0.0342 -0.0573  0.5353
15607TIP3    H168236   0.798   4.198   2.269  0.1742 -1.5228  0.7110
15607TIP3    H268237   0.671   4.183   2.188  0.0666 -0.7547  0.7283
15608TIP3   OH268238   5.644   3.467   6.137  0.2695  0.2225  0.2063
15608TIP3    H168239   5.608   3.460   6.226 -0.1828 -0.6232 -0.0339
15608TIP3    H268240   5.715   3.530   6.145 -1.2630  1.9679  0.6976
15609TIP3   OH268241   2.934   2.108   0.398 -0.1233  0.5143 -0.7054
15609TIP3    H168242   2.854   2.138   0.442  0.2041  2.0987 -1.1263
15609TIP3    H268243   2.909   2.100   0.306  0.2076  1.0454 -0.8436
15610TIP3   OH268244   0.664   3.767  12.412  0.0922 -0.2408 -0.2082
15610TIP3    H168245   0.648   3.817  12.492  1.0350 -2.0415  1.1747
15610TIP3    H268246   0.632   3.823  12.341  0.3925  1.9428  1.3089
15611TIP3   OH268247   3.272   2.613   4.636  0.4947  0.1845 -0.2958
15611TIP3    H168248   3.364   2.614   4.665  1.2185  3.6259 -2.0685
15611TIP3    H268249   3.263   2.694   4.585 -3.4447 -0.2664 -0.6040
15612TIP3   OH268250   5.528   2.384  14.505  0.0924  0.3759  0.3228
15612TIP3    H168251   5.616   2.351  14.523 -0.4185 -2.5308 -1.7220
15612TIP3    H268252   5.532   2.412  14.414 -0.8036  1.3912  0.5851
15613TIP3   OH268253   1.989   4.913   4.319 -0.5969 -0.3563  0.3917
15613TIP3    H168254   2.083   4.924   4.307 -0.7804  1.7207  0.4807
15613TIP3    H268255   1.981   4.846   4.386  0.8189 -0.4540  0.4956
15614TIP3   OH268256   1.384   2.216   1.303 -0.1002 -1.0561  0.0385
15614TIP3    H168257   1.422   2.303   1.296  2.0070 -1.9091 -0.0495
15614TIP3    H268258   1.291   2.231   1.318  0.4253  1.2191  1.5124
15615TIP3   OH268259   5.938   5.471  11.276  0.6327 -0.2744  0.5589
15615TIP3    H168260   5.887   5.394  11.249 -0.3312  0.3115  0.6448
15615TIP3    H268261   6.024   5.458  11.236  0.0707 -0.7339 -0.5584
15616TIP3   OH268262   3.654   2.391   6.072  0.2150 -0.3581 -0.2829
15616TIP3    H168263   3.744   2.395   6.042  0.2987 -1.4778 -0.2311
15616TIP3    H268264   3.657   2.422   6.163  0.3457  0.6871 -0.6248
15617TIP3   OH268265   1.192   6.106   2.006  0.0064  0.4709  0.0500
15617TIP3    H168266   1.111   6.153   1.986  0.2707  1.0227  0.2559
15617TIP3    H268267   1.168   6.043   2.073 -1.1263 -2.0731 -2.5156
15618TIP3   OH268268   0.578   2.825   2.396  0.2516  0.4061 -0.0533
15618TIP3    H168269   0.625   2.897   2.440  0.0235  1.5924 -1.6757
15618TIP3    H268270   0.579   2.848   2.304  1.8148 -2.6297 -0.9307
15619TIP3   OH268271   2.782   5.261   2.068 -0.2906  0.1387  0.5099
15619TIP3    H168272   2.703   5.242   2.018 -0.6728 -0.7926  1.4191
15619TIP3    H268273   2.749   5.299   2.150  0.3229  1.7514  0.0510
15620TIP3   OH268274   1.552   4.723   1.018  0.1253  0.7066 -0.2311
15620TIP3    H168275   1.528   4.727   1.111 -0.0918 -0.4724 -0.2140
15620TIP3    H268276   1.647   4.712   1.019  0.0725  0.2463 -0.1298
15621TIP3   OH268277   2.769   5.596  14.353 -0.3744 -0.2859  0.4651
15621TIP3    H168278   2.674   5.591  14.348 -0.3512 -1.1254  0.6789
15621TIP3    H268279   2.798   5.504  14.353  0.3967 -0.0530  0.9533
15622TIP3   OH268280   5.589   3.315   3.097  0.1915  0.1877  0.1551
15622TIP3    H168281   5.624   3.312   3.008  1.6845 -0.2336  0.7294
15622TIP3    H268282   5.495   3.299   3.087  0.2488  0.6605 -1.3783
15623TIP3   OH268283   0.469   2.651   3.510 -0.7450  0.1616 -0.1363
15623TIP3    H168284   0.548   2.599   3.496 -0.3076 -0.7054  4.0487
15623TIP3    H268285   0.499   2.741   3.511  0.2104 -0.1448  1.1722
15624TIP3   OH268286   6.553   2.215  12.759 -0.3836 -0.4240 -0.2522
15624TIP3    H168287   6.583   2.300  12.728  1.3583 -0.3869  1.3344
15624TIP3    H268288   6.601   2.151  12.706 -0.2187 -0.3906 -0.1448
15625TIP3   OH268289   5.245   6.438  16.666 -0.6124 -0.2878 -0.3986
15625TIP3    H168290   5.285   6.520  16.637 -0.3748 -0.1711  0.2358
15625TIP3    H268291   5.156   6.440  16.631 -0.4144 -0.0382 -0.8936
15626TIP3   OH268292   3.794   4.921   2.711  0.0717  0.5273  0.0518
15626TIP3    H168293   3.828   4.841   2.753  0.5353  0.7205  0.0479
15626TIP3    H268294   3.768   4.976   2.785  1.1578  0.9863  0.1070
15627TIP3   OH268295   2.795   2.806  12.340  0.3278  0.0720  0.7466
15627TIP3    H168296   2.716   2.852  12.310 -1.3516 -3.1003 -0.1535
15627TIP3    H268297   2.776   2.784  12.431  1.8558  2.4273  1.7339
15628TIP3   OH268298   0.590   5.099  11.915 -0.4573 -0.1569  0.1054
15628TIP3    H168299   0.646   5.153  11.859 -0.9002  0.4253  0.2083
15628TIP3    H268300   0.593   5.012  11.876 -0.6275  0.2029 -0.7365
15629TIP3   OH268301   3.942   3.038  16.005  0.2054  0.2543 -0.2469
15629TIP3    H168302   3.923   2.952  16.043  1.0314  0.1392 -0.0748
15629TIP3    H268303   4.013   3.073  16.059 -2.0673  2.3584  1.6047
15630TIP3   OH268304   1.187   5.525  16.220  0.2512 -0.0981 -0.1462
15630TIP3    H168305   1.263   5.467  16.219 -1.2600 -2.2953  1.2499
15630TIP3    H268306   1.132   5.492  16.149  0.2459  1.0032 -0.6752
15631TIP3   OH268307   2.626   6.582  11.542 -0.1879  0.7359  0.4864
15631TIP3    H168308   2.673   6.568  11.460  0.2735 -0.9399  0.9836
15631TIP3    H268309   2.540   6.615  11.516 -0.5995 -1.1786 -0.8048
15632TIP3   OH268310   1.336   3.302  12.327  0.0790  0.2022 -0.1338
15632TIP3    H168311   1.330   3.213  12.290 -0.9235 -0.6468  1.9339
15632TIP3    H268312   1.323   3.359  12.251 -1.4873 -1.4493 -1.2128
15633TIP3   OH268313   5.251   2.178  13.356 -0.1200 -0.0575 -0.0988
15633TIP3    H168314   5.290   2.247  13.409  2.0919 -1.5379  0.3597
15633TIP3    H268315   5.322   2.115  13.342 -1.6352 -1.5536 -1.6922
15634TIP3   OH268316   6.767   0.985   3.323  0.2280  0.1773 -0.3414
15634TIP3    H168317   6.812   0.976   3.239  0.7741  2.8054 -0.4359
15634TIP3    H268318   6.788   1.074   3.352  3.0537 -1.6186  4.3696
15635TIP3   OH268319   6.106   3.529   6.308 -0.1218  0.5914 -0.0723
15635TIP3    H168320   6.167   3.593   6.344 -0.2379  0.7918 -0.2324
15635TIP3    H268321   6.153   3.489   6.235 -0.4506  1.2630 -0.6574
15636TIP3   OH268322   4.314   0.369  16.011 -0.2868 -0.5227 -0.6054
15636TIP3    H168323   4.328   0.356  16.105 -1.6327  0.0787 -0.2899
15636TIP3    H268324   4.311   0.464  16.000  1.3455 -0.5442 -1.5274
15637TIP3   OH268325   6.677   0.042  16.363  0.1925 -0.1877 -0.0984
15637TIP3    H168326   6.600   0.001  16.325  0.1584 -0.5821  0.3804
15637TIP3    H268327   6.665   0.135  16.348 -0.2563 -0.2693 -0.2493
15638TIP3   OH268328   6.251   4.042  15.949  0.7759  0.3721  0.3413
15638TIP3    H168329   6.299   3.977  15.999  1.8317  0.4480 -0.5460
15638TIP3    H268330   6.316   4.080  15.889 -0.0994  1.3556 -0.0214
15639TIP3   OH268331   5.190   5.688   3.816 -0.2083  0.4313 -0.3757
15639TIP3    H168332   5.106   5.686   3.861 -0.0696 -1.6707 -0.1257
15639TIP3    H268333   5.175   5.642   3.733  0.8649 -0.7451  0.0478
15640TIP3   OH268334   1.748   3.117   3.963  0.0938  0.2031 -0.4860
15640TIP3    H168335   1.724   3.058   3.892 -0.5789 -1.7640  1.2719
15640TIP3    H268336   1.681   3.102   4.030  1.8331  0.3960  1.3969
15641TIP3   OH268337   3.873   1.531   0.223 -0.6085  0.1371  0.5734
15641TIP3    H168338   3.922   1.612   0.230 -0.0312 -0.2083  0.5985
15641TIP3    H268339   3.865   1.500   0.313  1.2059 -1.0094  0.3960
15642TIP3   OH268340   1.148   3.513   3.365  0.8329 -0.1479  0.2115
15642TIP3    H168341   1.133   3.420   3.384  1.1709  0.1151  1.9170
15642TIP3    H268342   1.066   3.556   3.387  0.1223 -0.1671 -2.0666
15643TIP3   OH268343   4.561   4.338  14.090 -0.0478  0.6775  0.1730
15643TIP3    H168344   4.513   4.412  14.128 -0.3639  0.4664  0.1921
15643TIP3    H268345   4.574   4.277  14.162 -1.7040 -0.2738 -0.2618
15644TIP3   OH268346   4.161   2.424  14.397 -0.2144 -0.4334  0.4173
15644TIP3    H168347   4.167   2.506  14.348  2.6864 -0.6989  0.1571
15644TIP3    H268348   4.106   2.445  14.472 -1.4573  1.0724 -0.8390
15645TIP3   OH268349   4.852   5.837  11.241  0.2408 -0.2518 -0.1987
15645TIP3    H168350   4.770   5.814  11.198  0.1522 -1.4709  0.5848
15645TIP3    H268351   4.907   5.871  11.170 -1.0573  1.0135 -0.6639
15646TIP3   OH268352   1.645   5.453   1.313 -0.2064 -0.3595  0.2022
15646TIP3    H168353   1.563   5.463   1.265 -0.5951 -1.4213  0.6089
15646TIP3    H268354   1.714   5.458   1.246 -0.6963 -1.0620 -0.3565
15647TIP3   OH268355   3.026   2.509  13.023  0.2329  0.5870  0.3002
15647TIP3    H168356   3.046   2.559  13.101 -1.2748  1.2056  0.3342
15647TIP3    H268357   2.981   2.571  12.966  0.2531 -0.1687 -0.5584
15648TIP3   OH268358   4.590   4.635  12.117 -0.2618  0.1155 -0.5432
15648TIP3    H168359   4.636   4.567  12.068 -1.2007 -2.5842  2.0355
15648TIP3    H268360   4.659   4.690  12.154  1.1113 -3.3780  2.6214
15649TIP3   OH268361   3.862   0.609   1.856 -0.1595  0.3379  0.0439
15649TIP3    H168362   3.845   0.689   1.807 -0.9395 -0.5180 -1.1521
15649TIP3    H268363   3.954   0.588   1.838 -0.2513  0.4038 -0.5170
15650TIP3   OH268364   1.489   3.276   0.349 -0.3306 -0.1019 -0.0393
15650TIP3    H168365   1.534   3.217   0.289 -0.6893 -0.1170 -0.2996
15650TIP3    H268366   1.398   3.277   0.318 -0.2771  0.7657 -0.1834
15651TIP3   OH268367   6.367   5.874   3.315 -0.7589 -0.5245  0.6682
15651TIP3    H168368   6.281   5.836   3.299 -0.5983 -0.3450 -0.7774
15651TIP3    H268369   6.374   5.945   3.250  0.5963 -0.7584  0.5297
15652TIP3   OH268370   1.342   0.894  13.356 -0.4917  0.5543  0.1649
15652TIP3    H168371   1.310   0.939  13.278 -1.1171  0.8608  0.5874
15652TIP3    H268372   1.419   0.944  13.383 -1.0250  1.2363  0.4759
15653TIP3   OH268373   3.726   4.321  15.027  0.1983  1.0253  0.4421
15653TIP3    H168374   3.689   4.293  15.111  1.0208  0.9411  0.7810
15653TIP3    H268375   3.678   4.269  14.962 -1.0676  1.7226  0.7733
15654TIP3   OH268376   3.519   6.497   0.044  0.2966  0.1064 -0.2750
15654TIP3    H168377   3.552   6.586   0.033  1.3018 -0.2502 -0.2356
15654TIP3    H268378   3.507   6.464  -0.045  1.0835 -0.1316 -0.2972
15655TIP3   OH268379   3.319   4.790  14.321  0.6905  0.0252  0.2061
15655TIP3    H168380   3.250   4.729  14.292  0.7942 -0.1546  0.3346
15655TIP3    H268381   3.305   4.798  14.416  0.1795  0.8254  0.0748
15656TIP3   OH268382   6.479   5.453  14.822 -0.0577  0.0245 -0.7532
15656TIP3    H168383   6.479   5.540  14.861  2.0174 -0.6742  1.0174
15656TIP3    H268384   6.552   5.454  14.760  2.6647 -1.4419  2.1164
15657TIP3   OH268385   6.509   2.974   3.445 -0.1134  0.2493  0.2921
15657TIP3    H168386   6.585   2.963   3.502 -0.4192 -1.1890  0.4745
15657TIP3    H268387   6.460   2.892   3.455  0.6853 -0.8299 -3.3031
15658TIP3   OH268388   2.641   0.328  14.684  0.1246 -0.2305 -0.0469
15658TIP3    H168389   2.637   0.259  14.618  1.3934  0.8917 -1.3526
15658TIP3    H268390   2.585   0.397  14.650 -0.3892 -0.2279  0.7902
15659TIP3   OH268391   0.027   5.770  12.225  0.1146 -0.3415  0.6544
15659TIP3    H168392   0.062   5.833  12.161  0.2145 -1.1012 -0.0590
15659TIP3    H268393   0.070   5.793  12.307  0.8490 -0.0542  0.2047
15660TIP3   OH268394   0.991   4.085  16.860  0.2042  0.0352 -0.1349
15660TIP3    H168395   0.989   4.070  16.766  0.6282  0.2432 -0.1785
15660TIP3    H268396   1.079   4.118  16.877  0.4946 -1.0103  0.4834
15661TIP3   OH268397   6.496   2.419  14.395  0.2351 -0.1326 -0.6925
15661TIP3    H168398   6.516   2.391  14.485  0.0810  0.7816 -0.3715
15661TIP3    H268399   6.550   2.361  14.341 -0.3855 -1.3353 -0.0663
15662TIP3   OH268400   2.435   3.343   0.816  0.4905 -0.0993 -0.1388
15662TIP3    H168401   2.372   3.373   0.882  2.5292  2.0404  0.9614
15662TIP3    H268402   2.520   3.357   0.857  1.7461 -1.6831 -2.0780
15663TIP3   OH268403   4.360   3.045  14.108 -0.1231 -0.5792 -0.2436
15663TIP3    H168404   4.379   3.126  14.156 -0.5125 -0.1189 -0.8409
15663TIP3    H268405   4.381   2.975  14.169  2.4155 -0.0914 -0.4393
15664TIP3   OH268406   0.387   4.445   0.249  0.5205 -0.1315  0.1219
15664TIP3    H168407   0.457   4.491   0.203  1.0190 -1.3506 -0.3774
15664TIP3    H268408   0.360   4.375   0.189 -0.0528 -0.6452  0.9458
15665TIP3   OH268409   5.629   2.385   3.973  0.8126 -0.3576 -0.1660
15665TIP3    H168410   5.712   2.354   4.009  0.3027 -0.5350  0.8992
15665TIP3    H268411   5.564   2.325   4.008  0.3962 -1.2703 -2.3803
15666TIP3   OH268412   0.050   1.438   2.780  0.2366 -0.6856  0.2632
15666TIP3    H168413  -0.045   1.449   2.772  0.2530  0.0203  0.9436
15666TIP3    H268414   0.077   1.400   2.696 -0.6978 -1.3022  0.2243
15667TIP3   OH268415   5.680   5.994   3.991  0.0623 -0.4353  0.6837
15667TIP3    H168416   5.586   6.002   3.976  0.2107 -0.0304 -0.1282
15667TIP3    H268417   5.709   5.928   3.928  0.6814  1.1921 -0.8449
15668TIP3   OH268418   1.603   2.170   1.122  0.2417 -0.0581  0.8007
15668TIP3    H168419   1.545   2.212   1.186  0.7659 -0.0028  1.2468
15668TIP3    H268420   1.691   2.193   1.151  0.5262  2.8854 -1.8896
15669TIP3   OH268421   4.436   2.335  12.266 -0.5037  0.0680  0.3365
15669TIP3    H168422   4.414   2.428  12.280 -1.6599 -0.2268  0.5790
15669TIP3    H268423   4.389   2.289  12.335  1.4705 -0.5727  1.3403
15670TIP3   OH268424   2.314   5.438  12.223 -0.0425  0.0647 -0.3311
15670TIP3    H168425   2.289   5.387  12.300 -0.8337 -0.9258 -1.2266
15670TIP3    H268426   2.233   5.482  12.196  0.8565  2.9761  1.2095
15671TIP3   OH268427   0.129   3.506  13.466  0.5571  0.1439 -0.4319
15671TIP3    H168428   0.066   3.443  13.430 -0.6727  0.5414  0.9155
15671TIP3    H268429   0.166   3.550  13.389 -0.3060 -0.5974 -1.2940
15672TIP3   OH268430   5.408   3.193  10.846  0.7213 -0.1930  0.3911
15672TIP3    H168431   5.314   3.188  10.829  0.9514 -3.2652 -0.5483
15672TIP3    H268432   5.439   3.263  10.789 -1.0902  1.6242  1.5137
15673TIP3   OH268433   3.468   1.213   2.612 -0.4363  0.3602 -0.0857
15673TIP3    H168434   3.495   1.122   2.604  0.1758  0.6553 -1.9359
15673TIP3    H268435   3.537   1.262   2.566 -0.3744  1.8358  1.4781
15674TIP3   OH268436   5.705   4.186   0.651  0.2945 -0.0910 -0.0933
15674TIP3    H168437   5.660   4.102   0.661  0.0227 -0.0629 -0.9673
15674TIP3    H268438   5.635   4.248   0.628  0.4147  0.4869  1.0532
15675TIP3   OH268439   3.193   3.307  13.992  0.2465  0.4374 -0.1741
15675TIP3    H168440   3.134   3.373  14.028 -0.0815  0.4781 -0.7781
15675TIP3    H268441   3.208   3.334  13.901  1.3861  0.5571  0.0355
15676TIP3   OH268442   6.236   0.194   1.947 -0.0284  0.5481 -0.1870
15676TIP3    H168443   6.275   0.270   1.991  1.0950 -1.3564  2.3197
15676TIP3    H268444   6.154   0.228   1.910  0.6364  3.0656  0.4619
15677TIP3   OH268445   1.995   6.326   1.653 -0.4924  0.0851  0.3528
15677TIP3    H168446   2.051   6.330   1.576 -1.7956 -0.1939 -0.6397
15677TIP3    H268447   1.981   6.418   1.677  0.5167  0.1532  0.7299
15678TIP3   OH268448   1.345   6.519  15.975  0.3301  0.4411 -0.1651
15678TIP3    H168449   1.312   6.542  16.062 -0.0473 -1.1623  0.1459
15678TIP3    H268450   1.440   6.524  15.983  0.3087 -0.0453  0.4596
15679TIP3   OH268451   1.242   5.019   5.014 -0.1515 -0.2218 -0.1500
15679TIP3    H168452   1.164   5.066   4.986  0.6332  0.2197 -1.6689
15679TIP3    H268453   1.213   4.928   5.024 -1.0102  0.0619  0.0307
15680TIP3   OH268454   6.023   4.444   1.916  0.2732  0.6355  0.2809
15680TIP3    H168455   5.959   4.399   1.860  1.4478  0.3464 -0.8594
15680TIP3    H268456   6.106   4.436   1.870  1.3318  0.2580  2.1473
15681TIP3   OH268457   1.559   6.458   2.659 -0.2894 -0.8156  0.4994
15681TIP3    H168458   1.606   6.397   2.716  0.9142  0.0628  0.4806
15681TIP3    H268459   1.566   6.420   2.571  2.3588  0.3667  0.1163
15682TIP3   OH268460   5.878   1.746  11.349  0.4141 -0.2442  0.6498
15682TIP3    H168461   5.847   1.836  11.362  1.2465  0.0208  0.8662
15682TIP3    H268462   5.882   1.709  11.437 -1.1429 -0.9270  0.4613
15683TIP3   OH268463   3.185   0.375   2.716 -0.3791 -0.5500  0.2792
15683TIP3    H168464   3.160   0.455   2.762  1.0415 -0.0163  0.1601
15683TIP3    H268465   3.258   0.339   2.766  0.8620 -0.2334 -1.2261
15684TIP3   OH268466   4.767   1.103  11.669  0.3808 -0.2839 -0.7240
15684TIP3    H168467   4.793   1.028  11.615 -1.4386 -1.8788  0.5123
15684TIP3    H268468   4.677   1.084  11.695  1.2990  0.0340  3.3725
15685TIP3   OH268469   2.031   3.153   2.278 -0.2573 -0.6246  0.0576
15685TIP3    H168470   1.948   3.111   2.297 -1.3787  0.9903 -0.9901
15685TIP3    H268471   2.060   3.113   2.196 -0.0967 -1.0533  0.3240
15686TIP3   OH268472   6.225   6.493  16.183 -0.1297 -0.0823 -0.2700
15686TIP3    H168473   6.184   6.466  16.265  1.5381  0.1145  0.6799
15686TIP3    H268474   6.204   6.422  16.122 -0.8622 -0.5520  0.4964
15687TIP3   OH268475   1.092   1.140   4.126 -0.3560  0.2188 -0.1173
15687TIP3    H168476   1.118   1.223   4.086 -1.0696 -0.0536 -1.1936
15687TIP3    H268477   1.018   1.163   4.182  0.0750  0.4577  0.3654
15688TIP3   OH268478   6.396   6.648  16.467 -0.7399 -0.3010  0.0294
15688TIP3    H168479   6.346   6.700  16.530 -1.6684 -0.6479 -0.4042
15688TIP3    H268480   6.395   6.701  16.387  0.7327  0.3022  0.3779
15689TIP3   OH268481   6.080   4.108  11.648 -0.1240 -0.2399  0.4822
15689TIP3    H168482   6.033   4.078  11.725  0.5409  0.1865  1.0599
15689TIP3    H268483   6.163   4.062  11.650  0.1102  0.1636  0.3100
15690TIP3   OH268484   6.494   4.993  13.324 -0.1415 -0.2227  0.6422
15690TIP3    H168485   6.571   5.019  13.275 -0.8786 -0.6057 -0.7820
15690TIP3    H268486   6.455   5.075  13.355  0.4676  0.0056  0.8072
15691TIP3   OH268487   1.179   4.122  17.247 -0.0071  0.2612  0.1771
15691TIP3    H168488   1.136   4.055  17.194  1.0564  0.4080 -0.9090
15691TIP3    H268489   1.149   4.205  17.208  2.0113  0.3744 -1.3129
15692TIP3   OH268490   6.622   4.328  14.611 -0.0945  0.0337 -0.1689
15692TIP3    H168491   6.619   4.302  14.519 -0.2987  0.3740 -0.2611
15692TIP3    H268492   6.530   4.335  14.636 -0.0375 -0.2547  0.1184
15693TIP3   OH268493   3.759   2.831  15.600  0.4277  0.1333  0.2704
15693TIP3    H168494   3.738   2.900  15.538  0.7442  1.9312  2.0339
15693TIP3    H268495   3.684   2.773  15.599  1.4024 -1.3347 -3.4910
15694TIP3   OH268496   5.642   4.201  15.810  0.1383  0.1436  0.2049
15694TIP3    H168497   5.724   4.245  15.790  0.6031 -0.6229  0.3726
15694TIP3    H268498   5.658   4.154  15.892 -0.6485  0.4303  0.5418
15695TIP3   OH268499   1.484   3.275  12.806  0.2469 -0.1764 -0.3254
15695TIP3    H168500   1.429   3.198  12.822 -0.9092  0.7835  0.5135
15695TIP3    H268501   1.500   3.312  12.892 -0.3933  1.2948 -0.7938
15696TIP3   OH268502   1.904   1.755  16.459  0.1234 -0.4426  0.1632
15696TIP3    H168503   1.867   1.686  16.404 -0.2878  0.5606 -0.8655
15696TIP3    H268504   1.892   1.836  16.409 -0.0608  0.4957  1.6308
15697TIP3   OH268505   5.710   0.335  12.801 -0.3204 -0.2355  0.0631
15697TIP3    H168506   5.708   0.406  12.866 -0.9363  0.0199 -0.2208
15697TIP3    H268507   5.802   0.326  12.778  0.1939 -1.5630  2.2919
15698TIP3   OH268508   6.207   3.356  14.620  0.4417  0.6471 -0.1479
15698TIP3    H168509   6.129   3.320  14.577  0.2581 -0.0075  0.7034
15698TIP3    H268510   6.214   3.307  14.702  2.1031  0.2776 -0.4767
15699TIP3   OH268511   2.565   3.199  13.690  0.0497  0.6416  0.0689
15699TIP3    H168512   2.610   3.225  13.610  0.9189 -1.6885 -0.2901
15699TIP3    H268513   2.543   3.107  13.676  1.2374 -0.1921  2.8818
15700TIP3   OH268514   2.438   2.005  16.511 -0.3364 -0.0805  0.5001
15700TIP3    H168515   2.435   2.099  16.494  0.2147 -0.6465 -3.7044
15700TIP3    H268516   2.366   1.968  16.460  0.9889 -2.1346 -0.0394
15701TIP3   OH268517   1.546   0.459  14.045  0.5415  0.4504  0.0647
15701TIP3    H168518   1.502   0.491  13.966  0.2993 -0.9418 -0.3834
15701TIP3    H268519   1.513   0.516  14.115 -1.0875  0.2099 -0.4526
15702TIP3   OH268520   3.626   2.350   5.505  0.5073  0.3462  0.0990
15702TIP3    H168521   3.652   2.393   5.424  1.6850 -1.2666 -0.4460
15702TIP3    H268522   3.677   2.394   5.573 -0.6155  1.8214  0.0264
15703TIP3   OH268523   3.787   3.621  11.329  0.3065 -0.1727 -0.1431
15703TIP3    H168524   3.809   3.691  11.390  2.8963 -1.6285  0.7621
15703TIP3    H268525   3.821   3.651  11.244 -0.5297  0.5251 -0.2523
15704TIP3   OH268526   4.490   4.688   3.803  0.4236 -0.3176  0.3232
15704TIP3    H168527   4.547   4.733   3.741  0.6704 -0.5567  0.3742
15704TIP3    H268528   4.545   4.674   3.880  0.2831 -0.5039  0.3903
15705TIP3   OH268529   3.221   4.760   2.361 -0.0540  0.6273  0.2156
15705TIP3    H168530   3.311   4.783   2.383  0.4529 -0.9369 -0.1115
15705TIP3    H268531   3.199   4.688   2.421 -1.4751  1.6806  1.0269
15706TIP3   OH268532   5.017   1.642  13.617  0.3742  0.0910 -0.2148
15706TIP3    H168533   5.107   1.674  13.624  0.6842 -0.7636 -0.2038
15706TIP3    H268534   4.966   1.700  13.674  0.7012  1.3411 -1.1472
15707TIP3   OH268535   4.642   1.483   1.148  0.7765 -0.2919  0.5613
15707TIP3    H168536   4.678   1.400   1.181  0.5391 -1.2823 -1.4911
15707TIP3    H268537   4.662   1.547   1.217  1.4585 -1.9262  1.9699
15708TIP3   OH268538   2.681   3.491   2.210 -0.3117 -0.1437  0.2198
15708TIP3    H168539   2.593   3.525   2.195 -0.8274 -1.1720  0.8149
15708TIP3    H268540   2.723   3.497   2.124 -0.8857  0.5409 -0.0282
15709TIP3   OH268541   3.669   2.907  15.024  0.1356 -0.2798 -0.4147
15709TIP3    H168542   3.657   2.812  15.024  0.8309 -0.3764 -1.1322
15709TIP3    H268543   3.634   2.935  15.109 -1.8516 -0.9185 -0.9665
15710TIP3   OH268544   3.587   2.303  12.325  0.4394 -0.7943 -0.1038
15710TIP3    H168545   3.556   2.254  12.249 -0.8379  1.6347 -1.2604
15710TIP3    H268546   3.510   2.348  12.359  1.6718  1.1800  0.2617
15711TIP3   OH268547   0.481   6.652  11.603  0.6182  0.1354  0.4740
15711TIP3    H168548   0.460   6.722  11.665 -0.0038  1.4579 -1.1527
15711TIP3    H268549   0.492   6.697  11.519 -0.7362 -1.8235 -0.8289
15712TIP3   OH268550   3.708   1.628  11.023 -0.5413 -0.1935 -0.1461
15712TIP3    H168551   3.618   1.593  11.026 -0.1627 -1.3019 -1.0332
15712TIP3    H268552   3.724   1.645  10.930  0.2403 -0.2036 -0.0148
15713TIP3   OH268553   6.105   4.755  12.464 -0.6801  0.3226  0.4239
15713TIP3    H168554   6.042   4.712  12.522 -0.3809 -0.2235  0.3475
15713TIP3    H268555   6.160   4.684  12.431 -1.0841  0.5601 -0.8326
15714TIP3   OH268556   1.968   2.912   5.148  0.5000  0.3366  0.1192
15714TIP3    H168557   2.060   2.911   5.120  0.3763  0.3576 -0.2863
15714TIP3    H268558   1.945   2.820   5.157 -0.3654  0.1810 -2.8401
15715TIP3   OH268559   3.508   5.600  11.672 -0.1435  0.5652 -0.4412
15715TIP3    H168560   3.483   5.692  11.683 -0.9876  0.3317 -0.3738
15715TIP3    H268561   3.425   5.554  11.661  0.2273 -0.2887  0.2347
15716TIP3   OH268562   4.696   4.276  12.715  0.9415 -0.0724  0.1351
15716TIP3    H168563   4.604   4.277  12.743  0.9628  2.3136  0.3177
15716TIP3    H268564   4.741   4.332  12.778  1.7921  1.9630 -2.1526
15717TIP3   OH268565   0.299   5.859   5.564 -0.1025 -0.1708 -0.5712
15717TIP3    H168566   0.241   5.790   5.595  0.4104 -0.5940 -0.5424
15717TIP3    H268567   0.259   5.940   5.595 -0.7320 -0.4499 -0.6444
15718TIP3   OH268568   4.015   1.884   5.602 -0.7325  0.5277  0.7155
15718TIP3    H168569   4.060   1.938   5.666 -1.3054  0.9304  0.7904
15718TIP3    H268570   3.956   1.944   5.556  0.2893  0.4319 -0.7959
15719TIP3   OH268571   5.130   3.002  16.818 -0.4504  0.6481  0.1150
15719TIP3    H168572   5.083   2.950  16.752  1.8897  0.6504 -1.6822
15719TIP3    H268573   5.100   3.091  16.804 -3.7907  0.1018  2.5949
15720TIP3   OH268574   1.739   2.982  13.050 -0.1511  0.3046 -0.1064
15720TIP3    H168575   1.753   2.967  12.956  1.4515 -0.2547  0.1929
15720TIP3    H268576   1.675   3.053  13.053 -1.6862 -0.9184 -1.6070
15721TIP3   OH268577   1.966   2.130  16.918  0.0554 -0.1396  0.0327
15721TIP3    H168578   2.037   2.143  16.856 -1.2251  1.7609 -1.1348
15721TIP3    H268579   1.957   2.214  16.964 -2.1602  0.1214 -0.7180
15722TIP3   OH268580   3.026   6.527  15.880 -0.0737 -0.3405  0.0629
15722TIP3    H168581   2.947   6.531  15.826 -0.4504  1.1415  0.6792
15722TIP3    H268582   2.994   6.530  15.970  0.7100  1.6739  0.3187
15723TIP3   OH268583   0.730   0.932   0.055  0.0171  0.4918 -0.5423
15723TIP3    H168584   0.824   0.948   0.059 -0.0538  1.3432 -1.7168
15723TIP3    H268585   0.717   0.851   0.105  1.3152  0.5502 -0.0773
15724TIP3   OH268586   1.247   2.089   5.162  0.7906  0.2326 -0.1747
15724TIP3    H168587   1.262   2.073   5.255 -0.1823 -0.4783 -0.1191
15724TIP3    H268588   1.196   2.013   5.133 -0.2676  1.1875 -0.9125
15725TIP3   OH268589   1.656   0.344   3.343 -0.5817  0.1211 -0.4976
15725TIP3    H168590   1.612   0.375   3.422  0.4665 -0.5505  0.3598
15725TIP3    H268591   1.657   0.421   3.285 -2.9491  0.1486 -0.6085
15726TIP3   OH268592   4.931   4.252  16.682 -0.2762 -0.1132 -0.2015
15726TIP3    H168593   4.960   4.254  16.774 -1.6140 -0.8198  0.2540
15726TIP3    H268594   5.004   4.291  16.634  0.6571 -0.1635  1.1048
15727TIP3   OH268595   5.064   0.149  15.004  0.1279  0.5689 -0.2836
15727TIP3    H168596   5.118   0.102  14.940 -0.2147 -0.4759  0.1746
15727TIP3    H268597   5.027   0.222  14.954 -0.5723 -0.5350 -1.4635
15728TIP3   OH268598   3.444   3.280  10.995  0.0093 -0.0014  0.5284
15728TIP3    H168599   3.404   3.317  11.074 -0.0352 -0.9308  0.9600
15728TIP3    H268600   3.479   3.355  10.948  0.7165  0.5174  1.8247
15729TIP3   OH268601   5.164   0.758  15.045  0.0882 -0.0071 -0.1984
15729TIP3    H168602   5.150   0.789  14.955  0.6018 -1.1355 -0.6801
15729TIP3    H268603   5.104   0.684  15.054  0.1376  0.0199  0.3542
15730TIP3   OH268604   2.207   5.431  13.491 -0.2881 -0.2593 -0.2407
15730TIP3    H168605   2.170   5.512  13.454 -0.4279  0.6616  1.7746
15730TIP3    H268606   2.136   5.368  13.485 -0.9090  0.3935  0.1115
15731TIP3   OH268607   4.431   4.989  14.584 -0.2087  0.0226  0.1385
15731TIP3    H168608   4.479   4.994  14.667  0.2547  0.1841 -0.1336
15731TIP3    H268609   4.422   4.895  14.567  0.3234 -0.0108  0.0180
15732TIP3   OH268610   6.598   5.297  16.821 -0.3963 -0.1571  0.0024
15732TIP3    H168611   6.561   5.209  16.815  1.2114 -0.8213 -1.1009
15732TIP3    H268612   6.677   5.293  16.766  0.2332  1.7060  0.6973
15733TIP3   OH268613   1.792   6.039  13.417 -0.4715  0.6180 -0.2559
15733TIP3    H168614   1.713   6.069  13.464  0.1565  0.8863  0.6650
15733TIP3    H268615   1.824   6.116  13.372  1.1184  1.4330  2.0768
15734TIP3   OH268616   3.176   6.516   5.578  0.3316 -0.2920 -0.0061
15734TIP3    H168617   3.127   6.573   5.518 -0.8918 -2.6334 -1.4115
15734TIP3    H268618   3.246   6.480   5.523  1.4502  0.2757  1.0183
15735TIP3   OH268619   1.516   2.941   4.082  0.1183 -0.4181 -0.1396
15735TIP3    H168620   1.452   2.873   4.102  1.1801 -2.0178 -1.8717
15735TIP3    H268621   1.567   2.950   4.163 -0.2540 -1.4588  0.2302
15736TIP3   OH268622   5.400   2.663   2.451  0.1166  0.1935 -0.3889
15736TIP3    H168623   5.385   2.745   2.404  0.3363  0.0155 -0.7794
15736TIP3    H268624   5.389   2.685   2.543 -0.7618  0.4572 -0.5471
15737TIP3   OH268625   2.386   0.798   2.938 -0.2481  0.1158  0.1140
15737TIP3    H168626   2.449   0.776   2.870 -1.9085 -1.9713 -0.8748
15737TIP3    H268627   2.390   0.724   2.999 -1.0005  0.4575  0.5902
15738TIP3   OH268628   1.026   6.068   4.578 -0.1563  0.0146 -0.1415
15738TIP3    H168629   1.011   5.987   4.530 -0.5864 -0.3226  0.5415
15738TIP3    H268630   0.944   6.084   4.625  0.4948 -0.1137  1.1011
15739TIP3   OH268631   1.025   3.812   5.662 -0.0942 -0.0649  0.0601
15739TIP3    H168632   1.025   3.846   5.572  0.6155 -0.3822 -0.0627
15739TIP3    H268633   1.107   3.843   5.700 -0.0549 -0.5439  0.3666
15740TIP3   OH268634   4.250   2.847  10.807  0.0604 -0.0225  0.1477
15740TIP3    H168635   4.344   2.829  10.809 -0.0203 -0.4963 -0.2048
15740TIP3    H268636   4.210   2.763  10.785 -0.3610  0.4961 -1.1320
15741TIP3   OH268637   2.440   2.458   4.132  0.1991  0.3583  0.5350
15741TIP3    H168638   2.401   2.538   4.168 -0.0669  0.3201  0.3399
15741TIP3    H268639   2.365   2.408   4.101  0.3836  0.1328  0.4548
15742TIP3   OH268640   2.831   5.462   0.501  0.0419  0.3336 -0.0474
15742TIP3    H168641   2.841   5.493   0.411 -0.4162 -0.8452 -0.5232
15742TIP3    H268642   2.862   5.371   0.500 -2.5460 -0.6527  0.3065
15743TIP3   OH268643   3.675   0.459   5.005 -0.1717  0.0385  0.6831
15743TIP3    H168644   3.635   0.397   4.944 -0.6315 -0.7355  1.7401
15743TIP3    H268645   3.727   0.517   4.949 -2.3201  0.7639 -0.6742
15744TIP3   OH268646   1.810   4.301  14.379 -0.2278  0.0478 -0.0621
15744TIP3    H168647   1.790   4.394  14.374  1.4609  0.4998  0.8287
15744TIP3    H268648   1.880   4.287  14.316 -0.1976 -0.5508  0.0930
15745TIP3   OH268649   1.998   4.429   6.520  0.3478 -0.0665 -0.8602
15745TIP3    H168650   2.020   4.521   6.504 -1.4291  0.7026  0.8149
15745TIP3    H268651   1.931   4.431   6.587 -0.1474 -2.5947 -1.1705
15746TIP3   OH268652   1.411   0.201   4.114  0.4150 -0.6834 -1.0932
15746TIP3    H168653   1.503   0.180   4.096  0.3121 -0.0053 -2.4677
15746TIP3    H268654   1.415   0.281   4.167  0.6459 -1.6750  0.4801
15747TIP3   OH268655   5.316   2.516  17.218  0.2666  0.6960  1.0037
15747TIP3    H168656   5.377   2.575  17.262  1.1268  0.9328 -0.4475
15747TIP3    H268657   5.363   2.486  17.141 -0.2166 -1.7967  1.5983
15748TIP3   OH268658   5.629   3.842  10.872  0.2455 -0.1457  0.4657
15748TIP3    H168659   5.617   3.748  10.855  0.9454 -0.3572  1.0900
15748TIP3    H268660   5.544   3.881  10.851  0.3168 -0.7320 -1.0089
15749TIP3   OH268661   1.835   3.860   1.694  0.4147  0.1429 -0.3617
15749TIP3    H168662   1.825   3.952   1.667  3.7779  0.5290 -0.6845
15749TIP3    H268663   1.907   3.827   1.640 -0.5885 -2.7004 -0.1357
15750TIP3   OH268664   6.404   4.962   2.633 -0.6409  0.0983 -0.1309
15750TIP3    H168665   6.499   4.979   2.634 -0.7134  0.4797  0.4029
15750TIP3    H268666   6.383   4.956   2.540  0.5613 -3.7855 -0.3410
15751TIP3   OH268667   1.687   0.524   4.619 -0.2819  0.3300 -0.5594
15751TIP3    H168668   1.759   0.588   4.613 -0.3458  0.3416 -1.2754
15751TIP3    H268669   1.727   0.441   4.593 -0.3596  0.1981 -0.2635
15752TIP3   OH268670   1.409   1.918   4.430 -0.0076 -0.1756  0.0090
15752TIP3    H168671   1.396   1.832   4.470 -0.8262 -0.9291 -1.7463
15752TIP3    H268672   1.376   1.980   4.494 -3.7049 -1.4693 -0.4073
15753TIP3   OH268673   3.531   2.152   6.171 -0.5000  0.4491  0.0157
15753TIP3    H168674   3.441   2.181   6.186  0.0032  1.7577  0.6981
15753TIP3    H268675   3.570   2.220   6.117  0.0126 -0.2444 -0.5110
15754TIP3   OH268676   0.385   1.996  16.032  0.2206 -0.0221  0.2587
15754TIP3    H168677   0.408   2.089  16.032  1.8526 -0.3996  0.9859
15754TIP3    H268678   0.357   1.979  15.942 -0.7653  1.2999  0.2723
15755TIP3   OH268679   5.072   6.606  15.346  0.9655  0.0153  0.3621
15755TIP3    H168680   5.133   6.650  15.405 -1.4873  2.0527  1.6310
15755TIP3    H268681   5.017   6.553  15.404  0.9664 -1.0747 -0.6065
15756TIP3   OH268682   4.853   1.633   0.694 -0.3416  0.7108 -0.1158
15756TIP3    H168683   4.939   1.633   0.653  0.1068 -0.8829  0.7698
15756TIP3    H268684   4.869   1.662   0.784 -0.8895  1.3269 -0.2043
15757TIP3   OH268685   3.826   5.024   3.489 -0.2625 -0.0353  0.1319
15757TIP3    H168686   3.886   5.023   3.563 -0.9482 -0.5597  0.6968
15757TIP3    H268687   3.878   5.059   3.416 -0.0295  2.0355  1.2221
15758TIP3   OH268688   5.810   2.979  11.354  0.3696 -0.6101  0.3113
15758TIP3    H168689   5.849   2.899  11.319  1.1499 -0.0955 -0.0383
15758TIP3    H268690   5.818   3.043  11.283 -1.0480 -0.4543  0.2662
15759TIP3   OH268691   4.419   0.004   2.599  0.0751 -0.2116 -0.7942
15759TIP3    H168692   4.491  -0.007   2.537  0.7676  1.5800 -0.3720
15759TIP3    H268693   4.366  -0.075   2.588  2.4972 -1.9724 -0.5638
15760TIP3   OH268694   1.579   6.494  13.338 -0.2402  0.4375  0.3532
15760TIP3    H168695   1.636   6.420  13.317 -0.9141 -0.2149  0.7607
15760TIP3    H268696   1.601   6.561  13.274  0.4170 -0.0996  0.0100
15761TIP3   OH268697   0.801   3.222  14.941 -0.7116  0.6080  0.0473
15761TIP3    H168698   0.791   3.221  15.036 -1.1836  0.9926  0.0024
15761TIP3    H268699   0.716   3.249  14.908 -1.0403 -1.0501 -0.5572
15762TIP3   OH268700   5.063   0.602   6.048 -0.1912  0.3782  0.1575
15762TIP3    H168701   5.122   0.670   6.080 -0.7414  1.0317 -0.1856
15762TIP3    H268702   5.024   0.639   5.969 -0.6557 -0.2500  0.0835
15763TIP3   OH268703   0.503   5.047  11.014  0.1319 -0.4432 -0.0894
15763TIP3    H168704   0.572   5.063  10.950 -1.0797  1.5507 -0.9783
15763TIP3    H268705   0.428   5.018  10.962 -0.4348 -0.2481  0.5969
15764TIP3   OH268706   2.691   0.826  11.969 -0.1808 -0.3976 -0.2511
15764TIP3    H168707   2.689   0.751  11.910 -0.2168  0.2996 -1.1445
15764TIP3    H268708   2.728   0.790  12.050  0.4087 -1.2395 -0.8690
15765TIP3   OH268709   6.043   4.514   4.335  0.2096 -0.1486 -0.0688
15765TIP3    H168710   5.995   4.580   4.286  0.0203 -0.9534 -1.0055
15765TIP3    H268711   6.121   4.497   4.283  0.8536  0.1789  0.7638
15766TIP3   OH268712   4.316   0.330   0.736 -0.5349  0.0286  0.2549
15766TIP3    H168713   4.307   0.292   0.824  0.3513  0.1601  0.4034
15766TIP3    H268714   4.407   0.317   0.713 -0.7088  0.2079 -0.5599
15767TIP3   OH268715   0.376   1.637   0.244  0.0722 -0.6125 -0.1263
15767TIP3    H168716   0.282   1.658   0.243  0.3167  0.5562  0.0842
15767TIP3    H268717   0.389   1.589   0.325 -0.2927 -0.4853  0.0095
15768TIP3   OH268718   0.207   6.287   4.639 -0.4597 -0.0174 -0.8551
15768TIP3    H168719   0.147   6.342   4.589 -1.5521 -0.4511 -0.0545
15768TIP3    H268720   0.253   6.348   4.697  0.2365  0.3754 -1.7852
15769TIP3   OH268721   6.777   2.318  15.723  0.1746 -0.1486  0.1145
15769TIP3    H168722   6.749   2.390  15.779  1.3766 -0.2003  0.8178
15769TIP3    H268723   6.867   2.340  15.699  0.2087 -0.9174 -0.5041
15770TIP3   OH268724   2.582   1.432   4.587 -0.2637 -0.0682 -0.4799
15770TIP3    H168725   2.627   1.368   4.533  1.4543  0.2368  0.5153
15770TIP3    H268726   2.633   1.436   4.668 -1.4345  1.1492  0.2496
15771TIP3   OH268727   4.304   1.563  14.295 -0.1310  0.0365  0.0974
15771TIP3    H168728   4.364   1.520  14.234 -0.8510  0.9149 -1.3096
15771TIP3    H268729   4.349   1.643  14.321  0.7162 -0.9336  1.7958
15772TIP3   OH268730   0.962   6.737  12.196  0.1550 -0.1702 -0.0638
15772TIP3    H168731   0.961   6.825  12.158 -1.3168 -0.3594 -0.5258
15772TIP3    H268732   1.039   6.696  12.157 -0.1450  0.3340 -1.2536
15773TIP3   OH268733   6.669   5.881   6.066 -0.0883 -0.0756  0.3220
15773TIP3    H168734   6.734   5.847   6.128 -1.3644 -3.0849  0.2026
15773TIP3    H268735   6.700   5.850   5.980 -1.3850 -1.1583  0.2168
15774TIP3   OH268736   1.215   0.063   0.245  0.2150 -1.2793  0.9837
15774TIP3    H168737   1.284   0.015   0.289  0.4928 -1.4046  0.4179
15774TIP3    H268738   1.202   0.017   0.162  2.0445  0.8584 -0.6186
15775TIP3   OH268739   0.776   4.615  13.055 -0.7382 -0.1274  0.2317
15775TIP3    H168740   0.853   4.605  13.112 -1.5026  0.3381  1.3844
15775TIP3    H268741   0.750   4.525  13.033 -0.6802 -0.3358  0.9783
15776TIP3   OH268742   2.816   0.689   3.056 -0.0588  0.1628  0.5716
15776TIP3    H168743   2.796   0.647   3.140 -0.8119  1.8964  1.3056
15776TIP3    H268744   2.845   0.777   3.080  0.4173  0.4457 -0.9654
15777TIP3   OH268745   0.566   2.147  13.872  0.0513  0.3742  0.2220
15777TIP3    H168746   0.567   2.082  13.802  2.1163 -1.3450  1.6943
15777TIP3    H268747   0.479   2.138  13.912  0.0852 -1.0884  0.0172
15778TIP3   OH268748   2.127   1.315   2.416 -0.0870 -0.1963  0.5207
15778TIP3    H168749   2.149   1.231   2.375 -2.0059 -1.0896  1.2324
15778TIP3    H268750   2.166   1.380   2.358  1.7455 -1.5550  0.1189
15779TIP3   OH268751   6.233   2.707   4.921 -0.0561  0.0108 -0.6964
15779TIP3    H168752   6.319   2.715   4.963  0.5665 -1.7879 -1.5025
15779TIP3    H268753   6.237   2.623   4.876 -1.8135  0.4587 -1.7786
15780TIP3   OH268754   2.260   5.772  14.186 -0.5602 -0.4842  0.0258
15780TIP3    H168755   2.215   5.690  14.206 -0.6250 -0.7297 -1.0527
15780TIP3    H268756   2.272   5.770  14.091 -2.8100  1.8814 -0.4198
15781TIP3   OH268757   2.799   5.496  16.351 -0.2427 -0.2639  0.3909
15781TIP3    H168758   2.816   5.410  16.313 -0.8478 -0.7798  1.2562
15781TIP3    H268759   2.735   5.480  16.420 -0.2567  0.8613  0.6640
15782TIP3   OH268760   1.252   6.314   6.287  0.3023 -0.4200  0.0641
15782TIP3    H168761   1.299   6.253   6.231 -0.1420 -1.2204  0.5434
15782TIP3    H268762   1.305   6.318   6.367  0.8036  0.5260 -0.2951
15783TIP3   OH268763   4.997   5.175   2.110 -0.5475 -0.0009  0.0261
15783TIP3    H168764   4.949   5.227   2.046 -1.8061  1.0076  1.6941
15783TIP3    H268765   5.056   5.237   2.152 -0.7891 -0.2911  0.8219
15784TIP3   OH268766   6.748   4.285   3.193  0.3869  1.0407 -0.4073
15784TIP3    H168767   6.831   4.333   3.197  1.2722 -0.4969  0.4965
15784TIP3    H268768   6.772   4.193   3.205 -1.2442  0.3170 -2.2024
15785TIP3   OH268769   4.253   0.948   2.983 -0.1589  0.2618 -0.0575
15785TIP3    H168770   4.203   0.948   2.901  1.3108 -0.3623 -0.9888
15785TIP3    H268771   4.272   1.040   2.998 -1.1018  0.4607  0.0266
15786TIP3   OH268772   0.050   1.033  16.078 -0.1127 -0.3661  0.4835
15786TIP3    H168773   0.076   0.968  16.143  1.3490 -2.3453 -1.9330
15786TIP3    H268774  -0.011   0.987  16.021  1.3456  0.1150 -1.5862
15787TIP3   OH268775   1.675   1.437   4.642  0.0631  0.2734 -0.3934
15787TIP3    H168776   1.640   1.526   4.640  0.4765  0.5283  1.6126
15787TIP3    H268777   1.768   1.447   4.619 -0.2284  0.1203 -1.7282
15788TIP3   OH268778   2.088   0.100   4.497  0.3312 -0.6253 -0.1850
15788TIP3    H168779   2.014   0.103   4.436  0.2295  0.1221 -0.0375
15788TIP3    H268780   2.106   0.007   4.508  0.8683 -0.7669 -1.9599
15789TIP3   OH268781   0.529   4.362   4.015  0.1169  0.3661 -0.0598
15789TIP3    H168782   0.457   4.408   4.058  0.7168 -1.0664  2.6586
15789TIP3    H268783   0.594   4.430   3.999 -0.2538  1.0104  1.0654
15790TIP3   OH268784   2.872   5.367  14.763 -0.0247 -0.1644 -0.4897
15790TIP3    H168785   2.905   5.307  14.830  1.1923  0.5221 -0.4387
15790TIP3    H268786   2.882   5.319  14.681 -0.4509 -0.5791 -0.3010
15791TIP3   OH268787   0.943   4.656  15.374 -0.1094 -0.0619  0.6026
15791TIP3    H168788   0.944   4.561  15.380 -0.7028 -0.1483 -0.4737
15791TIP3    H268789   0.921   4.686  15.462 -0.1406 -0.9255  0.8881
15792TIP3   OH268790   1.289   1.472   4.736  0.7065 -0.0185  0.7553
15792TIP3    H168791   1.228   1.436   4.800  2.0977 -0.6592  1.7821
15792TIP3    H268792   1.337   1.395   4.703  1.6310  0.5598  0.7153
15793TIP3   OH268793   1.238   6.334   3.960 -0.1510  0.4376  0.6569
15793TIP3    H168794   1.153   6.337   4.004  0.1288 -1.4540  1.4133
15793TIP3    H268795   1.269   6.244   3.973  0.4680  0.0605 -2.4546
15794TIP3   OH268796   2.563   2.984  11.731 -0.5202 -0.1869  0.0302
15794TIP3    H168797   2.570   3.061  11.787  3.1741  0.6790 -1.3556
15794TIP3    H268798   2.502   3.010  11.663  1.0853  1.8611 -0.7459
15795TIP3   OH268799   0.061   4.141  11.251 -0.1545 -0.4926 -0.1236
15795TIP3    H168800   0.109   4.166  11.171 -1.2647 -1.7546 -1.2371
15795TIP3    H268801  -0.031   4.157  11.229 -0.3531  1.1915  1.7166
15796TIP3   OH268802   1.014   4.832   5.553  0.1695  0.2102 -0.2688
15796TIP3    H168803   0.959   4.754   5.558  2.4423 -1.5956 -1.4413
15796TIP3    H268804   1.010   4.858   5.461  0.9575  0.2380 -0.3065
15797TIP3   OH268805   3.106   5.580  11.111 -0.7333  0.5287  0.4487
15797TIP3    H168806   3.113   5.675  11.106  1.3480  0.4023 -0.1571
15797TIP3    H268807   3.120   5.560  11.204 -0.0947  0.7755  0.4134
15798TIP3   OH268808   0.420   0.468  12.574  0.0287  0.3144  0.2275
15798TIP3    H168809   0.473   0.432  12.503 -0.8806  0.3289 -0.4777
15798TIP3    H268810   0.377   0.393  12.613 -0.8228  0.4692 -0.3768
15799TIP3   OH268811   4.466   0.413   1.175 -0.7320 -0.1838  0.2366
15799TIP3    H168812   4.436   0.484   1.231 -1.5883  0.0652 -0.5118
15799TIP3    H268813   4.531   0.366   1.228 -1.3727  0.1510  1.3550
15800TIP3   OH268814   5.740   2.887  13.391  0.4956  0.2877  0.4539
15800TIP3    H168815   5.670   2.823  13.398  1.2896 -0.7264 -0.4805
15800TIP3    H268816   5.814   2.848  13.437  0.1595  1.8767  2.4970
15801TIP3   OH268817   4.786   0.470  14.562  0.1803  0.3290  0.2279
15801TIP3    H168818   4.695   0.439  14.569  0.1514  0.4731  0.4965
15801TIP3    H268819   4.831   0.402  14.513  0.1163 -0.1268  0.8013
15802TIP3   OH268820   4.634   2.256  13.404 -0.4097 -0.0088  0.0907
15802TIP3    H168821   4.678   2.325  13.454 -0.9990  1.0900 -0.8662
15802TIP3    H268822   4.585   2.207  13.470 -0.0368  0.5252  0.7803
15803TIP3   OH268823   5.266   5.787  16.954 -0.0493  0.5472 -0.2678
15803TIP3    H168824   5.268   5.882  16.940 -1.0626  0.9516  1.8437
15803TIP3    H268825   5.203   5.775  17.026  0.2661 -1.7066 -0.2970
15804TIP3   OH268826   2.590   4.606   3.713  0.5240  0.6399  0.0262
15804TIP3    H168827   2.559   4.517   3.729 -1.9324  1.6916  1.8878
15804TIP3    H268828   2.662   4.596   3.651 -1.0910 -2.4381 -1.6055
15805TIP3   OH268829   0.039   0.059   1.246  0.1546 -0.4917 -0.1248
15805TIP3    H168830   0.031   0.084   1.153 -1.4568 -0.3515  0.0284
15805TIP3    H268831  -0.032   0.107   1.289  2.0232  0.9522  1.5206
15806TIP3   OH268832   6.631   2.921  11.232 -0.3371 -0.2810  0.3692
15806TIP3    H168833   6.552   2.976  11.235 -0.9819 -1.0617 -1.1243
15806TIP3    H268834   6.698   2.978  11.194 -0.8868 -0.3508 -0.7539
15807TIP3   OH268835   5.399   4.434  13.036  0.1679 -0.2637 -0.2939
15807TIP3    H168836   5.419   4.526  13.054 -0.5764 -0.5107  2.0003
15807TIP3    H268837   5.377   4.396  13.121 -3.0815 -1.7032 -1.5976
15808TIP3   OH268838   6.267   6.029   3.677 -0.0137  0.1991 -0.5424
15808TIP3    H168839   6.347   6.075   3.702  1.1003 -0.5465 -2.5557
15808TIP3    H268840   6.249   5.972   3.751  1.8267 -0.2564 -0.3899
15809TIP3   OH268841   1.812   1.561  14.489  0.6095  0.2917 -0.0241
15809TIP3    H168842   1.754   1.626  14.450  1.0645  0.7933  0.1243
15809TIP3    H268843   1.896   1.607  14.499  0.6110  0.0469  1.1760
15810TIP3   OH268844   1.224   1.401  14.374  0.4482 -0.1189 -0.1699
15810TIP3    H168845   1.254   1.489  14.394  0.3326 -0.6111  2.6407
15810TIP3    H268846   1.290   1.365  14.316  0.9643  1.4936 -0.6319
15811TIP3   OH268847   1.200   5.924  14.798  0.3165 -0.0658  0.0091
15811TIP3    H168848   1.225   5.899  14.709  3.6038  1.4207  0.3775
15811TIP3    H268849   1.207   6.019  14.799  2.9747 -0.1585  2.4298
15812TIP3   OH268850   5.717   5.627  16.118 -0.3147  0.2708 -0.1182
15812TIP3    H168851   5.656   5.583  16.178 -0.8742  0.8291 -0.2668
15812TIP3    H268852   5.666   5.642  16.039 -0.2909  1.5892  0.0944
15813TIP3   OH268853   5.094   3.476   2.329  0.1828  0.7545  0.2730
15813TIP3    H168854   5.189   3.473   2.320  0.1925  1.3988  0.1423
15813TIP3    H268855   5.079   3.491   2.423  0.2138  0.8583  0.2612
15814TIP3   OH268856   4.732   6.474   1.496 -0.4752 -0.2640  0.3425
15814TIP3    H168857   4.792   6.438   1.431 -0.3386  0.8740 -0.1805
15814TIP3    H268858   4.720   6.565   1.470 -0.8827  0.0519  1.5776
15815TIP3   OH268859   3.735   0.078  12.252 -0.5420 -0.2093 -0.5814
15815TIP3    H168860   3.794   0.097  12.179 -0.0834 -0.7032 -0.3429
15815TIP3    H268861   3.723   0.163  12.295  1.7161 -0.4261  0.6382
15816TIP3   OH268862   6.590   3.430   3.276 -0.1380 -0.1916 -0.1435
15816TIP3    H168863   6.654   3.385   3.221 -1.6452 -1.8248 -0.6196
15816TIP3    H268864   6.586   3.377   3.356  0.1415  0.7135  0.4821
15817TIP3   OH268865   1.899   3.617  17.011 -0.2147  0.1001  0.3720
15817TIP3    H168866   1.890   3.634  17.105  1.2250 -0.1327  0.5748
15817TIP3    H268867   1.974   3.558  17.004  0.9304  1.6282 -1.0448
15818TIP3   OH268868   3.792   1.356   4.807  0.5987 -0.1415  0.5234
15818TIP3    H168869   3.830   1.399   4.730  0.3466 -0.1201  0.4106
15818TIP3    H268870   3.735   1.423   4.845 -0.1198 -0.5126  0.1128
15819TIP3   OH268871   0.906   6.746  16.172 -0.1561  0.3275 -0.2482
15819TIP3    H168872   0.816   6.713  16.174 -0.4500  1.1284  1.5593
15819TIP3    H268873   0.960   6.672  16.200 -0.4800  0.4005  0.6148
15820TIP3   OH268874   3.616   6.187   1.078 -0.5613  0.1114 -0.0139
15820TIP3    H168875   3.568   6.151   1.003  1.3113 -2.2640 -0.2153
15820TIP3    H268876   3.696   6.224   1.040 -0.0386 -0.2692  0.6984
15821TIP3   OH268877   1.513   2.944   0.650 -0.2745  0.5971  0.4465
15821TIP3    H168878   1.531   2.850   0.652  0.5633  0.7595  0.7891
15821TIP3    H268879   1.521   2.968   0.558 -2.0008  0.0671  0.1148
15822TIP3   OH268880   3.158   1.942   6.267 -0.3337  0.0353  0.3809
15822TIP3    H168881   3.155   2.028   6.224 -1.8787  1.0435  2.3409
15822TIP3    H268882   3.216   1.954   6.342  0.2346 -0.9426  0.1186
15823TIP3   OH268883   0.024   4.011   4.266  0.1548  0.5968 -0.0723
15823TIP3    H168884   0.022   3.949   4.193 -2.2666  1.6082 -0.9561
15823TIP3    H268885   0.055   3.959   4.340  1.3660 -0.8052 -1.4869
15824TIP3   OH268886   3.606   5.878  15.053  0.9097 -0.0421 -0.2744
15824TIP3    H168887   3.534   5.927  15.093  0.8753 -0.2540 -0.0758
15824TIP3    H268888   3.677   5.941  15.044  1.4114 -0.3357  1.4116
15825TIP3   OH268889   4.105   0.755  11.585 -0.0311  0.1734 -0.4030
15825TIP3    H168890   4.124   0.824  11.522  1.2136 -0.1774 -0.4437
15825TIP3    H268891   4.162   0.683  11.559 -0.0605 -0.2583  0.6639
15826TIP3   OH268892   5.323   0.163   4.581 -0.0392 -0.1447 -0.4548
15826TIP3    H168893   5.248   0.215   4.553 -1.0523 -2.4479 -2.4208
15826TIP3    H268894   5.400   0.215   4.557 -1.0027  0.6310 -1.9863
15827TIP3   OH268895   1.953   2.011   2.600  0.4806 -0.4046 -0.1316
15827TIP3    H168896   2.000   2.080   2.552 -0.8452 -0.9755 -2.3799
15827TIP3    H268897   2.017   1.941   2.610  1.0804  0.1339 -0.0995
15828TIP3   OH268898   4.317   5.300   6.020 -0.5539 -0.1401  0.1128
15828TIP3    H168899   4.301   5.319   5.928 -1.1644 -0.3735  0.1686
15828TIP3    H268900   4.267   5.220   6.037 -1.0044  0.2842  0.8182
15829TIP3   OH268901   5.512   2.862   0.605 -0.0596 -0.3208  0.3927
15829TIP3    H168902   5.418   2.867   0.621 -0.2981 -0.1132 -0.9402
15829TIP3    H268903   5.523   2.789   0.544  0.4724  0.4677 -0.5014
15830TIP3   OH268904   3.866   5.242  15.634 -0.4699  0.3069 -0.5166
15830TIP3    H168905   3.891   5.334  15.637 -0.5939  0.3690 -1.2487
15830TIP3    H268906   3.931   5.198  15.688 -1.4073  1.0284  1.2710
15831TIP3   OH268907   0.714   2.596  12.196  0.4803  0.1858  0.2391
15831TIP3    H168908   0.660   2.674  12.181 -0.8466 -0.3548  1.8955
15831TIP3    H268909   0.733   2.598  12.290  2.8251 -0.0149 -0.1844
15832TIP3   OH268910   3.174   3.513   5.239 -0.2434  0.0937 -0.0198
15832TIP3    H168911   3.207   3.470   5.318 -0.1419  0.5110  0.1658
15832TIP3    H268912   3.116   3.582   5.272 -0.9545 -0.3403 -0.3322
15833TIP3   OH268913   0.148   5.934  15.445  0.2453 -0.1942  0.4459
15833TIP3    H168914   0.065   5.941  15.493  1.0184  2.5331  1.5164
15833TIP3    H268915   0.212   5.906  15.511  0.8040  0.9850  0.4158
15834TIP3   OH268916   5.099   1.946  13.919 -0.1654  0.1740 -0.3604
15834TIP3    H168917   5.044   2.013  13.880 -1.4406 -1.5875 -1.7288
15834TIP3    H268918   5.046   1.866  13.916  1.1932 -0.8779  1.4272
15835TIP3   OH268919   1.149   4.449   6.028 -0.1641  0.6185  0.0765
15835TIP3    H168920   1.085   4.469   6.097 -0.8287  0.6811 -0.5464
15835TIP3    H268921   1.162   4.532   5.983  2.5054  1.3194  1.9106
15836TIP3   OH268922   2.162   4.085  14.176  0.2227 -0.0921 -0.0382
15836TIP3    H168923   2.072   4.068  14.206  0.1240 -2.5071 -1.4481
15836TIP3    H268924   2.162   4.057  14.085  1.8758  1.9968 -0.7482
15837TIP3   OH268925   0.341   3.467   1.698  0.0286 -0.2683 -0.3994
15837TIP3    H168926   0.308   3.396   1.752  0.9510 -0.8530 -0.5741
15837TIP3    H268927   0.372   3.533   1.760 -0.5847 -0.1224 -0.2388
15838TIP3   OH268928   1.219   2.279  14.424  0.0005 -0.8017  0.2765
15838TIP3    H168929   1.183   2.357  14.466  2.0344  0.3347  0.0244
15838TIP3    H268930   1.164   2.207  14.456 -1.3051  0.5845  1.2948
15839TIP3   OH268931   3.713   4.192   5.565 -0.3919  0.0445  0.2284
15839TIP3    H168932   3.787   4.132   5.560 -0.9666 -1.0469  2.8110
15839TIP3    H268933   3.743   4.263   5.622 -0.5197  0.9425 -0.8023
15840TIP3   OH268934   4.239   1.530   3.246  0.2856  0.0726  0.5021
15840TIP3    H168935   4.327   1.491   3.247 -0.5695 -2.0042  0.4587
15840TIP3    H268936   4.201   1.504   3.330  0.4814  3.0014  1.5994
15841TIP3   OH268937   6.484   4.711  12.374 -0.0371 -0.1336  0.4594
15841TIP3    H168938   6.495   4.665  12.457  0.4089  0.5969  0.8160
15841TIP3    H268939   6.424   4.656  12.323 -1.2935  0.0184  1.7217
15842TIP3   OH268940   4.322   1.412   4.770 -0.3201  0.0704  0.6059
15842TIP3    H168941   4.393   1.476   4.766  0.7858 -1.0183  1.8222
15842TIP3    H268942   4.317   1.375   4.682  2.7310 -1.9560  1.1266
15843TIP3   OH268943   4.551   6.787   4.222 -0.1963 -0.7145 -0.2562
15843TIP3    H168944   4.463   6.822   4.236 -0.1413 -0.0535 -1.4780
15843TIP3    H268945   4.548   6.699   4.258 -1.1772 -0.4797  0.2603
15844TIP3   OH268946   6.703   4.355   0.271 -0.2981  0.0624 -0.0986
15844TIP3    H168947   6.741   4.276   0.233  2.5417  1.1435  0.2306
15844TIP3    H268948   6.689   4.333   0.363 -0.8690 -0.4785 -0.3100
15845TIP3   OH268949   1.023   0.757   0.661  0.0766  0.5933 -0.0945
15845TIP3    H168950   1.047   0.691   0.595  1.1156 -0.2234  1.0494
15845TIP3    H268951   1.043   0.841   0.619 -0.0318  0.1273 -1.1044
15846TIP3   OH268952   5.016   1.165  12.724 -0.2036  0.0953 -0.0067
15846TIP3    H168953   4.938   1.197  12.768 -0.7502 -0.2167 -0.7371
15846TIP3    H268954   5.038   1.084  12.770 -0.3531  0.1437  0.1511
15847TIP3   OH268955   0.487   0.448  11.464 -0.0282  0.0896  0.0236
15847TIP3    H168956   0.495   0.446  11.369 -0.6831 -1.1787 -0.0319
15847TIP3    H268957   0.517   0.535  11.489 -2.7161  1.6483 -1.6181
15848TIP3   OH268958   4.917   6.463  11.493 -0.3676 -0.1929  0.4049
15848TIP3    H168959   4.911   6.465  11.398  1.1369  0.3008  0.2873
15848TIP3    H268960   4.860   6.534  11.523 -1.4581 -0.8503 -0.0632
15849TIP3   OH268961   1.752   1.453  13.654  0.0096  0.7401  0.6165
15849TIP3    H168962   1.774   1.495  13.738  0.1338  2.6365 -0.3200
15849TIP3    H268963   1.675   1.500  13.623 -0.3609 -0.3008 -0.1052
15850TIP3   OH268964   1.238   2.637  11.877  0.3938 -0.1552  0.6024
15850TIP3    H168965   1.214   2.711  11.934 -3.3072 -1.3296  0.8472
15850TIP3    H268966   1.218   2.559  11.929  1.6700 -1.3396 -0.6002
15851TIP3   OH268967   0.748   1.334  14.464 -0.0328  0.6085 -0.3517
15851TIP3    H168968   0.833   1.294  14.483 -0.1732 -0.4126 -1.6790
15851TIP3    H268969   0.760   1.375  14.378 -1.0036 -0.0081 -0.8011
15852TIP3   OH268970   4.397   3.775   5.492 -0.4589 -0.2267  0.0108
15852TIP3    H168971   4.461   3.828   5.444 -2.3923  0.4381 -2.0300
15852TIP3    H268972   4.370   3.708   5.429 -1.5490 -0.6484  0.8951
15853TIP3   OH268973   4.206   5.558   5.320  0.1341  0.0968  0.4114
15853TIP3    H168974   4.192   5.602   5.404 -0.8913  1.9260 -0.6596
15853TIP3    H268975   4.131   5.499   5.312  0.4215 -0.3497  0.9204
15854TIP3   OH268976   4.038   6.434   0.858  0.1353  0.1598  0.0473
15854TIP3    H168977   4.118   6.438   0.804 -0.7581  2.3032 -1.2457
15854TIP3    H268978   4.068   6.454   0.946  1.0947  0.6029 -0.3625
15855TIP3   OH268979   3.730   2.680   2.553  0.1302  0.1985 -0.5049
15855TIP3    H168980   3.795   2.749   2.566  0.1921  0.1567 -0.5947
15855TIP3    H268981   3.679   2.709   2.478  0.3007  0.0350 -0.6825
15856TIP3   OH268982   4.804   1.082   5.013 -0.0585 -0.0093 -0.0494
15856TIP3    H168983   4.712   1.097   4.991  0.1378 -0.9451 -1.7208
15856TIP3    H268984   4.852   1.146   4.960  0.2595  0.5520  0.8997
15857TIP3   OH268985   4.835   2.420   4.735  0.6989  0.1867 -0.0122
15857TIP3    H168986   4.838   2.399   4.829 -0.4539 -2.4860 -0.4861
15857TIP3    H268987   4.766   2.485   4.727  2.0235  1.8194  1.1656
15858TIP3   OH268988   1.364   4.157   2.047  0.1909  0.1928 -0.2067
15858TIP3    H168989   1.378   4.225   2.112  2.2288 -0.6875  0.3560
15858TIP3    H268990   1.298   4.099   2.086  0.4916  0.3469  0.5289
15859TIP3   OH268991   2.075   1.408  16.450 -0.5574 -0.2610 -0.2986
15859TIP3    H168992   2.079   1.497  16.484  0.4535 -0.0042 -1.0612
15859TIP3    H268993   2.166   1.376  16.455 -1.2049 -2.0935  2.1189
15860TIP3   OH268994   5.260   0.685   2.218 -0.7595  0.0238  0.1746
15860TIP3    H168995   5.337   0.733   2.189 -1.6111  0.9436 -0.6265
15860TIP3    H268996   5.243   0.717   2.306 -1.0764  0.9208 -0.2017
15861TIP3   OH268997   2.511   4.414  14.064  0.0455  0.6846 -0.2218
15861TIP3    H168998   2.466   4.379  13.987 -0.9995  0.2504  0.5573
15861TIP3    H268999   2.484   4.357  14.136  1.2494  0.8969  0.4231
15862TIP3   OH269000   5.410   1.171   2.411 -0.5857  0.7000 -0.3849
15862TIP3    H169001   5.444   1.093   2.454 -1.3863  1.7429  2.3584
15862TIP3    H269002   5.444   1.244   2.464  1.0969  2.3942 -3.4976
15863TIP3   OH269003   5.217   5.014  15.611 -0.3918  0.1387 -0.2004
15863TIP3    H169004   5.199   4.988  15.521  1.6793  0.7759 -0.8508
15863TIP3    H269005   5.219   5.110  15.609 -1.6252  0.2187  0.8310
15864TIP3   OH269006   0.334   5.806  14.151  0.1576  0.3768 -0.1748
15864TIP3    H169007   0.401   5.871  14.171  1.6508 -1.1009 -0.1708
15864TIP3    H269008   0.267   5.855  14.103  1.7281  1.6973 -1.1126
15865TIP3   OH269009   5.446   4.078  13.390 -0.2899 -0.3164 -0.0621
15865TIP3    H169010   5.358   4.086  13.351 -0.1385 -0.4761 -0.4398
15865TIP3    H269011   5.460   4.162  13.433  0.0761  0.3882 -1.4802
15866TIP3   OH269012   6.415   2.803   2.007 -0.5120 -0.5144 -0.4891
15866TIP3    H169013   6.333   2.836   2.045 -0.9969 -1.0745 -1.0300
15866TIP3    H269014   6.465   2.773   2.083 -0.8607 -0.2889 -0.1637
15867TIP3   OH269015   2.144   5.529  14.238 -0.0132 -0.2627  0.4537
15867TIP3    H169016   2.105   5.488  14.316 -0.3357  1.2570  1.1366
15867TIP3    H269017   2.181   5.457  14.188 -1.4908 -1.4896  1.0626
15868TIP3   OH269018   3.607   3.014   4.108  0.6584 -0.2156  0.3071
15868TIP3    H169019   3.699   3.021   4.083  0.8071  0.6882  1.0671
15868TIP3    H269020   3.559   3.012   4.025  1.4811 -3.4167 -0.2284
15869TIP3   OH269021   0.126   3.656   0.510 -0.1218 -1.0175  0.4472
15869TIP3    H169022   0.043   3.609   0.507 -0.8677  0.2723 -1.2503
15869TIP3    H269023   0.130   3.702   0.426  2.3205 -1.0326  0.4983
15870TIP3   OH269024   4.379   0.405   3.341  0.6362  0.8135  0.3868
15870TIP3    H169025   4.380   0.357   3.424  2.5968  0.3994  0.1836
15870TIP3    H269026   4.355   0.494   3.365 -4.7036 -0.3669  0.5823
15871TIP3   OH269027   5.659   6.040  14.136  0.4923 -0.0165  0.6007
15871TIP3    H169028   5.668   6.091  14.055 -0.0292  1.7009  1.5804
15871TIP3    H269029   5.731   6.071  14.192 -0.7013  0.7378  1.7607
15872TIP3   OH269030   6.049   4.196   1.450 -0.2857 -1.0200 -0.3234
15872TIP3    H169031   5.983   4.260   1.477  0.2303 -0.4417 -0.4206
15872TIP3    H269032   6.001   4.134   1.396 -0.4721  0.2596 -1.6832
15873TIP3   OH269033   2.946   4.496   5.394 -0.4727 -0.1467 -0.5592
15873TIP3    H169034   3.024   4.473   5.344 -0.7494 -0.7127 -0.7373
15873TIP3    H269035   2.976   4.496   5.485  0.3506  2.1577 -0.7642
15874TIP3   OH269036   0.843   0.772   5.967  0.4151 -0.1679 -0.0467
15874TIP3    H169037   0.821   0.707   6.034  0.8237  1.8398  2.1731
15874TIP3    H269038   0.923   0.739   5.926 -0.4685 -2.0016 -0.4274
15875TIP3   OH269039   4.576   0.735   1.237  0.5063  0.0637 -0.3296
15875TIP3    H169040   4.492   0.698   1.211  1.9282 -1.6819 -2.7746
15875TIP3    H269041   4.565   0.829   1.225 -0.4244 -0.3051 -2.8619
15876TIP3   OH269042   1.942   4.415  16.589 -0.2378  0.3083 -0.0501
15876TIP3    H169043   2.002   4.340  16.588 -0.7331 -0.0918 -0.6536
15876TIP3    H269044   1.902   4.414  16.502  0.8776  2.2064 -0.6493
15877TIP3   OH269045   5.233   4.414  16.177 -0.1636 -0.3469 -0.2081
15877TIP3    H169046   5.308   4.446  16.226  0.1973 -0.8048 -0.4472
15877TIP3    H269047   5.269   4.345  16.120 -0.7712 -0.6107 -0.2868
15878TIP3   OH269048   4.319   3.703   4.632  0.4287  0.3068 -0.3625
15878TIP3    H169049   4.240   3.657   4.659  1.7142 -1.4034  0.7474
15878TIP3    H269050   4.311   3.712   4.537  0.3984 -2.9602 -0.7751
15879TIP3   OH269051   4.835   0.015  15.075  0.4447  0.5923  0.3907
15879TIP3    H169052   4.867  -0.070  15.103 -0.5552  0.2329  0.4917
15879TIP3    H269053   4.912   0.059  15.038  0.6619 -0.9419 -1.0873
15880TIP3   OH269054   6.239   6.710   4.934  0.1009  0.0720 -0.5031
15880TIP3    H169055   6.307   6.648   4.911  0.6198  0.2612  0.4809
15880TIP3    H269056   6.209   6.745   4.849  0.4705 -0.7942 -1.0006
15881TIP3   OH269057   3.709   3.326   3.026  0.4777 -0.2292  0.1055
15881TIP3    H169058   3.671   3.398   3.076  0.1849  0.2380 -0.7628
15881TIP3    H269059   3.793   3.309   3.069 -0.2525 -0.6065  1.4361
15882TIP3   OH269060   6.603   4.515   2.694  0.0880  0.1231  0.3878
15882TIP3    H169061   6.540   4.557   2.754  0.5349  0.3490  0.7078
15882TIP3    H269062   6.593   4.563   2.612  0.8303  1.1153  0.8436
15883TIP3   OH269063   5.086   3.778  17.258 -0.4157 -0.2391  0.3650
15883TIP3    H169064   4.991   3.785  17.245 -0.3366  1.8804  0.5550
15883TIP3    H269065   5.099   3.690  17.293 -1.9036 -1.9248 -2.9065
15884TIP3   OH269066   3.695   2.864  11.460 -0.6692  0.2293  0.2573
15884TIP3    H169067   3.650   2.945  11.438  1.0204  1.0707 -0.2857
15884TIP3    H269068   3.775   2.865  11.406 -0.8997 -2.1098 -0.2650
15885TIP3   OH269069   4.337   1.223   3.190 -0.5471  0.0195 -0.2130
15885TIP3    H169070   4.262   1.267   3.152 -0.0427  1.7269  0.6690
15885TIP3    H269071   4.406   1.289   3.190  0.1790 -0.6940  1.3611
15886TIP3   OH269072   3.760   2.025   1.878 -0.3999  0.2530 -0.5912
15886TIP3    H169073   3.730   1.968   1.807 -0.1486 -0.4713 -0.1282
15886TIP3    H269074   3.712   2.106   1.865 -1.4830 -0.3881 -0.7089
15887TIP3   OH269075   3.208   1.638  13.240 -0.0604 -0.4988 -0.0021
15887TIP3    H169076   3.155   1.718  13.240 -0.6581 -0.8899  0.1624
15887TIP3    H269077   3.164   1.581  13.177  0.2230 -0.7974  0.0696
15888TIP3   OH269078   5.123   3.830  13.400 -0.4238  0.0610  0.0368
15888TIP3    H169079   5.203   3.814  13.451 -0.1355  0.6672 -0.2105
15888TIP3    H269080   5.080   3.745  13.396 -0.6710  0.0752  1.6448
15889TIP3   OH269081   0.036   4.312  15.966 -0.6722  0.3488  0.6387
15889TIP3    H169082   0.029   4.219  15.989  1.6768  0.7702  3.6653
15889TIP3    H269083  -0.001   4.318  15.877 -1.1475 -3.3826  0.4424
15890TIP3   OH269084   3.980   0.480  14.404  0.2371  0.1911 -0.5907
15890TIP3    H169085   4.039   0.501  14.331  0.2695  1.3721 -0.2346
15890TIP3    H269086   3.997   0.387  14.421  2.1590  0.5359 -0.3533
15891TIP3   OH269087   5.486   5.593  13.692  0.0838 -0.0873  0.2923
15891TIP3    H169088   5.484   5.505  13.730  0.9603  0.9874  3.1135
15891TIP3    H269089   5.427   5.644  13.747  1.0813  1.5136 -0.0628
15892TIP3   OH269090   5.026   5.912   1.911  0.0584 -0.1513  0.5313
15892TIP3    H169091   5.032   5.817   1.911  1.9293 -0.0774 -0.6987
15892TIP3    H269092   4.982   5.934   1.829 -0.0902  0.0791  0.6687
15893TIP3   OH269093   6.645   1.809  17.091 -0.2990 -0.1857 -0.5645
15893TIP3    H169094   6.680   1.739  17.147 -1.1776  0.4565  0.8667
15893TIP3    H269095   6.684   1.889  17.126  1.2163  0.0471 -2.6044
15894TIP3   OH269096   4.601   3.361   1.425 -0.0595 -0.0211 -0.4236
15894TIP3    H169097   4.679   3.361   1.370  0.1610 -0.9526 -0.1342
15894TIP3    H269098   4.559   3.445   1.408 -0.3822 -0.5773 -2.5502
15895TIP3   OH269099   1.029   1.321  15.876  0.4311 -0.2139  0.3748
15895TIP3    H169100   1.092   1.339  15.946 -1.5719 -0.9424  2.4819
15895TIP3    H269101   0.944   1.347  15.912 -0.7723 -1.2699 -1.5132
15896TIP3   OH269102   2.028   2.622  16.583  0.4851  0.2552  0.0263
15896TIP3    H169103   1.961   2.680  16.546 -0.8742 -1.1281  0.2628
15896TIP3    H269104   2.064   2.577  16.507  0.0939 -0.0869  0.0404
15897TIP3   OH269105   6.756   4.774  10.570  0.4488  0.3389  0.0828
15897TIP3    H169106   6.780   4.801  10.658 -0.1016 -1.0697  0.7025
15897TIP3    H269107   6.665   4.802  10.561  0.2713 -0.1785  0.2511
15898TIP3   OH269108   4.238   3.279  14.418 -0.5268 -0.2466  0.0586
15898TIP3    H169109   4.259   3.352  14.476 -1.4025  0.4135 -0.4362
15898TIP3    H269110   4.277   3.304  14.334 -1.2411 -0.1128 -0.2382
15899TIP3   OH269111   5.788   4.067  15.247 -0.5629 -0.1421  0.5434
15899TIP3    H169112   5.789   4.071  15.152  0.9425 -0.6611  0.5100
15899TIP3    H269113   5.856   4.003  15.269  0.7468  1.6532  2.0289
15900TIP3   OH269114   3.153   5.778  12.476 -0.0678  0.3633 -0.1206
15900TIP3    H169115   3.238   5.762  12.517 -0.5441 -0.8627  0.4203
15900TIP3    H269116   3.174   5.813  12.389  1.0390 -1.8244 -0.7954
15901TIP3   OH269117   0.850   3.869  11.531 -0.0716 -0.3139  0.2627
15901TIP3    H169118   0.931   3.822  11.552 -0.1626 -0.3038  0.6416
15901TIP3    H269119   0.877   3.959  11.517  0.0070 -0.3423  0.2344
15902TIP3   OH269120   0.672   0.740   2.860 -1.1644 -0.6834 -0.6489
15902TIP3    H169121   0.667   0.813   2.798  0.4914  0.0227 -0.0084
15902TIP3    H269122   0.611   0.765   2.930 -0.2523  0.3449 -0.1989
15903TIP3   OH269123   3.392   3.019   4.301 -0.3333 -0.3400 -0.8490
15903TIP3    H169124   3.455   3.007   4.231 -0.9051  2.7734 -2.0429
15903TIP3    H269125   3.431   3.085   4.358 -0.9768 -0.9949  0.3910
15904TIP3   OH269126   0.195   0.039  13.594 -0.1892  0.9432 -0.3000
15904TIP3    H169127   0.182   0.131  13.614  0.1727  1.0415 -0.4964
15904TIP3    H269128   0.116   0.012  13.547 -1.2699  0.5877  1.6265
15905TIP3   OH269129   5.024   3.094  16.455 -0.5992  0.0685 -0.1092
15905TIP3    H169130   4.967   3.099  16.379  0.1184 -0.7735 -0.7286
15905TIP3    H269131   4.996   3.014  16.501 -1.3012  0.7950  0.7431
15906TIP3   OH269132   3.184   3.068  13.265  0.3695  0.1422 -0.2415
15906TIP3    H169133   3.209   2.980  13.237 -0.4512 -0.2575  0.2168
15906TIP3    H269134   3.235   3.083  13.345 -2.0822 -1.4698  1.8311
15907TIP3   OH269135   2.258   5.877  10.837  0.2086 -0.1882 -0.3346
15907TIP3    H169136   2.257   5.858  10.931 -0.3238 -0.3202 -0.3626
15907TIP3    H269137   2.275   5.792  10.797  2.8141  0.2302 -0.2903
15908TIP3   OH269138   3.679   2.218  13.141 -0.3359 -0.7834 -0.3518
15908TIP3    H169139   3.768   2.254  13.142 -1.6207  2.7644  0.6526
15908TIP3    H269140   3.678   2.156  13.214  1.1862 -0.4656 -0.0248
15909TIP3   OH269141   2.031   5.962   5.269  0.3891  0.2718 -0.0297
15909TIP3    H169142   1.978   5.962   5.189 -1.6551 -0.5685  1.2334
15909TIP3    H269143   2.006   6.043   5.314  1.0167  0.4073  0.0844
15910TIP3   OH269144   4.710   0.628  15.202 -0.1016  0.3511 -0.3848
15910TIP3    H169145   4.659   0.574  15.141  2.0241 -2.0633 -0.1814
15910TIP3    H269146   4.769   0.679  15.145 -1.7335  2.1886 -0.5420
15911TIP3   OH269147   1.205   1.657  10.882  0.1361  0.4165 -0.2960
15911TIP3    H169148   1.241   1.569  10.879 -2.8631 -0.9236 -0.5545
15911TIP3    H269149   1.129   1.651  10.941 -2.1469  1.9126 -2.8216
15912TIP3   OH269150   1.301   1.297   1.298 -0.5720 -0.3686  0.4281
15912TIP3    H169151   1.276   1.346   1.221 -0.8450  1.2590  1.5063
15912TIP3    H269152   1.220   1.258   1.330 -0.4067 -1.3144 -0.2469
15913TIP3   OH269153   2.154   2.569  14.540  0.2489  0.4236 -0.3746
15913TIP3    H169154   2.131   2.624  14.465  1.0013  1.2658  0.0036
15913TIP3    H269155   2.075   2.568  14.594  0.1442  0.9229 -0.5110
15914TIP3   OH269156   3.630   2.882   2.022 -0.3301 -0.0603 -0.6547
15914TIP3    H169157   3.569   2.819   1.985 -3.1537  0.6825  2.2800
15914TIP3    H269158   3.580   2.964   2.027  0.9494  0.6811  1.6040
15915TIP3   OH269159   3.547   0.251  12.789  0.0711 -0.1132  0.2550
15915TIP3    H169160   3.517   0.232  12.700  1.3558 -1.5221  0.0694
15915TIP3    H269161   3.554   0.347  12.792  2.2661 -0.0861 -2.0084
15916TIP3   OH269162   4.014   5.589   0.686 -0.3286 -0.3318 -0.1011
15916TIP3    H169163   3.958   5.537   0.629 -0.3525  1.0804 -1.4143
15916TIP3    H269164   4.061   5.648   0.627  1.9161 -0.8663  1.0333
15917TIP3   OH269165   5.012   3.001   6.306 -0.0052  0.1377  0.6323
15917TIP3    H169166   5.067   3.078   6.319 -0.0997  0.0980  1.3088
15917TIP3    H269167   5.070   2.938   6.263  0.0582  0.5926  0.0259
15918TIP3   OH269168   1.281   0.293   1.248  0.7034  0.6754 -0.4543
15918TIP3    H169169   1.251   0.271   1.336 -1.5207  0.1593 -1.2956
15918TIP3    H269170   1.347   0.227   1.228  0.4553  0.1515  0.4114
15919TIP3   OH269171   3.928   4.568  11.648  0.2496  0.2483 -0.3766
15919TIP3    H169172   3.929   4.513  11.570  1.3184 -0.9924  0.4717
15919TIP3    H269173   3.835   4.582  11.666 -0.0130  0.1939 -1.6133
15920TIP3   OH269174   0.964   6.173   3.242 -0.8402  0.3240 -0.4781
15920TIP3    H169175   1.007   6.204   3.163 -0.8480  0.0781 -0.5802
15920TIP3    H269176   0.891   6.120   3.211 -1.2561  0.7805 -0.3068
15921TIP3   OH269177   5.572   0.361   6.769 -0.4097  0.6231  0.8482
15921TIP3    H169178   5.512   0.416   6.820 -0.9052  0.3328  0.5877
15921TIP3    H269179   5.650   0.416   6.756 -1.2539  1.6185 -0.1957
15922TIP3   OH269180   5.788   0.328   4.668  0.2279  0.1018  0.0190
15922TIP3    H169181   5.815   0.271   4.740 -1.9143 -0.3846  0.5137
15922TIP3    H269182   5.831   0.292   4.591  2.5902  0.6379  0.9792
15923TIP3   OH269183   1.846   1.111  16.405 -0.2426  0.2813  0.2183
15923TIP3    H169184   1.792   1.099  16.327  0.1967  2.3104 -0.4667
15923TIP3    H269185   1.791   1.162  16.464 -0.0309  0.0498  0.6179
15924TIP3   OH269186   6.467   4.543  14.423 -0.4222 -0.6051 -0.2092
15924TIP3    H169187   6.508   4.471  14.376  3.0268  1.5616 -0.8320
15924TIP3    H269188   6.405   4.581  14.360  1.0512 -0.3244 -1.5465
15925TIP3   OH269189   2.070   0.794   6.018  0.2447  0.8069 -0.5457
15925TIP3    H169190   1.990   0.752   6.050  0.6584  0.3253 -0.1429
15925TIP3    H269191   2.093   0.856   6.087  0.0230  1.2085 -0.8256
15926TIP3   OH269192   2.528   4.833  13.446 -0.0188  0.1532 -0.3644
15926TIP3    H169193   2.440   4.802  13.470  0.2768 -0.9532 -0.6550
15926TIP3    H269194   2.525   4.843  13.351  0.2058 -0.0196 -0.3905
15927TIP3   OH269195   2.181   2.860   0.882 -0.1803 -0.2509  0.2157
15927TIP3    H169196   2.203   2.946   0.846 -1.7577 -0.5542 -1.6507
15927TIP3    H269197   2.122   2.879   0.955  1.6650  0.3115  1.6221
15928TIP3   OH269198   6.701   0.362   5.155  0.3060  0.6858  0.6121
15928TIP3    H169199   6.628   0.329   5.207  0.0940 -0.2529 -0.2416
15928TIP3    H269200   6.661   0.420   5.090  0.2465 -0.1531 -0.1215
15929TIP3   OH269201   2.197   5.915   3.572 -0.2119  0.2015 -0.4907
15929TIP3    H169202   2.234   5.953   3.651 -0.8197  1.3028 -0.7134
15929TIP3    H269203   2.256   5.944   3.502  2.1147 -3.2405 -0.2086
15930TIP3   OH269204   5.786   6.180  16.307  0.1557 -0.2872  0.3115
15930TIP3    H169205   5.808   6.270  16.285 -1.0690 -0.1109 -0.2583
15930TIP3    H269206   5.762   6.140  16.224 -2.2294 -0.2853  0.9313
15931TIP3   OH269207   3.953   0.861   2.955  0.1265  0.2834 -0.4564
15931TIP3    H169208   3.957   0.880   3.049  0.4798  2.0972 -0.7968
15931TIP3    H269209   4.018   0.793   2.941  0.5657  0.4944  0.5170
15932TIP3   OH269210   4.276   0.719  12.286 -0.2244 -0.6145  0.3627
15932TIP3    H169211   4.363   0.689  12.310 -0.0191 -1.0647 -0.8484
15932TIP3    H269212   4.282   0.738  12.192 -1.3282 -0.2902  0.3367
15933TIP3   OH269213   1.945   0.956  11.760 -0.2626  0.2141 -0.3807
15933TIP3    H169214   1.936   0.910  11.844  2.3362  0.7474  0.2825
15933TIP3    H269215   1.966   0.888  11.697 -2.2966 -0.2010 -0.6780
15934TIP3   OH269216   2.315   2.355   5.787 -0.4829 -0.7004  0.2060
15934TIP3    H169217   2.409   2.340   5.792 -0.2912  0.3102 -0.0901
15934TIP3    H269218   2.294   2.344   5.694 -0.6132 -0.6841  0.2332
15935TIP3   OH269219   1.334   4.590   3.674 -0.4173 -0.1970  0.1321
15935TIP3    H169220   1.389   4.641   3.615 -1.0434  0.3415  0.0009
15935TIP3    H269221   1.252   4.639   3.678 -1.6167 -1.9493 -1.1996
15936TIP3   OH269222   4.329   1.167   4.120 -0.3875 -0.5775  0.3000
15936TIP3    H169223   4.247   1.125   4.092  1.1918 -2.2797 -2.1080
15936TIP3    H269224   4.360   1.112   4.192 -0.1506 -1.4049 -0.4219
15937TIP3   OH269225   6.395   3.145   1.447  0.6028 -0.1966 -0.0996
15937TIP3    H169226   6.443   3.228   1.449 -0.4811  0.4560  2.5788
15937TIP3    H269227   6.451   3.084   1.496  0.2634 -0.3601  0.0859
15938TIP3   OH269228   6.333   4.459  17.104 -0.0895 -0.2167 -0.0017
15938TIP3    H169229   6.414   4.462  17.051 -0.4831 -2.4319 -0.8457
15938TIP3    H269230   6.351   4.394  17.171 -1.7109 -2.1579 -1.3118
15939TIP3   OH269231   5.443   3.995  14.604  0.3181 -0.5427  0.4054
15939TIP3    H169232   5.435   3.920  14.662 -0.6786 -0.8754 -0.1404
15939TIP3    H269233   5.353   4.022  14.587  0.6267  0.0544 -0.3215
15940TIP3   OH269234   4.605   5.275  16.738  0.3918 -0.4190  0.0981
15940TIP3    H169235   4.593   5.370  16.735  0.1155 -0.3927  1.3760
15940TIP3    H269236   4.654   5.255  16.659 -1.1315  0.5362 -1.1362
15941TIP3   OH269237   6.191   2.694   5.832 -0.3846  0.1381 -0.2633
15941TIP3    H169238   6.129   2.655   5.892 -0.4813 -0.7562 -0.9284
15941TIP3    H269239   6.233   2.620   5.789  0.5804  0.7411 -0.3915
15942TIP3   OH269240   2.927   3.124   0.502 -0.1122  0.2974  0.1537
15942TIP3    H169241   2.896   3.068   0.573 -0.6789 -1.2815 -1.2667
15942TIP3    H269242   2.851   3.138   0.447  0.8001 -0.4372 -1.3582
15943TIP3   OH269243   5.716   2.341  15.670 -0.2520 -0.1886  0.4155
15943TIP3    H169244   5.807   2.336  15.700  0.0002 -3.1030 -0.5224
15943TIP3    H269245   5.711   2.423  15.622  1.2815  1.0446  2.1985
15944TIP3   OH269246   4.480   6.574  15.594  0.5076 -0.4274 -0.0291
15944TIP3    H169247   4.416   6.646  15.600  1.0718  0.1944 -1.1823
15944TIP3    H269248   4.465   6.523  15.673 -1.3833 -0.2667 -0.2327
15945TIP3   OH269249   1.827   1.880   3.339  0.5751  0.0999 -0.2247
15945TIP3    H169250   1.909   1.909   3.378 -0.5272  0.8610  1.6529
15945TIP3    H269251   1.811   1.794   3.378 -0.1046  0.4789  0.3421
15946TIP3   OH269252   1.730   1.793  13.691 -0.3802 -0.4631  0.5817
15946TIP3    H169253   1.784   1.786  13.770 -0.7502 -1.6641  0.7479
15946TIP3    H269254   1.776   1.741  13.625 -0.9523 -0.8831  0.5095
15947TIP3   OH269255   4.907   6.184   2.327 -0.0367 -0.1456  0.3348
15947TIP3    H169256   4.914   6.104   2.275  1.5824  0.1381  0.0806
15947TIP3    H269257   4.994   6.223   2.323 -0.5976  1.2374  1.0990
15948TIP3   OH269258   4.520   0.883  13.878  0.1238  0.0612 -0.6096
15948TIP3    H169259   4.528   0.977  13.892 -0.0376  0.5141 -3.1090
15948TIP3    H269260   4.430   0.862  13.904  0.4559  0.3650  0.8774
15949TIP3   OH269261   1.925   5.074   4.658  0.4986 -0.0351  0.2626
15949TIP3    H169262   1.959   5.008   4.718  0.3126  1.1416  1.7089
15949TIP3    H269263   1.986   5.148   4.667  0.1127  0.3885 -0.5371
15950TIP3   OH269264   0.179   4.485  11.819 -0.3836  0.4101 -0.2899
15950TIP3    H169265   0.084   4.492  11.829 -0.6401 -1.9180 -0.6175
15950TIP3    H269266   0.192   4.465  11.726  0.4817  0.9822 -0.3130
15951TIP3   OH269267   0.769   5.865  16.146  0.1379  0.1397  0.2792
15951TIP3    H169268   0.696   5.926  16.148 -1.5147 -1.7161 -0.6031
15951TIP3    H269269   0.833   5.906  16.087 -0.0419  1.8664  1.1976
15952TIP3   OH269270   4.764   2.903  13.529 -0.0218 -0.3615  0.3329
15952TIP3    H169271   4.788   2.820  13.487 -1.9926 -0.8826  0.1419
15952TIP3    H269272   4.841   2.927  13.580  0.6457 -2.2567  0.2954
15953TIP3   OH269273   1.028   0.433  15.687 -0.0529 -0.7569 -0.0774
15953TIP3    H169274   1.016   0.489  15.764 -2.2480 -0.2651 -0.7083
15953TIP3    H269275   0.993   0.348  15.714 -2.0038 -0.2577 -0.8427
15954TIP3   OH269276   0.493   4.885  15.497 -0.5741  0.4709  0.3330
15954TIP3    H169277   0.476   4.815  15.434  0.9188  0.7036 -0.3753
15954TIP3    H269278   0.458   4.964  15.455  1.0510  0.7479 -0.5749
15955TIP3   OH269279   4.226   5.311  11.683  0.0392 -0.3960 -0.5805
15955TIP3    H169280   4.201   5.326  11.774 -1.6735 -0.1744 -1.0498
15955TIP3    H269281   4.193   5.224  11.663 -2.0838  0.5932 -1.7407
15956TIP3   OH269282   1.655   3.734  13.106 -0.6902 -0.2900 -0.1980
15956TIP3    H169283   1.673   3.735  13.012 -2.3120  1.2104 -0.5520
15956TIP3    H269284   1.738   3.708  13.146  0.1648 -0.5110 -2.0145
15957TIP3   OH269285   1.982   6.532   0.789 -0.2895 -0.5426 -0.1038
15957TIP3    H169286   1.946   6.466   0.847  0.6070 -0.3613  0.6818
15957TIP3    H269287   2.006   6.605   0.847 -0.7206  0.2373 -0.8793
15958TIP3   OH269288   3.313   5.554   1.633 -0.3013 -0.1887 -0.3352
15958TIP3    H169289   3.374   5.565   1.560  0.2061  1.0317  0.2422
15958TIP3    H269290   3.246   5.496   1.599  0.3265 -0.2543 -1.5280
15959TIP3   OH269291   1.578   1.347  13.381  0.0100  0.1992 -0.3369
15959TIP3    H169292   1.534   1.300  13.311 -0.0324  1.6264 -1.2917
15959TIP3    H269293   1.661   1.375  13.343  0.7946 -0.5288  0.7518
15960TIP3   OH269294   0.072   3.548   3.156 -0.1339 -0.1682 -0.0650
15960TIP3    H169295   0.082   3.642   3.138 -1.4304  0.0578  0.2251
15960TIP3    H269296   0.022   3.515   3.082 -0.9463 -0.3139  0.5308
15961TIP3   OH269297   0.260   6.051  16.269 -0.4955  0.0886  0.0972
15961TIP3    H169298   0.273   5.956  16.263 -2.2320 -0.1806  0.1611
15961TIP3    H269299   0.344   6.084  16.300 -0.4760 -1.6757  2.1828
15962TIP3   OH269300   5.055   1.168   2.008  0.8048 -0.5542  0.4818
15962TIP3    H169301   5.142   1.153   1.969  1.1230 -0.3878  1.1069
15962TIP3    H269302   4.994   1.131   1.944  1.3410 -0.7838  0.0857
15963TIP3   OH269303   1.267   2.324  10.745  0.3215  0.2656 -0.2880
15963TIP3    H169304   1.214   2.328  10.665 -1.5953 -0.4022  0.8999
15963TIP3    H269305   1.207   2.296  10.813  1.8173  1.2316  1.5237
15964TIP3   OH269306   4.973   5.948   0.938  0.1712 -0.4772 -0.5227
15964TIP3    H169307   5.030   5.924   1.011  0.7035  0.5576 -0.5823
15964TIP3    H269308   5.015   6.025   0.899 -1.7587  0.9232  0.0280
15965TIP3   OH269309   6.788   3.730   1.596  0.6228 -0.0296 -0.4983
15965TIP3    H169310   6.748   3.672   1.661 -2.2130  2.5554  0.2993
15965TIP3    H269311   6.810   3.672   1.523 -2.4462 -2.1314  0.0325
15966TIP3   OH269312   2.003   3.996  11.543  0.4873  0.5393 -0.2346
15966TIP3    H169313   1.966   3.926  11.595  0.2032  1.1500  0.3925
15966TIP3    H269314   1.964   3.985  11.456 -0.1984  0.4246  0.0843
15967TIP3   OH269315   0.670   2.502   3.945 -0.0179 -0.2307  0.2186
15967TIP3    H169316   0.605   2.488   4.014  0.2909 -0.8636  0.3884
15967TIP3    H269317   0.696   2.593   3.956 -1.2948  0.2048 -0.2229
15968TIP3   OH269318   0.799   3.332   1.881  0.0674  0.0334  0.9289
15968TIP3    H169319   0.714   3.325   1.836 -0.4840  0.6957  1.8437
15968TIP3    H269320   0.820   3.425   1.879 -0.1660  0.1343  2.3830
15969TIP3   OH269321   1.165   1.619   3.058  0.4388  0.4023 -0.1096
15969TIP3    H169322   1.092   1.559   3.039  0.5386  0.4093 -0.5262
15969TIP3    H269323   1.140   1.661   3.140  0.2174  0.0212  0.0230
15970TIP3   OH269324   2.219   4.746  11.312  0.4746  0.1873  0.1165
15970TIP3    H169325   2.260   4.832  11.306 -1.0150  0.8917 -0.5368
15970TIP3    H269326   2.250   4.700  11.233  1.7655 -0.1389  0.7817
15971TIP3   OH269327   4.939   2.263  12.408  0.0431  0.1002 -0.0852
15971TIP3    H169328   4.956   2.202  12.336  1.8775 -0.4097  0.7365
15971TIP3    H269329   4.976   2.220  12.485 -1.4819  0.8434  1.1093
15972TIP3   OH269330   3.044   3.034  10.667 -0.2247  1.0111  0.0134
15972TIP3    H169331   3.013   3.059  10.580  0.1683  0.7487 -0.2010
15972TIP3    H269332   3.115   3.096  10.686  0.4280  0.3720 -0.3178
15973TIP3   OH269333   5.288   3.503  17.198 -0.1544  0.6303 -0.6665
15973TIP3    H169334   5.241   3.502  17.281  0.2917 -1.4402 -0.3816
15973TIP3    H269335   5.326   3.590  17.193 -0.9512  1.0949  0.8644
15974TIP3   OH269336   4.922   2.928  11.831  0.2949  0.1902 -0.3199
15974TIP3    H169337   4.944   2.970  11.914  1.0320 -0.6374 -0.0857
15974TIP3    H269338   4.992   2.865  11.816 -0.1281 -0.0724 -1.2959
15975TIP3   OH269339   0.718   3.785  16.011  0.1678 -0.4384 -0.1637
15975TIP3    H169340   0.738   3.696  16.040  2.6110 -0.1657 -0.7321
15975TIP3    H269341   0.797   3.835  16.032 -0.6965  1.3354 -0.9234
15976TIP3   OH269342   3.552   2.496   2.344 -0.2714  0.5840  0.2223
15976TIP3    H169343   3.516   2.438   2.276 -1.2330  1.7097 -0.2695
15976TIP3    H269344   3.576   2.576   2.297 -1.7055  1.6957  1.2946
15977TIP3   OH269345   5.872   5.238   2.435 -1.0444 -0.2386 -0.5930
15977TIP3    H169346   5.959   5.277   2.430 -0.6158 -1.2381 -1.2531
15977TIP3    H269347   5.866   5.202   2.523 -0.3499 -1.1154 -0.8888
15978TIP3   OH269348   1.554   1.379   0.355 -0.4502 -0.1055 -0.2535
15978TIP3    H169349   1.466   1.342   0.349 -1.2278  1.3472  1.5024
15978TIP3    H269350   1.608   1.318   0.304 -2.7238 -0.0181 -3.0422
15979TIP3   OH269351   5.228   6.331  16.370 -0.2386  0.0684  0.1522
15979TIP3    H169352   5.236   6.267  16.441 -0.6196 -0.4374 -0.2595
15979TIP3    H269353   5.141   6.316  16.333 -0.5266  1.1582  0.3655
15980TIP3   OH269354   5.350   2.469  14.022 -0.4433 -0.7217 -0.5702
15980TIP3    H169355   5.329   2.410  13.949  0.2107 -1.9876  0.2268
15980TIP3    H269356   5.403   2.538  13.982 -0.1542 -1.3516 -1.3184
15981TIP3   OH269357   2.829   4.323  11.229 -0.0693  0.3766  0.0620
15981TIP3    H169358   2.847   4.404  11.276  2.7840 -1.4605  2.5142
15981TIP3    H269359   2.906   4.310  11.173 -0.2208 -0.9157  0.1243
15982TIP3   OH269360   1.988   0.685  11.684 -0.5053  0.0475 -0.6945
15982TIP3    H169361   1.996   0.662  11.592  0.6537 -0.6350 -0.4386
15982TIP3    H269362   1.928   0.620  11.721 -0.0725 -0.3772 -0.7325
15983TIP3   OH269363   2.548   4.760  11.404 -0.2834  0.2629 -0.6170
15983TIP3    H169364   2.526   4.810  11.483  3.3392  0.3504  0.5385
15983TIP3    H269365   2.533   4.821  11.332  0.2110  1.6667  0.4133
15984TIP3   OH269366   6.669   6.656  12.437  0.4273 -0.2144 -0.4170
15984TIP3    H169367   6.610   6.653  12.512  0.5630 -0.0461 -0.3029
15984TIP3    H269368   6.721   6.576  12.444  1.0223  0.2165  0.1424
15985TIP3   OH269369   1.457   5.928   1.270  1.0239  0.4263 -0.3175
15985TIP3    H169370   1.423   5.955   1.184  0.6359  0.3640 -0.1832
15985TIP3    H269371   1.410   5.982   1.333  0.1376 -0.6402 -0.0343
15986TIP3   OH269372   0.872   2.236   0.607  0.0386  0.0472  0.1170
15986TIP3    H169373   0.801   2.172   0.602  0.0287  0.0854 -0.2517
15986TIP3    H269374   0.877   2.274   0.519  0.8967 -0.3812 -0.0335
15987TIP3   OH269375   5.844   2.477  12.370  0.2524  0.8342  0.1908
15987TIP3    H169376   5.862   2.511  12.458  0.7257 -0.1976  0.5042
15987TIP3    H269377   5.749   2.489  12.360  0.3764  2.1097  0.3287
15988TIP3   OH269378   5.977   1.452  16.917 -0.4035  0.0915 -0.2506
15988TIP3    H169379   6.036   1.456  16.842 -0.3486 -0.0445 -0.2170
15988TIP3    H269380   5.988   1.363  16.951  0.5320  0.5454  0.6898
15989TIP3   OH269381   3.183   0.435  11.444  0.2695  0.2851 -0.4543
15989TIP3    H169382   3.278   0.428  11.438  0.2266  0.8546 -2.3014
15989TIP3    H269383   3.153   0.443  11.354 -1.4249  1.4755  0.1476
15990TIP3   OH269384   4.489   1.864   4.397  0.6052  0.0886 -0.3214
15990TIP3    H169385   4.436   1.841   4.474 -1.4712  0.6757 -1.4948
15990TIP3    H269386   4.513   1.780   4.359  1.9738 -0.2203  1.1171
15991TIP3   OH269387   0.161   4.898  16.916  0.8094  0.2062  0.2361
15991TIP3    H169388   0.189   4.821  16.965  0.3446 -0.0325  0.1413
15991TIP3    H269389   0.223   4.967  16.940  0.7423  0.0218  0.9561
15992TIP3   OH269390   0.175   0.090   3.002 -0.2327 -0.2065 -0.4109
15992TIP3    H169391   0.262   0.113   2.969 -0.0961  1.0982  0.7552
15992TIP3    H269392   0.187   0.003   3.042  0.3558 -0.3493 -0.8844
15993TIP3   OH269393   3.812   3.591   5.820 -0.3303 -0.1350  0.4330
15993TIP3    H169394   3.874   3.520   5.803 -0.2696 -0.5622  2.3372
15993TIP3    H269395   3.747   3.555   5.879 -0.8549  1.1185  0.6688
15994TIP3   OH269396   1.240   4.283  12.141  0.4435  0.6551 -0.1318
15994TIP3    H169397   1.167   4.333  12.177  0.5723 -1.1445  2.9896
15994TIP3    H269398   1.313   4.345  12.138 -0.6350  1.9189 -1.3051
15995TIP3   OH269399   3.843   2.712   4.143 -0.0970  0.4321  0.1804
15995TIP3    H169400   3.752   2.705   4.175 -0.2545 -0.4975 -0.4298
15995TIP3    H269401   3.865   2.623   4.115  0.8376  0.7601 -0.1505
15996TIP3   OH269402   3.193   1.784   0.972  0.6954  0.0958  0.2403
15996TIP3    H169403   3.259   1.797   0.904  0.7993 -0.4327  0.2372
15996TIP3    H269404   3.224   1.708   1.021 -0.4132 -0.7932 -0.3854
15997TIP3   OH269405   2.125   3.830   4.775  0.1694 -0.3251  0.3412
15997TIP3    H169406   2.060   3.830   4.846  0.0316  0.5783  0.2275
15997TIP3    H269407   2.084   3.780   4.705 -0.9882  1.3664 -0.2315
15998TIP3   OH269408   3.410   3.404   1.361 -0.2477 -0.3771 -0.2902
15998TIP3    H169409   3.380   3.331   1.416  3.3150 -1.1816  0.8139
15998TIP3    H269410   3.491   3.373   1.321  0.9159  2.6207 -0.5437
15999TIP3   OH269411   5.482   5.822   3.104  0.4025  0.7754 -0.2281
15999TIP3    H169412   5.536   5.898   3.125  0.9906  0.6988 -1.3862
15999TIP3    H269413   5.402   5.835   3.155  1.6688  0.6253  1.9053
16000TIP3   OH269414   5.462   1.445   0.134  0.4683  0.3934 -0.2161
16000TIP3    H169415   5.369   1.451   0.157  0.1304 -0.8203 -1.1376
16000TIP3    H269416   5.481   1.527   0.088  0.5046  1.7148  2.0058
16001TIP3   OH269417   0.868   4.711  13.431  0.0110 -0.3720  0.0958
16001TIP3    H169418   0.889   4.712  13.338  0.2423 -0.4703  0.1455
16001TIP3    H269419   0.782   4.753  13.437  0.7957  1.3146  0.0394
16002TIP3   OH269420   5.554   1.886  16.746  0.2793  0.1646 -0.0398
16002TIP3    H169421   5.616   1.818  16.719 -0.0929 -0.3663  0.4029
16002TIP3    H269422   5.486   1.838  16.792 -0.3431  0.7676 -0.3162
16003TIP3   OH269423   0.961   3.004   3.056 -0.0200  0.3860  0.2944
16003TIP3    H169424   0.900   3.077   3.043 -1.0185 -0.2299  1.3006
16003TIP3    H269425   0.918   2.929   3.015 -0.1809 -0.1597  1.4226
16004TIP3   OH269426   4.544   3.966  16.352 -0.5432  0.4368 -0.4104
16004TIP3    H169427   4.603   3.977  16.427 -0.1167 -1.0760 -0.4878
16004TIP3    H269428   4.471   4.024  16.371 -0.0573  0.6998  0.7776
16005TIP3   OH269429   2.718   4.684  10.973 -0.3567  0.3067 -0.6824
16005TIP3    H169430   2.627   4.713  10.977 -0.2190  0.6107  0.5877
16005TIP3    H269431   2.769   4.765  10.974  0.0061  0.1437  2.0547
16006TIP3   OH269432   4.030   0.540  15.842 -0.1994  0.4197  0.3199
16006TIP3    H169433   4.021   0.635  15.839 -1.1674  0.3417  0.4278
16006TIP3    H269434   4.093   0.519  15.773 -1.5316  0.9786 -1.1297
16007TIP3   OH269435   0.176   6.066   1.638 -0.4563 -0.1275 -0.0666
16007TIP3    H169436   0.120   6.028   1.571 -0.6322 -1.8850  1.0103
16007TIP3    H269437   0.120   6.130   1.683 -0.3092  1.1247 -1.5858
16008TIP3   OH269438   5.529   1.835   5.817  0.0993  0.4721 -0.2959
16008TIP3    H169439   5.462   1.822   5.884 -1.4237  1.8564 -1.4597
16008TIP3    H269440   5.541   1.930   5.814  0.2864  0.4301 -1.8075
16009TIP3   OH269441   0.563   5.794  14.915 -0.3250 -0.5169  0.5210
16009TIP3    H169442   0.495   5.790  14.982  0.5385  0.8655  1.5441
16009TIP3    H269443   0.516   5.808  14.833 -1.2867  2.1703  1.3985
16010TIP3   OH269444   3.967   2.170   3.633 -0.0461  0.0034  0.7866
16010TIP3    H169445   4.059   2.179   3.658 -0.2333  0.7242  1.2604
16010TIP3    H269446   3.926   2.126   3.708 -0.4326  1.3471  1.3974
16011TIP3   OH269447   0.744   5.744  15.762 -0.4007 -0.3798  0.6568
16011TIP3    H169448   0.691   5.780  15.691  2.3784 -1.2626 -2.0971
16011TIP3    H269449   0.790   5.820  15.799  0.2861 -0.2334 -0.4722
16012TIP3   OH269450   4.287   3.932   5.039  0.0722 -0.0333  0.1381
16012TIP3    H169451   4.370   3.917   5.085  1.1029  0.1706 -1.5759
16012TIP3    H269452   4.312   3.976   4.958 -1.6117 -0.8013 -0.8576
16013TIP3   OH269453   3.979   4.528   0.837  0.7786  0.6447  0.3606
16013TIP3    H169454   4.033   4.581   0.779  1.2837 -0.7062 -0.4488
16013TIP3    H269455   3.974   4.578   0.918  0.9194  2.0894 -0.4869
16014TIP3   OH269456   3.762   4.023  15.165  0.7226  0.3925  0.5990
16014TIP3    H169457   3.805   4.022  15.079 -0.1143  0.2189  0.1687
16014TIP3    H269458   3.816   3.965  15.219  0.2978 -0.9061 -0.3147
16015TIP3   OH269459   4.796   5.015   2.614  0.3030 -0.0463  0.4320
16015TIP3    H169460   4.827   4.984   2.529 -0.6105 -1.9600  0.7294
16015TIP3    H269461   4.855   5.087   2.637  2.5213 -1.4833 -0.4344
16016TIP3   OH269462   3.270   2.367  11.454 -0.0363  0.3480 -0.3727
16016TIP3    H169463   3.243   2.400  11.369  0.7419  0.7527 -0.4736
16016TIP3    H269464   3.237   2.431  11.517  0.5167  0.7399 -0.4793
16017TIP3   OH269465   1.586   3.044  14.136 -0.5546 -0.4821  0.3673
16017TIP3    H169466   1.493   3.063  14.130 -0.4626 -0.5948 -2.9490
16017TIP3    H269467   1.592   2.949  14.125  0.0126 -0.3022 -1.0429
16018TIP3   OH269468   2.936   4.052  11.998  0.0571  0.2457 -0.0321
16018TIP3    H169469   2.920   4.146  11.998 -0.2993  0.2416 -2.3069
16018TIP3    H269470   3.017   4.041  11.948  0.3626 -0.6427  0.6176
16019TIP3   OH269471   5.382   4.294   1.171 -0.2616  0.4800  0.3818
16019TIP3    H169472   5.425   4.215   1.203  1.8085  1.3036 -0.2277
16019TIP3    H269473   5.292   4.266   1.151  0.0829 -1.4105  1.2649
16020TIP3   OH269474   2.882   4.322  12.200  0.0512  0.2223 -0.1499
16020TIP3    H169475   2.844   4.409  12.193 -0.2391  0.0393 -0.9265
16020TIP3    H269476   2.832   4.279  12.269 -0.9986  0.0754 -0.9761
16021TIP3   OH269477   0.553   4.288  11.735  0.5282 -0.0704 -0.4134
16021TIP3    H169478   0.606   4.283  11.656  2.8378 -1.4951  1.1109
16021TIP3    H269479   0.566   4.378  11.767 -0.0953  0.3849 -1.3911
16022TIP3   OH269480   3.928   3.187  11.382 -0.1217 -0.4188  0.4732
16022TIP3    H169481   3.837   3.200  11.355 -0.1635  0.4499  0.9859
16022TIP3    H269482   3.924   3.182  11.478  0.1716 -2.1754  0.4419
16023TIP3   OH269483   2.816   5.343  14.367  0.2717 -0.0608  0.2868
16023TIP3    H169484   2.778   5.296  14.292 -1.2997  0.2861  0.8361
16023TIP3    H269485   2.888   5.287  14.395  0.8241 -0.2555 -1.4107
16024TIP3   OH269486   2.100   3.504  12.311  0.7096 -0.0799 -0.4196
16024TIP3    H169487   2.103   3.409  12.319 -1.0773 -0.0903  0.6912
16024TIP3    H269488   2.048   3.521  12.232  1.7398  0.0044 -1.0998
16025TIP3   OH269489   1.157   0.947  15.762  0.4738 -0.7439 -0.3764
16025TIP3    H169490   1.246   0.914  15.772  0.4535 -1.1943 -1.5571
16025TIP3    H269491   1.165   1.015  15.695 -0.3395 -2.0114 -1.8094
16026TIP3   OH269492   3.365   5.008   2.772 -0.5357 -0.0532  0.2393
16026TIP3    H169493   3.335   5.089   2.732 -2.0889 -1.3163 -1.3340
16026TIP3    H269494   3.307   4.995   2.847  1.7349  1.7950  2.5283
16027TIP3   OH269495   3.815   3.316   2.623 -0.5828 -0.4424  0.3846
16027TIP3    H169496   3.865   3.384   2.577 -0.1654 -1.9866 -1.6012
16027TIP3    H269497   3.754   3.283   2.557 -0.0168 -2.7316  0.9337
16028TIP3   OH269498   6.297   4.727  14.315  0.6295 -0.4087 -0.1375
16028TIP3    H169499   6.359   4.799  14.326 -0.0564  0.1530  0.1240
16028TIP3    H269500   6.248   4.726  14.397 -1.1910  0.6024 -1.1573
16029TIP3   OH269501   1.814   2.059  12.409 -0.0587  0.6590 -0.0117
16029TIP3    H169502   1.820   2.155  12.409  1.5794  0.6164 -1.3712
16029TIP3    H269503   1.809   2.036  12.316 -1.8901 -0.5432  0.3422
16030TIP3   OH269504   6.248   6.658   3.591 -0.3024  0.1741 -0.0804
16030TIP3    H169505   6.287   6.571   3.605  0.8204  0.8201  0.9387
16030TIP3    H269506   6.212   6.682   3.676 -1.2473  0.4307 -0.5354
16031TIP3   OH269507   3.033   5.416   2.070 -0.4076 -0.5471  0.3023
16031TIP3    H169508   3.016   5.463   1.988  1.1955  0.4653  0.4880
16031TIP3    H269509   2.978   5.338   2.065 -1.0418 -0.0493 -1.3179
16032TIP3   OH269510   2.693   2.111   3.017  0.3482 -0.2002  0.9213
16032TIP3    H169511   2.680   2.088   3.110  0.1169 -2.8938  0.3056
16032TIP3    H269512   2.735   2.034   2.979 -1.3416  0.0071 -1.6162
16033TIP3   OH269513   2.005   3.706  15.105 -0.7156  0.0108  0.3382
16033TIP3    H169514   1.960   3.696  15.188 -0.7999  0.6591  0.3745
16033TIP3    H269515   2.063   3.781  15.117 -0.4789 -0.0971 -0.0804
16034TIP3   OH269516   0.088   4.583   0.573 -0.5605 -0.2678  0.5435
16034TIP3    H169517   0.015   4.555   0.628 -0.3381 -1.0952  0.4399
16034TIP3    H269518   0.062   4.668   0.538 -0.9989 -0.0477  1.3834
16035TIP3   OH269519   4.871   5.864  17.228 -0.4901  0.5430  0.0627
16035TIP3    H169520   4.827   5.866  17.314  0.2286  0.2574  0.4482
16035TIP3    H269521   4.806   5.827  17.169 -0.9724  0.6714  0.5041
16036TIP3   OH269522   4.166   2.307  12.070 -0.9586 -0.0369  0.0280
16036TIP3    H169523   4.254   2.334  12.096  0.1818 -2.2999 -1.1622
16036TIP3    H269524   4.132   2.381  12.020  0.0436  1.0776  0.9409
16037TIP3   OH269525   0.895   0.590   2.979 -0.2169  0.6254  0.7664
16037TIP3    H169526   0.808   0.627   2.991 -0.4320  0.0407  1.0046
16037TIP3    H269527   0.924   0.566   3.067 -0.2979 -0.2704  0.5607
16038TIP3   OH269528   4.204   4.832  11.160 -0.0061 -0.1250 -0.6186
16038TIP3    H169529   4.198   4.805  11.068  0.7043  0.2495 -0.7770
16038TIP3    H269530   4.297   4.827  11.181 -0.1677 -0.2525  0.1001
16039TIP3   OH269531   0.105   1.858   5.527  0.0174 -0.0080  0.3135
16039TIP3    H169532   0.195   1.874   5.556  0.3260 -0.3687 -0.4035
16039TIP3    H269533   0.109   1.771   5.486 -0.4651  0.3303 -0.4753
16040TIP3   OH269534   4.312   5.799  10.809 -0.0070  0.0226  0.2033
16040TIP3    H169535   4.298   5.866  10.742  0.6576  0.1925  0.2263
16040TIP3    H269536   4.363   5.844  10.876 -0.5312 -0.1935  0.7536
16041TIP3   OH269537   5.753   0.354  11.307  0.1131  0.1806 -0.2927
16041TIP3    H169538   5.667   0.312  11.304 -0.5098  1.3454  0.5256
16041TIP3    H269539   5.776   0.369  11.215 -1.0825  0.8691 -0.4930
16042TIP3   OH269540   3.929   6.130  12.459  0.2724 -0.2829  0.2208
16042TIP3    H169541   3.995   6.174  12.406  0.4780 -2.1634 -1.1610
16042TIP3    H269542   3.859   6.107  12.398 -1.2283  0.7307  1.4617
16043TIP3   OH269543   3.596   4.711  14.700 -0.4199 -0.3299  0.3992
16043TIP3    H169544   3.683   4.726  14.738  0.3432 -0.2287 -1.3191
16043TIP3    H269545   3.545   4.674  14.772  0.8663  0.1418  1.6091
16044TIP3   OH269546   0.495   0.204  14.477 -0.3739  0.5800  0.0964
16044TIP3    H169547   0.407   0.219  14.511 -0.6176 -0.0763 -0.2169
16044TIP3    H269548   0.506   0.272  14.411 -1.2650 -0.2448 -0.9563
16045TIP3   OH269549   6.125   5.476   6.585  0.4355 -0.6435  1.1558
16045TIP3    H169550   6.209   5.518   6.603  0.1186  0.9597 -0.7340
16045TIP3    H269551   6.117   5.408   6.652  2.7005 -0.0989  2.0691
16046TIP3   OH269552   6.780   4.485  12.236 -0.4572  0.4721  0.2745
16046TIP3    H169553   6.715   4.441  12.290 -2.7435  1.1487 -1.7185
16046TIP3    H269554   6.835   4.415  12.201 -2.2431 -0.5311 -0.6179
16047TIP3   OH269555   5.178   5.618   0.714 -0.2886  0.2996 -0.0559
16047TIP3    H169556   5.133   5.690   0.671 -0.4498  1.0947  1.3846
16047TIP3    H269557   5.270   5.643   0.711  0.0132 -0.8197 -2.0505
16048TIP3   OH269558   1.559   5.188   4.460 -0.4886  0.0516  0.2074
16048TIP3    H169559   1.561   5.120   4.528 -0.3644 -1.0007 -0.8196
16048TIP3    H269560   1.633   5.167   4.403  0.8729  2.3247  1.0299
16049TIP3   OH269561   5.530   1.617   3.318 -0.6245  0.3006 -0.0550
16049TIP3    H169562   5.510   1.681   3.386 -1.7194  0.1101 -0.1779
16049TIP3    H269563   5.613   1.648   3.280  0.6918 -0.2790  2.1638
16050TIP3   OH269564   2.144   1.047   1.035 -0.7306 -0.3141  0.4461
16050TIP3    H169565   2.090   1.124   1.017 -1.6511 -1.3962 -1.8652
16050TIP3    H269566   2.093   0.973   1.002  1.5216 -1.5406 -0.5902
16051TIP3   OH269567   0.123   4.172  16.882 -0.4301 -0.1496 -0.2785
16051TIP3    H169568   0.131   4.244  16.945 -1.2815 -1.2343  1.1043
16051TIP3    H269569   0.213   4.141  16.870 -0.1489  0.6574 -0.3260
16052TIP3   OH269570   4.946   2.587   1.582 -0.1509 -0.5053  0.2468
16052TIP3    H169571   4.911   2.540   1.657 -1.9057 -2.1292 -1.4738
16052TIP3    H269572   5.019   2.532   1.552  0.4998  0.1000  0.7035
16053TIP3   OH269573   5.369   4.359  12.596  0.0061  0.3364  1.0038
16053TIP3    H169574   5.313   4.428  12.560 -0.5110  0.5023  2.0919
16053TIP3    H269575   5.313   4.282  12.601  0.9832 -0.6558 -1.6366
16054TIP3   OH269576   1.136   2.487   3.451 -1.0922  0.9641 -0.9146
16054TIP3    H169577   1.143   2.410   3.508 -1.9798  1.1053 -0.5935
16054TIP3    H269578   1.226   2.509   3.430 -0.7941  0.2502 -0.4422
16055TIP3   OH269579   6.311   5.122  13.494 -0.0829  0.4868 -0.0144
16055TIP3    H169580   6.262   5.045  13.523 -1.9790  1.0546 -1.5856
16055TIP3    H269581   6.388   5.124  13.552 -0.8561 -1.5837  1.1797
16056TIP3   OH269582   4.244   6.275  15.850  0.1589  0.1938  0.6301
16056TIP3    H169583   4.246   6.244  15.940  1.2460 -1.0568  0.2043
16056TIP3    H269584   4.284   6.204  15.799  1.7744  1.8659 -0.5376
16057TIP3   OH269585   6.571   6.153  16.308  0.4833 -0.0411  0.5141
16057TIP3    H169586   6.660   6.180  16.284 -0.5005  1.5925 -1.7741
16057TIP3    H269587   6.523   6.235  16.315 -1.4880 -0.9347 -1.3644
16058TIP3   OH269588   4.550   2.539   3.112  0.5289  0.6367 -0.2055
16058TIP3    H169589   4.502   2.610   3.155  0.0913 -0.0248  0.4290
16058TIP3    H269590   4.619   2.583   3.063 -0.7838  1.6339 -1.2409
16059TIP3   OH269591   4.517   0.736  12.899 -0.3354 -0.4286 -0.2446
16059TIP3    H169592   4.514   0.709  12.807 -1.2401 -0.1226 -0.3078
16059TIP3    H269593   4.570   0.668  12.941 -0.1950 -0.7544 -0.9231
16060TIP3   OH269594   6.659   3.704  14.555 -0.2890  0.1466  0.2787
16060TIP3    H169595   6.725   3.767  14.582 -0.1477 -0.1166  0.5396
16060TIP3    H269596   6.656   3.639  14.625  0.0076 -0.4758 -0.2799
16061TIP3   OH269597   1.539   3.240  16.735 -0.0781 -0.4233  0.2134
16061TIP3    H169598   1.527   3.329  16.703  0.1638  0.2924  1.9775
16061TIP3    H269599   1.582   3.251  16.820 -0.6505 -2.1840  0.7760
16062TIP3   OH269600   6.034   5.014  16.083  0.2656  0.6047 -0.1969
16062TIP3    H169601   6.031   4.919  16.081 -0.5919  0.5855  0.9196
16062TIP3    H269602   6.113   5.037  16.034  0.4925 -0.6775 -0.4546
16063TIP3   OH269603   5.221   0.915   5.922 -0.5393  0.0681 -0.4066
16063TIP3    H169604   5.131   0.908   5.889 -0.6321  1.8012 -0.6410
16063TIP3    H269605   5.211   0.953   6.009 -0.1339 -1.9455  0.5667
16064TIP3   OH269606   5.599   4.509  14.667  0.1048 -0.4704 -0.5888
16064TIP3    H169607   5.550   4.537  14.590  0.8777  1.0226 -0.5715
16064TIP3    H269608   5.559   4.555  14.740  0.8966  0.0242 -0.4493
16065TIP3   OH269609   0.815   0.415  11.599  0.4723 -0.0259  0.0138
16065TIP3    H169610   0.853   0.427  11.686 -0.1205  3.5559 -0.0542
16065TIP3    H269611   0.777   0.501  11.578 -0.0382 -0.9611 -3.4837
16066TIP3   OH269612   1.193   4.685   0.926  0.2272 -0.1662  0.4093
16066TIP3    H169613   1.287   4.700   0.933  0.3184 -0.2885 -0.4478
16066TIP3    H269614   1.153   4.771   0.941  0.5687  0.2384 -0.8666
16067TIP3   OH269615   2.131   0.389  14.659 -0.4139  0.2263 -0.0346
16067TIP3    H169616   2.126   0.368  14.566 -1.0376  1.6384 -0.3500
16067TIP3    H269617   2.044   0.423  14.680  0.4855  2.4244  0.3911
16068TIP3   OH269618   3.846   0.349   6.467 -0.0845  0.0210 -0.2000
16068TIP3    H169619   3.937   0.353   6.495  0.5711  1.1259 -2.2848
16068TIP3    H269620   3.796   0.375   6.544  1.3189 -0.6255  0.9891
16069TIP3   OH269621   2.095   1.100  13.419  0.1778  0.1371  1.0481
16069TIP3    H169622   2.072   1.192  13.406 -1.0292 -0.2475  0.3357
16069TIP3    H269623   2.160   1.082  13.351  1.7059  0.8671  2.2309
16070TIP3   OH269624   0.357   4.592  14.924  0.7070 -0.3819 -0.0386
16070TIP3    H169625   0.324   4.549  15.003  0.5457 -0.8010 -0.3281
16070TIP3    H269626   0.437   4.635  14.953  0.0438  0.4462  0.6195
16071TIP3   OH269627   3.709   6.450   2.690  0.4398 -0.2469  0.1294
16071TIP3    H169628   3.636   6.511   2.702 -0.4769 -1.0320 -1.1162
16071TIP3    H269629   3.690   6.377   2.748 -2.9996 -3.1742 -3.9838
16072TIP3   OH269630   2.777   2.738  16.550 -0.0472  0.5250  0.2606
16072TIP3    H169631   2.770   2.823  16.592 -1.5958  0.6802 -0.2313
16072TIP3    H269632   2.817   2.682  16.616  0.0716  1.3978  0.9460
16073TIP3   OH269633   4.171   3.338   0.752  0.3550  0.0947 -0.1176
16073TIP3    H169634   4.142   3.403   0.688  0.0556  0.9382  0.8376
16073TIP3    H269635   4.094   3.283   0.767  0.6436 -0.5612 -1.0151
16074TIP3   OH269636   6.487   3.525  15.675  0.0426  0.7669  0.5557
16074TIP3    H169637   6.508   3.605  15.723  0.3869  0.4835  0.8787
16074TIP3    H269638   6.404   3.545  15.631  0.1570  1.3225  0.5825
16075TIP3   OH269639   3.642   3.381  14.683  0.3365 -0.7637  0.4588
16075TIP3    H169640   3.584   3.448  14.645  0.5614 -0.7164  0.2010
16075TIP3    H269641   3.582   3.319  14.724  0.1460 -0.0710  1.2509
16076TIP3   OH269642   4.824   1.530  14.890  0.3930  0.2201  0.3280
16076TIP3    H169643   4.816   1.624  14.908  1.5664 -0.3052  4.7630
16076TIP3    H269644   4.735   1.497  14.895  0.1484  0.8590  0.3559
16077TIP3   OH269645   6.114   3.856   0.575 -0.5164 -0.4403  0.1446
16077TIP3    H169646   6.044   3.861   0.509 -1.5942  0.5814  1.3177
16077TIP3    H269647   6.085   3.790   0.637 -1.0620  0.8371  1.2933
16078TIP3   OH269648   4.322   4.476  12.015  0.3456  0.3185 -0.3384
16078TIP3    H169649   4.354   4.423  12.088  0.9958  1.4558  0.2353
16078TIP3    H269650   4.239   4.513  12.046 -0.2011 -0.4900 -0.8077
16079TIP3   OH269651   4.325   1.809   5.332  0.0296  0.1745 -0.2506
16079TIP3    H169652   4.319   1.903   5.350 -1.4212  0.0522  0.0459
16079TIP3    H269653   4.297   1.801   5.241 -1.5145 -0.1127  0.2190
16080TIP3   OH269654   6.548   1.415   2.711 -0.0245  0.2562  0.1864
16080TIP3    H169655   6.568   1.485   2.649 -0.1511  0.3997  0.3030
16080TIP3    H269656   6.485   1.360   2.666  0.6647 -0.2250 -0.1989
16081TIP3   OH269657   3.521   6.601  16.164 -0.3814 -0.0258 -0.0309
16081TIP3    H169658   3.529   6.541  16.090  0.8714 -3.5933  2.7469
16081TIP3    H269659   3.429   6.625  16.166 -1.2830 -3.0534 -0.5315
16082TIP3   OH269660   6.752   4.914  14.119  0.5633 -0.5562  0.3194
16082TIP3    H169661   6.835   4.945  14.085  0.1026 -0.8514 -1.1379
16082TIP3    H269662   6.729   4.977  14.188  0.5727  1.2426 -1.2491
16083TIP3   OH269663   1.925   1.333   4.435 -0.2167 -0.2952  0.3084
16083TIP3    H169664   2.016   1.305   4.420  0.0070  0.7472 -0.4265
16083TIP3    H269665   1.896   1.281   4.509  2.0537  1.5658  2.6743
16084TIP3   OH269666   6.268   3.005   1.084 -0.4437  0.1983 -0.3101
16084TIP3    H169667   6.357   3.038   1.072 -0.3199  0.1804  0.4942
16084TIP3    H269668   6.279   2.914   1.110 -0.6388  0.4792  0.8185
16085TIP3   OH269669   0.146   4.666   4.811  0.4583  0.2027  0.1396
16085TIP3    H169670   0.175   4.741   4.863  0.4773  2.2151 -2.5596
16085TIP3    H269671   0.166   4.690   4.720 -5.3817 -0.1051 -1.6644
16086TIP3   OH269672   5.454   3.493   1.671 -0.0140 -0.3403  0.0829
16086TIP3    H169673   5.431   3.440   1.747 -0.3211  1.4411  1.2668
16086TIP3    H269674   5.390   3.564   1.670 -0.4607 -0.6839 -2.2617
16087TIP3   OH269675   6.236   6.356   1.687 -0.4723  0.2474 -0.0539
16087TIP3    H169676   6.216   6.262   1.691 -0.2168  0.1845 -0.2363
16087TIP3    H269677   6.291   6.365   1.610 -0.5603  0.5616 -0.0796
16088TIP3   OH269678   4.170   2.141  13.724  0.1277 -0.4517  0.2424
16088TIP3    H169679   4.101   2.157  13.660  0.1653 -1.3186 -0.0310
16088TIP3    H269680   4.148   2.199  13.798 -0.8549 -0.6668  0.1392
16089TIP3   OH269681   3.414   5.507  16.943  0.2313  0.1037 -0.0303
16089TIP3    H169682   3.490   5.461  16.907 -0.1132 -1.0615  0.7084
16089TIP3    H269683   3.390   5.457  17.021 -0.5711  1.1506  0.4143
16090TIP3   OH269684   2.530   4.859   1.351  0.0490 -0.4775  0.7667
16090TIP3    H169685   2.490   4.777   1.321  0.9684 -0.4966 -0.5265
16090TIP3    H269686   2.623   4.838   1.358  0.3629  0.5573 -0.0272
16091TIP3   OH269687   1.232   2.435  15.697  0.5817 -0.0898 -0.1773
16091TIP3    H169688   1.245   2.384  15.617  1.1257  0.5511 -0.5107
16091TIP3    H269689   1.204   2.521  15.667  0.9065  0.1934  0.3134
16092TIP3   OH269690   2.821   2.529  14.637  0.0014  0.8074 -0.0110
16092TIP3    H169691   2.898   2.499  14.685 -1.0451  0.7987  1.7911
16092TIP3    H269692   2.810   2.465  14.567  1.9216  1.1330 -0.6668
16093TIP3   OH269693   3.432   0.311   1.103 -0.3685  0.5035 -0.0285
16093TIP3    H169694   3.359   0.292   1.162 -0.5100 -1.5105 -0.7840
16093TIP3    H269695   3.414   0.399   1.069 -1.7535  0.5458  0.7751
16094TIP3   OH269696   1.242   6.491  12.424 -0.2120 -0.0939 -0.4436
16094TIP3    H169697   1.196   6.483  12.508  0.0054  1.6808 -0.1101
16094TIP3    H269698   1.178   6.466  12.358 -0.5527 -0.9930  0.2229
16095TIP3   OH269699   5.103   4.947   3.036 -0.0525 -0.4363  0.6520
16095TIP3    H169700   5.015   4.909   3.033 -0.2844  0.0925  0.6714
16095TIP3    H269701   5.156   4.887   2.984 -0.8592  0.3938 -1.2369
16096TIP3   OH269702   4.497   3.121  15.634  0.2545 -0.0503  0.3541
16096TIP3    H169703   4.465   3.207  15.660 -0.5833 -0.5157  0.9404
16096TIP3    H269704   4.556   3.095  15.704  1.1940  0.3998 -0.2525
16097TIP3   OH269705   2.538   1.514   3.408  0.3594  0.0232 -0.4750
16097TIP3    H169706   2.632   1.532   3.403  0.1273  1.7131  0.5534
16097TIP3    H269707   2.504   1.541   3.322  0.6416  0.6041 -0.4100
16098TIP3   OH269708   1.131   0.879   3.643  0.7052  0.1565 -0.1819
16098TIP3    H169709   1.106   0.788   3.655 -0.3765  0.5129  0.4382
16098TIP3    H269710   1.081   0.927   3.709  2.1327  1.0742  0.2927
16099TIP3   OH269711   4.809   5.331   0.489 -0.0755  0.6634  0.7350
16099TIP3    H169712   4.737   5.322   0.551 -0.0298  0.5434  0.7702
16099TIP3    H269713   4.888   5.338   0.543 -0.0096  0.3233  0.6881
16100TIP3   OH269714   3.028   1.925   1.649 -0.0416  0.1233  0.2994
16100TIP3    H169715   2.968   1.936   1.575  0.3716  2.3501  0.2151
16100TIP3    H269716   3.104   1.880   1.612  1.1798  3.2093 -1.3391
16101TIP3   OH269717   3.745   2.000   4.530  0.3592 -0.1594 -0.2706
16101TIP3    H169718   3.655   1.994   4.498  0.1918  0.6666  0.0192
16101TIP3    H269719   3.735   2.022   4.623  0.8625  0.7291 -0.4190
16102TIP3   OH269720   3.187   1.346   2.310  0.5664 -0.8453  0.0650
16102TIP3    H169721   3.207   1.434   2.278 -0.5877 -0.7849 -0.5836
16102TIP3    H269722   3.249   1.289   2.264  1.7001 -0.3339  0.9164
16103TIP3   OH269723   1.306   6.642   2.579 -0.1188  0.7653 -0.5866
16103TIP3    H169724   1.340   6.555   2.561  0.1648  0.6208  0.5880
16103TIP3    H269725   1.356   6.700   2.522 -0.4629  0.1536 -1.5353
16104TIP3   OH269726   1.063   2.570   4.396  0.0208 -0.1485  0.5877
16104TIP3    H169727   1.147   2.523   4.400  1.0837  1.4867 -0.9900
16104TIP3    H269728   1.082   2.655   4.437 -1.4842 -0.5114  2.1475
16105TIP3   OH269729   1.634   1.671  16.596  0.2749 -0.1528  0.6164
16105TIP3    H169730   1.547   1.683  16.634  0.5504  1.0417  0.9354
16105TIP3    H269731   1.694   1.705  16.662  0.8681  0.5067 -0.2336
16106TIP3   OH269732   4.218   4.408  11.416 -0.6878  0.6618  0.4363
16106TIP3    H169733   4.182   4.496  11.402  1.9941  1.4555 -2.4574
16106TIP3    H269734   4.141   4.353  11.430 -2.7017  2.9368 -0.8898
16107TIP3   OH269735   0.852   2.688   4.771  0.0046 -0.6310  0.3449
16107TIP3    H169736   0.798   2.615   4.800 -0.3319 -0.0229  1.2820
16107TIP3    H269737   0.891   2.723   4.851  4.2272 -2.8379 -0.4419
16108TIP3   OH269738   0.595   0.570  12.082 -0.3773 -0.3058  0.1105
16108TIP3    H169739   0.558   0.544  11.997  0.6912 -0.0936 -0.4413
16108TIP3    H269740   0.654   0.498  12.106 -0.6201 -0.3322  0.6415
16109TIP3   OH269741   5.342   0.406   1.248 -0.4891  0.1240 -0.2281
16109TIP3    H169742   5.351   0.311   1.236  1.0077  0.3676 -1.4486
16109TIP3    H269743   5.306   0.437   1.165 -1.7000  0.5698  0.4408
16110TIP3   OH269744   2.329   3.233  15.142  0.2349  0.6203 -0.1022
16110TIP3    H169745   2.317   3.220  15.236 -1.6184  0.6945 -0.2956
16110TIP3    H269746   2.244   3.209  15.103  1.1375  0.0097 -1.8213
16111TIP3   OH269747   5.347   4.009  14.926 -0.4863 -0.4538  0.1593
16111TIP3    H169748   5.390   3.929  14.893 -2.0093 -0.4911 -1.9319
16111TIP3    H269749   5.416   4.075  14.925 -0.2679 -0.5592 -2.9152
16112TIP3   OH269750   6.602   3.513   2.634 -0.3913  0.3442  0.4328
16112TIP3    H169751   6.598   3.453   2.708 -0.5327  0.4301  0.4970
16112TIP3    H269752   6.511   3.541   2.622 -0.2774  0.8290  0.6427
16113TIP3   OH269753   2.124   0.139  16.814 -0.2164 -0.0390 -0.3867
16113TIP3    H169754   2.031   0.123  16.800  0.2819 -1.6182 -2.3643
16113TIP3    H269755   2.156   0.171  16.730  1.1869 -0.3124  0.0112
16114TIP3   OH269756   3.258   2.113  14.032 -0.8743  0.1725  0.7639
16114TIP3    H169757   3.244   2.043  13.969 -2.1858 -0.7701  2.0330
16114TIP3    H269758   3.326   2.080  14.091 -0.1200  0.7762  0.2468
16115TIP3   OH269759   3.097   4.534  16.248  0.3350  0.1614  0.2120
16115TIP3    H169760   3.085   4.601  16.315 -0.9043 -0.0084  0.1796
16115TIP3    H269761   3.145   4.464  16.292  0.4846  0.5132  0.6102
16116TIP3   OH269762   1.051   5.135  11.973  0.0256 -0.3264 -0.7361
16116TIP3    H169763   1.008   5.211  12.011 -0.6500 -1.1141  0.1219
16116TIP3    H269764   1.144   5.153  11.981 -0.1276  0.2349 -0.1720
16117TIP3   OH269765   3.899   4.411  14.569 -0.1973  0.6823 -0.1304
16117TIP3    H169766   3.823   4.405  14.628 -0.5741 -0.3547 -0.7104
16117TIP3    H269767   3.968   4.363  14.615 -0.1023  1.0014  0.0626
16118TIP3   OH269768   3.943   0.125  10.061  0.7805 -0.2518 -0.1870
16118TIP3    H169769   4.026   0.100  10.101  0.6675  1.1017  0.9918
16118TIP3    H269770   3.926   0.212  10.096 -0.2123  0.2681 -1.8931
16119TIP3   OH269771   1.115   4.095   0.853 -1.0508 -0.4230 -0.0603
16119TIP3    H169772   1.066   4.139   0.784 -0.7963  1.0141  0.6385
16119TIP3    H269773   1.193   4.061   0.809 -0.9417  0.3802 -0.5051
16120TIP3   OH269774   3.488   1.663   3.912 -0.3165 -0.4485 -0.4796
16120TIP3    H169775   3.531   1.736   3.868 -1.6188  2.2653  2.3291
16120TIP3    H269776   3.395   1.680   3.903 -0.6464 -0.3660  2.1737
16121TIP3   OH269777   1.938   0.403   2.555  0.9205 -0.2514 -0.0614
16121TIP3    H169778   1.991   0.327   2.579 -0.3673 -0.5420  2.1650
16121TIP3    H269779   1.897   0.379   2.472  3.1948 -0.5287 -1.1724
16122TIP3   OH269780   4.857   2.196   2.834 -0.0406  0.1485  0.0184
16122TIP3    H169781   4.911   2.124   2.866  0.5617  0.8578  0.6531
16122TIP3    H269782   4.920   2.262   2.804 -0.5752  0.4811 -0.3963
16123TIP3   OH269783   4.557   2.894   0.592  0.0354 -0.1537 -0.4954
16123TIP3    H169784   4.479   2.844   0.570 -0.4643  1.2103 -1.9507
16123TIP3    H269785   4.612   2.888   0.514  1.2847 -0.8436  0.3940
16124TIP3   OH269786   1.550   0.828   5.340  0.8040 -0.1893  0.5578
16124TIP3    H169787   1.629   0.882   5.340  0.4925  0.2986 -0.7415
16124TIP3    H269788   1.529   0.816   5.247 -1.6552  1.1918  0.8613
16125TIP3   OH269789   2.108   3.524   3.564 -0.0375  0.0849 -0.5743
16125TIP3    H169790   2.202   3.504   3.563 -0.2443 -0.9518 -1.4615
16125TIP3    H269791   2.067   3.445   3.600 -0.5009  0.9521  0.8633
16126TIP3   OH269792   2.179   2.526  13.302  0.0144 -0.0854 -0.3535
16126TIP3    H169793   2.123   2.565  13.369  1.5488 -2.2215  2.3561
16126TIP3    H269794   2.120   2.470  13.251 -0.4993 -2.2374  2.3828
16127TIP3   OH269795   0.936   0.366   3.249 -0.3269  0.4929 -0.2120
16127TIP3    H169796   0.843   0.345   3.257  0.1914 -1.6822  0.8476
16127TIP3    H269797   0.979   0.311   3.314  1.7132  1.5709 -0.5518
16128TIP3   OH269798   5.831   3.729  15.925 -0.5603 -0.0291 -0.2317
16128TIP3    H169799   5.911   3.777  15.903  1.4472 -2.9963 -0.0089
16128TIP3    H269800   5.841   3.645  15.881 -2.0832 -1.6714  2.3097
16129TIP3   OH269801   6.562   5.290   2.659 -0.2596 -0.3218 -0.5016
16129TIP3    H169802   6.551   5.273   2.752 -2.1503  1.8778 -0.2524
16129TIP3    H269803   6.479   5.265   2.619 -1.4069  3.3656 -0.7680
16130TIP3   OH269804   3.913   1.236  13.211  0.1478  0.0060 -0.2634
16130TIP3    H169805   3.985   1.217  13.270 -0.3904  0.2369  0.4950
16130TIP3    H269806   3.954   1.278  13.135  0.8440 -0.2244 -0.0211
16131TIP3   OH269807   6.790   4.376   3.975 -0.0081  0.1292  0.1451
16131TIP3    H169808   6.728   4.328   4.030  0.0511  1.1462  1.1451
16131TIP3    H269809   6.754   4.465   3.969  1.2734  0.7211  0.6728
16132TIP3   OH269810   6.268   3.786   6.366  0.6158 -0.4059 -0.0871
16132TIP3    H169811   6.324   3.862   6.380  0.6253  0.2098 -2.7790
16132TIP3    H269812   6.192   3.801   6.422  2.2581 -0.3788  2.2856
16133TIP3   OH269813   0.589   4.499  13.327 -0.1478  0.0264  0.4694
16133TIP3    H169814   0.547   4.581  13.299  1.4318  0.8147  0.2861
16133TIP3    H269815   0.532   4.466  13.397 -0.5991  1.5196  0.8585
16134TIP3   OH269816   1.778   4.941  15.650 -0.3764  0.3159 -0.2428
16134TIP3    H169817   1.851   4.968  15.594 -0.5157  1.7077  0.2065
16134TIP3    H269818   1.746   5.022  15.687 -0.3743 -0.5567  1.7677
16135TIP3   OH269819   1.074   2.947   2.454  0.5099  0.6498  0.1936
16135TIP3    H169820   1.063   3.041   2.438  1.1593  0.4831 -1.4727
16135TIP3    H269821   1.019   2.905   2.386  0.0964 -0.1859  1.0181
16136TIP3   OH269822   4.235   5.798   2.972 -0.3714  0.2821 -0.0184
16136TIP3    H169823   4.294   5.764   2.906  1.1488  2.7355 -0.0307
16136TIP3    H269824   4.189   5.869   2.929 -2.5287 -0.7785  0.3694
16137TIP3   OH269825   5.691   4.774   0.519 -0.6710  0.3618  0.5053
16137TIP3    H169826   5.685   4.701   0.581  1.6016 -0.0477  0.3335
16137TIP3    H269827   5.767   4.824   0.549 -1.9318  2.4877  0.3830
16138TIP3   OH269828   3.115   6.304  15.704  0.0281 -0.0515  0.8954
16138TIP3    H169829   3.064   6.321  15.625  0.3932  2.4485  1.1026
16138TIP3    H269830   3.058   6.331  15.776 -0.2559 -2.1847  1.5277
16139TIP3   OH269831   5.434   4.947   1.592 -0.5974  0.2857  0.2819
16139TIP3    H169832   5.411   5.002   1.667  0.0269 -0.2975  0.9197
16139TIP3    H269833   5.515   4.904   1.618  0.5725  1.3523 -1.4160
16140TIP3   OH269834   1.640   3.718  17.252 -0.6924  0.7442 -0.4628
16140TIP3    H169835   1.575   3.658  17.290  0.0167  0.9427  1.1504
16140TIP3    H269836   1.591   3.796  17.230 -0.9633  1.0546  1.1407
16141TIP3   OH269837   3.989   4.803   2.030  0.0966 -0.3119 -0.0158
16141TIP3    H169838   4.073   4.758   2.024  0.5248  0.5281 -0.3864
16141TIP3    H269839   3.927   4.744   1.988  0.8236 -0.1452 -1.3660
16142TIP3   OH269840   2.213   4.856  16.955 -0.5183  0.2537 -0.2550
16142TIP3    H169841   2.289   4.864  17.012 -1.1196  0.8051  0.4762
16142TIP3    H269842   2.210   4.762  16.934  0.2979  0.2073 -0.2180
16143TIP3   OH269843   6.341   6.576  15.949  0.0536 -0.0299 -0.1005
16143TIP3    H169844   6.313   6.551  16.038 -1.8589 -1.8522 -1.1224
16143TIP3    H269845   6.291   6.655  15.931  0.0861  0.0833  0.2834
16144TIP3   OH269846   0.742   6.319  11.217  0.1384  0.2659  0.6902
16144TIP3    H169847   0.752   6.369  11.136 -0.3810  0.6148  0.8425
16144TIP3    H269848   0.648   6.300  11.222  0.0912  0.6856  1.4758
16145TIP3   OH269849   2.535   2.908   1.334 -0.1804 -0.2987  0.4980
16145TIP3    H169850   2.462   2.849   1.351 -1.4883  0.7817 -1.0890
16145TIP3    H269851   2.496   2.995   1.329  1.5904  0.6616  2.0023
16146TIP3   OH269852   2.638   2.211   5.773 -0.4224 -0.2996  0.2858
16146TIP3    H169853   2.638   2.189   5.866  3.6338  1.3475  0.8668
16146TIP3    H269854   2.663   2.130   5.729 -0.7497 -0.6673  0.7591
16147TIP3   OH269855   5.555   0.758  15.985 -0.0685  0.5110 -0.0931
16147TIP3    H169856   5.571   0.754  16.079 -1.2807  0.0782  0.1113
16147TIP3    H269857   5.520   0.672  15.963  2.9996 -0.5042 -1.5223
16148TIP3   OH269858   1.779   4.632  14.769 -0.2453  0.1103  0.2661
16148TIP3    H169859   1.808   4.594  14.687 -0.9388  0.2789 -0.0715
16148TIP3    H269860   1.835   4.593  14.836 -0.9443 -1.5181 -0.0639
16149TIP3   OH269861   0.750   0.489  12.746 -0.0457 -0.1397  0.8487
16149TIP3    H169862   0.661   0.475  12.780  0.8207 -1.2793  2.8902
16149TIP3    H269863   0.807   0.457  12.817  2.0193  1.7354  0.1430
16150TIP3   OH269864   3.154   4.082  11.787  0.8713 -0.2369  0.1704
16150TIP3    H169865   3.105   4.103  11.708 -0.2599 -0.8944  0.6728
16150TIP3    H269866   3.230   4.141  11.785 -0.2957  1.3232 -0.2764
16151TIP3   OH269867   5.096   6.462   2.925 -0.2924  0.1594 -0.2978
16151TIP3    H169868   5.103   6.480   3.019  0.8919 -0.7598 -0.1883
16151TIP3    H269869   5.008   6.427   2.913 -1.0078  1.6729  0.2014
16152TIP3   OH269870   3.965   1.927  15.319 -1.1610 -0.1993  0.5015
16152TIP3    H169871   4.052   1.944  15.356 -2.0246  1.4722  1.9384
16152TIP3    H269872   3.946   1.836  15.343  0.8283 -1.1986 -1.3439
16153TIP3   OH269873   0.035   0.104   3.370 -1.0797  0.1025  0.0308
16153TIP3    H169874   0.007   0.029   3.423 -0.2406 -0.4118 -0.2359
16153TIP3    H269875   0.085   0.158   3.431 -1.4102  0.2819  0.1430
16154TIP3   OH269876   4.946   1.726  12.553 -0.1431  0.0987 -0.1108
16154TIP3    H169877   4.996   1.702  12.475 -0.2323  0.2236 -0.2068
16154TIP3    H269878   5.010   1.726  12.623  0.4827  2.3262 -0.5719
16155TIP3   OH269879   2.831   0.635   2.075  0.2761 -0.1544  0.9786
16155TIP3    H169880   2.883   0.655   2.153 -2.1275 -2.5204  3.4077
16155TIP3    H269881   2.856   0.547   2.050  1.1264  0.6154 -1.1589
16156TIP3   OH269882   3.498   6.347  15.131 -0.8356  0.1274 -0.2587
16156TIP3    H169883   3.487   6.442  15.128  0.0292  0.3253  1.6136
16156TIP3    H269884   3.477   6.323  15.221 -1.8447 -1.5947 -0.8998
16157TIP3   OH269885   2.470   5.962  13.182  0.7626  0.3120  0.1001
16157TIP3    H169886   2.400   5.938  13.122  0.5745 -0.1813  0.5121
16157TIP3    H269887   2.515   6.035  13.139  1.8118 -1.2404 -1.5451
16158TIP3   OH269888   4.898   6.581   4.341  0.3351  0.7009  0.3908
16158TIP3    H169889   4.971   6.551   4.287 -0.0931 -0.1344  0.2636
16158TIP3    H269890   4.869   6.663   4.300  1.0319  0.9147  0.3035
16159TIP3   OH269891   3.316   6.748  13.115 -0.0583 -0.3320  0.2297
16159TIP3    H169892   3.234   6.727  13.160 -0.5009 -0.6543 -0.7190
16159TIP3    H269893   3.297   6.736  13.022  0.1190  2.6027 -0.2982
16160TIP3   OH269894   4.377   0.408  13.003  0.2482  0.4762  0.0790
16160TIP3    H169895   4.456   0.355  13.004  0.5572  0.9067  1.4716
16160TIP3    H269896   4.352   0.416  13.095 -2.7597 -1.5653 -0.4172
16161TIP3   OH269897   6.495   4.893   4.813  0.0415  0.1403 -0.1606
16161TIP3    H169898   6.515   4.943   4.733 -2.5160  0.3639 -0.7458
16161TIP3    H269899   6.549   4.814   4.805  2.2518  1.6104 -0.4739
16162TIP3   OH269900   3.735   5.710   4.266  0.0142 -0.1241  0.9311
16162TIP3    H169901   3.825   5.741   4.250  0.8910 -3.2511 -1.1642
16162TIP3    H269902   3.681   5.763   4.207  0.8669  0.0383  0.2735
16163TIP3   OH269903   6.691   2.298   3.763  0.3507 -0.6260 -0.0070
16163TIP3    H169904   6.604   2.263   3.741 -0.1941 -0.1682  1.3361
16163TIP3    H269905   6.673   2.375   3.817  1.5794  0.2982 -0.8689
16164TIP3   OH269906   1.603   1.857  11.524 -0.3247 -0.8771 -0.1487
16164TIP3    H169907   1.592   1.842  11.618  1.0581  2.1640  0.6166
16164TIP3    H269908   1.697   1.866  11.511 -0.6083  0.6723 -1.4562
16165TIP3   OH269909   6.314   5.768  12.595  0.3861 -0.2492 -0.2447
16165TIP3    H169910   6.384   5.702  12.602 -1.0566 -1.9545 -1.1545
16165TIP3    H269911   6.255   5.747  12.667  1.3110  1.9163  1.2427
16166TIP3   OH269912   0.707   6.023  14.670  0.1531  0.5188  0.4996
16166TIP3    H169913   0.751   5.940  14.689  0.7271  0.6086 -0.3596
16166TIP3    H269914   0.649   6.003  14.596  0.2891  0.8765  0.2936
16167TIP3   OH269915   4.121   5.808   1.363 -0.1289 -0.2707 -0.3685
16167TIP3    H169916   4.129   5.728   1.415  1.8934  0.9329  1.3237
16167TIP3    H269917   4.077   5.870   1.422 -0.1199  0.3707 -1.0243
16168TIP3   OH269918   5.797   5.674  11.406 -0.4089 -0.6059  0.5273
16168TIP3    H169919   5.850   5.611  11.359  1.4383  1.0393  0.2507
16168TIP3    H269920   5.712   5.631  11.418  0.0608 -2.2536 -1.5218
16169TIP3   OH269921   1.433   5.359  11.219  0.1281 -0.2531 -0.3929
16169TIP3    H169922   1.472   5.275  11.193 -0.5655 -0.8914  0.5686
16169TIP3    H269923   1.338   5.344  11.214 -0.0156  0.7523 -1.0509
16170TIP3   OH269924   1.024   5.883  11.108 -0.1944 -0.4624  0.0882
16170TIP3    H169925   1.106   5.865  11.155  1.0281 -2.4818 -2.5968
16170TIP3    H269926   0.985   5.797  11.094 -1.8332  0.3202 -0.4030
16171TIP3   OH269927   0.748   4.178  13.693  0.0355  0.3813 -0.2410
16171TIP3    H169928   0.716   4.117  13.759 -1.1004  2.0465  0.8389
16171TIP3    H269929   0.803   4.239  13.741 -1.3777  2.0546 -0.6218
16172TIP3   OH269930   3.310   4.646   0.786 -0.5566  0.3748  0.0026
16172TIP3    H169931   3.379   4.654   0.852  0.0747  0.9550 -0.7124
16172TIP3    H269932   3.228   4.657   0.835 -0.1077  0.4726  0.7396
16173TIP3   OH269933   6.253   6.428  13.334 -0.7297 -0.4901 -0.2361
16173TIP3    H169934   6.193   6.373  13.384 -0.2981 -1.0831 -0.3647
16173TIP3    H269935   6.251   6.513  13.378 -0.9862 -0.7656  0.2859
16174TIP3   OH269936   3.631   0.807  14.819  0.1135  0.3553  0.1057
16174TIP3    H169937   3.725   0.825  14.810  0.4381 -0.0222  2.2845
16174TIP3    H269938   3.626   0.711  14.822 -0.6932  0.2093 -2.6291
16175TIP3   OH269939   5.336   3.399   6.346 -0.0692 -0.0541 -0.2363
16175TIP3    H169940   5.304   3.444   6.425  2.0043 -0.0248  0.6746
16175TIP3    H269941   5.431   3.395   6.358 -0.0203 -5.0013 -0.0320
16176TIP3   OH269942   1.125   0.397   4.180 -0.3608 -0.5269  0.0472
16176TIP3    H169943   1.095   0.317   4.223 -0.7953 -1.0596 -1.1729
16176TIP3    H269944   1.209   0.417   4.221 -0.4971 -1.3151  0.7347
16177TIP3   OH269945   1.279   4.693  12.968 -0.5491  0.7905  0.6504
16177TIP3    H169946   1.331   4.613  12.964 -0.9636  0.5352  0.2494
16177TIP3    H269947   1.251   4.699  13.059 -0.8067  0.2836  0.6086
16178TIP3   OH269948   0.402   6.646  12.664 -0.3917 -0.0206  0.0506
16178TIP3    H169949   0.410   6.735  12.631 -0.2906  0.8050  2.1918
16178TIP3    H269950   0.424   6.652  12.757  1.6788 -2.6058 -0.1407
16179TIP3   OH269951   0.830   1.570   4.968 -0.3283  0.3429 -0.0510
16179TIP3    H169952   0.735   1.556   4.973 -0.5328  0.4084 -2.3887
16179TIP3    H269953   0.842   1.662   4.993 -1.1096  0.8001 -1.2792
16180TIP3   OH269954   0.628   1.165  14.927  0.8341 -0.0583  0.0487
16180TIP3    H169955   0.591   1.196  14.845 -0.1694 -0.3401  0.3814
16180TIP3    H269956   0.640   1.071  14.915  2.3920  0.1579 -0.3951
16181TIP3   OH269957   2.200   0.543  10.750  1.2381 -0.5730 -0.0245
16181TIP3    H169958   2.269   0.530  10.685  0.3036 -1.9773 -0.7927
16181TIP3    H269959   2.132   0.480  10.726 -0.3905  0.8536  0.6329
16182TIP3   OH269960   2.967   5.853   4.999  0.4033 -0.6319  0.1680
16182TIP3    H169961   2.883   5.898   5.002  1.1550  0.8053  0.5396
16182TIP3    H269962   2.974   5.809   5.084  1.3881  1.9471  1.5640
16183TIP3   OH269963   6.370   3.907  10.413 -0.3902 -0.0001 -0.6375
16183TIP3    H169964   6.427   3.982  10.394  0.4248  0.4765  2.9906
16183TIP3    H269965   6.283   3.945  10.422 -0.1204  0.3947  0.3807
16184TIP3   OH269966   0.277   6.554   2.868 -0.0638  0.3520 -0.1571
16184TIP3    H169967   0.344   6.529   2.805  0.9645 -0.7942  1.3117
16184TIP3    H269968   0.199   6.505   2.842  0.7802 -1.3144  0.2942
16185TIP3   OH269969   3.812   0.974  15.883 -0.1320 -0.7198 -0.3550
16185TIP3    H169970   3.840   0.944  15.970  1.7452 -0.9415 -0.9857
16185TIP3    H269971   3.719   0.953  15.879 -0.5598  0.3550  2.0391
16186TIP3   OH269972   5.007   6.313  15.116 -0.0040 -0.4558 -0.6780
16186TIP3    H169973   4.994   6.249  15.187  0.1671  1.2705  0.9809
16186TIP3    H269974   4.938   6.292  15.053 -3.7127  1.1100  2.4310
16187TIP3   OH269975   3.494   5.575  16.392  0.2226  0.7580 -0.3695
16187TIP3    H169976   3.474   5.501  16.449  1.3464 -0.7571 -1.8384
16187TIP3    H269977   3.410   5.619  16.381 -0.3085  0.2447  1.2361
16188TIP3   OH269978   1.349   3.170   4.047  0.3525  0.0696  0.1766
16188TIP3    H169979   1.345   3.129   3.960  0.5123  0.1937  0.1094
16188TIP3    H269980   1.423   3.127   4.090 -0.8705 -1.3439  0.9585
16189TIP3   OH269981   3.615   3.827   1.993  0.0196  0.7290 -0.4485
16189TIP3    H169982   3.562   3.814   1.914 -0.8596  0.3021  0.1946
16189TIP3    H269983   3.701   3.853   1.960  0.0799 -0.7762 -1.6221
16190TIP3   OH269984   6.332   6.708   3.230 -0.5515  0.1692  0.2187
16190TIP3    H169985   6.247   6.681   3.195 -0.9589  0.0475  1.2723
16190TIP3    H269986   6.313   6.785   3.283 -0.2889 -0.8376  1.8411
16191TIP3   OH269987   3.991   4.929  11.311  0.4058  0.4693  0.3097
16191TIP3    H169988   4.073   4.913  11.265  0.5377  2.6261 -0.3029
16191TIP3    H269989   3.960   4.842  11.336  3.9283 -0.3508  2.4939
16192TIP3   OH269990   0.507   1.040  16.151  0.2377  0.3074 -0.0017
16192TIP3    H169991   0.451   1.113  16.180  0.9743  0.1984  1.8563
16192TIP3    H269992   0.487   0.969  16.213  1.0522 -0.3677 -0.4958
16193TIP3   OH269993   3.576   0.022  13.177 -0.2385  0.7286 -0.0718
16193TIP3    H169994   3.622   0.034  13.094 -0.2760 -0.2548 -0.2387
16193TIP3    H269995   3.490  -0.012  13.153 -0.5305  1.1694  0.3281
16194TIP3   OH269996   2.500   6.119   1.573 -0.1872 -0.0083  0.1785
16194TIP3    H169997   2.485   6.026   1.589 -2.4995  0.5968  1.8903
16194TIP3    H269998   2.479   6.131   1.480 -2.7971 -0.7500  0.5904
16195TIP3   OH269999   4.604   5.394   4.282  0.2324 -0.0436  0.5479
16195TIP3    H170000   4.635   5.311   4.246 -0.6285  0.4224 -1.3923
16195TIP3    H270001   4.510   5.381   4.296 -0.2432  1.0317 -1.2657
16196TIP3   OH270002   4.118   4.564  13.577  0.4692 -0.8569  0.0980
16196TIP3    H170003   4.065   4.485  13.570 -1.2623  0.3693 -1.8048
16196TIP3    H270004   4.057   4.632  13.605  1.6571  0.0572  0.5569
16197TIP3   OH270005   5.900   4.724  12.622  0.9532 -0.2734 -0.1760
16197TIP3    H170006   5.874   4.782  12.694 -0.9109 -0.8493 -0.3393
16197TIP3    H270007   5.862   4.639  12.645  1.4884 -0.8043 -1.1849
16198TIP3   OH270008   5.175   5.212  17.250  0.1745  0.1916 -0.2287
16198TIP3    H170009   5.232   5.146  17.288 -0.2992 -2.1244 -3.1793
16198TIP3    H270010   5.206   5.222  17.160 -2.4005  0.8493 -1.1257
16199TIP3   OH270011   2.168   4.566  12.465  0.2323  0.2337 -0.3004
16199TIP3    H170012   2.087   4.565  12.516  0.1757 -1.7758 -0.3474
16199TIP3    H270013   2.236   4.542  12.528  0.0913 -2.8065 -1.1729
16200TIP3   OH270014   3.495   5.406   0.774  0.1898  0.2974  0.5752
16200TIP3    H170015   3.408   5.446   0.764  0.0573  0.1752  1.1794
16200TIP3    H270016   3.520   5.379   0.686 -1.4014 -1.8056  0.7001
16201TIP3   OH270017   2.010   2.923  15.430  0.1575 -0.5717  0.2140
16201TIP3    H170018   2.042   2.895  15.515  1.2553  0.3270  0.1075
16201TIP3    H270019   2.009   2.843  15.377 -1.5761 -1.3590  1.3439
16202TIP3   OH270020   6.744   4.012   2.486 -0.3209  0.1594 -0.4610
16202TIP3    H170021   6.706   4.099   2.474 -1.1664 -0.3263 -1.5268
16202TIP3    H270022   6.834   4.028   2.513 -1.4068  1.3862  2.9408
16203TIP3   OH270023   3.586   6.691  11.863 -0.0903  0.2631  0.2520
16203TIP3    H170024   3.506   6.650  11.828  0.8583 -0.8172 -0.7170
16203TIP3    H270025   3.562   6.715  11.953 -2.3146  2.3191 -0.7665
16204TIP3   OH270026   5.682   3.830  13.437 -0.0249 -0.1808  0.4025
16204TIP3    H170027   5.758   3.788  13.396  0.7907  0.8551  0.7878
16204TIP3    H270028   5.628   3.859  13.363 -0.4652 -1.6389  0.1369
16205TIP3   OH270029   0.008   6.202  13.222  0.1860 -0.5400 -0.1682
16205TIP3    H170030  -0.035   6.185  13.306 -0.7089  1.0025 -0.2665
16205TIP3    H270031   0.075   6.267  13.243  0.7001 -0.9760 -0.4645
16206TIP3   OH270032   5.969   5.337  10.523 -0.2074  0.0490 -0.1913
16206TIP3    H170033   6.031   5.383  10.579  0.7008 -1.9743  0.5342
16206TIP3    H270034   6.018   5.320  10.442 -0.0051 -0.9716  0.1320
16207TIP3   OH270035   4.126   3.733   4.924 -0.3080  0.3631  0.3734
16207TIP3    H170036   4.153   3.824   4.924  2.4217 -0.2754 -2.2446
16207TIP3    H270037   4.141   3.703   5.013  2.0806  1.6481  0.4583
16208TIP3   OH270038   1.034   3.330  13.330 -0.5144 -0.5494  0.1869
16208TIP3    H170039   1.094   3.393  13.370 -0.9466  1.4773 -2.1196
16208TIP3    H270040   1.033   3.257  13.391  2.5214  0.2792  1.4532
16209TIP3   OH270041   5.360   1.688   4.673  0.7453  0.1663 -0.1644
16209TIP3    H170042   5.363   1.782   4.660 -0.2077  0.1988 -0.1960
16209TIP3    H270043   5.448   1.658   4.648  0.9914  1.0092 -0.3558
16210TIP3   OH270044   1.920   5.137   6.163  0.1279  0.1718  0.2164
16210TIP3    H170045   1.962   5.089   6.092 -0.6028  0.4556 -0.4285
16210TIP3    H270046   1.944   5.089   6.242  0.9004 -0.1896 -0.2240
16211TIP3   OH270047   1.404   3.436   6.310 -0.4594  0.7416 -0.2673
16211TIP3    H170048   1.401   3.484   6.228  0.7639  2.1294  0.4528
16211TIP3    H270049   1.492   3.397   6.311  0.8338  3.3974  1.7488
16212TIP3   OH270050   5.949   3.262  15.078  0.2824  0.5119  0.2257
16212TIP3    H170051   5.858   3.283  15.056 -0.5668 -0.6908  2.2500
16212TIP3    H270052   5.943   3.178  15.125  2.1821  1.4016  2.2287
16213TIP3   OH270053   3.392   6.404   2.919  0.1992 -0.5168  0.0911
16213TIP3    H170054   3.331   6.398   2.993 -1.0026 -0.5485 -0.8711
16213TIP3    H270055   3.426   6.316   2.908 -1.2681 -1.0212 -0.7094
16214TIP3   OH270056   2.626   5.459   0.997 -0.5004  0.4713 -0.2332
16214TIP3    H170057   2.690   5.463   0.926  0.0170 -0.2910  0.1736
16214TIP3    H270058   2.541   5.467   0.954 -0.2026 -0.0833 -0.9513
16215TIP3   OH270059   0.219   0.890  11.146 -0.6339 -0.2722  0.3407
16215TIP3    H170060   0.299   0.840  11.125 -0.9300 -0.5363 -0.1780
16215TIP3    H270061   0.152   0.851  11.091 -1.1466 -0.1027  0.8360
16216TIP3   OH270062   5.611   4.433   1.100 -0.2429  0.3544  0.5130
16216TIP3    H170063   5.666   4.366   1.141 -0.6726 -1.3939 -1.5346
16216TIP3    H270064   5.522   4.400   1.109 -0.5004  0.8410 -0.1670
16217TIP3   OH270065   4.117   1.650   6.043  0.3512  0.0749 -0.0534
16217TIP3    H170066   4.098   1.570   5.995  0.3431 -1.3450  2.1432
16217TIP3    H270067   4.036   1.701   6.037 -0.2619 -0.8679 -0.0749
16218TIP3   OH270068   4.511   4.976   5.262 -0.5986 -0.0805  0.0377
16218TIP3    H170069   4.601   4.967   5.292 -1.2478 -1.6158  1.7105
16218TIP3    H270070   4.487   5.066   5.286 -0.0256 -0.1916  1.1080
16219TIP3   OH270071   2.311   3.359   1.969  0.1172  0.0748 -0.3411
16219TIP3    H170072   2.333   3.451   1.981  0.1413  0.6702 -3.9006
16219TIP3    H270073   2.224   3.359   1.931 -0.1808 -1.4373  0.2571
16220TIP3   OH270074   5.620   6.515  12.218 -0.2472  0.2582  0.6840
16220TIP3    H170075   5.687   6.485  12.157  0.0344  0.7008  0.7721
16220TIP3    H270076   5.654   6.598  12.252  0.6072 -0.9309  2.9869
16221TIP3   OH270077   4.919   0.024   3.432 -0.0587 -0.1600  0.0959
16221TIP3    H170078   5.004   0.023   3.388 -0.3176  0.4931 -0.4338
16221TIP3    H270079   4.909  -0.066   3.465 -0.4177 -1.0682 -2.2897
16222TIP3   OH270080   1.838   5.446  11.626  0.3303 -0.5095 -0.0235
16222TIP3    H170081   1.928   5.421  11.649 -0.1076  0.3662  3.2835
16222TIP3    H270082   1.785   5.415  11.700 -1.7840  0.6612 -0.9521
16223TIP3   OH270083   6.253   0.744  11.933 -0.3485 -0.1515 -0.3820
16223TIP3    H170084   6.315   0.749  11.859  0.9604  1.7469  0.7395
16223TIP3    H270085   6.200   0.823  11.925  0.4375  0.5816  1.1816
16224TIP3   OH270086   1.433   5.070  16.022  0.6403 -0.0711  1.0698
16224TIP3    H170087   1.433   5.084  15.927  3.0791 -1.1409  0.8372
16224TIP3    H270088   1.343   5.046  16.043  0.4487 -1.8183 -1.3287
16225TIP3   OH270089   6.750   5.996  15.648  0.2227 -0.3191  0.3823
16225TIP3    H170090   6.657   6.006  15.668  0.5449 -0.7635  2.2180
16225TIP3    H270091   6.794   6.048  15.714  1.3863 -2.6233  1.5231
16226TIP3   OH270092   3.744   2.937   5.308  0.5689  0.0888  0.8221
16226TIP3    H170093   3.710   2.999   5.373  0.3329  0.2426  0.5534
16226TIP3    H270094   3.838   2.935   5.324  1.1007  2.8604 -1.1146
16227TIP3   OH270095   4.315   5.986   5.634 -0.4846  0.7502  0.2726
16227TIP3    H170096   4.247   6.052   5.619 -0.1879  1.0911  0.4210
16227TIP3    H270097   4.271   5.918   5.685 -1.0485  0.3791 -0.6926
16228TIP3   OH270098   0.272   4.888   3.245 -0.4724  0.4165 -0.3565
16228TIP3    H170099   0.290   4.845   3.161 -0.9593 -1.6003  0.5178
16228TIP3    H270100   0.337   4.850   3.305 -0.6727  1.2038  0.3690
16229TIP3   OH270101   2.246   2.317  14.523  0.4906 -0.3169  0.4594
16229TIP3    H170102   2.174   2.261  14.553  1.3966 -1.2625  0.9041
16229TIP3    H270103   2.215   2.406  14.540 -0.9571 -0.6514 -0.2217
16230TIP3   OH270104   1.986   0.563  13.151 -0.8222  0.3528  0.4867
16230TIP3    H170105   2.069   0.589  13.110 -1.3770  0.3383 -0.6835
16230TIP3    H270106   2.008   0.549  13.243  0.1348  1.9609  0.5383
16231TIP3   OH270107   2.191   4.534   0.514  0.0927 -0.0669  0.1714
16231TIP3    H170108   2.264   4.493   0.469 -0.1755 -0.3815  0.0209
16231TIP3    H270109   2.114   4.483   0.489  0.1383 -1.2172  2.1755
16232TIP3   OH270110   4.360   2.195  15.045 -0.5666 -0.3248 -0.3832
16232TIP3    H170111   4.268   2.181  15.023 -0.6347 -0.0459 -0.2875
16232TIP3    H270112   4.408   2.169  14.967 -0.6388 -1.6039 -0.0205
16233TIP3   OH270113   3.466   4.408  14.343  0.2453  0.0463  0.1738
16233TIP3    H170114   3.403   4.448  14.402 -0.6936 -2.0432  0.6636
16233TIP3    H270115   3.433   4.428  14.255 -2.2349 -2.4915  0.3861
16234TIP3   OH270116   3.689   1.988   3.715  0.2460  0.0750  0.0906
16234TIP3    H170117   3.679   1.893   3.719 -0.4519  0.0997 -0.7353
16234TIP3    H270118   3.735   2.011   3.796  0.9863 -1.0255  0.0031
16235TIP3   OH270119   6.721   3.698  15.802  1.1782  0.1721  0.3326
16235TIP3    H170120   6.728   3.627  15.739  0.8221  0.8190 -0.4501
16235TIP3    H270121   6.776   3.670  15.876  1.3511 -0.7290 -0.1235
16236TIP3   OH270122   4.703   1.722  12.068 -0.1337 -0.2003  0.2118
16236TIP3    H170123   4.761   1.652  12.099  0.6447 -1.0991 -2.9140
16236TIP3    H270124   4.615   1.685  12.071 -0.2900  0.2516  2.5336
16237TIP3   OH270125   4.566   4.659  14.140 -0.3184 -0.1118  0.4068
16237TIP3    H170126   4.643   4.607  14.118 -0.1324  0.6095 -0.7123
16237TIP3    H270127   4.601   4.737  14.184 -0.3458  0.4206 -0.4792
16238TIP3   OH270128   4.586   0.602   5.699  0.0057  0.2940 -0.2597
16238TIP3    H170129   4.570   0.602   5.605 -0.7611 -1.2440 -0.1623
16238TIP3    H270130   4.527   0.535   5.734  1.4984 -0.3923  1.0933
16239TIP3   OH270131   6.546   5.620  12.576 -0.3430 -0.0017  0.3204
16239TIP3    H170132   6.498   5.540  12.594 -0.5569 -0.0645 -0.4635
16239TIP3    H270133   6.541   5.630  12.480 -1.6203  1.7354  0.5017
16240TIP3   OH270134   5.032   3.582  11.353  0.4746 -0.3639 -0.2553
16240TIP3    H170135   5.034   3.661  11.300 -2.4035  0.6347  0.9479
16240TIP3    H270136   4.944   3.547  11.340  1.0478 -2.3099  0.7630
16241TIP3   OH270137   5.647   3.842   3.195  0.1587 -0.9273 -0.4719
16241TIP3    H170138   5.624   3.885   3.113 -0.9327 -0.6931 -0.0555
16241TIP3    H270139   5.645   3.748   3.174  0.0845 -0.8616 -0.7609
16242TIP3   OH270140   4.137   4.084   4.455 -0.1098 -0.0241 -0.2573
16242TIP3    H170141   4.200   4.155   4.460  1.1768 -1.0082 -1.5468
16242TIP3    H270142   4.068   4.118   4.396 -0.2574  0.6608  0.2969
16243TIP3   OH270143   2.434   2.368   6.330  0.0670  0.1444 -0.2868
16243TIP3    H170144   2.464   2.415   6.252 -0.2827  0.0905 -0.4548
16243TIP3    H270145   2.354   2.413   6.356  0.0179 -0.0302 -0.1375
16244TIP3   OH270146   4.868   4.629  11.542  0.1845 -0.6183  0.1209
16244TIP3    H170147   4.892   4.654  11.452  0.0107 -2.0437 -0.3491
16244TIP3    H270148   4.781   4.669  11.555  0.1594 -0.4938 -0.3853
16245TIP3   OH270149   6.168   2.847  14.917 -0.6610 -0.3668 -0.0944
16245TIP3    H170150   6.158   2.908  14.990 -1.1702  0.1478 -0.5813
16245TIP3    H270151   6.127   2.892  14.843 -1.0760 -1.3191 -0.4551
16246TIP3   OH270152   0.544   4.107   3.371  0.4167 -0.3468  0.1871
16246TIP3    H170153   0.548   4.105   3.466 -1.5035 -1.2863  0.2950
16246TIP3    H270154   0.551   4.200   3.348  1.2816 -0.1458  1.1890
16247TIP3   OH270155   4.351   6.126  13.426 -0.4499  0.4120  0.6041
16247TIP3    H170156   4.347   6.222  13.425  0.8147  0.4916  1.2307
16247TIP3    H270157   4.296   6.100  13.500  0.7637  0.7830  1.6730
16248TIP3   OH270158   6.448   1.813   0.041 -0.1566  0.2945  0.0276
16248TIP3    H170159   6.359   1.821   0.006 -0.4168 -0.8204  0.3819
16248TIP3    H270160   6.487   1.743  -0.012  0.5506  0.8660 -0.2056
16249TIP3   OH270161   4.577   5.155  11.763 -0.1467  0.4971  0.0183
16249TIP3    H170162   4.600   5.171  11.671 -0.6639  0.3947 -0.1316
16249TIP3    H270163   4.559   5.061  11.767  0.8221  0.3178  0.4400
16250TIP3   OH270164   5.475   3.086  15.240 -0.8748 -0.1215 -0.0655
16250TIP3    H170165   5.520   3.105  15.323  0.4403  0.2112 -0.8232
16250TIP3    H270166   5.436   3.170  15.214 -0.4393  0.0187 -0.2729
16251TIP3   OH270167   0.703   6.198   3.724 -0.0116 -0.4752  0.0122
16251TIP3    H170168   0.759   6.164   3.793 -0.0596  0.3778  0.4794
16251TIP3    H270169   0.676   6.120   3.675 -1.9627 -1.4710  2.4064
16252TIP3   OH270170   4.899   1.181   6.131 -0.1887 -0.2367 -0.0828
16252TIP3    H170171   4.823   1.236   6.111 -1.5863 -2.0144  0.1159
16252TIP3    H270172   4.918   1.199   6.223 -0.3618  0.2105 -0.1301
16253TIP3   OH270173   5.336   3.486  16.136 -0.6692  0.4718  0.5564
16253TIP3    H170174   5.404   3.539  16.176  0.5072 -0.9268  0.4831
16253TIP3    H270175   5.284   3.548  16.084  0.6800  1.5345  0.4331
16254TIP3   OH270176   4.490   6.176   4.209  0.4846  0.0790  0.3760
16254TIP3    H170177   4.533   6.095   4.182  0.6754  0.0898  0.6452
16254TIP3    H270178   4.554   6.220   4.265  0.6335  0.7183 -0.2697
16255TIP3   OH270179   3.421   0.092  14.700 -0.0059  0.3449  0.7223
16255TIP3    H170180   3.466   0.022  14.653  1.0214  0.8137  0.9738
16255TIP3    H270181   3.375   0.141  14.633 -0.1637 -0.1563  0.4593
16256TIP3   OH270182   2.166   5.422  13.919  0.3029 -0.0711 -0.2327
16256TIP3    H170183   2.096   5.469  13.964 -0.6635  0.5842 -2.2539
16256TIP3    H270184   2.121   5.353  13.870  1.2180 -0.4472 -0.5721
16257TIP3   OH270185   3.422   0.614  14.594 -0.3826 -0.0501  0.2908
16257TIP3    H170186   3.491   0.633  14.531 -1.9303  0.0352 -1.4655
16257TIP3    H270187   3.459   0.638  14.679  0.9673  2.0161 -0.8143
16258TIP3   OH270188   6.318   5.669  10.944 -0.4570  0.0792 -0.1637
16258TIP3    H170189   6.339   5.675  11.037 -1.9473 -0.0543  0.2030
16258TIP3    H270190   6.293   5.578  10.931  0.8531 -0.2036 -0.9779
16259TIP3   OH270191   2.168   3.060   3.744  0.2919 -0.0835  0.0141
16259TIP3    H170192   2.105   2.990   3.764 -0.8756  0.7542 -0.6388
16259TIP3    H270193   2.248   3.032   3.789 -0.4296 -1.3405  0.6079
16260TIP3   OH270194   6.783   0.838   1.335  0.2122 -0.2401 -0.1704
16260TIP3    H170195   6.863   0.813   1.290 -0.6584 -0.1079 -1.8937
16260TIP3    H270196   6.714   0.789   1.290 -0.8223  0.7002  0.3244
16261TIP3   OH270197   5.463   3.761  16.176 -0.0888  0.0529 -0.4917
16261TIP3    H170198   5.541   3.736  16.226 -0.6556 -2.1044 -0.5944
16261TIP3    H270199   5.453   3.855  16.193  1.1077 -0.1249  1.5080
16262TIP3   OH270200   1.304   0.283  14.366  0.1382 -0.0220 -0.4685
16262TIP3    H170201   1.388   0.284  14.413 -0.2635  0.8979  0.2609
16262TIP3    H270202   1.278   0.191  14.365  0.2433 -0.0873  0.9649
16263TIP3   OH270203   3.461   6.753  12.574  0.2509 -0.2656 -0.3246
16263TIP3    H170204   3.442   6.669  12.616 -1.3056  0.6180  0.8463
16263TIP3    H270205   3.556   6.759  12.577  0.3428 -1.5416  0.4832
16264TIP3   OH270206   0.096   2.694  12.814  0.0660  0.5673 -0.0639
16264TIP3    H170207   0.105   2.718  12.906 -1.2644 -0.1235  0.2709
16264TIP3    H270208   0.184   2.702  12.778  0.1929  3.5712  0.5836
16265TIP3   OH270209   0.842   1.380   4.741 -0.0741  0.7689 -0.3875
16265TIP3    H170210   0.782   1.316   4.780  1.7966 -1.2990 -0.6762
16265TIP3    H270211   0.855   1.446   4.809 -1.8684  0.7537  0.0259
16266TIP3   OH270212   3.808   3.053  14.470 -0.1887 -0.1417 -0.3330
16266TIP3    H170213   3.771   3.073  14.556 -0.8838 -0.1985 -0.6157
16266TIP3    H270214   3.758   3.107  14.409  0.7567  0.4060 -0.6352
16267TIP3   OH270215   6.404   2.110   5.146 -0.3893 -0.1581 -0.1296
16267TIP3    H170216   6.378   2.044   5.081  1.2656 -0.4522 -0.5330
16267TIP3    H270217   6.499   2.112   5.141 -0.3774  1.8698  0.2979
16268TIP3   OH270218   1.714   2.077  16.851 -0.1109 -0.0926  0.2810
16268TIP3    H170219   1.806   2.088  16.875  0.3506 -0.1382 -1.2968
16268TIP3    H270220   1.665   2.105  16.928  1.2010  1.5257  0.5890
16269TIP3   OH270221   3.741   0.077  14.265 -0.0180 -0.5569  0.2597
16269TIP3    H170222   3.702  -0.005  14.295  0.1058 -0.1926  1.4484
16269TIP3    H270223   3.669   0.125  14.224  0.0065 -1.4337 -0.8824
16270TIP3   OH270224   6.532   4.302   3.032 -0.0553 -0.2450 -0.2285
16270TIP3    H170225   6.546   4.392   3.005 -0.9613  0.0883  0.3780
16270TIP3    H270226   6.613   4.278   3.079 -0.1833  0.5565  0.4121
16271TIP3   OH270227   6.591   3.057   6.180 -0.5592 -0.1118 -0.1940
16271TIP3    H170228   6.660   3.122   6.170 -0.0309 -0.9380 -2.3949
16271TIP3    H270229   6.636   2.979   6.212 -0.9460  0.1332  0.9895
16272TIP3   OH270230   2.284   5.372  15.764  0.3684 -0.0243 -0.5585
16272TIP3    H170231   2.237   5.306  15.816 -0.9268 -0.6464 -2.4063
16272TIP3    H270232   2.225   5.447  15.760  0.9589  0.4723 -0.1770
16273TIP3   OH270233   0.182   3.155   0.402 -0.2897 -0.5235  0.0593
16273TIP3    H170234   0.194   3.225   0.466 -0.2036 -1.3682  0.9813
16273TIP3    H270235   0.128   3.090   0.447  2.2236 -2.5248  0.4179
16274TIP3   OH270236   6.434   4.653   2.885 -0.5854  0.3430  0.1990
16274TIP3    H170237   6.514   4.706   2.886 -0.2177 -0.1933  1.7324
16274TIP3    H270238   6.404   4.652   2.976 -0.2698 -2.4562  0.3725
16275TIP3   OH270239   4.968   4.651  15.264  0.0366  0.7151 -0.0582
16275TIP3    H170240   4.954   4.560  15.288 -0.6062  0.8314  0.0278
16275TIP3    H270241   4.964   4.652  15.168 -1.0137  0.8141 -0.0196
16276TIP3   OH270242   5.329   0.533  12.088  0.1537  0.0343 -0.2136
16276TIP3    H170243   5.246   0.581  12.093  0.3205  0.3394 -0.3864
16276TIP3    H270244   5.395   0.596  12.119  0.0325 -0.9529  2.3044
16277TIP3   OH270245   4.731   6.330   3.324  0.3605  0.2402 -0.3910
16277TIP3    H170246   4.707   6.409   3.276 -0.5010  0.1901 -0.0491
16277TIP3    H270247   4.659   6.315   3.385  0.6510 -0.6499 -0.2462
16278TIP3   OH270248   2.602   1.881   2.293  0.1024 -0.6334 -0.3022
16278TIP3    H170249   2.516   1.919   2.307  0.1606 -0.8209  0.6093
16278TIP3    H270250   2.589   1.817   2.223  0.1576  1.5669 -2.4818
16279TIP3   OH270251   0.571   4.940   5.812 -0.0764 -0.0296  0.6994
16279TIP3    H170252   0.593   4.947   5.719 -0.3730  0.4331  0.6613
16279TIP3    H270253   0.648   4.898   5.852 -1.5951 -4.5560 -0.4398
16280TIP3   OH270254   3.927   3.744  14.854  0.0475 -0.1455 -0.1420
16280TIP3    H170255   3.861   3.708  14.913  1.1598 -1.0463  0.5927
16280TIP3    H270256   3.967   3.667  14.813 -0.5059  0.4516 -1.8765
16281TIP3   OH270257   0.939   3.899  12.891  0.1899  0.3243  0.5852
16281TIP3    H170258   0.854   3.944  12.893 -0.2403 -0.4758  1.8365
16281TIP3    H270259   0.940   3.852  12.808  0.1104  1.6243 -0.1660
16282TIP3   OH270260   5.800   3.825   1.089 -0.0893  0.1136  0.1116
16282TIP3    H170261   5.761   3.884   1.024 -0.1395  1.7268  1.5405
16282TIP3    H270262   5.882   3.797   1.049  0.0523  1.3529 -0.5170
16283TIP3   OH270263   4.517   3.893  11.754 -0.5478  0.2666  0.0070
16283TIP3    H170264   4.484   3.823  11.811 -1.2358  1.8143  1.5909
16283TIP3    H270265   4.512   3.972  11.807  3.1188  1.1097 -0.6290
16284TIP3   OH270266   0.292   3.515  12.333  0.0439 -0.1068 -0.1388
16284TIP3    H170267   0.251   3.435  12.299  0.8268 -0.1392 -1.0676
16284TIP3    H270268   0.373   3.524  12.282  0.1547  1.0775  0.2064
16285TIP3   OH270269   6.175   4.107  12.835  0.0144 -0.7072 -0.4137
16285TIP3    H170270   6.098   4.115  12.780 -0.1830 -1.7993 -0.3125
16285TIP3    H270271   6.143   4.067  12.916  0.3945  0.3621  0.2931
16286TIP3   OH270272   2.784   3.712   4.422 -0.2142  0.0262 -0.0893
16286TIP3    H170273   2.818   3.793   4.458  2.3770 -0.9115 -0.2527
16286TIP3    H270274   2.732   3.674   4.494  2.2057 -0.2536  1.6300
16287TIP3   OH270275   3.779   3.351  16.732 -0.6548  0.7038 -0.4035
16287TIP3    H170276   3.693   3.383  16.761 -0.2329  1.7558 -0.2618
16287TIP3    H270277   3.805   3.288  16.798 -2.3014 -1.3675 -1.6108
16288TIP3   OH270278   1.570   6.341   5.672 -0.5777 -0.2827 -0.5900
16288TIP3    H170279   1.518   6.388   5.607 -1.8289 -3.0112 -1.7158
16288TIP3    H270280   1.631   6.289   5.621 -0.3153 -1.0848  0.5034
16289TIP3   OH270281   2.161   3.766   5.890  0.8355 -0.6166  0.0692
16289TIP3    H170282   2.255   3.752   5.880  0.9022  0.3601 -0.9314
16289TIP3    H270283   2.148   3.858   5.865 -0.2887 -0.5408  0.8665
16290TIP3   OH270284   4.341   0.120   4.335  0.6066  0.3225 -0.1532
16290TIP3    H170285   4.336   0.213   4.311  0.8902  0.8531  1.7134
16290TIP3    H270286   4.270   0.107   4.398  1.7560 -0.2274  1.0783
16291TIP3   OH270287   5.623   3.726  15.560 -0.2455 -0.2325 -0.1319
16291TIP3    H170288   5.606   3.752  15.470  2.0467  1.2295 -0.2080
16291TIP3    H270289   5.577   3.791  15.613 -0.9465 -0.6376 -0.2293
16292TIP3   OH270290   4.844   1.817   5.972 -0.9039 -0.0607  0.9580
16292TIP3    H170291   4.824   1.743   6.030 -2.1653  0.3682  1.1055
16292TIP3    H270292   4.895   1.876   6.026 -0.7040 -0.3857  1.1317
16293TIP3   OH270293   4.144   2.564   5.302  0.2919  0.3373 -0.5426
16293TIP3    H170294   4.057   2.573   5.339 -0.0961  0.5920 -1.4893
16293TIP3    H270295   4.179   2.653   5.301  0.5907  0.2297 -0.1221
16294TIP3   OH270296   3.832   0.031   2.796  0.2922  0.7548 -0.3086
16294TIP3    H170297   3.928   0.038   2.794  0.3901 -0.4758 -1.1419
16294TIP3    H270298   3.808   0.063   2.883  1.7685 -1.7699  1.1863
16295TIP3   OH270299   3.973   0.223  13.130 -0.2622  0.2969  0.1493
16295TIP3    H170300   3.897   0.281  13.123  0.4749  1.1519 -1.2922
16295TIP3    H270301   3.985   0.210  13.224 -0.4669  2.4768  0.5250
16296TIP3   OH270302   2.729   2.862  14.146 -0.4966 -0.7127 -0.0568
16296TIP3    H170303   2.669   2.900  14.211  0.9010  0.7977  0.4164
16296TIP3    H270304   2.761   2.938  14.096  1.1871 -1.4310 -0.1289
16297TIP3   OH270305   6.121   1.318  13.431  0.2212 -0.1382 -0.4423
16297TIP3    H170306   6.033   1.345  13.458 -0.0740 -0.3397 -1.1684
16297TIP3    H270307   6.139   1.370  13.353  0.7052 -0.1780 -0.3602
16298TIP3   OH270308   6.571   5.753  11.963  0.0057 -0.5017 -0.0449
16298TIP3    H170309   6.627   5.698  11.908  0.5818 -0.4599  0.4918
16298TIP3    H270310   6.482   5.727  11.940  0.2581 -2.1745  0.7209
16299TIP3   OH270311   5.765   5.782  16.395 -0.2917  0.0081  0.2470
16299TIP3    H170312   5.846   5.731  16.401 -0.1874  0.2302  0.8050
16299TIP3    H270313   5.767   5.839  16.471 -2.1995 -1.7772  1.7681
16300TIP3   OH270314   5.365   3.218  14.747  0.0845  0.3801  0.2299
16300TIP3    H170315   5.354   3.277  14.821 -2.2881 -0.1576  0.3925
16300TIP3    H270316   5.312   3.255  14.677  1.6236  0.4313 -0.9758
16301TIP3   OH270317   4.869   3.168   5.432  0.4241  0.2752 -0.2403
16301TIP3    H170318   4.918   3.097   5.392  2.2642 -0.0232  2.2827
16301TIP3    H270319   4.785   3.129   5.456  0.4398 -0.3205 -1.1150
16302TIP3   OH270320   2.970   6.366  14.273  1.0025  0.1690 -0.0000
16302TIP3    H170321   3.054   6.319  14.268  1.3857  0.6224  1.5490
16302TIP3    H270322   2.904   6.299  14.258  1.6165 -0.4038 -0.1972
16303TIP3   OH270323   0.196   4.676  13.292 -0.2071  0.0569 -0.0709
16303TIP3    H170324   0.194   4.629  13.375  0.7507 -0.4562 -0.3228
16303TIP3    H270325   0.129   4.634  13.238 -0.5268  0.1043  0.2900
16304TIP3   OH270326   0.719   6.600  16.682  0.0756  0.7429 -0.2835
16304TIP3    H170327   0.714   6.643  16.767 -0.2529  0.2356 -0.0460
16304TIP3    H270328   0.810   6.574  16.673 -0.3041 -1.1061  0.8514
16305TIP3   OH270329   2.353   6.109  13.675  0.3144  0.3284  0.2628
16305TIP3    H170330   2.285   6.045  13.695  0.2774  0.6597  1.2520
16305TIP3    H270331   2.405   6.067  13.606 -0.3618 -0.2920  0.1065
16306TIP3   OH270332   3.022   3.937   2.096  0.4540 -0.4927 -0.3698
16306TIP3    H170333   2.994   3.850   2.123  0.2459 -0.5969 -0.9070
16306TIP3    H270334   3.023   3.988   2.177  0.9378 -1.0858 -0.0018
16307TIP3   OH270335   0.361   0.623  16.213 -0.0949  0.2678  1.2784
16307TIP3    H170336   0.360   0.532  16.242 -0.7785  0.0329  0.5481
16307TIP3    H270337   0.337   0.619  16.121  0.6715  1.1238  1.0307
16308TIP3   OH270338   4.545   5.485   5.764  0.5049 -1.0062 -0.6687
16308TIP3    H170339   4.534   5.548   5.692 -0.5783  1.7492  1.7058
16308TIP3    H270340   4.638   5.490   5.786  0.9537 -2.2606 -2.1280
16309TIP3   OH270341   0.037   4.980   5.433  0.1789 -0.0049 -0.3557
16309TIP3    H170342   0.033   5.031   5.514  2.9003  0.4808 -0.4646
16309TIP3    H270343  -0.023   5.026   5.373  0.7116  1.6337  0.3214
16310TIP3   OH270344   1.454   0.190  14.051  0.3445 -0.2713 -0.3725
16310TIP3    H170345   1.415   0.187  13.964  1.2503  0.7302 -0.8401
16310TIP3    H270346   1.488   0.279  14.058  2.9412 -1.1941 -0.1912
16311TIP3   OH270347   1.255   3.367   1.749 -0.4873 -0.3689  0.4596
16311TIP3    H170348   1.292   3.431   1.809 -2.9340  0.3128  1.3316
16311TIP3    H270349   1.300   3.285   1.770  1.9115  0.7611  0.0601
16312TIP3   OH270350   4.347   2.071  11.079 -0.0526  0.0054  0.2797
16312TIP3    H170351   4.267   2.114  11.051  0.7353  0.9454 -0.6064
16312TIP3    H270352   4.384   2.033  11.000 -0.2327 -1.5396  0.8857
16313TIP3   OH270353   4.902   2.686  16.351  0.1573  0.0156 -0.0129
16313TIP3    H170354   4.887   2.591  16.347  1.6411 -0.2155 -1.1846
16313TIP3    H270355   4.821   2.725  16.320 -0.8049 -0.8186  1.3305
16314TIP3   OH270356   5.642   2.668  16.965  0.3918 -0.1989  0.0489
16314TIP3    H170357   5.717   2.689  16.909  1.6484  0.2597  1.8100
16314TIP3    H270358   5.678   2.668  17.054 -1.8476  0.6839  1.0182
16315TIP3   OH270359   0.890   1.507   0.518 -0.1631  1.2672 -0.1192
16315TIP3    H170360   0.823   1.515   0.585  0.3409  3.0683  0.2425
16315TIP3    H270361   0.876   1.583   0.461  0.1236  0.3899 -1.4077
16316TIP3   OH270362   2.283   3.867   6.574  0.4490  0.3980  0.3331
16316TIP3    H170363   2.256   3.818   6.496 -2.7982  1.5629  0.6061
16316TIP3    H270364   2.365   3.825   6.601  0.6058 -1.3625 -2.4837
16317TIP3   OH270365   4.477   2.584  16.039 -0.2581 -0.0654 -0.1895
16317TIP3    H170366   4.427   2.515  15.995 -2.1725  0.0393  1.6438
16317TIP3    H270367   4.420   2.613  16.111  0.4873  3.4086 -0.8186
16318TIP3   OH270368   1.405   4.726  15.214  0.4143  0.1303  0.6350
16318TIP3    H170369   1.352   4.805  15.231 -2.2258 -1.3372 -0.2403
16318TIP3    H270370   1.465   4.752  15.144  0.2175  1.6097  0.9833
16319TIP3   OH270371   6.054   0.112   5.273  0.3075 -0.3814  0.1494
16319TIP3    H170372   6.147   0.121   5.251 -0.2170  1.1032 -1.6991
16319TIP3    H270373   6.034   0.022   5.248  1.2193 -0.7030  0.5058
16320TIP3   OH270374   0.684   2.336   2.254 -0.2586 -0.2680 -0.0655
16320TIP3    H170375   0.692   2.426   2.283 -0.8302  0.7300 -2.6837
16320TIP3    H270376   0.773   2.311   2.229  0.4624 -1.5258  3.2302
16321TIP3   OH270377   3.611   2.798   5.126 -0.1651  0.1519  0.4151
16321TIP3    H170378   3.546   2.858   5.088  0.3408  0.1560 -0.4792
16321TIP3    H270379   3.656   2.851   5.192  0.0859  0.6804 -0.1684
16322TIP3   OH270380   0.737   0.590   5.258 -0.0113 -0.0814 -0.4010
16322TIP3    H170381   0.757   0.640   5.336 -0.1312 -1.1399  0.3380
16322TIP3    H270382   0.709   0.655   5.193 -0.1061  0.7874  0.4939
16323TIP3   OH270383   0.307   5.236   0.099  0.6388 -0.2609  0.3789
16323TIP3    H170384   0.257   5.223   0.019  0.7462  0.6114  0.1500
16323TIP3    H270385   0.300   5.154   0.147  1.2734 -1.0882 -0.9119
16324TIP3   OH270386   6.150   1.338   4.687  0.3918 -0.0111  0.2793
16324TIP3    H170387   6.217   1.386   4.638  0.2382 -0.5046 -0.4219
16324TIP3    H270388   6.081   1.321   4.624 -1.3903  2.2657  1.4736
16325TIP3   OH270389   2.736   2.589   1.286  0.3334  0.1648  0.7161
16325TIP3    H170390   2.752   2.663   1.344  0.2965  0.0013  0.9349
16325TIP3    H270391   2.643   2.593   1.267  0.6038  1.1103 -0.5477
16326TIP3   OH270392   4.131   2.661  13.113  0.1250  0.4296 -0.0968
16326TIP3    H170393   4.105   2.705  13.194  4.2863  1.3506  0.9814
16326TIP3    H270394   4.187   2.588  13.142 -0.4057 -0.8491 -2.1135
16327TIP3   OH270395   4.284   4.050  11.272 -0.9911  0.1162  0.0085
16327TIP3    H170396   4.203   4.002  11.292 -0.4898 -0.0483  1.7605
16327TIP3    H270397   4.253   4.132  11.233 -2.0400  0.1900  0.9243
16328TIP3   OH270398   6.544   6.069  11.776  0.3902  0.3221  0.0076
16328TIP3    H170399   6.563   5.975  11.771  1.4129  0.4238  1.4006
16328TIP3    H270400   6.539   6.097  11.685  0.8640 -0.9388 -0.4275
16329TIP3   OH270401   3.530   0.965   2.564 -0.0343 -0.4763 -0.4514
16329TIP3    H170402   3.496   0.932   2.481  0.4708  0.9758 -1.2627
16329TIP3    H270403   3.609   0.914   2.579 -0.4996 -1.2312 -0.4816
16330TIP3   OH270404   4.024   2.974  12.555 -0.5103 -0.4172  0.0297
16330TIP3    H170405   3.997   2.940  12.470  0.2044  0.7540 -0.6984
16330TIP3    H270406   3.942   2.999  12.598 -0.8847 -1.1642 -0.2388
16331TIP3   OH270407   1.845   2.998   2.384 -0.0138 -0.0926  0.5595
16331TIP3    H170408   1.776   3.039   2.437  1.3757  0.2701  2.1941
16331TIP3    H270409   1.872   2.922   2.434 -0.8398 -1.6513 -1.2533
16332TIP3   OH270410   1.407   3.125   5.621  0.9930  0.9832  0.3283
16332TIP3    H170411   1.423   3.214   5.591 -0.2612  0.5347 -1.8561
16332TIP3    H270412   1.312   3.116   5.620  1.1362 -0.7801 -0.7760
16333TIP3   OH270413   1.710   1.906   3.075 -0.0828 -0.1800 -0.1344
16333TIP3    H170414   1.717   1.992   3.033  0.2035  0.3907  1.0406
16333TIP3    H270415   1.768   1.912   3.151 -0.9403 -1.0191  0.6097
16334TIP3   OH270416   1.651   1.881  13.097  0.1865 -0.0395 -0.1948
16334TIP3    H170417   1.734   1.910  13.134  0.2108 -0.0404 -0.2467
16334TIP3    H270418   1.584   1.916  13.155  0.3139 -3.2308  2.1167
16335TIP3   OH270419   3.978   0.922  12.361 -0.1554 -0.3662 -0.3636
16335TIP3    H170420   3.900   0.972  12.388  0.9540  1.1155  0.2509
16335TIP3    H270421   3.950   0.876  12.282 -1.5050  0.5915 -0.4928
16336TIP3   OH270422   6.626   1.721  13.430  0.3906  0.6140 -0.0527
16336TIP3    H170423   6.681   1.799  13.434  1.7924 -0.3516  0.4434
16336TIP3    H270424   6.609   1.708  13.337  0.6051  1.2055 -0.1791
16337TIP3   OH270425   6.390   2.794  15.655 -0.2361  0.2109  0.1157
16337TIP3    H170426   6.407   2.888  15.666 -1.1462  0.4152 -0.1876
16337TIP3    H270427   6.312   2.777  15.708 -0.1325 -0.3566  0.0894
16338TIP3   OH270428   4.742   3.266  16.065 -0.4277  0.6299  0.3088
16338TIP3    H170429   4.774   3.356  16.065 -0.9246  0.8246 -0.8460
16338TIP3    H270430   4.652   3.273  16.095 -1.0453  0.7777 -1.4494
16339TIP3   OH270431   4.851   5.075   4.430 -0.5327 -0.0264  0.7777
16339TIP3    H170432   4.867   5.096   4.522  3.6958  1.4290 -0.0629
16339TIP3    H270433   4.894   4.990   4.418 -0.8642 -0.0982  0.1176
16340TIP3   OH270434   5.341   5.969   0.855 -0.3422 -0.0545 -0.1005
16340TIP3    H170435   5.372   5.982   0.944  1.2952  0.7157 -0.7378
16340TIP3    H270436   5.266   6.028   0.847 -0.1140  0.3406  0.5800
16341TIP3   OH270437   2.734   0.781  13.947 -0.2489  0.2118  0.1077
16341TIP3    H170438   2.665   0.820  13.892 -0.8495 -1.2622 -0.2521
16341TIP3    H270439   2.714   0.810  14.036  0.9721  2.9736 -0.4190
16342TIP3   OH270440   1.282   1.588  14.057 -0.3132 -0.3617  0.1072
16342TIP3    H170441   1.323   1.502  14.059  1.4788  0.3985 -0.8444
16342TIP3    H270442   1.284   1.613  13.964 -1.6196  0.3437  0.2491
16343TIP3   OH270443   2.502   2.692  11.333  0.3753 -0.5742  0.3187
16343TIP3    H170444   2.538   2.632  11.397  0.2652  0.1643  1.0868
16343TIP3    H270445   2.408   2.674  11.333  0.4504 -0.9661 -0.0529
16344TIP3   OH270446   0.681   0.893   4.419 -0.1433  0.5034 -0.2926
16344TIP3    H170447   0.732   0.836   4.361 -2.1630 -2.0613  0.1972
16344TIP3    H270448   0.602   0.914   4.368 -2.2019 -2.2140  1.4453
16345TIP3   OH270449   1.088   3.270  14.528  0.0522  0.0924 -0.1609
16345TIP3    H170450   1.053   3.227  14.606 -1.0583  1.7080  0.2881
16345TIP3    H270451   1.166   3.317  14.560  0.1784 -0.0601 -0.2445
16346TIP3   OH270452   4.726   1.604  14.401 -0.3906 -0.1662 -0.7795
16346TIP3    H170453   4.737   1.547  14.476  0.7243  0.8956 -0.1038
16346TIP3    H270454   4.754   1.551  14.326 -0.8321 -0.9898 -0.3769
16347TIP3   OH270455   0.502   2.983   1.910 -0.7173  0.8929  0.8846
16347TIP3    H170456   0.531   2.992   2.001  1.7571  1.1495  0.1624
16347TIP3    H270457   0.562   2.919   1.872 -0.9684  1.5978 -0.8202
16348TIP3   OH270458   0.489   3.725  13.846 -0.7503 -0.3830 -0.3910
16348TIP3    H170459   0.441   3.768  13.917  0.4884 -0.5651  0.6034
16348TIP3    H270460   0.492   3.790  13.776 -2.8088 -0.5318 -0.6829
16349TIP3   OH270461   1.619   3.894  13.560  0.2854 -0.7499 -0.4217
16349TIP3    H170462   1.675   3.972  13.564  0.8245 -1.0651 -1.4188
16349TIP3    H270463   1.548   3.919  13.501  0.8047 -1.2058 -1.2645
16350TIP3   OH270464   1.484   4.596   3.178  0.7355  0.0132 -0.4317
16350TIP3    H170465   1.414   4.640   3.129 -0.9429 -0.4125  1.4444
16350TIP3    H270466   1.519   4.665   3.235 -1.6722 -0.7907  2.2700
16351TIP3   OH270467   3.845   4.287   3.281 -0.2521 -0.0049 -0.0983
16351TIP3    H170468   3.868   4.204   3.324  0.2453 -0.4642 -1.2085
16351TIP3    H270469   3.900   4.290   3.203 -0.0470  1.5315  0.0757
16352TIP3   OH270470   2.428   6.565  16.277 -0.3161 -0.1234 -0.6710
16352TIP3    H170471   2.421   6.655  16.309  0.0053  0.2296 -1.5642
16352TIP3    H270472   2.346   6.550  16.230 -0.8216 -0.6691  0.3421
16353TIP3   OH270473   6.556   2.573  15.802  0.0659  0.3614  0.3870
16353TIP3    H170474   6.474   2.622  15.813  0.3611  1.2842 -1.2468
16353TIP3    H270475   6.544   2.522  15.722  0.6004 -0.5567  0.8695
16354TIP3   OH270476   6.002   3.410   6.010  0.6687 -0.2557  0.1154
16354TIP3    H170477   6.081   3.436   6.056  0.1528  0.5435  0.5788
16354TIP3    H270478   5.933   3.462   6.049  0.2465  0.7072 -1.7714
16355TIP3   OH270479   6.595   5.877   4.173  0.3470 -0.4383 -0.0283
16355TIP3    H170480   6.642   5.881   4.256 -1.1205 -1.2471  0.8788
16355TIP3    H270481   6.659   5.908   4.108  1.9943 -1.1724  1.1716
16356TIP3   OH270482   6.302   2.222   0.836 -0.6641  0.1199 -0.3426
16356TIP3    H170483   6.396   2.209   0.823 -0.5533  0.9019 -0.3901
16356TIP3    H270484   6.297   2.288   0.905 -1.1694  0.3502 -0.5966
16357TIP3   OH270485   3.890   5.564   6.168  0.2616  0.0014 -0.4056
16357TIP3    H170486   3.918   5.473   6.176  2.5970  0.5694 -1.2689
16357TIP3    H270487   3.931   5.609   6.243  1.0604  0.7255 -1.2500
16358TIP3   OH270488   3.457   6.057  13.471 -0.2190 -0.1730  0.0103
16358TIP3    H170489   3.495   6.124  13.527  1.2820 -0.9939  0.0362
16358TIP3    H270490   3.377   6.030  13.517 -1.1521  1.9325 -0.2834
16359TIP3   OH270491   1.597   1.639  16.313 -0.3948  0.3230  0.4525
16359TIP3    H170492   1.627   1.730  16.317 -1.1634  0.6405 -0.5604
16359TIP3    H270493   1.565   1.620  16.401 -2.6686  1.9122  0.0443
16360TIP3   OH270494   0.498   5.078   4.045 -0.2146  0.6963 -0.2437
16360TIP3    H170495   0.463   5.047   3.962  0.1694 -1.0444  0.2099
16360TIP3    H270496   0.484   5.173   4.043  0.3368  0.7885 -2.5374
16361TIP3   OH270497   5.766   2.688   1.009  0.1747 -0.1518  0.1109
16361TIP3    H170498   5.828   2.743   1.056 -0.8938  1.3751 -0.1758
16361TIP3    H270499   5.820   2.631   0.954  1.3467 -0.1399  1.2028
16362TIP3   OH270500   2.769   1.316  17.162 -0.5674  0.2725  0.0350
16362TIP3    H170501   2.768   1.411  17.152 -1.3763  0.2672 -0.0015
16362TIP3    H270502   2.677   1.292  17.173 -0.3364 -0.4601  0.4759
16363TIP3   OH270503   0.698   3.878   5.207  0.0460 -0.6752  0.0723
16363TIP3    H170504   0.757   3.952   5.192  0.4144 -0.9011  0.3766
16363TIP3    H270505   0.675   3.885   5.300 -0.5439 -0.4919 -0.0844
16364TIP3   OH270506   4.564   0.303  15.278  0.4040  0.6738  0.0020
16364TIP3    H170507   4.642   0.332  15.325  1.6591 -1.7195 -0.4661
16364TIP3    H270508   4.547   0.215  15.312 -0.0005 -0.2213 -2.3661
16365TIP3   OH270509   3.562   5.632   5.840 -0.2963  0.6318 -0.2148
16365TIP3    H170510   3.471   5.604   5.847 -0.5299  1.4074 -0.0512
16365TIP3    H270511   3.606   5.590   5.914 -0.5142  0.2557 -0.2950
16366TIP3   OH270512   2.563   2.663  16.391  0.3664 -0.0777  0.5801
16366TIP3    H170513   2.505   2.679  16.465  1.0126 -0.4039  1.1700
16366TIP3    H270514   2.650   2.684  16.424  0.6311  0.0794 -0.1875
16367TIP3   OH270515   1.654   2.917  10.995 -0.0255  0.2107 -0.1913
16367TIP3    H170516   1.715   2.885  10.928  1.0585 -2.2515  1.8159
16367TIP3    H270517   1.567   2.905  10.957  0.5856  1.6067 -2.2038
16368TIP3   OH270518   5.770   0.195  15.166  0.1523  0.0341 -0.1992
16368TIP3    H170519   5.751   0.286  15.188 -1.1992 -0.5764  1.3559
16368TIP3    H270520   5.719   0.144  15.229  2.0932 -1.7970 -0.0026
16369TIP3   OH270521   4.626   0.584  14.000 -0.1712  0.6103  0.0306
16369TIP3    H170522   4.554   0.602  13.940 -0.3638 -1.9852 -0.6216
16369TIP3    H270523   4.705   0.603  13.949 -0.3131 -2.2193 -1.4328
16370TIP3   OH270524   0.351   2.924  15.040 -0.3446  0.1194  0.1659
16370TIP3    H170525   0.423   2.872  15.004  0.7612 -0.0282  2.4361
16370TIP3    H270526   0.281   2.861  15.056 -0.4693  0.0239 -0.6884
16371TIP3   OH270527   4.824   5.514   5.851 -0.1594  0.2792  0.1139
16371TIP3    H170528   4.852   5.602   5.829 -0.6978  0.3897 -0.1322
16371TIP3    H270529   4.901   5.459   5.835 -0.3618  0.4304 -1.5351
16372TIP3   OH270530   1.624   4.603  13.235  0.3767  0.3185  0.1081
16372TIP3    H170531   1.715   4.572  13.234 -0.0929 -1.1489  0.5755
16372TIP3    H270532   1.605   4.618  13.327 -0.1363 -0.2491  0.0944
16373TIP3   OH270533   4.981   4.199   4.970 -0.2828  0.1628 -0.4236
16373TIP3    H170534   4.960   4.285   5.007 -0.7016 -0.0647 -0.1338
16373TIP3    H270535   4.938   4.136   5.028 -0.9031 -0.2028 -1.2582
16374TIP3   OH270536   4.777   2.519  15.473  0.3813  0.2365 -0.0633
16374TIP3    H170537   4.792   2.427  15.495  2.1418  0.4379 -0.2465
16374TIP3    H270538   4.698   2.518  15.419  0.9805 -1.3182 -0.9951
16375TIP3   OH270539   3.171   3.611   5.773  0.1437 -0.1485  0.6295
16375TIP3    H170540   3.199   3.621   5.682 -1.5737 -1.0799 -0.0411
16375TIP3    H270541   3.214   3.683   5.819 -0.9790  1.9389 -1.3981
16376TIP3   OH270542   5.323   4.567   0.840  0.7966 -0.2488  0.3624
16376TIP3    H170543   5.242   4.516   0.837  0.9329 -0.4643  0.3770
16376TIP3    H270544   5.317   4.626   0.765  1.0355 -0.8789 -0.1538
16377TIP3   OH270545   4.935   5.841   2.919  0.0935  0.2812  0.5435
16377TIP3    H170546   4.993   5.899   2.968 -0.4361  1.5362 -0.2666
16377TIP3    H270547   4.860   5.895   2.896 -0.1394 -0.5476 -0.7800
16378TIP3   OH270548   3.905   5.422  13.126 -0.3407  0.2067 -0.4567
16378TIP3    H170549   3.967   5.495  13.125  0.6815 -0.6274 -0.2244
16378TIP3    H270550   3.866   5.424  13.213 -0.1714  0.3638 -0.3835
16379TIP3   OH270551   6.302   6.043  12.307  0.0929 -0.0623  0.5959
16379TIP3    H170552   6.392   6.050  12.275  0.0131  0.3530  0.4465
16379TIP3    H270553   6.279   5.951  12.295 -0.2967  0.2575 -1.5715
16380TIP3   OH270554   4.135   3.279   2.841 -0.8993  0.1886 -0.8769
16380TIP3    H170555   4.078   3.353   2.862 -2.0248 -0.7509 -0.5305
16380TIP3    H270556   4.157   3.241   2.926  2.3540  1.9809 -0.7543
16381TIP3   OH270557   0.780   4.267   0.838  0.2368  0.3617  0.3582
16381TIP3    H170558   0.710   4.236   0.896  1.5662 -1.2847  1.1540
16381TIP3    H270559   0.799   4.355   0.869  0.2780 -0.1352  1.8485
16382TIP3   OH270560   6.276   5.388   5.100 -0.0498 -0.4312  0.8276
16382TIP3    H170561   6.256   5.478   5.074 -0.5737 -1.1461 -1.4374
16382TIP3    H270562   6.207   5.365   5.162 -1.1940  0.0021 -0.2607
16383TIP3   OH270563   1.382   5.182  15.301 -0.4492 -0.0061 -0.0897
16383TIP3    H170564   1.331   5.262  15.291  2.0563  1.5485 -1.7743
16383TIP3    H270565   1.386   5.145  15.213  0.3234 -0.7220  0.2323
16384TIP3   OH270566   4.762   3.929   0.028  0.1503 -0.3068 -0.2681
16384TIP3    H170567   4.772   3.848   0.078 -0.9283 -0.6100 -0.5224
16384TIP3    H270568   4.740   3.901  -0.060 -0.7899  0.2628 -0.2314
16385TIP3   OH270569   4.994   1.115   5.410 -0.4750 -0.3659 -0.2812
16385TIP3    H170570   5.033   1.179   5.470 -2.2779  1.3628 -0.8599
16385TIP3    H270571   5.035   1.134   5.325  0.7666 -1.6416 -0.0075
16386TIP3   OH270572   5.799   2.599  13.990  0.4602  0.2421 -0.0419
16386TIP3    H170573   5.743   2.632  14.060  2.3886  1.6893  0.9424
16386TIP3    H270574   5.830   2.678  13.946  0.0074 -0.6131 -1.9793
16387TIP3   OH270575   1.957   5.404   3.901  0.2304  0.5482 -0.0309
16387TIP3    H170576   1.867   5.419   3.872  0.2707 -0.0215 -0.4689
16387TIP3    H270577   1.955   5.316   3.939  0.3142  1.0431  1.1564
16388TIP3   OH270578   6.127   3.157  11.407  0.5928  0.6489  0.5323
16388TIP3    H170579   6.167   3.218  11.345  0.6947  2.4431  2.2826
16388TIP3    H270580   6.067   3.210  11.459 -0.8154 -1.1505  0.8535
16389TIP3   OH270581   0.424   6.021   3.107 -0.2078  0.2949 -0.2495
16389TIP3    H170582   0.367   6.097   3.100  0.7469  1.0353 -0.1067
16389TIP3    H270583   0.445   6.014   3.200 -3.1847 -2.3465  0.3789
16390TIP3   OH270584   3.831   0.713   6.110 -0.7083 -0.0531 -0.6025
16390TIP3    H170585   3.816   0.632   6.158  2.5703 -0.3763  0.1050
16390TIP3    H270586   3.897   0.691   6.045  0.6727  2.1111 -0.0333
16391TIP3   OH270587   5.794   5.756  10.996  0.7943  0.1579  0.2788
16391TIP3    H170588   5.821   5.670  10.963  0.2591  0.2491 -0.4259
16391TIP3    H270589   5.858   5.777  11.064  1.7112 -0.2087 -0.4449
16392TIP3   OH270590   6.025   4.929   6.669  0.1279 -0.0987 -0.6313
16392TIP3    H170591   6.103   4.911   6.721 -0.4258  1.5025  0.8363
16392TIP3    H270592   5.962   4.863   6.696  0.0412  0.3612  0.3345
16393TIP3   OH270593   4.209   1.496  13.095  0.5252 -0.5082  1.0103
16393TIP3    H170594   4.256   1.477  13.014  0.4669  0.8276  0.6425
16393TIP3    H270595   4.272   1.478  13.165  1.3042  0.3982  0.5597
16394TIP3   OH270596   4.332   5.404   4.406  0.1831  0.7076  0.2345
16394TIP3    H170597   4.366   5.488   4.436  2.2183 -0.2441  0.7205
16394TIP3    H270598   4.269   5.378   4.473 -0.9286  2.0856 -0.2232
16395TIP3   OH270599   3.296   2.785  15.698 -0.0089 -0.2375 -0.0271
16395TIP3    H170600   3.259   2.765  15.612  0.6725 -0.5760 -0.2514
16395TIP3    H270601   3.369   2.845  15.679 -1.0131  1.2100  0.4897
16396TIP3   OH270602   0.912   6.063  10.539  0.7759 -0.4999  0.4945
16396TIP3    H170603   0.950   5.985  10.501  1.3775  0.0924 -0.1525
16396TIP3    H270604   0.823   6.067  10.504  0.8872 -0.6711  0.1940
16397TIP3   OH270605   6.575   2.058   5.602 -0.5698  0.0591 -0.3081
16397TIP3    H170606   6.540   1.999   5.535 -0.2693 -0.4386 -0.0403
16397TIP3    H270607   6.619   1.999   5.664 -0.7430  0.5247  0.2605
16398TIP3   OH270608   0.387   4.049  16.909  0.0682 -0.3005  0.2310
16398TIP3    H170609   0.441   4.007  16.976 -1.8239 -2.5383  0.4841
16398TIP3    H270610   0.388   3.987  16.836  0.3865  1.1252 -1.0209
16399TIP3   OH270611   2.801   5.094   5.137  0.1569 -0.3959 -0.2068
16399TIP3    H170612   2.753   5.012   5.125 -1.3251  0.3272  0.5447
16399TIP3    H270613   2.835   5.089   5.226 -0.9230  0.2657  0.2653
16400TIP3   OH270614   4.901   5.433  12.089 -0.0705 -0.1708 -0.3159
16400TIP3    H170615   4.958   5.509  12.091  0.2272 -0.3926 -0.1596
16400TIP3    H270616   4.856   5.438  12.005 -1.1960  0.9935  0.3333
16401TIP3   OH270617   0.544   6.730  15.134  0.1884  0.2063 -0.3536
16401TIP3    H170618   0.613   6.753  15.072  0.2675  0.7359 -0.0727
16401TIP3    H270619   0.465   6.772  15.099  0.4592  1.4904  0.4970
16402TIP3   OH270620   0.792   6.325   4.666 -0.0848  0.3141  0.2863
16402TIP3    H170621   0.707   6.360   4.638 -0.9396 -0.1222  2.1553
16402TIP3    H270622   0.791   6.334   4.761  1.1641 -1.4558  0.5132
16403TIP3   OH270623   0.686   3.133   3.913 -0.3311  0.1026  0.4206
16403TIP3    H170624   0.659   3.056   3.862 -0.0714 -0.3012  0.8850
16403TIP3    H270625   0.765   3.105   3.959  0.8607  1.2497 -0.8673
16404TIP3   OH270626   5.775   0.595   3.576 -0.1342  0.2084  0.0787
16404TIP3    H170627   5.818   0.678   3.594  0.8426 -0.3496  0.3967
16404TIP3    H270628   5.805   0.570   3.489 -0.0113 -0.0625  0.1971
16405TIP3   OH270629   2.343   5.826  14.720  0.6896 -0.1958 -0.0799
16405TIP3    H170630   2.408   5.770  14.679  2.5441  1.1783  0.8144
16405TIP3    H270631   2.344   5.800  14.812 -1.0068 -1.0168 -0.2579
16406TIP3   OH270632   6.314   6.202  17.119  0.0852  0.1327  0.2462
16406TIP3    H170633   6.313   6.128  17.058 -0.9440 -0.4688  0.9784
16406TIP3    H270634   6.350   6.275  17.067 -0.3222 -0.4864 -0.9363
16407TIP3   OH270635   4.778   0.753   0.259  0.2919 -0.1309  0.5246
16407TIP3    H170636   4.868   0.737   0.232  0.1279 -0.2254  0.0288
16407TIP3    H270637   4.728   0.755   0.177  0.1594  2.0368  0.6002
16408TIP3   OH270638   0.778   6.336  13.628 -0.5394 -0.1043  0.1583
16408TIP3    H170639   0.747   6.408  13.682  0.5435 -1.4879  2.8076
16408TIP3    H270640   0.723   6.339  13.550 -3.1991  1.1627  1.9245
16409TIP3   OH270641   4.662   4.931   0.601 -0.7857  0.0897  0.5947
16409TIP3    H170642   4.703   4.986   0.668 -1.3277 -1.5211  2.3431
16409TIP3    H270643   4.731   4.872   0.572  0.0027  2.0382 -1.8270
16410TIP3   OH270644   1.344   5.957  12.229 -0.2768  0.0567  0.7646
16410TIP3    H170645   1.273   5.990  12.173 -0.1158 -2.1392 -0.8269
16410TIP3    H270646   1.298   5.920  12.305 -0.7305 -0.0676  0.4355
16411TIP3   OH270647   3.284   5.793   0.843 -0.5598  0.0076  0.1190
16411TIP3    H170648   3.349   5.789   0.773  0.9193 -1.6112  1.5016
16411TIP3    H270649   3.336   5.801   0.923 -2.0578 -1.1233  1.2514
16412TIP3   OH270650   0.816   4.488  12.426 -0.2142  0.6035 -0.5907
16412TIP3    H170651   0.745   4.425  12.439  0.5082  0.2895  2.6374
16412TIP3    H270652   0.778   4.572  12.448  0.2268  0.4851  0.7484
16413TIP3   OH270653   1.937   0.944  11.296 -0.3100 -0.1617 -0.4089
16413TIP3    H170654   1.867   0.963  11.233 -0.4066  0.4732 -0.1147
16413TIP3    H270655   1.987   1.025  11.302 -2.3162  1.0454  2.8820
16414TIP3   OH270656   1.897   3.993  14.240 -0.2967  0.2950 -0.1058
16414TIP3    H170657   1.841   3.984  14.317  1.7530  0.4021  1.4485
16414TIP3    H270658   1.873   3.918  14.184 -1.7057  0.1427  0.6536
16415TIP3   OH270659   5.441   1.876   1.766  0.1061 -0.5899 -0.1330
16415TIP3    H170660   5.497   1.869   1.689  1.0207  0.6954  0.3776
16415TIP3    H270661   5.357   1.840   1.738  1.4267 -3.5584 -0.6135
16416TIP3   OH270662   4.047   5.138  10.917  0.5390  0.4416 -0.0276
16416TIP3    H170663   4.112   5.083  10.873  0.6072  1.8270 -1.7492
16416TIP3    H270664   4.090   5.223  10.927  0.3516  0.3312  2.3816
16417TIP3   OH270665   2.758   1.752   3.795  0.5342  0.5944  0.1488
16417TIP3    H170666   2.808   1.800   3.729  0.2377  0.0010 -0.5186
16417TIP3    H270667   2.721   1.820   3.851 -0.6661  1.2146 -1.3471
16418TIP3   OH270668   5.259   6.329   5.196  0.0080 -0.1074  0.2617
16418TIP3    H170669   5.330   6.369   5.245 -0.0134  1.4282 -0.8982
16418TIP3    H270670   5.179   6.365   5.235 -0.0548 -0.0155  0.0507
16419TIP3   OH270671   3.733   2.029   4.799 -0.1688  0.1243  0.1111
16419TIP3    H170672   3.740   2.121   4.823  1.2062  0.1649 -0.3625
16419TIP3    H270673   3.797   1.984   4.854 -3.0205 -1.1032  2.7046
16420TIP3   OH270674   0.687   5.017  16.833 -0.4199  0.5013 -0.2028
16420TIP3    H170675   0.712   4.943  16.888 -0.7686  0.8446  0.4196
16420TIP3    H270676   0.640   4.977  16.760 -1.0440  0.1422  0.3858
16421TIP3   OH270677   3.371   0.953   1.873  0.2803 -0.0337  0.4183
16421TIP3    H170678   3.335   0.864   1.879 -0.2672  0.0367 -1.1430
16421TIP3    H270679   3.462   0.941   1.847 -0.4292 -0.1676 -2.2841
16422TIP3   OH270680   0.795   2.757  14.468  0.1641 -0.0752 -0.1100
16422TIP3    H170681   0.792   2.728  14.377  0.2361  0.2965 -0.2356
16422TIP3    H270682   0.837   2.843  14.464  0.8937 -0.4010  0.3709
16423TIP3   OH270683   3.316   4.378  13.347  0.2935  0.3204 -0.2858
16423TIP3    H170684   3.315   4.411  13.257  0.4523 -0.0715 -0.4314
16423TIP3    H270685   3.272   4.446  13.398  0.1732  0.5264 -0.6650
16424TIP3   OH270686   6.049   3.145   4.169 -0.2396  0.3046 -0.4873
16424TIP3    H170687   5.979   3.090   4.205 -0.6010  0.2777 -1.2209
16424TIP3    H270688   6.006   3.198   4.101  0.0729  1.6051  0.2928
16425TIP3   OH270689   2.112   1.433   4.148  0.4151  0.1000 -0.0574
16425TIP3    H170690   2.091   1.426   4.055 -0.9258  1.3402  0.1059
16425TIP3    H270691   2.162   1.354   4.168 -1.4020 -1.4644 -1.2884
16426TIP3   OH270692   5.586   3.227   5.337 -0.1261  0.1423 -0.5263
16426TIP3    H170693   5.500   3.232   5.379  0.6006 -0.2885  1.0940
16426TIP3    H270694   5.638   3.172   5.396  1.0875 -0.1170 -1.7914
16427TIP3   OH270695   3.997   5.247  12.937  0.3487 -0.2284 -0.8354
16427TIP3    H170696   3.937   5.208  12.874 -0.5744  0.9174 -0.6955
16427TIP3    H270697   3.947   5.317  12.978  1.1422 -0.5396  0.7314
16428TIP3   OH270698   5.145   4.879   4.722  0.5964  0.3597  0.2341
16428TIP3    H170699   5.179   4.954   4.772 -0.5609  1.5047 -0.6151
16428TIP3    H270700   5.055   4.904   4.700  0.1548 -1.3368 -0.0123
16429TIP3   OH270701   0.071   6.008   3.571  0.8216  0.3773  0.2229
16429TIP3    H170702   0.127   5.940   3.534  1.2811  0.3604  0.9226
16429TIP3    H270703   0.013   6.033   3.499  1.0765 -0.2930 -0.2318
16430TIP3   OH270704   2.741   2.121  14.592 -0.0743 -0.4884  0.3466
16430TIP3    H170705   2.651   2.150  14.578  0.7700  1.8341 -0.7010
16430TIP3    H270706   2.738   2.075  14.676 -2.4990 -1.8974 -0.3904
16431TIP3   OH270707   4.287   0.083  16.155 -0.4556 -0.1066  0.5305
16431TIP3    H170708   4.327   0.147  16.214 -0.5898  1.9570 -1.5049
16431TIP3    H270709   4.349   0.075  16.082 -1.3288 -0.8608 -0.1596
16432TIP3   OH270710   3.177   1.231   3.578 -0.2443  0.6673  0.0726
16432TIP3    H170711   3.169   1.192   3.491  3.1582  1.1155 -0.5903
16432TIP3    H270712   3.150   1.322   3.567 -1.1104  0.3821 -0.1820
16433TIP3   OH270713   2.339   4.925   1.610  0.6334 -0.3824  0.3591
16433TIP3    H170714   2.420   4.903   1.563  0.4553  0.5848 -0.4244
16433TIP3    H270715   2.361   4.911   1.702  2.2818  1.5438  0.3304
16434TIP3   OH270716   0.437   1.829   1.498 -0.2685 -0.4148 -0.0899
16434TIP3    H170717   0.388   1.760   1.542  0.3695 -2.0948 -1.8529
16434TIP3    H270718   0.375   1.903   1.492 -1.1602 -1.0072  1.3272
16435TIP3   OH270719   4.010   2.759   4.761 -0.3525  0.7809  0.2945
16435TIP3    H170720   4.002   2.774   4.855  0.5745  1.9127  0.2145
16435TIP3    H270721   3.926   2.720   4.736 -0.7377  0.7680  1.5262
16436TIP3   OH270722   0.322   0.894   5.859  0.0197  0.6942 -0.3270
16436TIP3    H170723   0.415   0.880   5.876 -0.0299 -0.7941 -1.0645
16436TIP3    H270724   0.285   0.919   5.943  0.8738  0.0219  0.2667
16437TIP3   OH270725   4.452   0.153  13.220  0.4938 -0.1750 -0.4633
16437TIP3    H170726   4.447   0.248  13.232 -0.1412 -0.3176  0.4476
16437TIP3    H270727   4.545   0.134  13.218  0.6238  0.4209 -0.2579
16438TIP3   OH270728   6.255   6.162  11.585  0.0649  0.1662 -0.2263
16438TIP3    H170729   6.276   6.235  11.528  0.6436  0.8822  0.8835
16438TIP3    H270730   6.269   6.084  11.531  2.1584  0.7558 -0.5874
16439TIP3   OH270731   3.241   5.077  11.820 -0.3146 -0.1538 -0.1257
16439TIP3    H170732   3.318   5.128  11.843 -1.2079  1.4768 -0.5039
16439TIP3    H270733   3.211   5.117  11.737 -1.8673 -0.3435  0.3138
16440TIP3   OH270734   5.136   6.368   2.327 -0.1211  0.0178 -0.4610
16440TIP3    H170735   5.062   6.427   2.318 -0.6812 -0.6772 -0.5374
16440TIP3    H270736   5.213   6.424   2.321 -0.6256  1.1352  2.1197
16441TIP3   OH270737   0.268   6.786   4.221 -0.4653 -0.2357 -0.2177
16441TIP3    H170738   0.247   6.829   4.304  2.2752  2.2006 -0.6160
16441TIP3    H270739   0.337   6.723   4.244  1.5581  1.6564 -0.7428
16442TIP3   OH270740   3.047   2.746  10.935  0.3170  0.0701 -0.0654
16442TIP3    H170741   3.000   2.694  10.870 -2.1043  2.6873 -0.6062
16442TIP3    H270742   3.128   2.771  10.892 -1.6538  2.6065 -2.7180
16443TIP3   OH270743   6.210   0.263   6.019  0.4341 -0.0811  0.0800
16443TIP3    H170744   6.297   0.300   6.006 -0.1803  1.0384 -1.1758
16443TIP3    H270745   6.152   0.323   5.971 -0.7539 -2.0601 -1.0657
16444TIP3   OH270746   2.129   4.034   0.576 -0.3270 -0.5931 -0.1518
16444TIP3    H170747   2.135   3.972   0.649  1.0830 -1.2631 -0.7937
16444TIP3    H270748   2.055   4.002   0.524 -0.3964 -0.9995  0.1885
16445TIP3   OH270749   5.569   1.053   1.027 -0.1052  0.0544  0.4693
16445TIP3    H170750   5.502   1.090   0.970 -0.9324  0.5902  1.7398
16445TIP3    H270751   5.530   0.971   1.060  0.7002 -0.6844 -0.3551
16446TIP3   OH270752   3.150   6.144  14.220  0.2452 -0.1094  0.2214
16446TIP3    H170753   3.089   6.072  14.203 -0.5218  0.5479  0.1342
16446TIP3    H270754   3.236   6.103  14.218 -0.0228 -0.6638 -1.9004
16447TIP3   OH270755   4.338   1.035  14.283 -0.0969  0.0573  0.1719
16447TIP3    H170756   4.384   1.088  14.349  0.8581 -1.1925  0.5358
16447TIP3    H270757   4.378   1.061  14.200 -0.0349  0.3107  0.2796
16448TIP3   OH270758   2.764   4.555   5.749  0.3876 -0.0692 -0.2573
16448TIP3    H170759   2.762   4.622   5.680 -0.0869  0.3675  0.1769
16448TIP3    H270760   2.753   4.604   5.830 -1.9094 -0.8404 -0.0480
16449TIP3   OH270761   5.004   3.498   1.618  0.9360  0.6249  0.5900
16449TIP3    H170762   4.985   3.423   1.561  0.1458  2.6669 -2.0511
16449TIP3    H270763   4.925   3.508   1.671  0.7612 -0.0102  0.4582
16450TIP3   OH270764   0.159   4.525  13.502 -0.0301 -0.7838 -0.0497
16450TIP3    H170765   0.219   4.498  13.571 -1.9982 -1.1118  1.6415
16450TIP3    H270766   0.072   4.509  13.539 -1.1760 -0.1649 -2.3087
16451TIP3   OH270767   6.406   6.638   1.723  0.4482 -0.1816  0.3937
16451TIP3    H170768   6.334   6.700   1.737 -0.4919 -1.3081  0.6353
16451TIP3    H270769   6.364   6.560   1.688  1.7072 -0.4725 -0.5266
16452TIP3   OH270770   4.499   1.380  16.073 -0.4368 -0.4079 -0.0504
16452TIP3    H170771   4.523   1.329  16.150 -1.2319  1.0206  1.2047
16452TIP3    H270772   4.515   1.471  16.098 -1.5263  0.1560 -1.2496
16453TIP3   OH270773   6.441   2.685  14.322  0.6207  0.4408  0.4609
16453TIP3    H170774   6.467   2.596  14.342  0.0194  0.1663  0.0555
16453TIP3    H270775   6.427   2.685  14.227  1.0921  1.0916  0.3847
16454TIP3   OH270776   2.879   0.121   1.955 -0.3183  0.0800  0.5957
16454TIP3    H170777   2.827   0.082   1.884  0.1897  2.0084 -0.9295
16454TIP3    H270778   2.956   0.063   1.963 -0.8833 -0.7284  0.3010
16455TIP3   OH270779   4.059   3.090  11.067  0.0545 -0.1059 -0.4095
16455TIP3    H170780   4.091   3.107  10.978  2.0185  0.8477  0.4152
16455TIP3    H270781   4.017   3.172  11.093 -0.7146 -0.4583 -0.5265
16456TIP3   OH270782   1.990   4.729   5.509 -0.1612  0.1533  0.0726
16456TIP3    H170783   1.970   4.781   5.587  0.8322 -0.9361  1.0891
16456TIP3    H270784   1.918   4.748   5.449 -1.5231  0.2171  1.6528
16457TIP3   OH270785   3.942   4.461   2.711 -0.0899  0.1784 -0.3771
16457TIP3    H170786   3.904   4.448   2.624  1.3816 -0.7906 -0.9190
16457TIP3    H270787   3.912   4.385   2.761 -2.4810  1.6560  0.6059
16458TIP3   OH270788   4.489   5.413   2.328  0.1200 -0.3955 -0.4299
16458TIP3    H170789   4.527   5.468   2.396 -0.3102  1.5763 -1.7091
16458TIP3    H270790   4.394   5.426   2.337 -0.0885 -2.0615  0.1259
16459TIP3   OH270791   6.167   0.257  11.726  0.1700 -0.6151  0.2523
16459TIP3    H170792   6.075   0.277  11.743  0.1878  0.2567 -0.5779
16459TIP3    H270793   6.193   0.199  11.798 -1.5498 -2.4745 -0.5509
16460TIP3   OH270794   6.609   1.163  16.545  0.3383  0.3325 -0.6088
16460TIP3    H170795   6.516   1.187  16.551  0.4561  0.5348  0.7542
16460TIP3    H270796   6.613   1.102  16.471 -1.0298 -0.3217 -0.1828
16461TIP3   OH270797   2.771   0.625  13.289  0.0509 -0.2593 -0.2630
16461TIP3    H170798   2.776   0.539  13.247  1.1081 -0.9110  1.1010
16461TIP3    H270799   2.688   0.624  13.336 -0.5341 -0.0199 -1.2610
16462TIP3   OH270800   4.954   0.335  14.848 -0.1907 -0.0772 -0.1825
16462TIP3    H170801   4.865   0.318  14.815 -1.0285  3.3190 -0.0356
16462TIP3    H270802   5.003   0.360  14.770 -0.6634  2.4920  0.2746
16463TIP3   OH270803   4.658   6.042  12.721 -0.1856 -0.3110 -0.1212
16463TIP3    H170804   4.663   5.989  12.801 -0.8510 -0.6484 -0.2975
16463TIP3    H270805   4.741   6.026  12.676  0.0644 -0.3615  0.3499
16464TIP3   OH270806   2.480   3.580  13.745  0.2301  0.0885 -0.0352
16464TIP3    H170807   2.471   3.484  13.744 -0.4229  0.1040 -2.2733
16464TIP3    H270808   2.395   3.612  13.714  1.0930  1.2706 -1.2922
16465TIP3   OH270809   5.469   5.809  12.057  0.1029  0.3911 -0.2049
16465TIP3    H170810   5.525   5.766  11.992 -0.1120  0.0889 -0.1983
16465TIP3    H270811   5.527   5.829  12.130  0.2910  0.4826 -0.3774
16466TIP3   OH270812   0.103   5.337  10.836 -0.3582  0.3490 -0.3863
16466TIP3    H170813   0.018   5.302  10.861  0.6137 -1.6968  0.2579
16466TIP3    H270814   0.116   5.412  10.893 -1.5933  0.5065 -0.2988
16467TIP3   OH270815   4.950   3.067  12.615  0.4750  0.4871 -0.0352
16467TIP3    H170816   5.043   3.085  12.611  0.7812 -1.0701 -0.7169
16467TIP3    H270817   4.943   2.982  12.658 -0.6156  0.4808 -0.1782
16468TIP3   OH270818   1.413   0.989   2.494 -0.0904 -0.1526 -0.0678
16468TIP3    H170819   1.483   1.047   2.524  0.8335 -1.2842  0.0144
16468TIP3    H270820   1.451   0.940   2.422 -0.5222 -1.3816  0.5209
16469TIP3   OH270821   4.192   3.625  12.227  0.6156 -0.1378 -0.2012
16469TIP3    H170822   4.274   3.577  12.242  0.3598 -0.3058  0.7213
16469TIP3    H270823   4.142   3.612  12.308  1.0624  2.7635  0.6575
16470TIP3   OH270824   1.767   1.718  17.126 -0.4971  0.4326 -0.0610
16470TIP3    H170825   1.789   1.631  17.093  1.1497  0.4842  0.8013
16470TIP3    H270826   1.672   1.724  17.116 -1.1725 -2.6976  2.7315
16471TIP3   OH270827   1.122   4.253  16.576 -0.9037  0.0478 -0.3729
16471TIP3    H170828   1.108   4.315  16.504 -0.3172 -1.6667 -2.0378
16471TIP3    H270829   1.059   4.183  16.559  0.1538 -1.0187  0.0331
16472TIP3   OH270830   2.534   6.385  11.704  0.0060 -0.1529  0.2178
16472TIP3    H170831   2.564   6.309  11.655 -3.1848 -0.8188 -0.9120
16472TIP3    H270832   2.570   6.460  11.655  1.5358 -0.8567  0.2071
16473TIP3   OH270833   0.364   0.965   6.507  0.1482  0.3427 -0.5917
16473TIP3    H170834   0.377   1.048   6.462 -0.2838  1.5933  1.4404
16473TIP3    H270835   0.436   0.910   6.478  1.1218  1.8401 -1.1158
16474TIP3   OH270836   2.989   5.510   2.773 -0.1742 -0.3053  0.3205
16474TIP3    H170837   2.980   5.513   2.678 -1.0840  0.5038  0.4100
16474TIP3    H270838   3.067   5.457   2.789  0.1869 -0.1541 -0.8816
16475TIP3   OH270839   0.915   2.116   6.315  0.0767 -0.0089 -0.1390
16475TIP3    H170840   1.006   2.107   6.341 -0.4081 -0.0482  1.6850
16475TIP3    H270841   0.869   2.141   6.396 -1.2990  1.5284 -1.3254
16476TIP3   OH270842   1.920   2.056  13.573 -0.1211  0.2240 -0.7605
16476TIP3    H170843   1.830   2.022  13.577 -0.4317  0.8846 -1.6538
16476TIP3    H270844   1.929   2.111  13.650 -1.2053  1.7822 -1.6856
16477TIP3   OH270845   4.303   1.006   3.332 -0.0360  0.2819  0.0221
16477TIP3    H170846   4.302   1.061   3.253  0.9416  1.2326  0.6616
16477TIP3    H270847   4.391   1.014   3.366 -0.0186 -1.3191  0.4168
16478TIP3   OH270848   1.873   3.216   0.775 -0.4425  0.7765  0.9229
16478TIP3    H170849   1.913   3.164   0.705 -0.3431 -0.8469  2.1369
16478TIP3    H270850   1.779   3.210   0.758 -0.4072  0.5807  0.7934
16479TIP3   OH270851   3.349   0.730   3.323 -0.1639 -0.4969  0.1685
16479TIP3    H170852   3.356   0.825   3.326  1.6669 -0.6250  0.6664
16479TIP3    H270853   3.312   0.706   3.408 -1.1086 -0.2224 -0.1495
16480TIP3   OH270854   6.245   0.449   5.057  1.2272 -0.3031 -0.0293
16480TIP3    H170855   6.170   0.479   5.005  0.8764 -1.1367 -0.0295
16480TIP3    H270856   6.208   0.430   5.143  1.6989  0.5127  0.3635
16481TIP3   OH270857   4.970   4.861   0.476 -0.5206  0.0902 -0.6434
16481TIP3    H170858   4.927   4.928   0.423  0.3353  1.6771  0.5948
16481TIP3    H270859   5.026   4.910   0.535  1.9978 -1.8267 -1.2791
16482TIP3   OH270860   4.875   1.790  13.798 -0.1991 -0.2790  0.8283
16482TIP3    H170861   4.909   1.781  13.887 -3.0413  2.4518  2.4039
16482TIP3    H270862   4.785   1.820  13.810 -0.7885 -0.0090 -3.0293
16483TIP3   OH270863   4.209   1.763   2.383 -0.0943  0.3376 -0.1353
16483TIP3    H170864   4.133   1.714   2.414  0.8591 -0.8569  0.4315
16483TIP3    H270865   4.179   1.853   2.376 -1.6100 -0.1416 -0.1218
16484TIP3   OH270866   5.624   4.899  16.133  0.5887 -0.1136 -0.1178
16484TIP3    H170867   5.684   4.887  16.059  0.1150 -2.2391 -0.2076
16484TIP3    H270868   5.646   4.829  16.194 -1.1834 -0.3969  0.2547
16485TIP3   OH270869   3.386   3.752  15.290  0.1729  0.4625  0.1110
16485TIP3    H170870   3.457   3.782  15.233 -0.4261  0.5684 -0.5902
16485TIP3    H270871   3.369   3.662  15.262  1.2981 -0.2280  1.5526
16486TIP3   OH270872   5.240   1.509   1.315  0.2226  0.4172 -0.0436
16486TIP3    H170873   5.266   1.569   1.244 -1.6452  1.3651  0.0146
16486TIP3    H270874   5.307   1.521   1.382  0.8911  1.0510 -0.7940
16487TIP3   OH270875   2.788   4.378   4.256  0.2623  0.3294 -0.3735
16487TIP3    H170876   2.815   4.458   4.210  0.6880  1.5794  1.9090
16487TIP3    H270877   2.737   4.410   4.330 -0.6543 -1.6237 -0.1163
16488TIP3   OH270878   0.234   5.932   3.807  0.2483  0.0115  0.3862
16488TIP3    H170879   0.158   5.937   3.749 -0.2918 -1.5997  0.8998
16488TIP3    H270880   0.266   6.023   3.814 -0.5758  0.4458 -1.2042
16489TIP3   OH270881   4.441   1.600  16.604 -0.6588 -0.3399 -0.2195
16489TIP3    H170882   4.377   1.668  16.584 -1.0578 -0.6075  0.1166
16489TIP3    H270883   4.387   1.524  16.627 -0.2488 -0.1029  1.7006
16490TIP3   OH270884   5.581   1.334  16.599  0.2572  0.2630  0.7313
16490TIP3    H170885   5.521   1.261  16.612 -0.4241  0.3380 -1.5540
16490TIP3    H270886   5.666   1.293  16.580  0.0638  0.0633  0.2807
16491TIP3   OH270887   3.077   6.113  14.765 -0.2130  0.6712  0.3518
16491TIP3    H170888   3.035   6.176  14.706  1.0788  2.2959  1.0794
16491TIP3    H270889   3.015   6.103  14.837 -0.8998  0.2769 -0.2910
16492TIP3   OH270890   6.512   1.449  14.282  0.0261 -0.3916  0.3507
16492TIP3    H170891   6.442   1.404  14.330 -1.3403  2.0080  0.7403
16492TIP3    H270892   6.591   1.399  14.303 -1.0976 -1.5360  2.1659
16493TIP3   OH270893   3.365   4.475   2.234 -0.2943  0.5812  0.0744
16493TIP3    H170894   3.334   4.483   2.324  3.3684  0.8822  1.4663
16493TIP3    H270895   3.384   4.565   2.207 -0.9751  0.4547 -0.8956
16494TIP3   OH270896   4.185   2.622   6.541 -0.3512  0.1360  0.2706
16494TIP3    H170897   4.126   2.551   6.515  2.5530 -2.2401 -0.3773
16494TIP3    H270898   4.138   2.668   6.611 -3.3199 -0.9285 -0.8613
16495TIP3   OH270899   3.143   4.437  12.128 -0.0711 -0.6015 -0.1122
16495TIP3    H170900   3.100   4.358  12.162  0.6239 -1.7824 -1.8422
16495TIP3    H270901   3.202   4.463  12.198 -3.0917  0.7903  2.1544
16496TIP3   OH270902   6.059   1.704  11.030 -0.5534 -0.9449 -0.3301
16496TIP3    H170903   6.120   1.721  11.102 -0.7629 -3.6988  0.5972
16496TIP3    H270904   6.114   1.673  10.958 -0.6486 -1.3957 -0.2115
16497TIP3   OH270905   6.688   6.524  16.277  0.6145 -0.0641 -0.1141
16497TIP3    H170906   6.776   6.500  16.306  0.5055  0.2115  0.4454
16497TIP3    H270907   6.644   6.556  16.355 -0.2011 -0.8013 -0.2572
16498TIP3   OH270908   4.794   0.758  16.556  0.6523  0.3430 -0.2818
16498TIP3    H170909   4.714   0.778  16.509  0.3573  0.3499  0.2175
16498TIP3    H270910   4.862   0.809  16.512  0.6468 -0.6992 -1.5698
16499TIP3   OH270911   3.724   4.876   3.696 -0.4348  0.0521 -0.1374
16499TIP3    H170912   3.776   4.906   3.771 -1.5182 -0.9338  1.0524
16499TIP3    H270913   3.736   4.944   3.630  1.6255  0.3045  0.4132
16500TIP3   OH270914   1.999   4.471  14.960 -0.2884 -0.5172 -0.3037
16500TIP3    H170915   2.006   4.523  15.040  0.9323 -0.8491 -0.1867
16500TIP3    H270916   2.039   4.387  14.982 -1.0282 -1.0445 -0.9042
16501TIP3   OH270917   1.415   1.912   3.749  0.0891 -0.0166 -0.2550
16501TIP3    H170918   1.421   1.909   3.654  0.4271 -1.2882 -0.2103
16501TIP3    H270919   1.326   1.881   3.768 -0.7743  2.2646 -0.2064
16502TIP3   OH270920   6.668   0.897  11.302 -0.0161  0.2219  0.1929
16502TIP3    H170921   6.698   0.806  11.309  0.5738  0.3975  0.0059
16502TIP3    H270922   6.579   0.890  11.269 -0.2125 -0.3164  0.8077
16503TIP3   OH270923   2.516   0.129  13.972  0.4479 -0.0817 -0.1995
16503TIP3    H170924   2.506   0.045  13.926  0.4360  1.2210 -2.8032
16503TIP3    H270925   2.524   0.193  13.901  3.6171  1.7951  1.6644
16504TIP3   OH270926   2.266   0.649   4.552 -0.3453  0.3988 -0.3269
16504TIP3    H170927   2.312   0.569   4.580  0.7096  1.2231  0.3601
16504TIP3    H270928   2.181   0.618   4.522  0.1833 -1.0386 -0.4345
16505TIP3   OH270929   3.558   1.218   4.103 -0.1212 -0.1979 -0.9866
16505TIP3    H170930   3.491   1.245   4.167 -0.4989 -0.3350 -1.3216
16505TIP3    H270931   3.533   1.129   4.078  1.5377 -1.1912  0.6655
16506TIP3   OH270932   1.046   5.780   4.550 -0.1098 -0.3398  0.0084
16506TIP3    H170933   1.028   5.757   4.458  0.7376  0.2380 -0.3198
16506TIP3    H270934   0.972   5.744   4.599 -0.2389 -1.2451 -0.8192
16507TIP3   OH270935   3.776   4.729  14.918  0.0943 -0.5018 -0.7257
16507TIP3    H170936   3.700   4.707  14.972  1.6700  1.3442  2.5746
16507TIP3    H270937   3.825   4.647  14.911 -1.5185 -1.4200 -1.8391
16508TIP3   OH270938   5.142   5.499  16.372  0.9235  0.1204 -0.2632
16508TIP3    H170939   5.148   5.449  16.453  0.4205 -0.7608 -0.7503
16508TIP3    H270940   5.217   5.558  16.373  2.2555 -1.5329 -0.2648
16509TIP3   OH270941   3.649   4.052  13.765  0.2708 -0.2281 -0.2588
16509TIP3    H170942   3.640   4.144  13.788  1.1892  0.5865 -2.8235
16509TIP3    H270943   3.722   4.021  13.818 -0.9234  0.0535  1.6693
16510TIP3   OH270944   4.125   0.785   3.202  0.1712 -0.2246 -0.2401
16510TIP3    H170945   4.200   0.815   3.149 -1.0749 -0.8188 -2.4659
16510TIP3    H270946   4.094   0.865   3.245  0.4941  0.5699 -1.4081
16511TIP3   OH270947   0.620   3.076  13.823  0.6467  0.0759  0.3729
16511TIP3    H170948   0.610   3.093  13.729  1.0565  2.6821  0.7278
16511TIP3    H270949   0.613   3.163  13.864  0.9486 -0.9325  2.7229
16512TIP3   OH270950   3.575   3.689   4.973  0.5352 -0.2544  0.0671
16512TIP3    H170951   3.649   3.740   4.940 -0.2773  0.0819 -1.3120
16512TIP3    H270952   3.606   3.599   4.977  1.2843  0.0127  0.3702
16513TIP3   OH270953   1.996   2.941  14.447  0.7762 -0.0456 -0.8303
16513TIP3    H170954   1.979   3.035  14.453 -0.7417 -0.3057 -0.8583
16513TIP3    H270955   1.955   2.904  14.524  0.4216 -0.8132 -1.3794
16514TIP3   OH270956   0.740   6.543   4.036 -0.2432 -0.2317  0.2354
16514TIP3    H170957   0.689   6.522   3.958 -2.9842 -1.4411  2.2016
16514TIP3    H270958   0.702   6.625   4.068 -1.3875 -1.3668  1.9614
16515TIP3   OH270959   0.553   6.728   3.127 -0.1655  0.5130  0.4560
16515TIP3    H170960   0.595   6.642   3.135  1.2151  1.1088 -0.1196
16515TIP3    H270961   0.625   6.788   3.110 -1.1489  1.7546  0.5889
16516TIP3   OH270962   4.172   4.321   3.582  0.7032 -0.3527 -0.1642
16516TIP3    H170963   4.198   4.243   3.632  0.9224 -0.4192 -0.3751
16516TIP3    H270964   4.095   4.354   3.627  1.0592 -0.2492  0.3850
16517TIP3   OH270965   5.929   4.698   2.150 -0.1033  0.1546 -1.0165
16517TIP3    H170966   5.856   4.756   2.171  0.9219  1.4496 -0.9331
16517TIP3    H270967   5.925   4.689   2.054  1.3471  2.6868 -1.4150
16518TIP3   OH270968   5.470   6.397   0.981  0.4756  0.4049  0.3706
16518TIP3    H170969   5.464   6.350   0.898 -0.4539 -2.3305  1.8620
16518TIP3    H270970   5.484   6.488   0.956  0.4579 -0.3413 -2.7592
16519TIP3   OH270971   0.909   3.807   0.838 -0.4845  0.3417  0.0383
16519TIP3    H170972   0.952   3.883   0.877 -0.3898  0.3811 -0.1400
16519TIP3    H270973   0.913   3.824   0.743  0.9126 -0.6104 -0.1017
16520TIP3   OH270974   4.477   5.874   4.636  0.3512  0.0559 -0.1872
16520TIP3    H170975   4.495   5.965   4.663 -0.5082  0.3937 -0.7194
16520TIP3    H270976   4.491   5.874   4.542  1.8356 -0.7563 -0.0084
16521TIP3   OH270977   2.916   0.926  16.067 -0.5477  0.4122  0.1326
16521TIP3    H170978   2.859   0.857  16.101  1.3897 -0.9086  0.9144
16521TIP3    H270979   2.989   0.879  16.027  0.2017  2.0208 -0.4832
16522TIP3   OH270980   2.040   6.776  13.368 -1.1109  0.2332 -0.0095
16522TIP3    H170981   2.031   6.855  13.420 -0.3017 -0.1960  0.8043
16522TIP3    H270982   1.967   6.720  13.397 -1.5903  0.6093 -0.4743
16523TIP3   OH270983   0.217   6.443  15.909  0.0179  0.1457  0.3265
16523TIP3    H170984   0.246   6.518  15.856 -1.9538 -0.2840 -1.5059
16523TIP3    H270985   0.156   6.481  15.972  0.2090  0.2799  0.4326
16524TIP3   OH270986   2.235   3.066   6.540 -0.8590  0.3248  0.0161
16524TIP3    H170987   2.244   2.985   6.591  0.0164  0.5004  0.1644
16524TIP3    H270988   2.145   3.095   6.556 -1.4472 -1.0341 -0.6740
16525TIP3   OH270989   1.727   2.691  15.152  0.8156 -0.8462  0.3145
16525TIP3    H170990   1.788   2.689  15.078 -1.8417 -2.0140 -2.0054
16525TIP3    H270991   1.740   2.607  15.196 -0.0264 -1.7262 -1.0417
16526TIP3   OH270992   5.460   2.606   3.046  0.2892  0.1872  0.2438
16526TIP3    H170993   5.402   2.545   3.002  0.8044 -0.7025  0.7553
16526TIP3    H270994   5.529   2.551   3.083  0.0818  0.9294  1.8155
16527TIP3   OH270995   6.386   1.764   4.221 -0.0176  0.0943  0.7358
16527TIP3    H170996   6.340   1.719   4.150  0.0438  0.3856  0.5119
16527TIP3    H270997   6.317   1.811   4.267 -0.1202 -0.4308  1.1253
16528TIP3   OH270998   1.564   2.582   6.533  0.3220 -0.4623  0.7219
16528TIP3    H170999   1.474   2.613   6.542 -0.0663 -1.5855  0.8553
16528TIP3    H271000   1.565   2.495   6.574  0.7870 -1.6457 -1.6019
16529TIP3   OH271001   1.411   2.005   2.514 -0.1298  0.1292  0.4721
16529TIP3    H171002   1.495   1.976   2.550 -0.0689 -0.3755 -0.0621
16529TIP3    H271003   1.433   2.040   2.427 -0.1643  2.0476  1.1912
16530TIP3   OH271004   0.432   6.195  11.655 -0.8553  0.1010  0.1799
16530TIP3    H171005   0.495   6.264  11.635  0.6211 -0.9837  0.8991
16530TIP3    H271006   0.461   6.161  11.740 -0.4330 -2.5799 -0.9546
16531TIP3   OH271007   4.027   1.058   1.107  0.2884  0.2308  0.4076
16531TIP3    H171008   4.015   1.014   1.023  0.5197  0.6919  0.1285
16531TIP3    H271009   4.095   1.008   1.151  1.6396  1.1627 -0.5269
16532TIP3   OH271010   5.406   3.971   5.503 -0.2350 -0.4761  0.1914
16532TIP3    H171011   5.467   4.032   5.544 -0.6421 -0.7394  1.2103
16532TIP3    H271012   5.344   4.027   5.456 -1.3044 -0.0096  2.0853
16533TIP3   OH271013   6.770   2.743  10.515 -0.5291 -0.0888 -0.1419
16533TIP3    H171014   6.750   2.653  10.490  0.0610  0.0680 -1.2564
16533TIP3    H271015   6.704   2.795  10.469 -1.3732  0.0184  1.1373
16534TIP3   OH271016   2.666   3.912  16.572 -0.0106 -0.1952 -0.3775
16534TIP3    H171017   2.600   3.966  16.529  0.8769  0.6822 -0.6601
16534TIP3    H271018   2.683   3.956  16.655 -1.2754 -1.5532  0.6511
16535TIP3   OH271019   1.302   3.252  11.644 -0.2832 -0.0566 -0.1312
16535TIP3    H171020   1.322   3.300  11.564 -3.1111  1.4014 -0.0733
16535TIP3    H271021   1.302   3.160  11.618 -1.0651  0.3864 -1.8125
16536TIP3   OH271022   5.325   2.135   1.689 -0.0104 -0.0343 -0.5774
16536TIP3    H171023   5.362   2.068   1.746  1.4168  1.9422  0.9484
16536TIP3    H271024   5.230   2.127   1.700  0.1595 -1.2638  0.1534
16537TIP3   OH271025   4.767   4.511  10.848  0.0669 -0.3276 -0.3575
16537TIP3    H171026   4.745   4.523  10.756 -0.0311 -1.3278 -0.4705
16537TIP3    H271027   4.863   4.517  10.850 -0.0017  1.3260 -0.2598
16538TIP3   OH271028   6.745   4.068  12.244  0.4909  0.2621  0.2095
16538TIP3    H171029   6.730   4.012  12.168  0.4096  0.9614 -0.2878
16538TIP3    H271030   6.745   4.007  12.318 -1.0357 -0.2278 -0.1595
16539TIP3   OH271031   1.631   3.306   3.784  0.1617  0.0113 -0.7107
16539TIP3    H171032   1.663   3.261   3.863  1.0691  2.5053  0.4567
16539TIP3    H271033   1.708   3.314   3.728  0.5495  1.9102  0.0376
16540TIP3   OH271034   6.554   3.970  16.805  0.3288 -0.0119  0.2796
16540TIP3    H171035   6.635   3.920  16.814 -0.0161 -0.4345  1.1934
16540TIP3    H271036   6.581   4.061  16.822  0.4004 -0.3147  2.0014
16541TIP3   OH271037   2.576   5.119   4.855  0.3564 -0.7069 -0.1999
16541TIP3    H171038   2.555   5.106   4.948  3.8302  1.1472  1.0402
16541TIP3    H271039   2.583   5.214   4.845  2.4574 -0.9492 -1.6848
16542TIP3   OH271040   2.937   0.564  12.266 -0.3041  0.1192  0.1575
16542TIP3    H171041   2.952   0.490  12.325 -0.4719  0.8098  1.0968
16542TIP3    H271042   2.946   0.641  12.323 -0.2651  0.8104 -0.7720
16543TIP3   OH271043   5.134   2.218   4.375 -0.3388 -0.3900  0.0233
16543TIP3    H171044   5.207   2.280   4.376  0.0562 -0.8547  0.5805
16543TIP3    H271045   5.055   2.273   4.381 -0.0605  0.1392 -1.0081
16544TIP3   OH271046   1.909   5.535  16.845  0.0502  0.0663  0.6381
16544TIP3    H171047   1.993   5.568  16.813 -1.0079  0.2149 -2.2711
16544TIP3    H271048   1.920   5.441  16.851  0.2940  0.0312 -0.2553
16545TIP3   OH271049   4.545   0.435  15.587  0.3163  0.5792  0.7514
16545TIP3    H171050   4.499   0.463  15.508  1.7444 -1.5169 -0.9265
16545TIP3    H271051   4.522   0.501  15.653 -1.1065  2.2723 -1.3160
16546TIP3   OH271052   4.019   1.220  11.880 -0.2393 -0.0677  0.1921
16546TIP3    H171053   4.040   1.309  11.854 -0.7638 -0.1928 -0.7174
16546TIP3    H271054   4.000   1.175  11.798  1.7013 -1.4897  0.4450
16547TIP3   OH271055   5.809   2.705   4.306  0.7438 -0.5018  0.2395
16547TIP3    H171056   5.784   2.794   4.333  1.8789 -0.0265 -0.2394
16547TIP3    H271057   5.891   2.688   4.351  1.1502 -0.8429 -0.6073
16548TIP3   OH271058   1.987   5.672  13.905 -0.2259  0.4667  0.3863
16548TIP3    H171059   2.082   5.669  13.897 -0.1313  1.9045  0.7202
16548TIP3    H271060   1.955   5.611  13.839  0.9198 -0.0851  0.3241
16549TIP3   OH271061   5.094   1.762  12.807 -0.6315 -0.1815 -0.0543
16549TIP3    H171062   5.085   1.846  12.853  1.8760 -0.9638  2.1022
16549TIP3    H271063   5.187   1.743  12.810 -0.9875 -2.5099 -1.5634
16550TIP3   OH271064   6.571   6.348   5.516 -0.2773  0.1769 -0.3797
16550TIP3    H171065   6.575   6.443   5.522  0.2903  0.1227  0.1858
16550TIP3    H271066   6.566   6.330   5.422 -2.6908  0.8380 -0.4602
16551TIP3   OH271067   4.182   0.576  14.870  0.3787  0.1897  1.2652
16551TIP3    H171068   4.130   0.530  14.936  0.0573  1.6602  2.0932
16551TIP3    H271069   4.271   0.578  14.906  0.7659 -1.1649  0.4640
16552TIP3   OH271070   2.080   1.741   2.597  0.2427  0.0338 -0.2378
16552TIP3    H171071   2.127   1.659   2.614  0.2075  0.5190  2.5351
16552TIP3    H271072   1.987   1.717   2.604  0.2122  0.1721 -0.1772
16553TIP3   OH271073   2.966   4.023   3.094 -0.4914  0.2894  0.4257
16553TIP3    H171074   2.888   4.040   3.041  0.3372  1.7060 -0.4227
16553TIP3    H271075   2.945   4.059   3.180 -0.3192  1.9217 -0.1820
16554TIP3   OH271076   0.980   1.740   2.051 -0.6143 -0.8032  0.2761
16554TIP3    H171077   0.906   1.680   2.062  0.0785 -2.0606 -1.4749
16554TIP3    H271078   1.043   1.691   1.998 -0.4446  1.8113 -2.1947
16555TIP3   OH271079   4.052   4.101  16.140  0.0207 -0.4946  0.1642
16555TIP3    H171080   4.113   4.073  16.071  0.5742 -1.2000  0.9105
16555TIP3    H271081   4.021   4.020  16.179  0.6081 -0.1085  1.4963
16556TIP3   OH271082   3.810   3.691   3.748  0.5647  0.4813  0.7187
16556TIP3    H171083   3.829   3.598   3.755 -1.0376  0.1198  0.5677
16556TIP3    H271084   3.760   3.712   3.826 -0.6304  0.7871 -0.0945
16557TIP3   OH271085   4.142   4.041   3.127  0.4968 -0.4682  0.4534
16557TIP3    H171086   4.197   4.117   3.107  0.8263 -0.4717  1.2719
16557TIP3    H271087   4.082   4.073   3.196 -1.0769 -0.2332 -0.9616
16558TIP3   OH271088   4.728   2.112   1.689 -0.6089  0.0534  0.2984
16558TIP3    H171089   4.749   2.054   1.763 -0.4961 -0.3737 -0.0603
16558TIP3    H271090   4.633   2.123   1.693 -0.8226 -1.3109 -0.4496
16559TIP3   OH271091   2.469   6.076   1.991  0.6374  0.0058  0.1091
16559TIP3    H171092   2.491   6.094   2.082 -0.2615 -1.5125  0.6741
16559TIP3    H271093   2.486   6.158   1.945  0.7131  0.9337  1.7168
16560TIP3   OH271094   3.940   4.707   2.835  0.1262  0.1194  0.1936
16560TIP3    H171095   3.921   4.624   2.791  0.6954  0.4894 -0.7852
16560TIP3    H271096   3.909   4.694   2.924 -0.6972 -0.8014 -0.1998
16561TIP3   OH271097   4.672   4.474   2.374 -0.0492 -0.2235 -0.0678
16561TIP3    H171098   4.630   4.468   2.288  0.9381 -0.2055 -0.5694
16561TIP3    H271099   4.763   4.446   2.358 -0.5848 -3.3154  1.5624
16562TIP3   OH271100   5.796   5.158   3.622 -0.0741  0.1264 -0.0441
16562TIP3    H171101   5.881   5.133   3.588  0.6880  0.2217  1.6563
16562TIP3    H271102   5.788   5.251   3.602  0.2098  0.1041 -0.2534
16563TIP3   OH271103   5.501   4.091   2.727 -0.4899 -0.0431 -0.1918
16563TIP3    H171104   5.436   4.160   2.742 -1.3278 -0.5269 -1.4882
16563TIP3    H271105   5.585   4.138   2.724 -0.8009  0.6485  1.0152
16564TIP3   OH271106   2.157   5.177   0.702  0.4658 -0.1300  0.1066
16564TIP3    H171107   2.114   5.138   0.626  0.9892  2.5232 -1.7153
16564TIP3    H271108   2.241   5.132   0.709 -0.6614 -2.2446  0.8828
16565TIP3   OH271109   3.374   5.804  10.696  0.5728  0.0414  1.0654
16565TIP3    H171110   3.391   5.806  10.601 -0.6806 -1.2305  0.7775
16565TIP3    H271111   3.383   5.895  10.724  0.6657  0.4860 -0.3297
16566TIP3   OH271112   0.534   2.846  11.630 -0.5715  0.2015 -0.4538
16566TIP3    H171113   0.621   2.831  11.667  0.0582  0.3082 -1.8480
16566TIP3    H271114   0.547   2.848  11.535 -2.0893  0.2595 -0.6970
16567TIP3   OH271115   2.679   1.293   4.017  0.3085  0.3067 -0.1617
16567TIP3    H171116   2.728   1.228   3.967 -0.1330  0.8098 -1.2739
16567TIP3    H271117   2.712   1.377   3.987 -1.4703  0.6702 -1.2561
16568TIP3   OH271118   4.841   1.112   1.800  0.3982  0.6031  0.0339
16568TIP3    H171119   4.904   1.047   1.768  0.0942 -0.0037  0.6227
16568TIP3    H271120   4.816   1.162   1.722  1.2131  0.5133 -0.2926
16569TIP3   OH271121   0.402   1.593  14.101  0.3374 -0.1364  0.1719
16569TIP3    H171122   0.494   1.577  14.084  0.3493  1.1475 -1.1158
16569TIP3    H271123   0.365   1.616  14.016 -1.0978 -0.2613  0.7312
16570TIP3   OH271124   3.315   2.322   4.554  0.3527 -0.5285 -0.0197
16570TIP3    H171125   3.263   2.395   4.522  2.5162  2.7520  3.0667
16570TIP3    H271126   3.390   2.318   4.496 -0.4855 -1.4137 -1.0853
16571TIP3   OH271127   1.865   5.759   0.736  0.2143  1.0105  0.6599
16571TIP3    H171128   1.838   5.783   0.825  0.5419  1.1426  0.7231
16571TIP3    H271129   1.791   5.707   0.703 -0.1824  1.4833  0.7827
16572TIP3   OH271130   3.017   3.491  13.117 -0.3423  0.6659 -0.6978
16572TIP3    H171131   3.112   3.478  13.108 -0.4692  0.1704 -1.4051
16572TIP3    H271132   3.000   3.574  13.073 -0.4141  0.1126 -1.7439
16573TIP3   OH271133   6.787   0.624  11.542 -0.0370  0.2744 -0.2193
16573TIP3    H171134   6.851   0.582  11.484  0.7696 -0.1840  0.9634
16573TIP3    H271135   6.706   0.577  11.524  0.8748 -2.0043  1.1724
16574TIP3   OH271136   1.609   5.741  12.497 -0.4690 -0.0440 -0.3860
16574TIP3    H171137   1.683   5.744  12.558 -1.4429  0.8325  0.8049
16574TIP3    H271138   1.601   5.830  12.464  0.7494 -0.7417 -2.7455
16575TIP3   OH271139   6.351   2.462   5.357  0.7956  0.8854  0.3509
16575TIP3    H171140   6.373   2.469   5.265  0.8338  1.3484  0.3906
16575TIP3    H271141   6.433   2.437   5.400  0.4453 -0.7902  0.0918
16576TIP3   OH271142   1.081   6.714  10.636  0.1231  0.4897  0.2437
16576TIP3    H171143   1.031   6.634  10.650  1.5811 -0.0925  2.7256
16576TIP3    H271144   1.053   6.772  10.707  0.4476  1.4867 -0.4230
16577TIP3   OH271145   0.693   4.153   1.072 -0.0851 -0.4874  0.0034
16577TIP3    H171146   0.727   4.067   1.099 -0.3516 -0.3493  0.7879
16577TIP3    H271147   0.733   4.215   1.133 -0.7213 -0.1763  0.1102
16578TIP3   OH271148   1.488   5.153  11.651 -0.3239 -0.4222 -0.4454
16578TIP3    H171149   1.404   5.109  11.661 -0.8921  1.0592  2.2609
16578TIP3    H271150   1.475   5.214  11.579 -2.1014  0.7444  0.7799
16579TIP3   OH271151   1.918   4.922  13.554 -0.0940  0.0627 -0.8051
16579TIP3    H171152   2.005   4.884  13.552 -0.0601  0.0688  0.3924
16579TIP3    H271153   1.932   5.015  13.573 -0.3984 -0.1007  0.2752
16580TIP3   OH271154   0.321   4.084  13.921 -0.4976  0.1260 -0.1477
16580TIP3    H171155   0.270   4.007  13.899  1.0523 -0.3189 -2.5240
16580TIP3    H271156   0.384   4.054  13.986 -1.5374  0.0629  0.8592
16581TIP3   OH271157   3.493   2.784  15.238 -0.2072  0.4289  0.2974
16581TIP3    H171158   3.561   2.717  15.231 -1.3430 -0.6654 -0.6100
16581TIP3    H271159   3.531   2.850  15.296  2.8005  1.2912 -2.3067
16582TIP3   OH271160   5.501   1.988   4.959 -0.0852  0.6182 -0.5605
16582TIP3    H171161   5.408   2.003   4.973  0.0263  0.1316  0.8763
16582TIP3    H271162   5.534   2.071   4.925 -0.8632  1.1351 -0.0961
16583TIP3   OH271163   4.294   5.415  12.602 -0.0813 -0.0459 -0.0783
16583TIP3    H171164   4.281   5.345  12.539 -0.2489 -1.0005  0.9812
16583TIP3    H271165   4.387   5.409  12.627  0.2178  0.9250 -0.9058
16584TIP3   OH271166   0.206   4.051   4.639  0.3311  0.8186  0.4155
16584TIP3    H171167   0.212   4.063   4.733  0.7499 -0.1842  0.5320
16584TIP3    H271168   0.204   3.956   4.627  0.1278  0.9324 -0.5765
16585TIP3   OH271169   1.707   0.763  16.732 -0.0569  0.5266 -0.0979
16585TIP3    H171170   1.700   0.781  16.638  0.0834  2.0917  0.1613
16585TIP3    H271171   1.710   0.850  16.772 -2.8097 -0.0279  1.5800
16586TIP3   OH271172   1.524   3.872   5.920  0.2586 -0.7731  0.0512
16586TIP3    H171173   1.560   3.894   6.005  0.8235 -1.2355 -0.0632
16586TIP3    H271174   1.551   3.782   5.904  0.2647 -0.6559 -0.6679
16587TIP3   OH271175   0.083   4.130   1.515 -0.4013  0.0935 -0.3450
16587TIP3    H171176   0.090   4.111   1.422 -1.7510 -0.7844 -0.2982
16587TIP3    H271177   0.021   4.204   1.519 -0.3187  0.1519 -0.1508
16588TIP3   OH271178   0.994   1.575  14.144 -0.0068 -0.5484  0.0277
16588TIP3    H171179   1.089   1.586  14.130 -0.2927 -0.8402 -2.8028
16588TIP3    H271180   0.954   1.645  14.092 -1.3712 -0.5413  1.0442
16589TIP3   OH271181   1.488   6.647  13.051  0.0248  0.1624  0.7624
16589TIP3    H171182   1.422   6.605  12.996  0.7359 -0.1544  0.1372
16589TIP3    H271183   1.496   6.736  13.015 -1.6990  1.0030  2.2720
16590TIP3   OH271184   2.622   3.741  11.681  0.0176  0.3277 -0.3967
16590TIP3    H171185   2.654   3.651  11.679  3.1319  1.2541  0.9750
16590TIP3    H271186   2.542   3.737  11.733  2.0193 -1.2419  2.8993
16591TIP3   OH271187   5.313   0.025   2.919  0.7364  0.6385  0.2409
16591TIP3    H171188   5.358   0.007   3.002 -0.0917  1.0846  0.8042
16591TIP3    H271189   5.351   0.107   2.888 -0.5148  1.7013  1.3616
16592TIP3   OH271190   1.746   4.991   2.707  0.2084  0.5740  0.0872
16592TIP3    H171191   1.773   4.969   2.618 -0.0346  0.4743  0.0351
16592TIP3    H271192   1.713   4.909   2.743  2.4937  0.0411  1.1106
16593TIP3   OH271193   1.166   3.592   3.790  0.1308 -0.4762 -0.0370
16593TIP3    H171194   1.235   3.533   3.760  0.0514 -0.0861 -1.0219
16593TIP3    H271195   1.098   3.534   3.824 -0.5365 -1.0713 -2.2292
16594TIP3   OH271196   4.360   0.995  16.181 -0.2600  0.6174 -0.1521
16594TIP3    H171197   4.446   0.955  16.191 -1.2255 -1.5705 -0.1883
16594TIP3    H271198   4.306   0.956  16.249 -1.4095  1.4815 -0.5238
16595TIP3   OH271199   0.431   0.446   4.994 -0.1646 -0.2767  0.2005
16595TIP3    H171200   0.337   0.458   5.001 -0.3255 -0.5441 -1.1121
16595TIP3    H271201   0.441   0.381   4.924  1.0476  1.4674 -1.3406
16596TIP3   OH271202   2.861   1.748   1.804  0.4145  0.4767 -0.0227
16596TIP3    H171203   2.816   1.721   1.724 -1.5674 -0.3390  1.2946
16596TIP3    H271204   2.896   1.835   1.783  0.4683  0.0389 -1.9399
16597TIP3   OH271205   2.750   1.530   2.713 -1.2275  0.6043  0.3232
16597TIP3    H171206   2.821   1.483   2.670 -0.7394 -0.4206  2.1187
16597TIP3    H271207   2.767   1.622   2.694  2.2202  0.6867  2.7545
16598TIP3   OH271208   2.428   4.345  12.334 -0.1826  0.3840 -0.0644
16598TIP3    H171209   2.480   4.391  12.269  1.2537 -1.8423 -0.5885
16598TIP3    H271210   2.492   4.305  12.393 -1.3909  0.0164  1.0541
16599TIP3   OH271211   3.211   3.219   5.117  0.4503  0.3291  0.8761
16599TIP3    H171212   3.208   3.261   5.031  0.0527 -0.6648  0.3911
16599TIP3    H271213   3.222   3.292   5.178  2.5477  0.9501 -0.1183
16600TIP3   OH271214   2.363   1.764   2.503 -0.6493  0.1687 -0.3274
16600TIP3    H171215   2.406   1.717   2.432  1.3965  1.2245  0.1111
16600TIP3    H271216   2.282   1.796   2.466 -1.3490 -2.2596 -1.1073
16601TIP3   OH271217   0.670   5.866  16.548  0.2161  0.2413 -0.3195
16601TIP3    H171218   0.586   5.827  16.527  0.5209  0.0976 -1.3273
16601TIP3    H271219   0.684   5.845  16.640 -1.0374  0.6368 -0.0272
16602TIP3   OH271220   0.266   3.772   0.792 -0.1922  0.1506  0.3699
16602TIP3    H171221   0.173   3.749   0.795 -0.5753 -0.0924 -4.7303
16602TIP3    H271222   0.308   3.695   0.754  1.2228  1.8657 -1.7849
16603TIP3   OH271223   2.997   1.600   3.532  0.0726  0.3402  0.1324
16603TIP3    H171224   2.989   1.516   3.487 -0.8513  1.0142 -0.9942
16603TIP3    H271225   3.092   1.611   3.544  0.2786 -0.2790 -0.8190
16604TIP3   OH271226   6.678   5.746  16.801  0.1285  0.8398 -0.1923
16604TIP3    H171227   6.666   5.727  16.894 -0.8927 -0.9017 -0.6476
16604TIP3    H271228   6.627   5.680  16.756  1.5220  0.9543 -2.0447
16605TIP3   OH271229   5.468   3.875  13.830  0.2485  0.1266 -0.3688
16605TIP3    H171230   5.512   3.934  13.769  2.5943  0.2400  1.2690
16605TIP3    H271231   5.518   3.884  13.911 -2.7360  0.0420  1.6392
16606TIP3   OH271232   4.814   4.852   3.099 -0.5223 -0.2314  0.0116
16606TIP3    H171233   4.793   4.931   3.149 -0.1671  1.1276 -1.8690
16606TIP3    H271234   4.881   4.809   3.151 -0.4497  0.9192  0.9225
16607TIP3   OH271235   4.718   3.189   5.924  0.0918  0.4790  0.1109
16607TIP3    H171236   4.708   3.166   6.016  1.1503 -0.2684  0.0502
16607TIP3    H271237   4.682   3.278   5.917 -1.7161 -0.1370  0.8663
16608TIP3   OH271238   3.416   1.906   0.449  0.0084 -0.3580  0.3467
16608TIP3    H171239   3.333   1.916   0.403 -0.2077 -1.0874  0.5667
16608TIP3    H271240   3.412   1.973   0.518  0.0791  0.3362 -0.3014
16609TIP3   OH271241   6.752   1.599  15.146 -0.0993  0.1297  0.6995
16609TIP3    H171242   6.698   1.677  15.137  1.5046  1.0838 -2.3545
16609TIP3    H271243   6.820   1.624  15.208  0.1861  1.0790  0.0256
16610TIP3   OH271244   5.131   1.323  13.561 -0.2100  0.4045  0.2132
16610TIP3    H171245   5.086   1.244  13.592  1.5070 -0.2990  1.0003
16610TIP3    H271246   5.092   1.394  13.613 -1.3678  0.0335 -0.1054
16611TIP3   OH271247   3.934   3.575   1.991 -0.4386 -0.8677  0.0335
16611TIP3    H171248   3.945   3.525   2.072 -1.7741  0.0055  0.7947
16611TIP3    H271249   3.888   3.515   1.932 -0.7041 -1.0399  0.4126
16612TIP3   OH271250   6.509   5.909  16.409  0.0480  0.0958  0.3197
16612TIP3    H171251   6.542   5.924  16.497 -1.4580  2.3133  0.5910
16612TIP3    H271252   6.553   5.974  16.354 -0.0540 -0.3365 -0.2936
16613TIP3   OH271253   0.821   6.259  16.559 -0.2780  0.2634  0.2965
16613TIP3    H171254   0.780   6.259  16.645 -0.0307 -1.1106  0.4268
16613TIP3    H271255   0.795   6.343  16.520 -2.4144 -0.1309  0.7342
16614TIP3   OH271256   0.751   1.288  12.211  0.5542 -0.3742  0.3050
16614TIP3    H171257   0.820   1.304  12.276 -1.0159  0.5485  1.8570
16614TIP3    H271258   0.738   1.193  12.213  2.1989 -0.6393 -0.5048
16615TIP3   OH271259   2.042   3.391   1.881  0.4255 -0.8204  0.7180
16615TIP3    H171260   1.985   3.359   1.812 -0.8406 -0.4646  1.5585
16615TIP3    H271261   1.983   3.433   1.943  1.8946  2.6611 -0.0175
16616TIP3   OH271262   4.405   2.088  13.015  0.5774 -0.3316  0.4115
16616TIP3    H171263   4.368   2.096  13.103 -0.8643  0.5400 -0.2361
16616TIP3    H271264   4.408   1.994  12.999 -3.3546 -0.5316 -0.2118
16617TIP3   OH271265   0.922   2.813   0.369 -0.4067  0.0077 -0.4833
16617TIP3    H171266   0.840   2.773   0.396 -1.3182  1.4715 -0.9420
16617TIP3    H271267   0.968   2.745   0.321 -1.7746 -0.5591 -1.0308
16618TIP3   OH271268   1.259   2.490   0.990 -0.2857  0.5475  0.0611
16618TIP3    H171269   1.225   2.545   0.919 -0.3687  1.0486  0.4817
16618TIP3    H271270   1.204   2.412   0.988 -0.7874  0.8916  0.0577
16619TIP3   OH271271   2.599   5.885   0.971 -0.0465  0.4155  0.0682
16619TIP3    H171272   2.512   5.861   0.939  0.1592 -0.8740  0.4288
16619TIP3    H271273   2.605   5.979   0.953 -1.3183  0.4383 -0.4024
16620TIP3   OH271274   1.649   5.709   4.702  0.0249 -0.0279 -0.2383
16620TIP3    H171275   1.604   5.625   4.708  4.1051 -2.5484 -0.6787
16620TIP3    H271276   1.629   5.742   4.614 -3.0660  0.5257  0.5790
16621TIP3   OH271277   0.140   2.345  14.278 -0.2843  0.3634 -0.1651
16621TIP3    H171278   0.223   2.298  14.277  0.3455  1.4402 -0.4842
16621TIP3    H271279   0.145   2.400  14.356 -1.5185 -0.9397  0.8745
16622TIP3   OH271280   0.210   4.254   2.199 -0.8401  0.0622 -0.1129
16622TIP3    H171281   0.201   4.306   2.279 -1.3591 -1.1746  0.6732
16622TIP3    H271282   0.138   4.190   2.204 -1.4612  0.5618 -2.0529
16623TIP3   OH271283   2.949   1.171   2.398 -0.0365 -0.3463 -0.3951
16623TIP3    H171284   3.015   1.236   2.374  0.2019  0.0211  1.1689
16623TIP3    H271285   2.917   1.199   2.483 -0.7071 -1.6842 -0.1806
16624TIP3   OH271286   6.587   0.260  16.020  0.3090  0.0852 -0.2882
16624TIP3    H171287   6.563   0.170  15.998  1.8228 -0.3847 -0.1014
16624TIP3    H271288   6.527   0.314  15.968 -0.6643 -1.0072 -0.3511
16625TIP3   OH271289   2.025   0.383   5.205  0.2573 -0.1835  0.5958
16625TIP3    H171290   2.100   0.344   5.250  0.4315 -1.2090 -0.5500
16625TIP3    H271291   1.969   0.415   5.276  0.9083 -1.0287  1.5216
16626TIP3   OH271292   2.233   1.975  14.808 -0.1869  0.2067 -0.3875
16626TIP3    H171293   2.306   1.914  14.818 -0.2870  0.2884  0.9992
16626TIP3    H271294   2.223   2.016  14.894 -0.6344  1.6098 -1.0668
16627TIP3   OH271295   0.516   0.229   5.160  0.4730 -0.7205  0.1328
16627TIP3    H171296   0.479   0.168   5.096  1.6037 -1.0907 -0.2054
16627TIP3    H271297   0.500   0.316   5.122  0.1821 -0.8862 -0.1283
16628TIP3   OH271298   5.976   5.344   1.888 -0.5006  0.4967  0.2733
16628TIP3    H171299   6.018   5.425   1.860  0.9917 -0.8596 -1.6848
16628TIP3    H271300   6.048   5.285   1.907 -1.5517 -0.2025  2.3476
16629TIP3   OH271301   3.025   2.231  13.052 -0.6012 -0.1460 -0.0602
16629TIP3    H171302   3.004   2.248  13.143 -2.8571  1.0315 -0.7307
16629TIP3    H271303   3.024   2.317  13.010  2.7111 -0.3587 -0.8476
16630TIP3   OH271304   5.292   3.186  14.326 -0.0401 -0.1485 -0.1410
16630TIP3    H171305   5.349   3.117  14.362  1.8488  1.6891  0.5650
16630TIP3    H271306   5.204   3.160  14.354  0.7834 -1.4782  1.4108
16631TIP3   OH271307   3.793   6.261  11.063  0.0611 -0.3753  0.2160
16631TIP3    H171308   3.866   6.295  11.011  0.6835 -2.6093 -0.5057
16631TIP3    H271309   3.733   6.334  11.070  0.2670  0.2922 -3.1337
16632TIP3   OH271310   1.202   1.930  12.909  0.2021 -0.4625  0.0649
16632TIP3    H171311   1.133   1.883  12.955 -0.2385  1.1745  1.1560
16632TIP3    H271312   1.183   1.916  12.816 -1.3686 -0.3629  0.3522
16633TIP3   OH271313   0.389   4.283   5.876  0.2421 -0.1499 -0.3541
16633TIP3    H171314   0.392   4.323   5.964 -0.5275 -1.8193  0.4796
16633TIP3    H271315   0.305   4.312   5.840 -0.0193 -0.4732 -0.0160
16634TIP3   OH271316   6.682   5.640   0.482 -0.2105 -0.3618  0.0477
16634TIP3    H171317   6.667   5.670   0.392  0.3158  0.6394  0.2825
16634TIP3    H271318   6.596   5.648   0.524 -0.1960  0.3409 -0.0384
16635TIP3   OH271319   5.316   5.410   2.871 -0.1032  0.2547 -0.4326
16635TIP3    H171320   5.244   5.473   2.867  0.5769  1.0342 -0.5492
16635TIP3    H271321   5.273   5.325   2.881 -1.1044  0.5361 -2.0272
16636TIP3   OH271322   0.022   6.658   4.801  0.8855 -0.4500  0.5666
16636TIP3    H171323  -0.032   6.609   4.740 -0.0013  1.8231 -0.5842
16636TIP3    H271324   0.051   6.593   4.865 -2.9663 -1.8789  1.1340
16637TIP3   OH271325   5.956   0.013   5.650  0.6552  0.3785 -0.0011
16637TIP3    H171326   6.045  -0.005   5.621  0.3077  0.7195 -1.3491
16637TIP3    H271327   5.929   0.091   5.600 -0.0013  0.9756  1.2294
16638TIP3   OH271328   6.691   1.109  12.830 -0.1917 -0.3760 -0.5618
16638TIP3    H171329   6.600   1.081  12.815 -1.4394  1.2508  2.9658
16638TIP3    H271330   6.716   1.067  12.912  1.1667  1.4840  0.0525
16639TIP3   OH271331   5.347   2.850   5.580  0.1749  0.2523  0.6985
16639TIP3    H171332   5.275   2.907   5.554 -1.6279 -1.6226  1.2916
16639TIP3    H271333   5.347   2.852   5.675  1.2580  0.5993  0.7111
16640TIP3   OH271334   2.051   2.592  16.878  0.4459  0.1027  0.2461
16640TIP3    H171335   2.065   2.606  16.784 -0.9710 -1.0754 -0.1885
16640TIP3    H271336   2.115   2.649  16.921  1.6304  0.1203 -1.4349
16641TIP3   OH271337   4.288   3.318   1.020 -0.3439  0.2758 -0.2588
16641TIP3    H171338   4.235   3.314   0.940 -1.4693 -0.1118  0.4810
16641TIP3    H271339   4.378   3.326   0.989 -0.9017  2.1545 -1.5656
16642TIP3   OH271340   4.666   3.272  14.379  0.0478  0.2311 -0.7343
16642TIP3    H171341   4.622   3.200  14.424 -0.9814  0.6372 -1.0532
16642TIP3    H271342   4.679   3.338  14.447  0.1519  0.1189 -0.6440
16643TIP3   OH271343   2.433   1.275   6.120 -0.2882  0.3383  0.2743
16643TIP3    H171344   2.425   1.223   6.200 -0.4115  1.4130  0.9866
16643TIP3    H271345   2.503   1.338   6.139 -1.2719  1.5376  0.0937
16644TIP3   OH271346   2.762   0.515  16.673  0.5143  0.4102 -0.3166
16644TIP3    H171347   2.742   0.527  16.580  1.4453  1.3355 -0.4143
16644TIP3    H271348   2.708   0.580  16.718 -0.0656 -0.1526 -0.1798
16645TIP3   OH271349   0.157   0.019  12.284 -0.3489  0.0959  0.0082
16645TIP3    H171350   0.190  -0.064  12.249 -1.5011 -0.1449 -0.5376
16645TIP3    H271351   0.209   0.086  12.239  0.6662 -0.3253  0.5389
16646TIP3   OH271352   5.175   6.621  11.586  0.1283  0.1272  0.4477
16646TIP3    H171353   5.242   6.670  11.634 -1.0391  1.5099  0.7328
16646TIP3    H271354   5.106   6.605  11.650  0.9876 -3.0893  0.7246
16647TIP3   OH271355   3.584   2.875   1.044 -0.1614  0.5174  0.4463
16647TIP3    H171356   3.502   2.917   1.019  0.0417  1.1492  0.8204
16647TIP3    H271357   3.558   2.810   1.110 -0.4446  0.2235  0.0498
16648TIP3   OH271358   4.621   2.573   0.742  0.1788  0.2518 -0.0076
16648TIP3    H171359   4.606   2.647   0.801 -3.4982  1.2544 -1.8675
16648TIP3    H271360   4.709   2.543   0.763 -0.0310  1.8894  4.3852
16649TIP3   OH271361   1.458   4.466   4.373  0.5172  0.2114  0.3395
16649TIP3    H171362   1.511   4.489   4.450 -0.7576 -0.2312  1.3860
16649TIP3    H271363   1.429   4.376   4.390  2.0309 -0.7375 -1.7363
16650TIP3   OH271364   1.373   0.782  12.798 -0.0729  0.0501 -0.2964
16650TIP3    H171365   1.399   0.760  12.887 -0.2296 -0.1065 -0.2892
16650TIP3    H271366   1.451   0.821  12.759 -0.8912  3.2741  0.9685
16651TIP3   OH271367   0.255   6.375   1.647 -0.2451 -0.2889 -0.5406
16651TIP3    H171368   0.184   6.371   1.711 -0.6317 -0.5110 -0.9765
16651TIP3    H271369   0.322   6.429   1.689 -1.0119  0.6252 -0.4636
16652TIP3   OH271370   5.519   5.117  14.721  0.1704 -0.5565 -0.2856
16652TIP3    H171371   5.458   5.059  14.766 -0.3530 -1.0167 -1.5273
16652TIP3    H271372   5.600   5.066  14.714  0.7499  0.0750  1.4108
16653TIP3   OH271373   1.695   3.833   4.335  0.5088 -0.3301 -0.5197
16653TIP3    H171374   1.626   3.893   4.366  0.1286 -0.8850 -0.2807
16653TIP3    H271375   1.650   3.750   4.321  1.3662 -1.0978  0.9829
16654TIP3   OH271376   1.232   6.000  11.704 -0.6397  0.5022 -0.6265
16654TIP3    H171377   1.155   6.057  11.693 -0.2671  0.8429 -1.6599
16654TIP3    H271378   1.306   6.061  11.709 -0.3966  0.1640 -0.0031
16655TIP3   OH271379   1.242   2.069  11.918 -0.0030  0.1001 -0.2049
16655TIP3    H171380   1.178   2.096  11.984 -0.7414 -1.0386 -0.4353
16655TIP3    H271381   1.190   2.027  11.849  0.7499  1.2058 -1.5056
16656TIP3   OH271382   6.699   0.626  12.557 -0.1324 -0.0890  0.0406
16656TIP3    H171383   6.639   0.679  12.504  0.5502  0.5060 -0.1584
16656TIP3    H271384   6.687   0.658  12.646 -0.4100 -0.2571  0.0632
16657TIP3   OH271385   3.872   6.024   1.971  0.5541  0.6659  0.2788
16657TIP3    H171386   3.913   5.951   1.926  2.2116  0.2841  2.2772
16657TIP3    H271387   3.778   6.010   1.959  0.8770 -0.0038 -2.0211
16658TIP3   OH271388   6.568   4.316   4.902  0.4807 -0.2270  0.1294
16658TIP3    H171389   6.512   4.390   4.926  0.9061  0.3473 -0.5989
16658TIP3    H271390   6.609   4.289   4.984 -0.8054 -0.6251  0.6678
16659TIP3   OH271391   1.774   1.596  12.526  0.3878 -0.2597  0.0218
16659TIP3    H171392   1.748   1.688  12.531  0.4763 -0.2286 -0.0953
16659TIP3    H271393   1.869   1.597  12.536  0.4093 -0.3223 -0.1729
16660TIP3   OH271394   5.715   1.505   1.401 -0.4591 -0.0059 -0.2968
16660TIP3    H171395   5.780   1.526   1.468 -1.9992  1.4103  0.8383
16660TIP3    H271396   5.766   1.486   1.323  1.3074  2.2958  0.1979
16661TIP3   OH271397   5.091   6.589  15.690  0.1384  0.0783  0.2873
16661TIP3    H171398   5.131   6.662  15.643  1.9795 -0.4930  0.8904
16661TIP3    H271399   5.124   6.510  15.647  0.2116 -0.4227  1.2129
16662TIP3   OH271400   1.124   5.704  12.683  0.3666 -0.0212 -0.5430
16662TIP3    H171401   1.211   5.676  12.711 -0.0558 -0.5779  0.2483
16662TIP3    H271402   1.082   5.736  12.763 -0.6456 -1.0641 -0.6426
16663TIP3   OH271403   0.529   2.420  12.023  0.1835 -0.1277 -0.1731
16663TIP3    H171404   0.552   2.490  12.084  1.1677 -0.4204 -0.1897
16663TIP3    H271405   0.506   2.346  12.079 -0.9494  0.2181 -0.1552
16664TIP3   OH271406   2.050   4.179  16.575 -1.0840  0.2639  0.0558
16664TIP3    H171407   2.040   4.094  16.532 -0.4084 -0.0574  0.5273
16664TIP3    H271408   2.079   4.159  16.664 -2.5643  0.9271  0.7199
16665TIP3   OH271409   0.628   3.483   2.882 -0.0788  0.5265  0.6898
16665TIP3    H171410   0.643   3.564   2.834  0.5485 -1.2369 -2.3292
16665TIP3    H271411   0.538   3.459   2.863  1.0768 -1.9002 -2.7783
16666TIP3   OH271412   3.789   4.529   3.414  0.4634 -0.0529  0.5426
16666TIP3    H171413   3.828   4.450   3.376 -0.0013 -0.3350  0.6423
16666TIP3    H271414   3.802   4.597   3.347  1.0597 -0.1508  0.5463
16667TIP3   OH271415   3.774   1.304  13.928 -0.4620 -0.0497 -0.0982
16667TIP3    H171416   3.758   1.245  13.854 -1.9639 -0.6917  0.6991
16667TIP3    H271417   3.773   1.247  14.005 -2.9475  1.0653  0.7997
16668TIP3   OH271418   3.179   0.568   0.600  0.2441 -0.6020 -0.1494
16668TIP3    H171419   3.195   0.556   0.507  0.3769 -2.8786  0.1284
16668TIP3    H271420   3.151   0.483   0.631 -1.0310  0.4212  1.6762
16669TIP3   OH271421   6.387   2.354  13.799  0.2785 -0.0128 -0.1942
16669TIP3    H171422   6.297   2.353  13.832  0.1713 -1.8145 -0.4484
16669TIP3    H271423   6.384   2.301  13.720  1.4020  0.6629 -0.7160
16670TIP3   OH271424   6.255   0.254  15.103  0.0826 -0.0627 -1.0661
16670TIP3    H171425   6.300   0.338  15.104 -2.4943  1.4670  0.6694
16670TIP3    H271426   6.268   0.218  15.191 -0.6476 -0.3831 -1.0758
16671TIP3   OH271427   2.411   1.591   2.274 -0.1744 -0.0276 -0.1910
16671TIP3    H171428   2.384   1.503   2.299 -0.0088  0.3751  1.5179
16671TIP3    H271429   2.488   1.577   2.218 -1.1179 -0.9938 -1.3023
16672TIP3   OH271430   6.737   4.281  15.621 -0.2979  0.3259 -0.7339
16672TIP3    H171431   6.642   4.273  15.606 -0.1336 -1.6146 -0.9493
16672TIP3    H271432   6.777   4.229  15.551  0.9023  0.4511 -0.1637
16673TIP3   OH271433   3.375   3.233  11.506 -0.1553  0.1573  0.5657
16673TIP3    H171434   3.362   3.224  11.601 -1.0159  0.3019  0.4697
16673TIP3    H271435   3.390   3.326  11.493  0.0583  0.1233  0.5714
16674TIP3   OH271436   4.935   5.608  15.244 -0.2245 -0.2230  0.0180
16674TIP3    H171437   5.003   5.588  15.308 -0.0993 -1.6916 -0.5294
16674TIP3    H271438   4.970   5.575  15.161 -0.7941  0.7707 -0.6376
16675TIP3   OH271439   4.511   3.020   4.046 -0.0851  0.6361  0.1534
16675TIP3    H171440   4.586   3.041   3.990  1.1924  0.5534  1.7741
16675TIP3    H271441   4.462   3.102   4.050  0.9641  1.2724  0.5887
16676TIP3   OH271442   2.303   5.303   1.140  0.3895 -0.3473 -0.5246
16676TIP3    H171443   2.235   5.248   1.100 -0.4700 -0.2660  0.7530
16676TIP3    H271444   2.281   5.392   1.112 -0.6592 -0.1995  0.6736
16677TIP3   OH271445   3.765   1.438   2.461  0.1771  0.3817 -0.1365
16677TIP3    H171446   3.844   1.386   2.445  0.4707  0.8090 -0.1176
16677TIP3    H271447   3.786   1.488   2.540 -0.7547 -0.7298  0.8373
16678TIP3   OH271448   6.715   3.390  15.471 -0.2450 -0.2348  0.2243
16678TIP3    H171449   6.689   3.467  15.420 -0.8647 -1.8071 -1.9701
16678TIP3    H271450   6.733   3.425  15.558 -0.6703  2.3615 -0.6239
16679TIP3   OH271451   3.601   4.206   4.524 -0.5876 -0.5501 -0.2623
16679TIP3    H171452   3.650   4.176   4.600  1.1814  1.0171 -0.7137
16679TIP3    H271453   3.528   4.144   4.517 -0.7058 -0.8858  2.5431
16680TIP3   OH271454   5.492   3.238   4.715  0.2198 -0.0119  0.0708
16680TIP3    H171455   5.540   3.171   4.763  2.8249  0.7146 -1.3365
16680TIP3    H271456   5.544   3.318   4.726 -1.5627  1.2517 -0.2019
16681TIP3   OH271457   2.354   0.837  16.254 -0.4144  0.4132 -0.4057
16681TIP3    H171458   2.307   0.893  16.316 -1.1175  1.1320 -1.5576
16681TIP3    H271459   2.377   0.895  16.181  0.0278 -0.5007 -1.0170
16682TIP3   OH271460   4.276   2.694   3.071  0.0180  0.2791 -0.2330
16682TIP3    H171461   4.231   2.639   3.135 -0.5632  0.4515 -0.4838
16682TIP3    H271462   4.299   2.773   3.119  2.2809 -0.7861  0.5686
16683TIP3   OH271463   5.778   3.808   0.112 -0.1363 -0.1056 -0.1649
16683TIP3    H171464   5.788   3.865   0.036  1.4004 -0.0298  0.0634
16683TIP3    H271465   5.739   3.728   0.077  0.8675 -0.2048 -1.1011
16684TIP3   OH271466   2.659   5.041  10.955  0.1699 -0.2777  0.7900
16684TIP3    H171467   2.598   5.031  11.028  0.0849 -0.4646  0.6959
16684TIP3    H271468   2.737   4.992  10.982  0.2797 -0.0318  0.9137
16685TIP3   OH271469   5.792   4.039  10.885 -0.1051  0.1429  0.3676
16685TIP3    H171470   5.728   4.109  10.874 -1.3107 -0.7928  1.0825
16685TIP3    H271471   5.741   3.959  10.879  1.3026 -0.7218 -0.8453
16686TIP3   OH271472   1.900   0.798   2.338  0.7079 -0.0543 -0.1585
16686TIP3    H171473   1.993   0.815   2.351  0.5319  0.8960 -0.0106
16686TIP3    H271474   1.893   0.766   2.248  1.1174  0.4248 -0.3624
16687TIP3   OH271475   0.192   5.695  16.678  0.4778 -0.6051 -0.0508
16687TIP3    H171476   0.133   5.701  16.603  0.3132 -0.4732  0.0879
16687TIP3    H271477   0.136   5.712  16.754  0.6873 -0.5096  0.0836
16688TIP3   OH271478   2.784   2.292   2.823  0.2308  0.1865  0.0098
16688TIP3    H171479   2.818   2.381   2.832  1.3415 -0.2956  0.7707
16688TIP3    H271480   2.788   2.256   2.912  0.3971 -0.8270 -0.4004
16689TIP3   OH271481   6.086   6.605   6.527 -0.2253 -0.9639 -0.0240
16689TIP3    H171482   6.068   6.511   6.533 -0.3856 -0.9569 -0.3781
16689TIP3    H271483   6.178   6.613   6.554  0.4346 -1.4868 -1.9506
16690TIP3   OH271484   0.424   5.283  15.180  0.1567  0.2767 -0.0366
16690TIP3    H171485   0.455   5.229  15.108 -0.4118 -0.1877  0.0614
16690TIP3    H271486   0.499   5.290  15.239  0.5073  0.3459 -0.4841
16691TIP3   OH271487   6.672   6.038   0.535 -0.7336 -0.1638 -0.0826
16691TIP3    H171488   6.619   5.998   0.604 -1.3018  0.1307 -0.3402
16691TIP3    H271489   6.641   5.996   0.455  0.7287 -1.3632 -0.0659
16692TIP3   OH271490   3.589   4.217   2.703  0.5741 -0.1233  0.2939
16692TIP3    H171491   3.579   4.194   2.611  1.2561 -0.0532  0.1948
16692TIP3    H271492   3.562   4.309   2.707  0.5307 -0.1299  0.1647
16693TIP3   OH271493   2.605   4.906  11.623  0.0597  0.2790 -0.4932
16693TIP3    H171494   2.677   4.849  11.595  0.6718 -0.0805  1.6841
16693TIP3    H271495   2.635   4.945  11.705 -0.7874  2.9399 -1.3408
16694TIP3   OH271496   3.004   6.004  15.492  0.3307 -0.1983 -0.2907
16694TIP3    H171497   2.954   5.958  15.560  1.2358  0.3614  0.7971
16694TIP3    H271498   2.998   5.948  15.415 -1.4682 -0.4291 -0.0402
16695TIP3   OH271499   6.307   0.893  13.960 -0.3729  0.2363  0.6727
16695TIP3    H171500   6.319   0.951  14.035  1.8667  0.4928  0.1891
16695TIP3    H271501   6.232   0.930  13.912 -0.8038  1.0004  1.9007
16696TIP3   OH271502   4.256   0.759  14.506 -0.1232  0.6866  0.2600
16696TIP3    H171503   4.218   0.788  14.589  0.0303 -3.1792  1.9134
16696TIP3    H271504   4.181   0.748  14.448 -1.0934 -2.0091  1.8585
16697TIP3   OH271505   4.739   5.372   1.380  0.4141  0.1440  0.5008
16697TIP3    H171506   4.695   5.456   1.368 -0.3970 -0.0513  1.9540
16697TIP3    H271507   4.686   5.325   1.444  0.6110 -1.6715 -0.5869
16698TIP3   OH271508   2.966   6.463  12.215  0.0158 -0.2527  0.0018
16698TIP3    H171509   2.924   6.390  12.169 -0.9956  1.0680 -1.2775
16698TIP3    H271510   3.051   6.472  12.172 -0.8636  0.8755 -1.6309
16699TIP3   OH271511   5.100   6.547   5.326  0.4551  0.0256 -0.1208
16699TIP3    H171512   5.149   6.580   5.401  0.5752  0.1187 -0.2405
16699TIP3    H271513   5.106   6.617   5.261 -2.4627  1.4799  0.9677
16700TIP3   OH271514   3.536   3.433   0.382 -0.1542 -0.1311 -0.1462
16700TIP3    H171515   3.592   3.472   0.314 -1.0618  0.8534 -0.3568
16700TIP3    H271516   3.447   3.459   0.357 -0.3863  2.0575  2.5279
16701TIP3   OH271517   1.485   5.403   3.608  0.1748 -0.3263  0.6651
16701TIP3    H171518   1.428   5.453   3.550  1.0121 -0.1939 -0.0596
16701TIP3    H271519   1.511   5.466   3.675 -1.1854 -0.6075  1.4993
16702TIP3   OH271520   1.876   3.437  12.909 -0.6058  0.8956  0.1395
16702TIP3    H171521   1.869   3.530  12.890  0.9474  0.5604 -2.4917
16702TIP3    H271522   1.831   3.394  12.836  1.6765 -0.4386 -0.5672
16703TIP3   OH271523   0.992   6.523  16.641 -0.3419  0.1037  0.1924
16703TIP3    H171524   1.074   6.542  16.597 -0.0561  0.5142  0.8918
16703TIP3    H271525   1.018   6.490  16.727 -0.9132  1.3923  0.8817
16704TIP3   OH271526   2.986   1.921   0.871  0.2996 -0.0028  0.1782
16704TIP3    H171527   3.022   1.948   0.786 -1.0361 -3.0294 -1.5076
16704TIP3    H271528   3.057   1.870   0.912 -0.5485 -2.7311 -1.4571
16705TIP3   OH271529   3.434   0.359  13.201 -0.2731  0.6273  0.0163
16705TIP3    H171530   3.374   0.346  13.127  0.7893  1.1177 -0.9714
16705TIP3    H271531   3.385   0.329  13.277 -2.3929  2.4870 -0.4899
16706TIP3   OH271532   4.061   1.271  12.710 -0.2754  0.0297  0.2553
16706TIP3    H171533   4.031   1.266  12.801  0.4722 -1.0064  0.4620
16706TIP3    H271534   4.138   1.214  12.707 -0.4175 -0.1217 -1.0810
16707TIP3   OH271535   2.902   2.441   0.184 -0.1506 -0.6283 -0.6948
16707TIP3    H171536   2.977   2.490   0.149 -2.1631  1.1544 -2.8690
16707TIP3    H271537   2.840   2.509   0.210 -1.6444 -2.0498 -0.4130
16708TIP3   OH271538   5.097   5.765   6.353 -0.1320  0.1479 -0.2312
16708TIP3    H171539   5.182   5.731   6.323  0.4436 -1.2643  2.6753
16708TIP3    H271540   5.119   5.834   6.415 -1.1447  0.3791 -0.1069
16709TIP3   OH271541   2.357   2.572   6.778  0.5212 -1.0121 -0.0354
16709TIP3    H171542   2.416   2.501   6.751  0.2819 -1.0766 -0.4003
16709TIP3    H271543   2.406   2.619   6.845  1.1458 -0.8308 -0.6023
16710TIP3   OH271544   6.672   3.082  16.919 -0.1610  0.0932 -0.3430
16710TIP3    H171545   6.750   3.028  16.931  1.1031  1.2512 -2.6694
16710TIP3    H271546   6.639   3.058  16.832 -0.2939  2.1305 -0.9012
16711TIP3   OH271547   3.927   2.730  15.302  0.2849  0.6406  0.3550
16711TIP3    H171548   3.978   2.733  15.383 -1.6134  0.7337  1.6137
16711TIP3    H271549   3.869   2.806  15.308 -0.7284 -0.0531 -0.5053
16712TIP3   OH271550   1.266   4.542   1.950  0.4575  0.0193  0.5548
16712TIP3    H171551   1.206   4.469   1.962  1.5908 -0.8582  1.0282
16712TIP3    H271552   1.216   4.607   1.900 -0.5592 -1.0786  0.1225
16713TIP3   OH271553   1.059   0.398  11.422 -0.0893  0.1443 -0.4928
16713TIP3    H171554   1.004   0.410  11.345 -1.0774  1.2829  0.3543
16713TIP3    H271555   1.002   0.419  11.496  0.2679 -2.6667  0.7358
16714TIP3   OH271556   0.087   4.478  12.948 -0.5952 -0.3362 -0.1861
16714TIP3    H171557   0.144   4.426  13.004  1.7314  0.5948 -1.5306
16714TIP3    H271558   0.138   4.490  12.868 -0.8406  4.1310  0.0920
16715TIP3   OH271559   3.325   4.909  16.533  0.9950  0.0808  0.1211
16715TIP3    H171560   3.307   4.836  16.474  1.9630 -0.6956  0.7542
16715TIP3    H271561   3.406   4.948  16.498  0.4495  0.9066 -0.2504
16716TIP3   OH271562   1.665   1.830  10.835  0.3333 -0.4501  0.2745
16716TIP3    H171563   1.712   1.869  10.909 -0.3157 -0.3256  0.6217
16716TIP3    H271564   1.676   1.735  10.848 -3.2963 -0.6985  2.9545
16717TIP3   OH271565   6.569   3.152  12.362 -0.1093  0.3603 -0.1314
16717TIP3    H171566   6.521   3.104  12.430 -1.0946  0.1997 -0.9172
16717TIP3    H271567   6.661   3.136  12.382 -0.3953 -0.4432  0.6243
16718TIP3   OH271568   4.524   1.910  12.460  0.4287 -0.4018  0.6090
16718TIP3    H171569   4.453   1.862  12.417  1.6812 -3.2340  1.5186
16718TIP3    H271570   4.596   1.909  12.397  0.3074  0.9051  0.4052
16719TIP3   OH271571   1.436   0.485  10.993 -0.1673  0.0427  0.4865
16719TIP3    H171572   1.436   0.580  11.007 -0.6386  0.0648  0.3334
16719TIP3    H271573   1.362   0.469  10.935  0.1383 -0.3748  0.2018
16720TIP3   OH271574   6.571   1.572   1.897  0.0429 -0.1225  0.5304
16720TIP3    H171575   6.501   1.617   1.849 -0.7945 -1.1810  0.7065
16720TIP3    H271576   6.561   1.480   1.873 -0.4412 -0.7109  2.7199
16721TIP3   OH271577   2.327   0.428  16.008  0.5246  0.3726 -0.0059
16721TIP3    H171578   2.290   0.495  16.066 -0.9590 -1.9116  1.8390
16721TIP3    H271579   2.250   0.386  15.968  1.4041 -0.5526 -0.7773
16722TIP3   OH271580   6.620   3.771  13.436 -0.0800 -0.0976 -0.3313
16722TIP3    H171581   6.650   3.767  13.345  0.7102 -1.5468 -0.0509
16722TIP3    H271582   6.540   3.824  13.433 -0.5431 -0.8199 -2.0059
16723TIP3   OH271583   4.413   4.489   3.599  0.1424 -0.1427 -0.0756
16723TIP3    H171584   4.332   4.438   3.610  0.2386 -0.5399 -1.0976
16723TIP3    H271585   4.397   4.570   3.648 -1.6172  0.5880 -1.7087
16724TIP3   OH271586   3.605   0.848   6.041 -0.2509  0.1354 -0.6746
16724TIP3    H171587   3.581   0.884   6.126 -1.3671  0.2640 -1.0300
16724TIP3    H271588   3.667   0.778   6.061  0.4510  0.9841  0.1520
16725TIP3   OH271589   3.887   2.732  13.639  0.0721  0.1827  0.3078
16725TIP3    H171590   3.878   2.810  13.584  0.8544 -0.6990 -1.1654
16725TIP3    H271591   3.797   2.702  13.654 -0.3347  2.0653  2.0448
16726TIP3   OH271592   4.334   4.457   2.017  0.5201 -0.1521  0.0644
16726TIP3    H171593   4.399   4.525   2.001 -0.2401  0.2318 -1.6359
16726TIP3    H271594   4.268   4.470   1.949 -0.6233 -1.4051  0.8769
16727TIP3   OH271595   2.626   0.976  10.999 -0.6018 -0.4288 -0.3212
16727TIP3    H171596   2.658   1.024  10.923  0.7288  0.1927  0.5742
16727TIP3    H271597   2.611   0.887  10.968  0.0809 -0.2263 -1.2610
16728TIP3   OH271598   1.082   3.371  16.600  0.5429 -0.1423 -0.1099
16728TIP3    H171599   1.130   3.307  16.548 -0.3192  0.1171 -1.2615
16728TIP3    H271600   1.025   3.415  16.537  0.1338  0.8179  0.9024
16729TIP3   OH271601   2.961   3.300  13.318 -0.1618  0.2249  0.1406
16729TIP3    H171602   2.990   3.371  13.261  0.6081 -0.4404 -0.3186
16729TIP3    H271603   3.005   3.316  13.401 -0.8667  0.8949  0.4023
16730TIP3   OH271604   2.675   5.104  13.080 -0.3844  0.7026 -0.0667
16730TIP3    H171605   2.686   5.023  13.029  1.2100  0.6037  0.4050
16730TIP3    H271606   2.592   5.140  13.049  0.2980  0.4067 -2.4164
16731TIP3   OH271607   5.089   2.424   0.106 -0.6424  0.0470  0.0961
16731TIP3    H171608   5.040   2.505   0.117 -0.3393  0.4851 -1.4225
16731TIP3    H271609   5.153   2.445   0.038 -0.3085 -1.3580 -0.0443
16732TIP3   OH271610   1.040   1.271  17.155  0.4123 -0.2034 -0.1743
16732TIP3    H171611   0.970   1.276  17.090 -0.2111 -0.0664  0.4964
16732TIP3    H271612   1.109   1.328  17.121 -0.0904  0.2206 -0.4856
16733TIP3   OH271613   5.025   0.611  16.279  0.4238 -0.0010  0.5219
16733TIP3    H171614   5.096   0.653  16.231 -0.6792  0.1341 -1.0845
16733TIP3    H271615   5.039   0.517  16.266  0.3274  0.0254  0.2142
16734TIP3   OH271616   2.214   6.590  16.869 -0.5315 -0.1467  0.0458
16734TIP3    H171617   2.209   6.658  16.803 -1.8469  0.0189  0.2847
16734TIP3    H271618   2.274   6.624  16.935 -1.5886  1.0321  0.4254
16735TIP3   OH271619   0.979   1.919  13.277  0.6196  0.0133  0.0077
16735TIP3    H171620   0.945   1.855  13.339 -0.0191 -0.0047 -0.3520
16735TIP3    H271621   0.901   1.964  13.243  1.1215  2.2348  1.5703
16736TIP3   OH271622   3.686   3.726  16.648  0.1774  0.3051 -0.3654
16736TIP3    H171623   3.664   3.779  16.572  0.4001 -0.5327 -1.0335
16736TIP3    H271624   3.627   3.650  16.642 -0.8543  0.9306  1.1253
16737TIP3   OH271625   4.894   4.902   2.055 -0.2837 -0.3610  0.1903
16737TIP3    H171626   4.838   4.827   2.073 -0.2687 -0.2619  0.6570
16737TIP3    H271627   4.977   4.881   2.097 -0.3055 -0.0475  0.3931
16738TIP3   OH271628   0.468   4.071  11.546 -0.6445 -0.5223 -0.0794
16738TIP3    H171629   0.480   3.985  11.506  0.5834  0.2982 -1.5821
16738TIP3    H271630   0.485   4.134  11.476 -1.2704  0.9658  1.0307
16739TIP3   OH271631   1.756   2.879   6.526  0.0898 -0.2998  0.2443
16739TIP3    H171632   1.694   2.888   6.598  0.7288  0.5846  0.6955
16739TIP3    H271633   1.755   2.963   6.482  0.3006 -0.5746 -0.2898
16740TIP3   OH271634   1.664   2.986   4.795  0.1104 -0.0601 -0.6306
16740TIP3    H171635   1.755   2.970   4.771  0.4700 -1.3526  1.4186
16740TIP3    H271636   1.613   2.932   4.735  0.5692  1.3958 -2.4304
16741TIP3   OH271637   5.808   1.390   2.168  0.2781  0.7121  0.0823
16741TIP3    H171638   5.723   1.350   2.147 -0.0537  0.4413  1.8475
16741TIP3    H271639   5.871   1.319   2.153 -0.0705  0.1875  1.0018
16742TIP3   OH271640   1.364   2.460  14.084 -0.5053 -0.4609 -0.4862
16742TIP3    H171641   1.332   2.521  14.151 -2.5940 -1.5608 -0.4131
16742TIP3    H271642   1.342   2.503  14.001 -1.9784 -1.0772 -0.4352
16743TIP3   OH271643   1.889   2.263   5.499  0.1973 -0.5498 -0.5182
16743TIP3    H171644   1.839   2.344   5.514 -0.0371 -0.0352 -3.4125
16743TIP3    H271645   1.846   2.198   5.555 -1.3135  0.7330 -0.1006
16744TIP3   OH271646   1.153   0.357  14.037  0.2854  0.0316  0.5085
16744TIP3    H171647   1.135   0.356  14.131 -2.2896 -0.7889  0.1016
16744TIP3    H271648   1.193   0.272  14.018  0.1082 -0.1062  0.7531
16745TIP3   OH271649   1.291   2.434   5.416  0.0531 -0.4025  0.1290
16745TIP3    H171650   1.352   2.419   5.488 -1.7156  0.9186  2.0042
16745TIP3    H271651   1.239   2.353   5.411  0.0170 -0.4038  0.5165
16746TIP3   OH271652   1.920   4.737   3.452  0.5525  0.6236  0.2266
16746TIP3    H171653   1.983   4.740   3.380  0.5090  0.5669  0.1858
16746TIP3    H271654   1.970   4.705   3.527  0.7552  1.2993  0.3862
16747TIP3   OH271655   3.593   2.293  15.525  0.8735 -0.0580  0.0386
16747TIP3    H171656   3.685   2.299  15.550  1.4522  3.5348 -2.2610
16747TIP3    H271657   3.594   2.248  15.441  0.6934  0.6633 -0.3644
16748TIP3   OH271658   5.394   6.163   1.662  0.2963 -0.0361  0.4919
16748TIP3    H171659   5.349   6.100   1.718 -0.8993 -0.8825 -1.3524
16748TIP3    H271660   5.453   6.209   1.722 -0.8613 -0.9258  2.4272
16749TIP3   OH271661   5.338   2.860   2.947  0.2697  0.3003 -0.1436
16749TIP3    H171662   5.399   2.807   2.998 -0.9639 -1.0125  0.0143
16749TIP3    H271663   5.261   2.869   3.003 -1.2467 -1.4506 -1.7872
16750TIP3   OH271664   2.764   4.545   3.489  0.3353 -0.0567  0.0256
16750TIP3    H171665   2.743   4.606   3.418  0.1142 -0.7458 -0.5212
16750TIP3    H271666   2.852   4.568   3.516  0.4400  0.1868 -0.5139
16751TIP3   OH271667   3.013   1.719  16.215 -0.1986 -0.1880  0.2854
16751TIP3    H171668   3.038   1.742  16.126  1.4382  0.1622  0.8068
16751TIP3    H271669   2.999   1.624  16.212 -0.8818 -0.0727 -0.4938
16752TIP3   OH271670   1.573   5.113   0.244 -0.1021 -0.4585 -0.0379
16752TIP3    H171671   1.596   5.169   0.170 -1.3665 -1.8083 -1.5606
16752TIP3    H271672   1.580   5.169   0.321 -2.0066  2.0107 -1.5260
16753TIP3   OH271673   4.869   5.934   3.816  0.2374  0.3818 -0.0343
16753TIP3    H171674   4.861   6.017   3.863  1.3627  1.1921 -1.2204
16753TIP3    H271675   4.848   5.954   3.725 -0.0020 -0.7545 -0.2534
16754TIP3   OH271676   5.883   3.603   6.121  0.0895 -0.9263  0.4805
16754TIP3    H171677   5.971   3.600   6.159  0.9250 -0.8074 -1.3812
16754TIP3    H271678   5.847   3.686   6.153  1.2188 -0.2552  0.0943
16755TIP3   OH271679   4.697   4.009   0.294  0.0959 -0.7310 -0.0852
16755TIP3    H171680   4.742   3.951   0.233 -0.4207 -1.5573  0.2969
16755TIP3    H271681   4.604   3.994   0.277 -0.0599  0.3983 -0.3516
16756TIP3   OH271682   5.957   2.004   1.613  0.8081  0.0147  0.1128
16756TIP3    H171683   5.912   1.997   1.697  0.9432 -1.8283  0.0737
16756TIP3    H271684   5.982   2.097   1.607  1.2785  0.0954  2.3517
16757TIP3   OH271685   5.336   2.048  13.995  0.0155 -0.0411 -0.0127
16757TIP3    H171686   5.255   2.008  13.963  0.1447 -0.0179 -0.3741
16757TIP3    H271687   5.376   2.087  13.917 -0.0455  0.6792  0.3010
16758TIP3   OH271688   4.068   4.811   1.288  0.1569 -0.2030  0.1571
16758TIP3    H171689   4.162   4.810   1.271  0.0937 -0.7710 -0.1779
16758TIP3    H271690   4.061   4.791   1.381  0.4264  1.2867  0.5221
16759TIP3   OH271691   2.249   4.843  13.855  0.1915 -0.6428  0.4003
16759TIP3    H171692   2.307   4.785  13.904 -0.2907 -1.9417 -0.5028
16759TIP3    H271693   2.166   4.795  13.848 -0.1183 -0.0032 -0.6576
16760TIP3   OH271694   3.496   3.882  14.523 -0.3197  0.2011  0.2194
16760TIP3    H171695   3.487   3.977  14.530  1.6772  0.4216  0.2931
16760TIP3    H271696   3.556   3.868  14.450 -1.1331 -1.0642 -0.2535
16761TIP3   OH271697   6.008   4.300   0.982 -0.2525  0.2384 -0.5873
16761TIP3    H171698   6.082   4.241   0.979 -1.5208 -1.5477  0.9957
16761TIP3    H271699   6.027   4.360   1.054 -0.2805 -0.1277 -0.2753
16762TIP3   OH271700   2.143   4.221  16.254  0.4873 -0.2097  0.1085
16762TIP3    H171701   2.113   4.253  16.339 -1.4341  0.4310 -0.7297
16762TIP3    H271702   2.234   4.195  16.268 -0.1524 -1.3468  2.6471
16763TIP3   OH271703   2.449   2.672   2.154 -0.3912  0.2721  0.8011
16763TIP3    H171704   2.393   2.749   2.157 -2.6937 -1.3304  0.8068
16763TIP3    H271705   2.438   2.630   2.239 -1.0579 -1.3152 -0.0344
16764TIP3   OH271706   5.110   5.666  11.773  0.3735 -0.1573  0.1152
16764TIP3    H171707   5.071   5.744  11.733  0.7808  0.6920  1.3213
16764TIP3    H271708   5.204   5.677  11.760  0.5318  0.2557  1.4708
16765TIP3   OH271709   5.231   2.101   2.796 -0.2056  0.1607  1.2149
16765TIP3    H171710   5.200   2.056   2.875 -0.5897  0.0544  1.0048
16765TIP3    H271711   5.320   2.067   2.782  0.0899  0.6072  1.9296
16766TIP3   OH271712   5.671   3.260  17.035 -0.4366 -0.3906  0.4595
16766TIP3    H171713   5.581   3.289  17.028  0.0418  1.1159  0.1623
16766TIP3    H271714   5.674   3.208  17.116 -0.8171  2.6395  2.5927
16767TIP3   OH271715   6.383   3.028   4.076  0.1728  0.2626  0.5504
16767TIP3    H171716   6.377   3.096   4.009 -3.6458 -1.1738 -0.7905
16767TIP3    H271717   6.456   2.974   4.048  1.0966  1.8376 -0.2506
16768TIP3   OH271718   2.962   5.632   1.568  0.6224 -0.1933  0.4422
16768TIP3    H171719   2.873   5.661   1.552  0.0836 -2.2150 -0.6482
16768TIP3    H271720   3.015   5.680   1.503  0.2354  0.4854  0.6190
16769TIP3   OH271721   5.779   3.794   5.239 -0.8300  0.5641  0.1471
16769TIP3    H171722   5.801   3.832   5.325 -0.2696  1.7494 -0.4874
16769TIP3    H271723   5.824   3.851   5.176  0.0762 -1.2006 -0.8793
16770TIP3   OH271724   2.835   0.910  13.368  0.1064 -0.0989 -0.2762
16770TIP3    H171725   2.910   0.885  13.422 -1.1449 -2.0847  0.6708
16770TIP3    H271726   2.836   0.847  13.295 -1.8971 -1.7877  1.0095
16771TIP3   OH271727   2.624   2.095   6.028 -0.2600 -0.6693 -0.0842
16771TIP3    H171728   2.576   2.140   6.098 -1.4849 -0.3174 -1.1191
16771TIP3    H271729   2.698   2.054   6.073 -0.3481  0.5328  1.2265
16772TIP3   OH271730   0.201   1.752   3.242 -0.2977  0.0077 -1.0363
16772TIP3    H171731   0.168   1.665   3.264  1.7181 -0.1429  1.8149
16772TIP3    H271732   0.149   1.812   3.296 -0.8159  0.5027 -2.0502
16773TIP3   OH271733   1.147   1.507   2.466 -1.0972  0.0074 -0.1984
16773TIP3    H171734   1.183   1.422   2.441  0.8306  0.5594  0.5124
16773TIP3    H271735   1.145   1.557   2.385  1.4292  0.5017 -0.0383
16774TIP3   OH271736   3.603   6.448  14.596 -0.2398 -0.0866  0.1668
16774TIP3    H171737   3.580   6.356  14.589  0.2393 -0.1822 -0.3248
16774TIP3    H271738   3.539   6.486  14.655 -0.0483 -0.8714  0.8913
16775TIP3   OH271739   0.763   4.883   3.908  0.0515  0.3782 -0.3882
16775TIP3    H171740   0.841   4.827   3.912  0.8312  1.4630  0.0390
16775TIP3    H271741   0.693   4.824   3.880  0.8477 -0.8089  0.0388
16776TIP3   OH271742   1.169   2.135   2.460  0.3386  0.1041 -0.4845
16776TIP3    H171743   1.260   2.160   2.451 -0.2770  2.6807 -0.4294
16776TIP3    H271744   1.170   2.055   2.513  2.4776  0.9800  0.9022
16777TIP3   OH271745   5.725   3.613  14.235  0.3465  0.4349 -0.0393
16777TIP3    H171746   5.819   3.597  14.229  0.3208 -0.0017  0.5881
16777TIP3    H271747   5.693   3.606  14.145  1.0372  1.3967 -0.3706
16778TIP3   OH271748   4.976   3.819   3.831 -0.3673 -0.3987 -0.0483
16778TIP3    H171749   4.985   3.845   3.740 -0.0691 -1.5568 -0.3662
16778TIP3    H271750   4.950   3.727   3.827 -1.3895 -0.1821  1.0235
16779TIP3   OH271751   0.905   3.107  14.231 -0.1162  0.1950 -0.0272
16779TIP3    H171752   0.866   3.193  14.248  1.3208  1.2905 -1.8527
16779TIP3    H271753   0.842   3.062  14.175  0.2219  1.1166 -1.1959
16780TIP3   OH271754   0.064   6.497   5.931 -0.2481  0.1090 -0.1806
16780TIP3    H171755   0.137   6.435   5.934  0.1539  0.4330 -1.9381
16780TIP3    H271756   0.032   6.501   6.021  1.9828  0.0565  0.6810
16781TIP3   OH271757   1.285   3.644  13.595  0.2985  0.0056  0.0143
16781TIP3    H171758   1.297   3.622  13.688  0.4940 -1.9158 -0.4212
16781TIP3    H271759   1.345   3.584  13.549  1.7493  2.3053 -1.2767
16782TIP3   OH271760   3.242   5.711  14.419 -0.0144  0.3751  0.6049
16782TIP3    H171761   3.187   5.788  14.405  0.7060  0.4021 -3.1009
16782TIP3    H271762   3.220   5.652  14.347  2.3839 -1.0953  0.9566
16783TIP3   OH271763   2.072   6.716   5.817  0.4534  0.3512  0.1396
16783TIP3    H171764   2.014   6.696   5.890 -1.3909  3.7736 -0.1719
16783TIP3    H271765   2.050   6.652   5.750 -1.5512  0.2934  0.7960
16784TIP3   OH271766   3.213   0.524   3.458 -0.0829  0.0968  0.1425
16784TIP3    H171767   3.132   0.493   3.417 -1.1998  0.0866  2.1818
16784TIP3    H271768   3.260   0.444   3.480 -1.9058 -0.3030  3.3419
16785TIP3   OH271769   5.650   1.889   1.522  1.1803 -0.1287  0.2018
16785TIP3    H171770   5.672   1.977   1.553  0.1715  0.3785 -0.4298
16785TIP3    H271771   5.728   1.860   1.474  0.9368  1.1276 -1.0136
16786TIP3   OH271772   2.351   4.183   5.810  0.2572  0.6385  0.1384
16786TIP3    H171773   2.333   4.227   5.893 -0.0737 -0.2886  0.5674
16786TIP3    H271774   2.354   4.254   5.746 -1.2362  1.2035  0.6437
16787TIP3   OH271775   1.247   6.233   6.565  0.5536  0.0612 -0.4983
16787TIP3    H171776   1.172   6.284   6.535  0.6666  0.6067  0.1211
16787TIP3    H271777   1.284   6.284   6.637 -0.1339 -1.5162  1.0692
16788TIP3   OH271778   1.269   4.504   1.524 -0.0164 -0.0213 -0.3887
16788TIP3    H171779   1.282   4.472   1.435  0.4178  1.1432 -0.7659
16788TIP3    H271780   1.204   4.445   1.562 -0.0716 -0.6395 -1.4099
16789TIP3   OH271781   3.364   3.042   5.512 -0.6465  0.0678  0.4954
16789TIP3    H171782   3.339   3.074   5.598  0.9606  1.1654  0.5980
16789TIP3    H271783   3.459   3.030   5.517 -0.6394 -0.6769 -0.8633
16790TIP3   OH271784   6.764   1.250   1.329  0.4597 -0.2078 -0.2689
16790TIP3    H171785   6.733   1.330   1.372  1.5444  0.0244  0.1175
16790TIP3    H271786   6.858   1.249   1.346  0.6446 -0.9735 -1.2527
16791TIP3   OH271787   6.560   6.267  13.633 -0.5399 -0.3746  0.0891
16791TIP3    H171788   6.479   6.223  13.659 -1.3457  0.7333 -0.4800
16791TIP3    H271789   6.575   6.239  13.543 -0.6249 -0.0925 -0.0123
16792TIP3   OH271790   6.009   3.622   2.959  0.0201 -0.0189 -1.0864
16792TIP3    H171791   6.029   3.701   3.009 -1.0907  1.1719 -2.4290
16792TIP3    H271792   6.086   3.566   2.971  1.0843  1.4929 -0.5510
16793TIP3   OH271793   1.690   6.332  11.201  0.1426 -0.5096 -0.0655
16793TIP3    H171794   1.761   6.396  11.202 -0.6701  0.4599 -1.2192
16793TIP3    H271795   1.662   6.324  11.292  0.7300  0.2277  0.1837
16794TIP3   OH271796   1.374   0.574  12.584  0.2508 -0.0336  0.6916
16794TIP3    H171797   1.356   0.612  12.670  1.0833  1.6364  0.1744
16794TIP3    H271798   1.321   0.626  12.523  1.5476  0.4654 -0.0616
16795TIP3   OH271799   5.801   1.646  12.024  0.3599 -0.0979  0.3059
16795TIP3    H171800   5.808   1.575  12.087  0.5761 -2.1143 -1.8570
16795TIP3    H271801   5.746   1.611  11.954  1.7495  1.2553 -1.5904
16796TIP3   OH271802   0.256   4.748   6.273  0.1743 -0.3077  0.1901
16796TIP3    H171803   0.350   4.735   6.269  0.0026 -2.0189  0.8794
16796TIP3    H271804   0.239   4.820   6.212  1.7329 -0.9925 -1.1172
16797TIP3   OH271805   2.761   5.949  13.187  0.4369 -0.4193 -0.2213
16797TIP3    H171806   2.830   6.014  13.181 -0.7776  1.0589  1.0730
16797TIP3    H271807   2.774   5.893  13.110  0.9987  1.8508 -1.8766
16798TIP3   OH271808   6.097   1.852   3.524  0.4684  0.2469  0.4946
16798TIP3    H171809   6.012   1.809   3.522 -0.4124  1.8811  0.5498
16798TIP3    H271810   6.087   1.922   3.589  2.4785 -0.7110  1.9221
16799TIP3   OH271811   3.982   1.357   5.685 -0.6598 -0.2417 -0.0866
16799TIP3    H171812   3.974   1.452   5.692 -2.6002 -0.4339  0.9364
16799TIP3    H271813   3.902   1.323   5.725  0.1604 -2.3286 -0.0945
16800TIP3   OH271814   1.729   6.357   3.210 -0.4629 -0.2044 -0.2165
16800TIP3    H171815   1.821   6.347   3.189 -0.1964 -0.3409  0.9365
16800TIP3    H271816   1.723   6.443   3.253 -0.7900 -0.4037  0.1451
16801TIP3   OH271817   2.940   0.763  12.439 -0.0014 -0.3724  0.5715
16801TIP3    H171818   2.921   0.764  12.533 -0.4675 -0.6689  0.4849
16801TIP3    H271819   2.862   0.800  12.398 -0.8851 -2.5550  0.1350
16802TIP3   OH271820   3.917   2.867   3.611 -0.0774  0.6755  0.7176
16802TIP3    H171821   3.865   2.918   3.674  1.3144  2.1254  0.7604
16802TIP3    H271822   3.998   2.847   3.658 -0.8445 -2.2656  0.9367
16803TIP3   OH271823   5.021   6.548  12.467 -0.2334 -0.1221  0.0377
16803TIP3    H171824   5.065   6.551  12.382  0.8071  1.0702  0.5934
16803TIP3    H271825   5.078   6.493  12.521  0.4288  1.1365  0.6551
16804TIP3   OH271826   3.773   1.731  15.396 -0.9735 -0.4658  0.4135
16804TIP3    H171827   3.705   1.749  15.461 -0.0169  2.0072  0.8457
16804TIP3    H271828   3.738   1.763  15.314 -0.3250  0.9465  0.6639
16805TIP3   OH271829   1.474   2.171  11.571 -0.8358 -0.4923  0.1104
16805TIP3    H171830   1.446   2.174  11.663 -0.3567 -0.5090  0.2549
16805TIP3    H271831   1.408   2.116  11.528 -0.5115 -1.3072  0.6391
16806TIP3   OH271832   0.879   6.389  12.336 -0.4801  0.4886 -0.3024
16806TIP3    H171833   0.828   6.362  12.413 -0.2685  1.0058  0.0184
16806TIP3    H271834   0.819   6.376  12.262 -0.4079 -0.8194 -0.1646
16807TIP3   OH271835   2.504   3.719   0.862 -0.3774 -0.4228  0.2224
16807TIP3    H171836   2.512   3.686   0.951  0.9327 -0.1735  0.2120
16807TIP3    H271837   2.568   3.790   0.856 -1.2483  0.3318 -0.5776
16808TIP3   OH271838   6.227   2.993  11.646 -0.5850 -0.3367 -0.3023
16808TIP3    H171839   6.184   3.033  11.571  0.1734  3.0139  0.8788
16808TIP3    H271840   6.209   3.052  11.719 -1.5334 -3.5582  2.3338
16809TIP3   OH271841   2.291   1.635   3.544 -0.1259 -0.1156 -0.5009
16809TIP3    H171842   2.375   1.602   3.511  0.2440  0.4321 -0.1219
16809TIP3    H271843   2.249   1.672   3.467 -0.1090 -0.5654 -0.7327
16810TIP3   OH271844   2.721   1.986  11.304 -0.5211  0.2156  0.1218
16810TIP3    H171845   2.710   2.021  11.216  0.9299  0.7650  0.1457
16810TIP3    H271846   2.770   2.054  11.351 -0.7298 -0.3461  1.1701
16811TIP3   OH271847   3.382   1.783  14.423 -0.4290 -0.2138  0.2238
16811TIP3    H171848   3.450   1.753  14.363  0.2526 -0.2228  0.9757
16811TIP3    H271849   3.425   1.850  14.476 -1.9133  2.2420 -1.4667
16812TIP3   OH271850   6.187   5.953   0.572  0.2577 -0.1203  0.0863
16812TIP3    H171851   6.117   5.967   0.507  1.2283 -0.9271 -1.1943
16812TIP3    H271852   6.254   5.904   0.524  1.4110  0.0383  1.4754
16813TIP3   OH271853   2.768   3.751   1.805  0.5251  0.4042 -0.3808
16813TIP3    H171854   2.754   3.808   1.882  0.0521  1.6207 -1.3335
16813TIP3    H271855   2.854   3.775   1.773  0.0758  1.0448 -1.1429
16814TIP3   OH271856   4.803   2.952   6.131  0.0188  0.1992  0.1020
16814TIP3    H171857   4.842   2.946   6.044 -0.2207  2.7593 -0.2438
16814TIP3    H271858   4.878   2.952   6.191  0.1519 -2.7202  0.0706
16815TIP3   OH271859   1.326   5.677  15.599 -0.3953 -0.1034 -0.2259
16815TIP3    H171860   1.368   5.684  15.685 -0.7281 -3.2973  0.3366
16815TIP3    H271861   1.233   5.671  15.619 -0.5634  0.1621 -0.9161
16816TIP3   OH271862   0.767   1.474   3.822 -0.4410 -0.2427 -0.2341
16816TIP3    H171863   0.772   1.570   3.828  1.3194 -0.3967  1.8014
16816TIP3    H271864   0.788   1.455   3.730  0.8126  1.2768 -0.3124
16817TIP3   OH271865   0.472   1.626   5.458 -0.3569  0.1214 -0.4300
16817TIP3    H171866   0.501   1.568   5.529 -1.1468  0.0540 -0.1584
16817TIP3    H271867   0.501   1.582   5.378 -0.5020 -0.3980 -0.2021
16818TIP3   OH271868   2.186   3.614   2.087 -0.5326  0.7839 -0.3957
16818TIP3    H171869   2.117   3.548   2.096 -0.5477  0.7831 -0.5128
16818TIP3    H271870   2.149   3.680   2.030 -0.5239  0.9050 -0.2615
16819TIP3   OH271871   5.223   6.002  14.968  0.6075  0.4218 -0.2777
16819TIP3    H171872   5.144   5.997  14.916  1.3127 -0.1752 -1.3239
16819TIP3    H271873   5.272   5.923  14.946  0.7827 -0.0330  1.5543
16820TIP3   OH271874   2.742   4.738   6.047  0.1153  0.3192  0.5662
16820TIP3    H171875   2.772   4.663   6.098  2.0749  0.4522 -0.2730
16820TIP3    H271876   2.782   4.814   6.091 -0.7957  0.7541  0.6669
16821TIP3   OH271877   6.169   1.694   0.724  0.2793 -0.1741  0.1449
16821TIP3    H171878   6.171   1.677   0.818  1.0795 -0.3731  0.1013
16821TIP3    H271879   6.082   1.666   0.696 -0.7382  1.8004  1.1660
16822TIP3   OH271880   3.097   0.089   0.070 -0.3363 -0.2965  0.0197
16822TIP3    H171881   3.069   0.033   0.142  0.0147 -0.1814  0.2486
16822TIP3    H271882   3.019   0.098   0.015 -1.1500  1.1375  1.3613
16823TIP3   OH271883   5.237   5.606  14.899 -0.3760 -0.0572  0.3893
16823TIP3    H171884   5.280   5.527  14.865 -1.0588 -0.4408  0.4150
16823TIP3    H271885   5.258   5.674  14.834 -0.0006 -0.3156  0.2346
16824TIP3   OH271886   2.509   5.182   2.477 -0.2027  0.2090 -0.2763
16824TIP3    H171887   2.475   5.233   2.551 -0.4679  1.8585 -1.4842
16824TIP3    H271888   2.593   5.147   2.509  0.6876  2.5629  0.1917
16825TIP3   OH271889   5.136   1.271  11.736  0.6157 -0.2170  0.0227
16825TIP3    H171890   5.102   1.289  11.649  0.8283 -0.5158 -0.1250
16825TIP3    H271891   5.200   1.201  11.723  2.1685  1.1203  0.0986
16826TIP3   OH271892   4.068   3.281  16.361 -0.1009  0.0997  0.2699
16826TIP3    H171893   4.062   3.192  16.395 -0.5537  0.7469  2.0039
16826TIP3    H271894   4.122   3.327  16.426 -3.1387  2.0440  1.6358
16827TIP3   OH271895   4.071   0.629   0.427 -0.3985 -0.5319  0.6951
16827TIP3    H171896   4.008   0.568   0.466 -0.0729 -0.9882  0.5267
16827TIP3    H271897   4.139   0.639   0.494  0.8832 -2.4140 -0.2115
16828TIP3   OH271898   0.083   0.308  15.699 -0.0240 -0.3052 -0.1770
16828TIP3    H171899   0.027   0.285  15.625 -0.6393 -0.3329  0.2888
16828TIP3    H271900   0.172   0.295  15.667 -0.3096 -2.7551 -0.1379
16829TIP3   OH271901   6.120   4.576   0.251 -0.1219  0.1885  0.2157
16829TIP3    H171902   6.200   4.587   0.199 -0.4602  0.1991 -0.3081
16829TIP3    H271903   6.089   4.488   0.228 -0.6521  0.4636 -0.1348
16830TIP3   OH271904   5.496   0.198  12.754 -0.1033  0.3123 -0.2724
16830TIP3    H171905   5.562   0.267  12.757 -1.8257  2.0567 -0.6180
16830TIP3    H271906   5.453   0.202  12.839  0.5658 -1.1978  0.1629
16831TIP3   OH271907   2.189   3.959  15.047 -0.5923 -0.2009  0.4912
16831TIP3    H171908   2.190   3.924  14.958  1.7381  1.2583 -0.1577
16831TIP3    H271909   2.278   3.946  15.079 -1.0521  0.4180  2.1480
16832TIP3   OH271910   6.697   3.585  11.417  0.1370 -0.1061 -0.6319
16832TIP3    H171911   6.642   3.609  11.342  2.5641 -1.0326 -2.8593
16832TIP3    H271912   6.752   3.662  11.432 -0.2371  0.0208  0.1368
16833TIP3   OH271913   1.504   2.512   5.919 -0.1055 -0.1068 -0.2658
16833TIP3    H171914   1.597   2.508   5.900 -0.1431  1.6415 -0.9891
16833TIP3    H271915   1.487   2.604   5.938 -2.2042  0.2273 -3.1283
16834TIP3   OH271916   1.711   0.768  14.101 -0.0766  0.1141 -0.0232
16834TIP3    H171917   1.642   0.786  14.038 -0.6177  2.3839  1.0894
16834TIP3    H271918   1.775   0.838  14.087  0.1709  0.2016  1.3885
16835TIP3   OH271919   6.738   0.626  17.036  0.3000  0.2673 -0.0673
16835TIP3    H171920   6.820   0.583  17.058 -0.0908  0.4354  1.8920
16835TIP3    H271921   6.725   0.607  16.943  0.0232 -4.1604  0.6175
16836TIP3   OH271922   2.950   5.116   0.990  0.0033  0.3409  0.9133
16836TIP3    H171923   2.930   5.204   1.023  0.1668  0.3153  1.0826
16836TIP3    H271924   2.865   5.073   0.984 -0.0529  0.4293  1.0688
16837TIP3   OH271925   1.706   2.511  14.026 -0.6094 -0.0492 -0.6851
16837TIP3    H171926   1.666   2.428  14.000  1.6700 -1.4246 -0.1189
16837TIP3    H271927   1.705   2.509  14.121 -0.0150  0.2985 -0.6681
16838TIP3   OH271928   0.018   3.848  12.420 -0.0229  0.0802 -0.3504
16838TIP3    H171929   0.109   3.818  12.428  0.4588  1.7611  1.4271
16838TIP3    H271930  -0.005   3.879  12.508 -1.8236  1.0091 -1.0886
16839TIP3   OH271931   6.720   3.099  17.192 -0.0835 -0.2014 -0.6132
16839TIP3    H171932   6.651   3.123  17.255 -0.4619 -1.6145 -0.4688
16839TIP3    H271933   6.676   3.101  17.108 -1.1706 -3.9140 -0.2837
16840TIP3   OH271934   1.736   5.143  14.625  0.0563  0.1469 -0.5775
16840TIP3    H171935   1.757   5.128  14.533 -2.1196 -1.3984 -0.8796
16840TIP3    H271936   1.780   5.071  14.671 -0.5196 -0.2596 -0.6552
16841TIP3   OH271937   0.382   1.949   5.567  0.1582 -0.2422 -0.1099
16841TIP3    H171938   0.331   2.029   5.581 -2.6095 -1.8397 -0.5133
16841TIP3    H271939   0.453   1.976   5.508  0.2632  2.2061  1.0186
16842TIP3   OH271940   0.338   5.144  11.226 -0.4705 -0.6772  0.0487
16842TIP3    H171941   0.393   5.093  11.166  0.6148 -0.6742  0.9922
16842TIP3    H271942   0.319   5.083  11.297  0.9360  0.2058  1.2525
16843TIP3   OH271943   3.914   2.390   3.411 -0.0452  0.1147  0.1317
16843TIP3    H171944   3.937   2.309   3.456  3.3253 -0.7883 -2.7098
16843TIP3    H271945   3.872   2.444   3.477  0.7149 -2.6373  3.0910
16844TIP3   OH271946   4.125   2.590  12.852  0.1296 -0.1660  0.1772
16844TIP3    H171947   4.163   2.652  12.791 -1.0788 -1.1016 -1.6134
16844TIP3    H271948   4.104   2.641  12.930 -0.6539  1.6422 -1.1629
16845TIP3   OH271949   0.258   5.543   1.406 -0.5011 -0.0024  0.2548
16845TIP3    H171950   0.189   5.507   1.462 -0.9390 -2.3649 -1.6217
16845TIP3    H271951   0.325   5.474   1.404 -0.2764  0.2299 -1.6708
16846TIP3   OH271952   1.826   5.809  15.163  0.7041 -0.5396 -0.5287
16846TIP3    H171953   1.901   5.820  15.105 -0.6792  1.3839 -2.0946
16846TIP3    H271954   1.749   5.825  15.107 -1.0409 -3.8004  0.6403
16847TIP3   OH271955   3.290   1.616   3.150  0.1873 -0.2055  0.3067
16847TIP3    H171956   3.298   1.523   3.170 -0.8289 -0.4323 -0.2851
16847TIP3    H271957   3.367   1.656   3.191  0.5899 -1.2868  0.6364
16848TIP3   OH271958   5.059   0.840  16.473  0.0325 -0.0349 -0.1556
16848TIP3    H171959   5.026   0.783  16.404 -0.5408  1.3216 -1.0400
16848TIP3    H271960   5.115   0.783  16.526 -0.4461 -1.3860 -1.0415
16849TIP3   OH271961   6.698   4.566  16.525  0.4451 -0.2121  0.1170
16849TIP3    H171962   6.691   4.661  16.532  1.9284 -0.1883  2.3062
16849TIP3    H271963   6.608   4.534  16.535 -0.0086  0.9275 -0.1855
16850TIP3   OH271964   1.042   2.461  16.286  0.5461 -0.0928  0.2504
16850TIP3    H171965   1.012   2.487  16.199  0.3623 -1.8125 -0.2361
16850TIP3    H271966   0.993   2.518  16.346 -0.2727  0.2624 -0.7202
16851TIP3   OH271967   2.214   6.636   4.162  0.8145 -0.1781  0.1069
16851TIP3    H171968   2.139   6.601   4.115  0.2048 -0.5708  1.3238
16851TIP3    H271969   2.285   6.636   4.097 -0.1156 -0.2021 -0.9364
16852TIP3   OH271970   1.132   1.858   0.216 -0.1339  0.3246  0.4574
16852TIP3    H171971   1.099   1.946   0.197  2.1714  1.0527 -0.4820
16852TIP3    H271972   1.196   1.871   0.286  0.1347 -0.6414  0.4009
16853TIP3   OH271973   2.939   6.570   5.124 -0.6415 -0.6446 -0.1256
16853TIP3    H171974   2.955   6.522   5.206 -2.1407 -1.4491 -0.2569
16853TIP3    H271975   2.944   6.662   5.149  0.8075 -0.8445  0.4554
16854TIP3   OH271976   3.149   4.051  12.349 -0.3780  0.4253  0.5293
16854TIP3    H171977   3.156   3.981  12.414 -0.7633 -1.4025 -1.3003
16854TIP3    H271978   3.062   4.088  12.362 -0.3546  0.2626  1.1909
16855TIP3   OH271979   2.752   5.099   2.565 -0.2208 -0.5282  0.1141
16855TIP3    H171980   2.816   5.159   2.527 -0.7774  0.5892  0.9016
16855TIP3    H271981   2.805   5.033   2.610  0.3930  0.7403  1.3076
16856TIP3   OH271982   2.376   3.886  15.633 -0.4224  0.6648 -0.0176
16856TIP3    H171983   2.355   3.950  15.565 -0.1181  0.9430  0.1474
16856TIP3    H271984   2.415   3.938  15.703 -1.2636  0.4721  0.6166
16857TIP3   OH271985   2.775   6.732   3.538  0.4194  0.1864  0.1931
16857TIP3    H171986   2.766   6.735   3.442  1.2069  0.8887  0.1336
16857TIP3    H271987   2.742   6.645   3.562 -1.5536  0.6982 -0.5055
16858TIP3   OH271988   3.649   2.394   4.175 -0.5363  0.1370  0.1222
16858TIP3    H171989   3.723   2.433   4.127  0.3478 -1.3808  0.1962
16858TIP3    H271990   3.573   2.412   4.120  0.2032 -0.1025 -1.0212
16859TIP3   OH271991   0.305   0.264  12.714 -0.3871 -0.6445 -0.4084
16859TIP3    H171992   0.286   0.251  12.807  1.5106  1.2075  0.3425
16859TIP3    H271993   0.241   0.210  12.668 -1.7584 -1.1774  1.9552
16860TIP3   OH271994   1.295   0.203   4.473 -0.6921 -0.4756  0.7534
16860TIP3    H171995   1.330   0.280   4.428  0.0112 -0.1673  1.7823
16860TIP3    H271996   1.237   0.162   4.410 -0.6507  0.6018 -0.0041
16861TIP3   OH271997   5.286   2.066  11.661  0.3482 -0.5011  0.2882
16861TIP3    H171998   5.284   1.971  11.657  2.4747 -0.7545  2.6152
16861TIP3    H271999   5.377   2.089  11.645 -0.2540  1.2500 -0.9607
16862TIP3   OH272000   1.813   4.085  15.513  0.4209 -0.1596  0.2661
16862TIP3    H172001   1.897   4.065  15.554  2.1533  1.8916 -1.9774
16862TIP3    H272002   1.802   4.179  15.525 -0.3325  0.0281 -1.5485
16863TIP3   OH272003   1.035   3.693  13.226  0.1069  0.2885  0.2690
16863TIP3    H172004   0.942   3.702  13.202  0.6079  0.9877 -1.6365
16863TIP3    H272005   1.040   3.730  13.314 -0.9949  2.8458 -0.6444
16864TIP3   OH272006   6.456   0.760   2.773  0.2767  0.2778 -0.4324
16864TIP3    H172007   6.398   0.694   2.736  1.0261 -1.2225  0.9495
16864TIP3    H272008   6.399   0.836   2.789 -0.9362 -0.5565 -0.6595
16865TIP3   OH272009   3.482   4.388  10.576  0.1043 -0.1041  0.0120
16865TIP3    H172010   3.408   4.391  10.517  0.7868  2.0668 -0.8175
16865TIP3    H272011   3.504   4.480  10.593  0.8190 -0.6524  2.5363
16866TIP3   OH272012   3.313   6.332  12.539  0.7586 -0.4490 -0.4374
16866TIP3    H172013   3.325   6.303  12.448  2.0834  1.9029 -1.0965
16866TIP3    H272014   3.402   6.333  12.575  0.4551  0.3567  0.3132
16867TIP3   OH272015   0.040   0.123   1.672  0.4605 -0.4034 -0.0312
16867TIP3    H172016   0.124   0.090   1.639  0.3742 -1.6802  0.9562
16867TIP3    H272017  -0.006   0.044   1.702 -1.0674  0.2858 -0.4836
16868TIP3   OH272018   1.306   5.825  14.221 -0.4324 -0.4927 -0.1175
16868TIP3    H172019   1.254   5.885  14.168 -0.2375 -1.3098 -1.2682
16868TIP3    H272020   1.388   5.871  14.237 -0.3685 -0.3617 -0.7984
16869TIP3   OH272021   4.795   3.355   1.227 -0.3054  0.3921  0.2325
16869TIP3    H172022   4.872   3.410   1.222 -1.0857  1.4236 -1.3737
16869TIP3    H272023   4.793   3.308   1.143 -2.3852  1.8269 -0.6196
16870TIP3   OH272024   5.321   5.922  13.509  0.3168  0.2541  0.4106
16870TIP3    H172025   5.408   5.891  13.484  0.1026  0.3341 -0.4923
16870TIP3    H272026   5.309   6.003  13.459  0.1593  0.8314  1.3715
16871TIP3   OH272027   6.468   6.295   2.400  0.3000  0.4635 -0.2378
16871TIP3    H172028   6.430   6.383   2.395  0.2715  0.3909 -2.8275
16871TIP3    H272029   6.551   6.302   2.355 -0.2864 -1.0758 -1.6657
16872TIP3   OH272030   4.297   6.717   6.181  0.5500  0.0515 -0.2520
16872TIP3    H172031   4.362   6.690   6.246 -0.3717  0.0058  0.6705
16872TIP3    H272032   4.328   6.803   6.150  0.7798  0.2576  0.5388
16873TIP3   OH272033   4.840   4.918  14.419 -0.1466 -0.5698 -0.7203
16873TIP3    H172034   4.828   5.013  14.425 -1.2608 -0.5998 -2.0852
16873TIP3    H272035   4.850   4.890  14.510 -1.4226  0.6646 -0.1542
16874TIP3   OH272036   2.966   4.463   3.249  0.7698  0.5989  0.3925
16874TIP3    H172037   2.875   4.452   3.219  0.8265  2.0490 -0.3977
16874TIP3    H272038   2.987   4.380   3.291 -0.7752  0.0666  0.1902
16875TIP3   OH272039   5.259   5.009  12.541  0.0559 -0.1828  0.0177
16875TIP3    H172040   5.173   5.026  12.503  0.6172  0.4654 -1.0158
16875TIP3    H272041   5.300   4.946  12.482  0.2622 -0.5693  0.5604
16876TIP3   OH272042   0.504   3.828  11.409 -0.0858  0.0851  0.5399
16876TIP3    H172043   0.563   3.755  11.426  0.4525  0.5100  0.5442
16876TIP3    H272044   0.482   3.820  11.316 -0.0081 -0.0670  0.5344
16877TIP3   OH272045   5.666   3.144   4.995 -0.9256 -0.0855  0.1413
16877TIP3    H172046   5.623   3.214   5.044 -1.7178 -0.4209 -0.0540
16877TIP3    H272047   5.602   3.073   4.994 -0.5443 -0.4297 -0.5602
16878TIP3   OH272048   6.360   0.090  17.120  0.3770  0.5282 -0.5992
16878TIP3    H172049   6.368   0.059  17.210  0.6829 -0.5553 -0.9846
16878TIP3    H272050   6.285   0.150  17.122  1.3093  1.7024  0.6633
16879TIP3   OH272051   0.598   2.293  13.268 -0.0309  0.5412  0.2356
16879TIP3    H172052   0.516   2.266  13.312 -0.5818  0.6904 -0.6866
16879TIP3    H272053   0.569   2.340  13.190  0.9450  1.3751  0.3580
16880TIP3   OH272054   5.629   1.963   3.897 -0.4346 -0.0911  0.4605
16880TIP3    H172055   5.708   1.944   3.846 -0.7705 -0.4394  0.0625
16880TIP3    H272056   5.622   1.888   3.957 -0.9370 -0.5030 -0.0978
16881TIP3   OH272057   5.462   4.071  11.096 -0.1405  0.5513 -0.2726
16881TIP3    H172058   5.533   4.109  11.149  0.4739 -2.0040  0.8939
16881TIP3    H272059   5.382   4.099  11.141  0.3431 -0.7159  1.5069
16882TIP3   OH272060   0.416   0.707  11.233 -0.2780  0.0148  0.1508
16882TIP3    H172061   0.353   0.638  11.209 -0.5455  1.0917 -2.7095
16882TIP3    H272062   0.489   0.695  11.172  1.6722 -0.2698  2.4222
16883TIP3   OH272063   2.502   5.458  16.452 -0.4021  0.0927  0.3202
16883TIP3    H172064   2.491   5.363  16.454  0.7375 -0.1212 -1.3794
16883TIP3    H272065   2.425   5.490  16.405  0.6622 -0.3454 -1.8669
16884TIP3   OH272066   0.257   4.519   2.549 -0.1937 -0.3267  0.9513
16884TIP3    H172067   0.193   4.567   2.602 -0.4871 -0.6389  0.8838
16884TIP3    H272068   0.291   4.585   2.489 -1.3407 -0.4082  0.1666
16885TIP3   OH272069   4.633   1.599  16.187  0.1861 -0.5923  0.0966
16885TIP3    H172070   4.673   1.611  16.274 -0.2019 -1.2190  0.3688
16885TIP3    H272071   4.706   1.573  16.131  1.1481  3.0765 -0.6017
16886TIP3   OH272072   0.250   0.886   1.408 -0.5747  0.0612 -0.3862
16886TIP3    H172073   0.155   0.900   1.407 -0.8523 -1.6154 -0.9490
16886TIP3    H272074   0.260   0.792   1.390  1.1685  0.0782  0.3715
16887TIP3   OH272075   2.287   4.247   3.558  0.8220 -0.2664 -0.4440
16887TIP3    H172076   2.239   4.311   3.506  0.5633  0.1728  0.3227
16887TIP3    H272077   2.354   4.298   3.604  2.1598 -0.8876 -1.6080
16888TIP3   OH272078   3.653   4.616   1.879 -0.6693 -0.0507 -0.0754
16888TIP3    H172079   3.713   4.631   1.806 -2.6891 -0.7869 -1.9950
16888TIP3    H272080   3.660   4.522   1.897  0.5947  0.2948  1.4752
16889TIP3   OH272081   4.633   6.412   1.780  0.0419 -0.8037  0.5686
16889TIP3    H172082   4.626   6.504   1.806  3.2634 -0.7696  1.6382
16889TIP3    H272083   4.660   6.415   1.688 -0.2539 -0.7027  0.4838
16890TIP3   OH272084   2.149   4.710   1.578 -0.4314 -0.0514 -0.6293
16890TIP3    H172085   2.059   4.743   1.582 -0.8755 -1.3507  0.8045
16890TIP3    H272086   2.203   4.788   1.589 -1.4159  0.5118  0.5097
16891TIP3   OH272087   2.004   1.988   3.012 -0.0388 -0.0530 -0.4847
16891TIP3    H172088   1.919   2.008   2.972 -0.8163 -1.3458  0.4449
16891TIP3    H272089   2.000   2.031   3.098  0.2323 -0.1514 -0.4233
16892TIP3   OH272090   1.366   3.217  14.041  0.1972  0.2528  0.1094
16892TIP3    H172091   1.316   3.142  14.008  0.7709 -0.6524  1.2362
16892TIP3    H272092   1.319   3.245  14.119 -1.6939  2.9884 -1.8243
16893TIP3   OH272093   2.611   3.251   5.251  0.6470  0.1208 -0.3338
16893TIP3    H172094   2.588   3.320   5.188 -2.2869 -1.6980 -1.4901
16893TIP3    H272095   2.568   3.278   5.332  0.3462  0.1540 -0.5010
16894TIP3   OH272096   0.564   6.075   0.241  0.3033  0.4522 -0.1053
16894TIP3    H172097   0.480   6.096   0.283 -0.1437  2.1922 -1.7168
16894TIP3    H272098   0.550   6.094   0.148  2.0524 -0.6897 -0.6542
16895TIP3   OH272099   3.894   2.057   6.506  0.1045 -0.3833 -0.0432
16895TIP3    H172100   3.940   2.013   6.435  0.2162  0.2198 -0.3487
16895TIP3    H272101   3.920   2.149   6.499 -0.9788 -0.0634 -0.0948
16896TIP3   OH272102   4.548   6.064   5.039 -0.0960  0.3934  0.1076
16896TIP3    H172103   4.556   6.040   4.947 -0.9825 -0.6417  0.2879
16896TIP3    H272104   4.457   6.092   5.049 -0.6492 -1.5912  1.1149
16897TIP3   OH272105   5.987   6.150  14.659  0.0496  0.1459 -0.1336
16897TIP3    H172106   6.018   6.212  14.594 -0.1319  0.8682  0.4595
16897TIP3    H272107   6.057   6.147  14.724 -0.3530  0.4504  0.3161
16898TIP3   OH272108   3.115   1.927  11.738  0.2768  0.5359 -0.1874
16898TIP3    H172109   3.122   1.987  11.812  1.1152  0.6139 -0.3215
16898TIP3    H272110   3.129   1.981  11.661  2.2678 -0.0149 -0.2495
16899TIP3   OH272111   0.611   1.017   5.462  0.0966  0.0047  0.5688
16899TIP3    H172112   0.686   1.011   5.403  0.0719  0.4344  0.4886
16899TIP3    H272113   0.643   0.986   5.546  0.1251 -0.6440  0.3223
16900TIP3   OH272114   3.380   4.261  11.720 -0.5247 -0.3239  0.7909
16900TIP3    H172115   3.445   4.297  11.659 -1.9341 -1.2815 -1.4122
16900TIP3    H272116   3.319   4.333  11.736 -0.1464 -0.0668  1.0838
16901TIP3   OH272117   1.352   6.486   1.387  0.2016 -0.6740  0.3969
16901TIP3    H172118   1.375   6.448   1.472  0.7245 -1.7456 -0.2077
16901TIP3    H272119   1.298   6.419   1.345 -2.0829  0.7952  0.8018
16902TIP3   OH272120   3.000   6.454  15.504 -0.2588  0.3148 -0.2344
16902TIP3    H172121   3.000   6.547  15.529 -1.9148  0.3258 -0.1587
16902TIP3    H272122   3.068   6.448  15.437 -0.5176  1.7181 -0.6737
16903TIP3   OH272123   3.966   2.256   1.800  0.1093  0.6318  0.1928
16903TIP3    H172124   3.981   2.218   1.887 -2.4157  1.1717  0.9580
16903TIP3    H272125   3.948   2.348   1.817  3.6168  1.7813 -1.3996
16904TIP3   OH272126   0.024   3.342  15.908 -0.1819 -0.9516 -0.1202
16904TIP3    H172127   0.063   3.401  15.972  0.5370 -0.8319 -0.6567
16904TIP3    H272128   0.077   3.262  15.914 -0.7495 -1.3177  0.1479
16905TIP3   OH272129   5.269   2.258  14.452 -0.0274 -0.3198  0.0552
16905TIP3    H172130   5.194   2.316  14.458 -0.7016 -1.0565 -0.8585
16905TIP3    H272131   5.341   2.307  14.491 -1.0441  0.2782  1.2286
16906TIP3   OH272132   1.765   3.358  12.647 -0.3148  0.1842 -0.4056
16906TIP3    H172133   1.680   3.349  12.605 -1.0809 -0.2966  1.1818
16906TIP3    H272134   1.823   3.302  12.595 -1.1424 -0.1284 -1.0136
16907TIP3   OH272135   4.004   4.379   6.322  0.3866  0.0759  0.3743
16907TIP3    H172136   4.090   4.376   6.280  0.4248 -0.8897  0.5029
16907TIP3    H272137   3.943   4.396   6.250  0.6094  0.0136  0.1712
16908TIP3   OH272138   3.163   6.619   0.917  0.3275  0.8889  0.6834
16908TIP3    H172139   3.192   6.708   0.935  0.7090  0.8211  0.4110
16908TIP3    H272140   3.241   6.575   0.883 -0.0807  0.6871  0.0082
16909TIP3   OH272141   0.542   3.835  15.822  0.1247  0.4639  0.3765
16909TIP3    H172142   0.494   3.753  15.814 -0.6046  0.9199  0.0141
16909TIP3    H272143   0.609   3.817  15.889  0.9197 -0.8602 -0.7133
16910TIP3   OH272144   3.415   2.490  13.695 -0.3971  0.4294 -0.8156
16910TIP3    H172145   3.449   2.429  13.630  0.2656  0.4387 -0.4858
16910TIP3    H272146   3.444   2.454  13.779 -2.3057 -0.2930 -0.3976
16911TIP3   OH272147   6.632   1.839  10.777 -0.6027  0.1353  0.2006
16911TIP3    H172148   6.631   1.769  10.841 -1.9568 -0.0117  0.0486
16911TIP3    H272149   6.540   1.849  10.750 -0.0672  0.0473 -1.8455
16912TIP3   OH272150   2.350   1.865   2.758  0.0923 -0.0334 -0.2741
16912TIP3    H172151   2.352   1.843   2.665  0.1924 -0.4892 -0.1659
16912TIP3    H272152   2.275   1.924   2.767  0.7441  0.9139 -0.8290
16913TIP3   OH272153   1.154   5.905   3.998 -0.3627 -0.0672  0.3178
16913TIP3    H172154   1.135   5.979   4.056 -1.3373 -0.4654  0.5218
16913TIP3    H272155   1.071   5.884   3.956 -0.0740 -0.9600  0.1528
16914TIP3   OH272156   0.829   5.089   4.789 -0.0857  0.1725 -0.1464
16914TIP3    H172157   0.804   5.040   4.711  1.9776  1.7695 -1.9180
16914TIP3    H272158   0.754   5.147   4.807 -1.3600 -1.5284  0.2893
16915TIP3   OH272159   2.902   4.195   4.705 -0.2401 -0.8517 -0.1875
16915TIP3    H172160   2.870   4.282   4.680  2.4674 -0.3420 -2.4093
16915TIP3    H272161   2.842   4.135   4.662 -1.0956 -0.0642 -0.1367
16916TIP3   OH272162   6.479   0.584  12.792 -0.0557 -0.4674  0.0855
16916TIP3    H172163   6.523   0.562  12.873  3.3117  1.9314 -0.8650
16916TIP3    H272164   6.503   0.515  12.731  0.4182 -0.4292  0.2271
16917TIP3   OH272165   4.861   6.314  10.937 -0.4012  0.1185 -0.2273
16917TIP3    H172166   4.946   6.271  10.934 -0.5156 -0.8185  3.6988
16917TIP3    H272167   4.881   6.407  10.932  0.4685 -0.1293 -2.4892
16918TIP3   OH272168   4.090   0.618   3.590 -0.5868 -0.3409 -0.3002
16918TIP3    H172169   4.025   0.567   3.637  0.6300 -2.7963 -1.1287
16918TIP3    H272170   4.063   0.615   3.498 -0.4671  0.5143 -0.3776
16919TIP3   OH272171   0.503   1.524   4.605 -0.4929  0.1071  0.2411
16919TIP3    H172172   0.541   1.468   4.537  0.1604  0.9554 -0.1162
16919TIP3    H272173   0.439   1.468   4.649 -0.4241 -0.6756 -0.6147
16920TIP3   OH272174   3.770   0.970  17.267 -0.2392  0.2402  0.3592
16920TIP3    H172175   3.772   0.875  17.253  1.6092  0.2280  0.5211
16920TIP3    H272176   3.756   1.006  17.179  2.0735 -0.1287 -0.2249
16921TIP3   OH272177   5.538   3.392   0.042 -0.2569  0.1040 -0.4218
16921TIP3    H172178   5.497   3.361   0.123 -0.2985  1.9969  0.3140
16921TIP3    H272179   5.474   3.454   0.005  0.0911 -0.1714 -1.5236
16922TIP3   OH272180   3.470   6.101   3.255 -0.0947  0.3796 -0.0097
16922TIP3    H172181   3.543   6.042   3.277 -0.1660  0.7971  1.4813
16922TIP3    H272182   3.511   6.175   3.210  0.1778 -0.1557 -0.6509
16923TIP3   OH272183   2.808   5.386   5.110  0.0885  0.1794 -0.0543
16923TIP3    H172184   2.836   5.297   5.130 -0.2214 -0.2858 -1.5921
16923TIP3    H272185   2.738   5.376   5.045  0.9160  1.5626 -1.2237
16924TIP3   OH272186   4.777   1.862  14.469  0.0419 -0.1916 -0.3257
16924TIP3    H172187   4.868   1.866  14.437  0.7657 -1.4048  1.4233
16924TIP3    H272188   4.743   1.779  14.435 -0.3141  0.0919 -0.6764
16925TIP3   OH272189   6.350   6.469  15.192  0.1272 -0.2941  0.3690
16925TIP3    H172190   6.330   6.527  15.266  1.0977  1.7357 -0.8883
16925TIP3    H272191   6.428   6.420  15.221 -0.2482 -0.4588  1.1466
16926TIP3   OH272192   1.134   4.710  13.774  0.2038 -0.6700 -0.4054
16926TIP3    H172193   1.042   4.690  13.757 -0.5270 -0.3360  2.5738
16926TIP3    H272194   1.165   4.751  13.694 -2.7917  0.9282 -0.8922
16927TIP3   OH272195   5.016   5.844   4.958 -0.1877  0.0403  0.7610
16927TIP3    H172196   5.007   5.928   5.004  0.4277 -0.9524  2.7834
16927TIP3    H272197   5.110   5.828   4.955 -0.2016  0.1029 -0.9820
16928TIP3   OH272198   4.124   0.297  12.592  0.2468  0.2007 -0.5417
16928TIP3    H172199   4.071   0.224  12.560  0.2790 -0.1193  0.1137
16928TIP3    H272200   4.108   0.300  12.686 -0.0573  1.3023 -0.6123
16929TIP3   OH272201   2.140   5.327   1.373 -0.2231  0.2479  0.6718
16929TIP3    H172202   2.083   5.404   1.369 -0.9357 -0.3138 -1.2495
16929TIP3    H272203   2.193   5.333   1.294  1.0911 -0.2470  1.4893
16930TIP3   OH272204   6.550   6.541   3.195 -0.6731  0.1970  0.6683
16930TIP3    H172205   6.555   6.563   3.102 -0.8295 -0.7413  0.4217
16930TIP3    H272206   6.473   6.588   3.227 -1.3284 -0.4053  0.0304
16931TIP3   OH272207   6.235   2.283   3.984  0.0086  0.0026  0.0637
16931TIP3    H172208   6.248   2.223   4.058  1.6967  0.5392  0.2461
16931TIP3    H272209   6.288   2.359   4.006 -0.2532  0.5866 -1.2511
16932TIP3   OH272210   3.435   4.199  12.004  0.5869  0.1752 -1.1193
16932TIP3    H172211   3.411   4.286  12.035 -0.3969 -0.1486 -0.9161
16932TIP3    H272212   3.471   4.213  11.917  1.5169  0.8986 -0.6342
16933TIP3   OH272213   0.794   2.127  14.112  1.0303  0.0603  0.1129
16933TIP3    H172214   0.833   2.089  14.190  4.1240 -0.4995 -1.5187
16933TIP3    H272215   0.764   2.051  14.061 -1.6967  0.4487  0.9601
16934TIP3   OH272216   5.015   6.701  11.835  0.3005  0.0302 -0.2530
16934TIP3    H172217   5.024   6.620  11.885  0.4025 -1.4115 -2.4691
16934TIP3    H272218   5.084   6.759  11.870  2.1295 -1.8829 -0.4732
16935TIP3   OH272219   1.778   2.815  12.434  0.3924  0.3454 -0.5098
16935TIP3    H172220   1.708   2.877  12.458  0.3043  0.6897 -1.6051
16935TIP3    H272221   1.782   2.754  12.508 -2.8858 -1.2833 -1.4653
16936TIP3   OH272222   4.230   0.158  11.599 -0.2414  0.2509  0.3401
16936TIP3    H172223   4.180   0.194  11.672  0.6667  2.5367 -0.0882
16936TIP3    H272224   4.322   0.169  11.626  0.1916  2.7676 -1.7542
16937TIP3   OH272225   1.569   3.727   2.738 -0.5795 -0.5095  0.0608
16937TIP3    H172226   1.628   3.651   2.740 -0.9694 -0.8879 -1.2995
16937TIP3    H272227   1.570   3.755   2.646 -1.7116  0.1128  0.2240
16938TIP3   OH272228   5.385   1.202   4.282 -0.4323  0.0296  0.1710
16938TIP3    H172229   5.385   1.293   4.312  1.0863  0.4888 -1.0922
16938TIP3    H272230   5.447   1.200   4.210  1.5295 -2.5199  1.7266
16939TIP3   OH272231   5.914   4.527   1.594  0.2479 -0.2592  0.1532
16939TIP3    H172232   5.872   4.605   1.556  0.6637 -0.7645 -1.4323
16939TIP3    H272233   5.870   4.453   1.551  0.7239 -0.8674  0.7006
16940TIP3   OH272234   2.626   6.418  12.879  0.0954  0.1140  0.0868
16940TIP3    H172235   2.563   6.444  12.811  0.2660 -0.7565 -0.4219
16940TIP3    H272236   2.712   6.433  12.838  0.2097  0.5750  0.4966
16941TIP3   OH272237   2.827   1.647  10.572  0.2479 -0.1558 -0.7777
16941TIP3    H172238   2.803   1.683  10.657 -0.0256 -0.7487 -0.6007
16941TIP3    H272239   2.754   1.590  10.548  2.8176 -4.9388  1.4121
16942TIP3   OH272240   1.030   5.335  14.734  0.2820 -0.7071 -0.7857
16942TIP3    H172241   1.069   5.414  14.697 -0.6453 -0.7689 -1.9750
16942TIP3    H272242   0.938   5.358  14.749  0.2313 -1.2556 -0.1932
16943TIP3   OH272243   1.803   5.618  17.078  0.1275 -0.7108 -0.2209
16943TIP3    H172244   1.858   5.605  17.001 -0.4131 -0.0564 -0.7229
16943TIP3    H272245   1.785   5.712  17.080 -1.1501 -0.9410 -0.1829
16944TIP3   OH272246   2.465   4.051   3.812 -0.6207  0.5868 -0.5435
16944TIP3    H172247   2.386   3.997   3.824 -0.5663  0.4021 -1.0288
16944TIP3    H272248   2.477   4.056   3.718 -0.2773  0.9509 -0.4808
16945TIP3   OH272249   0.683   2.629   5.339  1.0333  0.0958 -0.0729
16945TIP3    H172250   0.588   2.622   5.351  1.3391 -1.1292  2.0826
16945TIP3    H272251   0.696   2.622   5.245 -1.0514  0.8948 -0.4705
16946TIP3   OH272252   3.870   0.131   1.613 -0.3382  0.0331  0.4017
16946TIP3    H172253   3.846   0.189   1.541 -0.1238  0.6480  0.8117
16946TIP3    H272254   3.860   0.186   1.692  0.0527 -0.4296  0.7783
16947TIP3   OH272255   2.006   6.383  13.356 -0.6500 -0.1575  0.3674
16947TIP3    H172256   2.049   6.314  13.407 -0.7022 -0.7490 -0.3718
16947TIP3    H272257   2.077   6.426  13.308 -0.7500 -0.3998  0.0042
16948TIP3   OH272258   5.933   6.691  16.409  0.0438 -0.0811  0.1009
16948TIP3    H172259   5.957   6.605  16.442  0.3989  0.2409  0.7043
16948TIP3    H272260   5.846   6.679  16.370 -0.2110 -0.5709  0.7955
16949TIP3   OH272261   2.898   2.733   1.719 -0.0319 -0.2930  0.0670
16949TIP3    H172262   2.979   2.722   1.668  0.0609 -1.5812  0.4632
16949TIP3    H272263   2.929   2.748   1.808 -0.2066  1.4988 -0.1336
16950TIP3   OH272264   5.445   4.005  16.354 -0.1707  0.2429  0.4758
16950TIP3    H172265   5.518   4.039  16.303  0.3793 -1.8509 -0.2313
16950TIP3    H272266   5.478   3.924  16.394 -2.3377 -1.3909 -0.7630
16951TIP3   OH272267   6.038   0.571  16.234  0.4633  0.1015 -0.2940
16951TIP3    H172268   6.126   0.593  16.203  1.1626  0.1456  1.5514
16951TIP3    H272269   5.999   0.655  16.257  0.2299  0.0174 -0.3811
16952TIP3   OH272270   6.244   5.684   1.146 -0.0033 -0.5100 -0.3286
16952TIP3    H172271   6.203   5.770   1.158  1.4740  0.2207 -0.2712
16952TIP3    H272272   6.178   5.621   1.176 -0.4201  0.7021  1.4818
16953TIP3   OH272273   4.433   2.589  16.815 -0.5809  0.0795 -0.4015
16953TIP3    H172274   4.400   2.675  16.788  0.6974  0.6687 -0.1988
16953TIP3    H272275   4.490   2.608  16.889  2.3311 -0.4701 -2.3344
16954TIP3   OH272276   2.527   1.188   4.360 -0.1095  0.1230  0.4074
16954TIP3    H172277   2.445   1.219   4.321 -1.0963  0.7111  2.7653
16954TIP3    H272278   2.554   1.115   4.305 -1.5304  0.7259 -1.1627
16955TIP3   OH272279   2.025   0.174   5.599 -0.0638 -0.1703 -0.5730
16955TIP3    H172280   2.010   0.157   5.691  0.4111  0.1850 -0.4235
16955TIP3    H272281   2.101   0.121   5.577 -0.5946 -0.7910 -0.9373
16956TIP3   OH272282   2.823   6.432   2.175 -0.4678  1.0254  0.3300
16956TIP3    H172283   2.838   6.437   2.081 -1.3627  1.1517  0.1848
16956TIP3    H272284   2.801   6.340   2.191  1.3622  0.6096  0.6990
16957TIP3   OH272285   0.948   1.310  10.797  0.0272  0.1298 -0.2226
16957TIP3    H172286   1.004   1.316  10.875 -0.6196  1.3676  0.1797
16957TIP3    H272287   0.866   1.352  10.824 -0.2336  0.5026 -1.5584
16958TIP3   OH272288   2.516   6.259  16.450 -0.7977 -0.5312 -0.2607
16958TIP3    H172289   2.516   6.190  16.517 -0.0348 -0.1150  0.1861
16958TIP3    H272290   2.424   6.284  16.442 -0.9948 -1.1160  0.0823
16959TIP3   OH272291   5.888   1.405  15.585  0.5468 -0.0587  0.0240
16959TIP3    H172292   5.846   1.383  15.668  1.3665 -2.1915 -0.0509
16959TIP3    H272293   5.853   1.341  15.522 -0.1287  1.5632 -1.3260
16960TIP3   OH272294   0.660   2.701  12.665 -0.2465  0.0185  0.2563
16960TIP3    H172295   0.599   2.745  12.724  0.3996 -0.0895  1.0295
16960TIP3    H272296   0.736   2.682  12.720 -0.0053 -0.9253 -0.3780
16961TIP3   OH272297   0.680   2.954  16.611  0.1710 -0.3374 -0.1539
16961TIP3    H172298   0.733   2.911  16.678  0.2372  1.1273  0.7617
16961TIP3    H272299   0.732   2.947  16.531  0.7883 -0.7451  0.2753
16962TIP3   OH272300   1.041   4.793   6.401  0.6159 -0.0264  0.1234
16962TIP3    H172301   0.970   4.857   6.406 -0.1301 -0.6388 -1.8336
16962TIP3    H272302   1.106   4.824   6.464 -1.1142  0.8621  1.5617
16963TIP3   OH272303   6.276   1.617  16.378  0.1618 -0.2709 -0.3200
16963TIP3    H172304   6.247   1.533  16.342 -0.3220 -0.1291 -0.2639
16963TIP3    H272305   6.291   1.599  16.471  2.0176 -0.7957 -0.6850
16964TIP3   OH272306   1.482   4.935   4.875  0.6569 -0.2475  0.3257
16964TIP3    H172307   1.410   4.988   4.911 -0.6832 -1.0940 -1.0256
16964TIP3    H272308   1.439   4.862   4.832  2.2947 -0.3385 -1.2577
16965TIP3   OH272309   4.610   0.561  12.043 -0.0361  0.1098 -0.1625
16965TIP3    H172310   4.532   0.505  12.053  0.1491  0.0772  1.3366
16965TIP3    H272311   4.577   0.641  12.002 -1.3359  0.9955  2.3878
16966TIP3   OH272312   1.682   3.645  12.820  0.2088  0.9842  0.1587
16966TIP3    H172313   1.632   3.579  12.868  0.8418  0.9642  0.7998
16966TIP3    H272314   1.622   3.675  12.751 -0.8060  1.1806  1.0905
16967TIP3   OH272315   5.518   3.066  12.308 -0.1379 -0.1222  0.4886
16967TIP3    H172316   5.425   3.052  12.290 -0.4352  0.6109  1.4086
16967TIP3    H272317   5.524   3.071  12.403  0.3570  2.8615  0.3749
16968TIP3   OH272318   0.840   1.610  14.686  0.1720 -0.1216  0.2443
16968TIP3    H172319   0.833   1.615  14.781 -1.7274 -1.1187  0.2069
16968TIP3    H272320   0.752   1.585  14.657  0.1928  1.9467 -1.9215
16969TIP3   OH272321   0.433   1.926  11.225  0.2630 -0.1766  0.1591
16969TIP3    H172322   0.369   1.991  11.196 -0.5366 -0.8300  0.4313
16969TIP3    H272323   0.464   1.960  11.310 -0.8992 -0.6378  0.7913
16970TIP3   OH272324   2.210   2.514  11.757  0.5403  0.3530  0.5666
16970TIP3    H172325   2.170   2.431  11.783 -1.4374  1.5178  1.4645
16970TIP3    H272326   2.137   2.567  11.724  2.0547  1.0567 -1.9529
16971TIP3   OH272327   2.388   4.357  13.039 -0.1507  0.1662 -0.1749
16971TIP3    H172328   2.364   4.329  13.127 -1.9136  1.4486 -0.1953
16971TIP3    H272329   2.317   4.324  12.983 -0.5730  1.7910 -0.6580
16972TIP3   OH272330   3.455   5.760   3.389  0.6970  0.1202 -0.0717
16972TIP3    H172331   3.476   5.699   3.460 -0.3158 -1.4260 -1.0492
16972TIP3    H272332   3.399   5.825   3.430 -3.0034 -2.7415 -0.0243
16973TIP3   OH272333   3.461   0.258   3.532  0.2112  0.1498  0.4123
16973TIP3    H172334   3.481   0.168   3.560 -2.5157  0.1395  2.6584
16973TIP3    H272335   3.417   0.247   3.447  1.6368 -0.4049 -0.3013
16974TIP3   OH272336   5.820   6.530   1.908  0.2725  0.1148  0.4520
16974TIP3    H172337   5.873   6.458   1.943 -1.7415 -1.0367  1.3373
16974TIP3    H272338   5.881   6.604   1.902  1.8123 -0.9264  2.0378
16975TIP3   OH272339   5.501   2.410  17.025 -0.6949 -0.2838 -0.2025
16975TIP3    H172340   5.545   2.495  17.023  0.0082 -0.5343  2.0542
16975TIP3    H272341   5.572   2.347  17.039 -1.4550 -0.9948  0.5143
16976TIP3   OH272342   6.370   5.623   5.913 -0.1405 -0.0572  0.8924
16976TIP3    H172343   6.394   5.680   5.840 -1.7272  0.1615  0.5066
16976TIP3    H272344   6.453   5.583   5.940  0.7482  1.1593  0.1044
16977TIP3   OH272345   2.953   0.774  12.067  0.6893  0.2551  0.0154
16977TIP3    H172346   2.967   0.753  11.975  2.4694  1.0902  0.0478
16977TIP3    H272347   2.919   0.694  12.106  0.2526 -0.2141 -1.2866
16978TIP3   OH272348   3.247   6.706  12.863  0.6545 -0.2281 -0.1922
16978TIP3    H172349   3.310   6.641  12.832  0.0710 -1.7972  1.7151
16978TIP3    H272350   3.178   6.706  12.797  2.4546  1.3766 -2.2145
16979TIP3   OH272351   2.566   5.630  11.014  0.1868 -0.0888  0.1257
16979TIP3    H172352   2.558   5.539  10.984 -1.8226  0.1745 -0.2666
16979TIP3    H272353   2.533   5.682  10.941  0.0364  0.8865  0.8680
16980TIP3   OH272354   1.714   4.545   3.033 -0.1624  0.1683  0.1640
16980TIP3    H172355   1.650   4.586   3.091 -0.6016 -0.4557  0.1343
16980TIP3    H272356   1.723   4.606   2.960 -0.7809  0.2238  0.1322
16981TIP3   OH272357   2.498   1.565   5.171  0.0464  0.2936  0.4716
16981TIP3    H172358   2.591   1.547   5.177  0.1970  1.5158  3.9645
16981TIP3    H272359   2.493   1.651   5.127  0.6375  0.5867  0.9615
16982TIP3   OH272360   3.793   5.695  15.194  0.2371 -0.0422 -0.0509
16982TIP3    H172361   3.721   5.710  15.134 -1.0381 -0.3420  1.3410
16982TIP3    H272362   3.843   5.776  15.193 -1.1355  0.8304  0.2860
16983TIP3   OH272363   4.934   1.430  13.905 -0.0548 -0.4621 -0.8222
16983TIP3    H172364   4.918   1.433  13.999 -0.8476 -1.0422 -0.9281
16983TIP3    H272365   4.869   1.489  13.867 -0.5999 -1.2213 -1.0966
16984TIP3   OH272366   5.417   1.910   2.977 -0.0377  0.3256  0.0272
16984TIP3    H172367   5.443   1.922   2.885 -0.9943 -1.3740 -0.5062
16984TIP3    H272368   5.498   1.888   3.022  0.0967 -1.2240 -0.8992
16985TIP3   OH272369   6.605   0.516  13.023 -0.5633  0.3296  0.2934
16985TIP3    H172370   6.612   0.565  13.105  1.5764  1.8343 -0.6767
16985TIP3    H272371   6.686   0.466  13.017 -0.1389  1.1268 -1.3828
16986TIP3   OH272372   3.049   0.387   5.039  0.0873  0.8245 -0.3088
16986TIP3    H172373   3.068   0.296   5.016 -2.3058  0.4466 -1.0631
16986TIP3    H272374   3.042   0.388   5.134  0.5047  0.3331 -0.2705
16987TIP3   OH272375   3.417   1.723  17.113 -0.6960  0.0127  0.2524
16987TIP3    H172376   3.329   1.694  17.091 -1.4973  1.2823  1.6232
16987TIP3    H272377   3.407   1.769  17.197  1.3891 -0.4732  0.8286
16988TIP3   OH272378   3.384   0.599   2.727 -0.0924  0.1338 -0.5505
16988TIP3    H172379   3.397   0.514   2.770 -2.4112 -0.5914 -1.1208
16988TIP3    H272380   3.470   0.641   2.729  0.6479 -1.3191  1.6645
16989TIP3   OH272381   4.190   2.435  17.000  0.0583 -0.4348  0.8804
16989TIP3    H172382   4.245   2.363  16.968 -1.4950 -0.7381 -1.2691
16989TIP3    H272383   4.246   2.513  16.993  0.5586 -0.8795 -0.3257
16990TIP3   OH272384   6.337   6.188   5.035 -0.2937  0.2914 -0.1153
16990TIP3    H172385   6.382   6.156   4.957 -0.0176 -2.9362  1.2321
16990TIP3    H272386   6.244   6.180   5.013 -0.2160 -0.2633 -0.2669
16991TIP3   OH272387   3.988   6.211   2.111 -0.1036 -0.1168  0.7304
16991TIP3    H172388   3.948   6.234   2.195 -0.4298  0.5933  0.3811
16991TIP3    H272389   3.940   6.134   2.081 -1.2736  0.7712  0.2767
16992TIP3   OH272390   6.144   6.465  14.996  0.2085  0.1374  0.4752
16992TIP3    H172391   6.218   6.504  15.043 -1.1947  2.1548  1.1337
16992TIP3    H272392   6.069   6.520  15.020 -1.1159 -0.5616 -1.8054
16993TIP3   OH272393   5.829   0.087  11.717  0.3831 -0.5844 -0.8707
16993TIP3    H172394   5.852   0.069  11.626 -0.7206  1.0090 -1.5234
16993TIP3    H272395   5.903   0.138  11.751  0.2433 -0.1149 -1.2657
16994TIP3   OH272396   4.487   0.216   3.189 -0.3358 -0.5603 -0.4218
16994TIP3    H172397   4.492   0.151   3.259 -1.1943 -0.2455 -0.0560
16994TIP3    H272398   4.471   0.299   3.235 -0.4258 -0.2764 -0.9592
16995TIP3   OH272399   4.737   2.843   5.202  0.4297  0.3082  0.1208
16995TIP3    H172400   4.716   2.918   5.146 -2.6366 -0.7995 -0.4129
16995TIP3    H272401   4.712   2.767   5.150 -0.0768 -0.8890  2.0254
16996TIP3   OH272402   1.958   2.379  12.627  0.1399  0.2269 -0.3700
16996TIP3    H172403   1.982   2.309  12.687  0.3388 -0.5807 -1.3598
16996TIP3    H272404   1.897   2.339  12.565 -1.3600  1.4615  0.2415
16997TIP3   OH272405   1.960   1.156  11.019  0.3741 -0.1567 -0.1818
16997TIP3    H172406   1.885   1.098  11.029 -1.0227  0.7831 -3.7178
16997TIP3    H272407   1.932   1.239  11.058 -0.5648  0.2322 -1.6093
16998TIP3   OH272408   3.179   2.927  13.968  1.1322  0.0967 -0.4319
16998TIP3    H172409   3.162   2.899  13.878  2.6148 -0.2925 -0.6153
16998TIP3    H272410   3.156   2.851  14.021  0.7245  0.1563 -0.5203
16999TIP3   OH272411   0.484   1.774  13.104  0.1131  0.0731  0.4480
16999TIP3    H172412   0.484   1.868  13.092  1.1702 -0.0103 -0.3649
16999TIP3    H272413   0.555   1.742  13.048  0.0033 -1.1662  0.9655
17000TIP3   OH272414   1.285   3.759  16.590 -0.5130  0.0070 -0.3319
17000TIP3    H172415   1.267   3.733  16.500  2.0636 -0.0499 -0.9209
17000TIP3    H272416   1.381   3.769  16.593 -0.6136  0.9088  2.1602
17001TIP3   OH272417   0.363   0.540   2.098 -0.1984  0.0006 -0.8797
17001TIP3    H172418   0.451   0.551   2.063  1.2925  0.8435  2.6477
17001TIP3    H272419   0.339   0.451   2.074  0.7878  0.3483 -3.4754
17002TIP3   OH272420   0.492   4.001   4.164  0.0867  0.0934  0.0294
17002TIP3    H172421   0.427   3.965   4.104  0.2728  0.0929 -0.1742
17002TIP3    H272422   0.441   4.040   4.235 -0.1666  1.0661 -0.6809
17003TIP3   OH272423   2.952   5.871  15.247  0.0290  0.8429 -0.0652
17003TIP3    H172424   2.989   5.929  15.181 -1.1016  0.5555 -0.9823
17003TIP3    H272425   2.994   5.787  15.231  0.0186  0.8600 -0.1810
17004TIP3   OH272426   5.481   1.430   1.462  0.1998 -0.7474  0.2151
17004TIP3    H172427   5.568   1.470   1.470  0.2867 -0.3952 -1.9081
17004TIP3    H272428   5.487   1.375   1.384 -1.7636  0.1271 -0.6285
17005TIP3   OH272429   0.149   4.840  12.317 -0.0974 -0.2073  0.2913
17005TIP3    H172430   0.093   4.814  12.245  1.3489  1.1188 -1.3993
17005TIP3    H272431   0.160   4.935  12.307  1.5719 -0.2605  1.1789
17006TIP3   OH272432   0.850   4.053   3.749 -0.0284  0.5914  0.0048
17006TIP3    H172433   0.943   4.061   3.769  0.3284 -0.0731 -1.2955
17006TIP3    H272434   0.814   3.998   3.819  0.9507 -0.7799 -0.5449
17007TIP3   OH272435   4.616   0.189  15.025  0.8073 -0.1082  0.2312
17007TIP3    H172436   4.622   0.245  15.102  1.1511 -0.6679  0.6119
17007TIP3    H272437   4.672   0.114  15.044 -0.7708 -1.3106  0.3446
17008TIP3   OH272438   2.032   0.477   1.478  0.2475  0.0596  0.1854
17008TIP3    H172439   2.104   0.532   1.447  0.3171  0.3481  0.8515
17008TIP3    H272440   2.074   0.395   1.505  0.2177 -0.0981 -0.2469
17009TIP3   OH272441   4.257   6.215  12.903  0.3924 -0.2132 -0.5640
17009TIP3    H172442   4.236   6.209  12.810 -0.4597 -2.3093 -0.2781
17009TIP3    H272443   4.175   6.236  12.946  1.1214  2.6605 -0.3773
17010TIP3   OH272444   6.588   5.556  13.938  0.2718  0.0930 -0.5866
17010TIP3    H172445   6.562   5.522  14.024 -1.3274 -0.0189 -1.0867
17010TIP3    H272446   6.589   5.479  13.882 -1.6232  0.5715 -1.3260
17011TIP3   OH272447   2.110   3.689  14.444 -0.0348  0.2718  0.1864
17011TIP3    H172448   2.178   3.739  14.400  0.1552 -0.6264 -0.5695
17011TIP3    H272449   2.065   3.753  14.499  0.8646  1.0486  0.0432
17012TIP3   OH272450   3.620   1.311  13.372  0.4289  0.0109 -0.2078
17012TIP3    H172451   3.627   1.374  13.300  3.9994  0.1949  0.0943
17012TIP3    H272452   3.617   1.365  13.451  0.3304 -0.1707 -0.0882
17013TIP3   OH272453   5.474   1.490   4.323 -0.2859  0.0080 -1.0630
17013TIP3    H172454   5.503   1.497   4.413  0.6182  0.9011 -1.4035
17013TIP3    H272455   5.382   1.515   4.325 -0.5152 -0.8546 -0.2675
17014TIP3   OH272456   0.810   6.058  16.365  0.3369 -0.0644  0.6000
17014TIP3    H172457   0.809   5.973  16.409  1.1441 -0.2809  0.2093
17014TIP3    H272458   0.805   6.122  16.436 -0.6256 -0.4247  0.8840
17015TIP3   OH272459   4.898   6.575  14.681  0.3069  0.0381 -0.2867
17015TIP3    H172460   4.989   6.557  14.660 -0.0381 -1.7727 -0.4191
17015TIP3    H272461   4.864   6.619  14.603  0.6038 -1.0397 -1.0580
17016TIP3   OH272462   0.408   0.197  12.250  0.0363  0.4220 -0.1079
17016TIP3    H172463   0.423   0.291  12.245  1.2384  0.3179  0.9102
17016TIP3    H272464   0.428   0.175  12.341 -0.9665 -0.7044 -0.1435
17017TIP3   OH272465   3.183   4.554  15.995  0.2912 -0.4758  0.5943
17017TIP3    H172466   3.277   4.552  15.977  0.3287 -0.8711  0.8337
17017TIP3    H272467   3.177   4.570  16.089  0.1101  0.0838  0.4916
17018TIP3   OH272468   4.589   4.516   4.805  0.4528 -0.5164 -0.1861
17018TIP3    H172469   4.592   4.421   4.817 -1.1326 -0.4116  1.5461
17018TIP3    H272470   4.540   4.548   4.881 -0.4739  1.5324 -1.5439
17019TIP3   OH272471   5.164   4.079  13.601 -0.2746 -0.1020 -0.8223
17019TIP3    H172472   5.069   4.078  13.601 -0.2854 -0.3145  0.3092
17019TIP3    H272473   5.189   4.006  13.544 -0.7843 -0.2449 -0.8605
17020TIP3   OH272474   2.237   6.302   3.648  0.3066 -0.2971 -0.0825
17020TIP3    H172475   2.142   6.302   3.659 -0.1997 -1.1922 -3.4293
17020TIP3    H272476   2.265   6.218   3.686  0.0090  0.5019  2.0300
17021TIP3   OH272477   4.472   4.746  15.272 -0.0947  0.1210  0.2038
17021TIP3    H172478   4.405   4.805  15.239  0.1479  0.7194  0.7658
17021TIP3    H272479   4.438   4.658  15.253  0.0970  0.4129 -1.7544
17022TIP3   OH272480   4.329   5.608   2.773 -0.0365 -0.4222 -0.1697
17022TIP3    H172481   4.353   5.595   2.682 -0.1212  1.4036 -0.4968
17022TIP3    H272482   4.356   5.527   2.817 -0.3880 -1.5169 -1.8605
17023TIP3   OH272483   5.677   0.154  16.731 -0.3123  0.6180  0.0583
17023TIP3    H172484   5.657   0.202  16.812 -2.2915 -0.4546  0.2826
17023TIP3    H272485   5.705   0.067  16.761  1.4892  1.0278 -0.3754
17024TIP3   OH272486   5.292   3.406  14.933  0.2788 -0.1874 -0.3817
17024TIP3    H172487   5.198   3.403  14.951  0.3708  1.7400  0.6180
17024TIP3    H272488   5.307   3.492  14.895  1.3120 -1.3959 -2.9709
17025TIP3   OH272489   6.602   2.038   4.922 -0.0001 -0.4462 -0.2479
17025TIP3    H172490   6.636   1.963   4.873 -0.3107 -0.9719  0.3473
17025TIP3    H272491   6.513   2.050   4.890 -0.2526 -0.8786  0.2876
17026TIP3   OH272492   3.672   2.095  14.311 -0.4177 -0.0812 -0.8199
17026TIP3    H172493   3.725   2.020  14.281  1.1639  0.6009  0.1004
17026TIP3    H272494   3.737   2.162  14.333 -1.4888  0.0700  2.4278
17027TIP3   OH272495   2.772   4.982   2.081  0.0520  0.1534 -0.1004
17027TIP3    H172496   2.785   5.067   2.124  0.0938  0.0262  0.1410
17027TIP3    H272497   2.702   4.941   2.132  0.6626 -0.3392  0.3622
17028TIP3   OH272498   5.367   2.351  11.095  0.6253 -0.4930  0.5625
17028TIP3    H172499   5.337   2.270  11.055  1.2106 -0.5383  0.2035
17028TIP3    H272500   5.459   2.359  11.068 -0.0841  1.6066 -1.6223
17029TIP3   OH272501   0.575   5.564   2.149  0.7807  0.1580  0.3501
17029TIP3    H172502   0.599   5.500   2.082  1.0223  0.2242  0.3726
17029TIP3    H272503   0.479   5.560   2.153  0.6959  0.7913 -0.6228
17030TIP3   OH272504   3.631   3.634  13.921  0.1249  0.4036  0.4778
17030TIP3    H172505   3.641   3.541  13.941  0.1204  0.0537 -1.0547
17030TIP3    H272506   3.648   3.678  14.004  0.9333 -0.9174  1.0445
17031TIP3   OH272507   3.549   1.939  11.353 -0.5544 -0.0179  0.0270
17031TIP3    H172508   3.471   1.885  11.364 -1.0056  0.7890  1.0123
17031TIP3    H272509   3.568   1.936  11.259 -1.2774 -0.8948 -0.1020
17032TIP3   OH272510   1.664   1.286  12.935  1.2062 -0.2400 -0.2474
17032TIP3    H172511   1.714   1.362  12.906  1.4717 -0.3758 -0.1433
17032TIP3    H272512   1.727   1.214  12.934  0.4709 -0.9512 -2.4966
17033TIP3   OH272513   4.922   1.723   3.127 -0.3256  0.3420 -0.3759
17033TIP3    H172514   4.827   1.726   3.118 -0.2497  0.3555 -1.3415
17033TIP3    H272515   4.952   1.677   3.049  0.4578  0.2792 -0.0495
17034TIP3   OH272516   1.884   6.444  14.030  0.1055  0.2991 -0.2465
17034TIP3    H172517   1.903   6.531  14.064 -0.1876  1.3874 -2.6426
17034TIP3    H272518   1.969   6.401  14.021  0.3100  0.5982  0.2400
17035TIP3   OH272519   1.534   6.280   1.101  0.1322  0.0713  0.1497
17035TIP3    H172520   1.560   6.229   1.025  1.0000  0.7621 -0.0219
17035TIP3    H272521   1.440   6.263   1.109  0.5599 -2.4610  0.7893
17036TIP3   OH272522   1.534   2.268   0.442 -0.5424 -0.4175  0.3146
17036TIP3    H172523   1.576   2.230   0.365 -2.0927 -1.5960 -0.0008
17036TIP3    H272524   1.599   2.257   0.513  2.0877  3.1364 -1.1923
17037TIP3   OH272525   1.263   0.784   1.203 -0.1685 -0.2068  0.0512
17037TIP3    H172526   1.287   0.813   1.291 -3.9532 -0.2068  1.2653
17037TIP3    H272527   1.255   0.689   1.210 -3.2075 -0.0021  0.6441
17038TIP3   OH272528   2.355   0.877   0.811  0.5494  0.2171  0.4645
17038TIP3    H172529   2.356   0.862   0.905 -0.8438  0.4762  0.5371
17038TIP3    H272530   2.271   0.919   0.794  0.3308 -0.7419 -1.0291
17039TIP3   OH272531   6.445   0.209  15.763  0.1304  0.0650 -0.6604
17039TIP3    H172532   6.515   0.219  15.699  0.6391  0.2739 -0.0809
17039TIP3    H272533   6.468   0.130  15.812  1.0060  1.1491  0.7759
17040TIP3   OH272534   4.877   0.702   3.126  0.3774 -0.4754 -0.2236
17040TIP3    H172535   4.807   0.693   3.191  1.7182 -0.5872  1.2376
17040TIP3    H272536   4.855   0.783   3.079 -0.5105 -0.2982  0.4622
17041TIP3   OH272537   4.735   6.187   0.843 -0.2706  0.2097 -0.2032
17041TIP3    H172538   4.711   6.277   0.866 -0.0301 -0.0941  1.3446
17041TIP3    H272539   4.771   6.150   0.924 -0.7564 -1.4133 -0.6838
17042TIP3   OH272540   3.586   4.247   3.722  0.3003  0.1435 -0.5509
17042TIP3    H172541   3.629   4.192   3.788  0.2660 -1.8514 -2.1123
17042TIP3    H272542   3.556   4.324   3.772 -0.4800 -1.6413  1.9307
17043TIP3   OH272543   1.265   1.900  12.287 -0.5567  0.3563  0.3198
17043TIP3    H172544   1.330   1.884  12.218 -0.2027  1.7187  0.3014
17043TIP3    H272545   1.222   1.816  12.300  1.1056 -0.5662  0.2109
17044TIP3   OH272546   0.288   5.943   5.303  0.1632 -0.2925  0.2152
17044TIP3    H172547   0.280   5.864   5.250  1.6341 -0.7129  0.5612
17044TIP3    H272548   0.300   5.911   5.393  2.6871  0.1791  0.1338
17045TIP3   OH272549   5.008   6.354  14.455 -0.1151 -0.0717  0.3826
17045TIP3    H172550   4.927   6.399  14.430 -0.7929 -0.1282  2.3134
17045TIP3    H272551   4.983   6.263  14.465  0.6304 -0.4274 -0.7583
17046TIP3   OH272552   5.697   1.798  13.917  0.4545  0.2498 -0.0010
17046TIP3    H172553   5.695   1.744  13.838  0.4982 -1.5431  1.1474
17046TIP3    H272554   5.620   1.772  13.967  0.1656  1.6951  0.3513
17047TIP3   OH272555   4.198   3.680   6.013 -0.1180 -0.5620  0.4944
17047TIP3    H172556   4.245   3.642   5.939  0.0777  2.3781 -1.0366
17047TIP3    H272557   4.259   3.672   6.086  0.4732 -1.8116 -0.1144
17048TIP3   OH272558   0.533   5.423  12.434  0.0271  0.2851  0.1577
17048TIP3    H172559   0.454   5.473  12.414 -0.2775 -0.7778 -1.5106
17048TIP3    H272560   0.604   5.487  12.427 -0.5669  0.9943  0.4857
17049TIP3   OH272561   0.487   1.071   3.285 -0.2146 -0.0355 -0.0189
17049TIP3    H172562   0.496   1.133   3.213 -1.0450 -0.7669 -0.7549
17049TIP3    H272563   0.560   1.093   3.344  0.9471  0.0482 -1.4510
17050TIP3   OH272564   0.872   1.937  14.307  0.6061 -0.1992 -0.5649
17050TIP3    H172565   0.880   1.924  14.401 -1.4051 -0.1631 -0.3520
17050TIP3    H272566   0.808   1.872  14.279  1.1018 -0.1409 -1.9086
17051TIP3   OH272567   5.625   5.357   0.401 -0.9442  0.0719  0.3108
17051TIP3    H172568   5.645   5.276   0.448 -0.8815 -0.3651 -0.4602
17051TIP3    H272569   5.632   5.426   0.468  2.7062 -0.0579  0.2661
17052TIP3   OH272570   4.844   5.187  14.406  0.2564  0.4445 -0.3630
17052TIP3    H172571   4.875   5.275  14.387 -1.2485  0.9900 -0.4540
17052TIP3    H272572   4.761   5.201  14.452  0.1816 -0.9209 -0.0505
17053TIP3   OH272573   0.675   2.149   1.956  0.0397 -0.0353 -0.1251
17053TIP3    H172574   0.689   2.219   2.020  0.1018 -0.2394  0.0884
17053TIP3    H272575   0.693   2.189   1.871 -0.6807  0.4153 -0.0677
17054TIP3   OH272576   5.705   0.343   3.392 -0.4486  0.2766  0.4407
17054TIP3    H172577   5.800   0.332   3.390 -0.5823 -1.1784  0.4488
17054TIP3    H272578   5.683   0.380   3.307  0.2733  2.3354  1.0952
17055TIP3   OH272579   0.699   6.088  12.453 -0.2601  0.3884  0.2010
17055TIP3    H172580   0.608   6.099  12.425  0.0321  0.3505 -0.7936
17055TIP3    H272581   0.718   6.166  12.505 -0.8293  0.4482  0.3232
17056TIP3   OH272582   0.857   2.990   3.585  0.5496  0.0693 -0.5300
17056TIP3    H172583   0.804   2.921   3.625 -0.9662  0.9047 -1.0159
17056TIP3    H272584   0.942   2.983   3.629 -0.0284 -1.1590  0.4602
17057TIP3   OH272585   2.804   2.037  14.316 -0.1532  0.0143  0.5546
17057TIP3    H172586   2.791   1.945  14.297  1.3497 -0.3190  0.9879
17057TIP3    H272587   2.764   2.050  14.402 -0.0667 -0.3268  0.6477
17058TIP3   OH272588   5.139   0.996   3.122 -0.2646 -0.2138 -0.2079
17058TIP3    H172589   5.209   0.935   3.142 -0.7058 -0.3351  1.0394
17058TIP3    H272590   5.150   1.068   3.184 -0.5213  0.3592 -0.8070
17059TIP3   OH272591   4.641   1.319  12.674  0.1015 -0.2179  0.0392
17059TIP3    H172592   4.670   1.320  12.766  1.4830  0.5577 -0.3701
17059TIP3    H272593   4.563   1.264  12.674  1.6946 -2.6640  1.1905
17060TIP3   OH272594   2.693   3.601  15.560  0.1633 -0.4720  0.6394
17060TIP3    H172595   2.779   3.597  15.602 -0.0271  0.2455  1.1219
17060TIP3    H272596   2.683   3.694  15.536  0.2931 -0.8596 -1.0539
17061TIP3   OH272597   4.697   4.829  15.406 -0.4018  0.0852  0.3469
17061TIP3    H172598   4.721   4.748  15.451  0.4159 -0.0256 -0.2754
17061TIP3    H272599   4.616   4.807  15.359  0.5383 -0.8117 -0.9371
17062TIP3   OH272600   3.820   3.098  16.871 -0.0996 -0.3294 -0.1786
17062TIP3    H172601   3.724   3.096  16.873 -0.0939 -0.2407  1.4381
17062TIP3    H272602   3.846   3.087  16.962  1.4835 -1.9779 -0.7673
17063TIP3   OH272603   0.661   6.747  12.290 -0.0763 -0.1624 -0.1143
17063TIP3    H172604   0.601   6.717  12.222  0.1601  1.4168 -1.0597
17063TIP3    H272605   0.746   6.714  12.263  0.2069  1.4214 -1.2240
17064TIP3   OH272606   2.647   5.118  15.585  0.0314 -0.1995 -0.3888
17064TIP3    H172607   2.615   5.208  15.576 -0.5183 -0.4188 -0.6393
17064TIP3    H272608   2.714   5.124  15.653 -1.6204  0.0021  1.3003
17065TIP3   OH272609   4.091   5.284  16.193  0.0273  0.4890  0.3452
17065TIP3    H172610   4.050   5.232  16.124  1.2388 -0.8994  0.6186
17065TIP3    H272611   4.182   5.293  16.166  0.4781  0.0883  1.6510
17066TIP3   OH272612   3.169   3.013   4.138 -0.5277  0.0806 -0.1581
17066TIP3    H172613   3.233   3.020   4.209  0.1780 -1.3795 -0.5895
17066TIP3    H272614   3.194   3.081   4.076  0.2144 -0.0558 -0.0158
17067TIP3   OH272615   4.354   6.695  15.219 -0.0042  0.5055  0.0435
17067TIP3    H172616   4.275   6.739  15.248  1.2067  2.5538  0.4156
17067TIP3    H272617   4.324   6.636  15.149 -2.1231 -0.3830  1.5956
17068TIP3   OH272618   6.565   3.992  14.835 -0.1942 -0.9775 -0.0960
17068TIP3    H172619   6.582   3.927  14.766 -2.2890 -2.4876  0.7124
17068TIP3    H272620   6.552   3.940  14.914 -0.8174  0.5214  0.8237
17069TIP3   OH272621   6.679   1.250  16.103  0.2811 -0.5245  0.2640
17069TIP3    H172622   6.613   1.191  16.141  0.7394 -1.4039 -0.2848
17069TIP3    H272623   6.754   1.194  16.085  1.0833  0.4104  0.5873
17070TIP3   OH272624   5.624   6.069  15.019 -0.7066  0.1616  0.1367
17070TIP3    H172625   5.569   6.146  15.028 -0.0808  0.5297  0.9226
17070TIP3    H272626   5.713   6.101  15.031 -0.4143 -0.6302  0.1513
17071TIP3   OH272627   5.746   1.779  12.432  0.1616 -0.5466  0.0802
17071TIP3    H172628   5.721   1.799  12.523 -3.4325 -0.7615 -0.7185
17071TIP3    H272629   5.691   1.705  12.408 -0.0029  0.3756 -2.7101
17072TIP3   OH272630   2.635   0.095  11.362 -0.0268 -0.0028 -0.1678
17072TIP3    H172631   2.600   0.006  11.365 -0.7734  0.1112 -3.0791
17072TIP3    H272632   2.558   0.151  11.375  0.0908  0.2348 -0.5074
17073TIP3   OH272633   2.779   4.407  10.897  0.5096  0.0342 -0.1367
17073TIP3    H172634   2.777   4.499  10.924  1.1102 -0.3047  1.1386
17073TIP3    H272635   2.868   4.395  10.863 -0.2475  0.4665 -2.4340
17074TIP3   OH272636   3.046   6.686  16.722  0.1826 -0.1308  0.1171
17074TIP3    H172637   3.113   6.742  16.684  0.0497  0.3777  0.6154
17074TIP3    H272638   3.041   6.712  16.814 -0.4811 -0.3668  0.1603
17075TIP3   OH272639   6.367   2.488   6.022 -0.0877 -0.2288 -0.2323
17075TIP3    H172640   6.331   2.518   5.938  1.7311  0.5845 -0.7660
17075TIP3    H272641   6.358   2.564   6.079  2.1033  0.5389 -0.8208
17076TIP3   OH272642   2.618   5.358   2.292  0.0374 -0.0566  0.5969
17076TIP3    H172643   2.654   5.411   2.363 -2.2003 -0.1873  1.9134
17076TIP3    H272644   2.552   5.304   2.333 -0.3553 -1.1791 -1.3810
17077TIP3   OH272645   4.414   1.433  11.362  0.3314  0.4472 -0.0936
17077TIP3    H172646   4.413   1.529  11.358 -1.1028  0.4234 -0.7529
17077TIP3    H272647   4.420   1.405  11.270 -2.6785 -0.0657 -0.2179
17078TIP3   OH272648   6.119   3.081  13.956 -0.1399  0.0881  0.2316
17078TIP3    H172649   6.129   3.102  14.049 -1.8820 -1.7998  0.9329
17078TIP3    H272650   6.078   3.159  13.918  1.7130  1.3643  0.7384
17079TIP3   OH272651   4.497   2.919   5.681  0.8295 -0.4238 -0.2130
17079TIP3    H172652   4.561   2.848   5.674  2.6974  0.7430  2.8193
17079TIP3    H272653   4.476   2.922   5.774 -1.4242  1.1811 -0.7033
17080TIP3   OH272654   2.341   3.141  15.409  0.3998  0.5533 -0.2921
17080TIP3    H172655   2.256   3.160  15.447  0.1188 -1.5615  0.2457
17080TIP3    H272656   2.404   3.173  15.474 -0.0675 -1.9931  1.5369
17081TIP3   OH272657   1.332   6.056   4.463 -0.2734 -0.6998 -0.0619
17081TIP3    H172658   1.343   6.118   4.392  0.3955 -1.0475 -0.2732
17081TIP3    H272659   1.292   5.979   4.423 -2.1328 -0.0281  0.4067
17082TIP3   OH272660   3.282   6.310  17.148  0.2315 -0.2589  0.1621
17082TIP3    H172661   3.196   6.270  17.135 -0.1183  0.1102  1.2694
17082TIP3    H272662   3.270   6.401  17.121 -0.1739  0.2030  1.8209
17083TIP3   OH272663   6.758   0.130   0.452  0.0274  0.0059  0.2817
17083TIP3    H172664   6.819   0.057   0.460  0.9181  0.6896 -0.0145
17083TIP3    H272665   6.683   0.105   0.505 -0.8634 -2.2977 -1.8451
17084TIP3   OH272666   2.844   3.225   0.905 -0.6100  0.2123 -0.6180
17084TIP3    H172667   2.932   3.193   0.927 -1.1677 -1.9921 -1.3842
17084TIP3    H272668   2.792   3.208   0.984 -0.6035  0.4748 -0.5571
17085TIP3   OH272669   3.866   1.037   0.290  0.1004  0.0365  0.2671
17085TIP3    H172670   3.837   1.052   0.200  1.5192  0.0245 -0.2201
17085TIP3    H272671   3.898   0.947   0.290  0.3169  0.1093  0.7192
17086TIP3   OH272672   4.687   2.056   4.422 -0.2327 -0.4950 -0.7274
17086TIP3    H172673   4.681   2.118   4.495  1.6187  1.2769 -1.9895
17086TIP3    H272674   4.608   2.001   4.431 -2.3000  2.3858  0.1548
17087TIP3   OH272675   3.131   6.388   3.690  0.4244  0.1681  0.2675
17087TIP3    H172676   3.210   6.385   3.744  1.4174  1.8335 -0.9805
17087TIP3    H272677   3.088   6.470   3.716 -0.2365 -0.1130  0.0773
17088TIP3   OH272678   2.012   0.904   1.309  0.0017 -0.3093  0.6778
17088TIP3    H172679   1.920   0.880   1.310  0.3599 -1.7236  1.0457
17088TIP3    H272680   2.018   0.973   1.242 -1.5328  0.8336  1.6582
17089TIP3   OH272681   4.275   3.448  11.245 -0.3192 -0.0204  0.0572
17089TIP3    H172682   4.321   3.372  11.209 -1.5881 -0.2859 -1.0873
17089TIP3    H272683   4.212   3.472  11.177 -0.0257  1.9923  0.4541
17090TIP3   OH272684   2.601   3.848  15.415  0.0889  0.5789 -0.3394
17090TIP3    H172685   2.653   3.919  15.453  0.9379  0.4062 -1.1590
17090TIP3    H272686   2.516   3.855  15.460  1.1691  0.1063  1.9561
17091TIP3   OH272687   6.684   5.777  17.078 -0.3900  0.2104  0.0749
17091TIP3    H172688   6.776   5.785  17.104 -1.0095 -1.1636  3.0563
17091TIP3    H272689   6.654   5.867  17.069  0.6252  0.7248  1.5236
17092TIP3   OH272690   1.965   5.288  15.219 -0.0540  0.0562 -0.4426
17092TIP3    H172691   1.871   5.272  15.223  0.0141 -0.4389 -0.7810
17092TIP3    H272692   1.977   5.346  15.143 -0.0474 -0.1816 -0.6242
17093TIP3   OH272693   0.421   0.045  12.882 -0.4425  0.1730 -0.0984
17093TIP3    H172694   0.502   0.087  12.853  0.1018 -0.9316 -0.2537
17093TIP3    H272695   0.364   0.117  12.909  0.7637  0.9521  0.4513
17094TIP3   OH272696   5.706   4.184   1.981 -0.2298 -0.4086  1.2048
17094TIP3    H172697   5.749   4.154   2.061 -1.7170 -1.0690  1.7908
17094TIP3    H272698   5.618   4.207   2.008 -1.2587 -2.0800 -0.4874
17095TIP3   OH272699   5.178   6.695   2.468 -0.3471 -0.5614 -0.2243
17095TIP3    H172700   5.217   6.677   2.554  0.5442  1.2649 -0.2076
17095TIP3    H272701   5.245   6.746   2.421 -1.8865  0.8549 -0.9756
17096TIP3   OH272702   1.928   3.797   2.316 -0.1981 -0.3527 -0.5642
17096TIP3    H172703   1.998   3.759   2.369 -0.3760 -0.6660 -0.5528
17096TIP3    H272704   1.866   3.725   2.303 -1.5383  0.4461  1.1315
17097TIP3   OH272705   2.825   3.747   2.203  0.0718 -0.1910 -0.4274
17097TIP3    H172706   2.793   3.774   2.289  1.6883  1.5994 -0.3219
17097TIP3    H272707   2.787   3.660   2.189 -2.3743  0.5918  0.8893
17098TIP3   OH272708   0.202   5.570   0.948 -0.0632  0.3082 -0.3167
17098TIP3    H172709   0.253   5.489   0.946  0.2086  0.4856 -0.5822
17098TIP3    H272710   0.267   5.640   0.950 -0.2644  0.4955  2.5364
17099TIP3   OH272711   4.592   0.901   1.712 -0.1064 -0.6589  0.1355
17099TIP3    H172712   4.537   0.825   1.730  0.4610 -1.3581 -0.9269
17099TIP3    H272713   4.649   0.872   1.640  1.8489 -0.0882  1.3705
17100TIP3   OH272714   2.845   4.986   3.458  0.1213 -0.0788  0.2084
17100TIP3    H172715   2.891   5.069   3.445 -0.5302  0.5101  1.4981
17100TIP3    H272716   2.759   5.010   3.492 -0.4320 -1.2482 -0.2838
17101TIP3   OH272717   3.548   6.306   1.788  0.5261 -0.0688 -0.3593
17101TIP3    H172718   3.548   6.317   1.693 -1.7709 -2.1166 -0.6959
17101TIP3    H272719   3.635   6.337   1.816  0.5342  2.5631 -2.7981
17102TIP3   OH272720   4.039   1.135   4.222  0.1214  0.6844  0.1800
17102TIP3    H172721   3.962   1.086   4.251  0.8176 -0.1661  0.6502
17102TIP3    H272722   4.073   1.083   4.149  0.3134  1.0023  0.0432
17103TIP3   OH272723   3.189   1.356  13.751 -0.3228 -0.3909  0.6478
17103TIP3    H172724   3.188   1.289  13.819  0.2157 -0.1649  0.8936
17103TIP3    H272725   3.182   1.439  13.799  4.3483  0.1116  0.9639
17104TIP3   OH272726   4.676   1.299  15.144  0.1244  0.8019 -0.1125
17104TIP3    H172727   4.589   1.318  15.108  1.5236  2.1228 -3.2261
17104TIP3    H272728   4.708   1.226  15.090  0.6111 -0.3963  1.7147
17105TIP3   OH272729   5.397   0.719   6.690 -0.2062  0.0666  0.0801
17105TIP3    H172730   5.491   0.716   6.674 -0.5417 -0.6549 -2.0663
17105TIP3    H272731   5.383   0.657   6.762  1.0915  1.3017  1.4655
17106TIP3   OH272732   5.846   0.969   5.018 -0.2099  0.6293 -0.6105
17106TIP3    H172733   5.805   0.999   5.099  2.3079  0.5650  0.7626
17106TIP3    H272734   5.876   1.049   4.975  0.5892  0.5172 -0.2694
17107TIP3   OH272735   1.721   2.802   3.978  0.4013 -0.0483 -0.5847
17107TIP3    H172736   1.692   2.765   3.894 -0.4064  1.2208 -0.8945
17107TIP3    H272737   1.639   2.825   4.023  0.8175  3.1133 -1.2403
17108TIP3   OH272738   2.075   2.052  12.595  0.2889  0.0104  0.5298
17108TIP3    H172739   1.995   2.032  12.548 -0.5720  1.2479  1.3814
17108TIP3    H272740   2.046   2.102  12.672  1.9608  1.8555  0.0662
17109TIP3   OH272741   5.808   5.370   3.929 -0.4865  0.1364  0.0370
17109TIP3    H172742   5.765   5.454   3.946  0.0098  0.2211  0.9273
17109TIP3    H272743   5.902   5.390   3.931 -0.3318 -0.5956  1.2303
17110TIP3   OH272744   0.361   4.095  12.305  0.0405  0.0358  0.0394
17110TIP3    H172745   0.346   4.016  12.357 -1.4383  0.4358  0.2586
17110TIP3    H272746   0.373   4.063  12.215 -0.5161 -0.4474  0.1290
17111TIP3   OH272747   5.982   5.076   0.837  0.1367  0.4776  0.5136
17111TIP3    H172748   6.030   5.095   0.917  1.4826  2.0007 -0.5838
17111TIP3    H272749   5.890   5.095   0.858  0.3570  0.1301  1.8746
17112TIP3   OH272750   0.897   3.590  15.242  0.1555 -0.3119  0.5444
17112TIP3    H172751   0.849   3.577  15.324 -0.2603  0.3017  0.4086
17112TIP3    H272752   0.834   3.569  15.174  0.4048 -0.5224  0.3778
17113TIP3   OH272753   0.882   1.083  11.827  0.2765 -0.2469  0.2840
17113TIP3    H172754   0.865   1.160  11.881 -1.0840 -0.2327 -0.1322
17113TIP3    H272755   0.959   1.043  11.866 -0.4630 -0.0472  2.0385
17114TIP3   OH272756   0.737   0.678   0.183 -0.1802  0.5727 -0.2624
17114TIP3    H172757   0.711   0.598   0.227 -0.6253  1.2452  0.7416
17114TIP3    H272758   0.824   0.698   0.217  1.2064 -0.9715 -2.6423
17115TIP3   OH272759   1.346   0.436  12.981 -0.0779  0.0998  0.2800
17115TIP3    H172760   1.301   0.474  13.056  0.8790  0.7297  0.5593
17115TIP3    H272761   1.300   0.354  12.964 -0.2213 -0.1176  1.6390
17116TIP3   OH272762   5.945   0.168   6.193  0.7998 -0.7510  0.1050
17116TIP3    H172763   6.025   0.115   6.195  0.7641 -0.7926  0.5135
17116TIP3    H272764   5.971   0.248   6.148  1.2956 -0.4101  0.9737
17117TIP3   OH272765   3.764   3.540  12.674 -0.5293  0.3052  0.3592
17117TIP3    H172766   3.800   3.510  12.590 -0.0932 -0.5574  0.8316
17117TIP3    H272767   3.728   3.626  12.655 -2.6033 -0.8153 -1.2816
17118TIP3   OH272768   3.708   3.352   1.266 -0.0952 -0.2195  0.3637
17118TIP3    H172769   3.782   3.325   1.211 -0.3715  1.2342 -0.7809
17118TIP3    H272770   3.749   3.399   1.339  0.1936 -0.9704  0.7009
17119TIP3   OH272771   2.236   4.659   5.810  0.1005  0.5397  0.9401
17119TIP3    H172772   2.285   4.693   5.885  2.1039 -1.7118  0.7701
17119TIP3    H272773   2.154   4.709   5.810  0.5597  1.4780  3.8550
17120TIP3   OH272774   1.127   1.683  11.919  0.4368  0.7412 -0.4331
17120TIP3    H172775   1.210   1.699  11.964  0.7307  0.3661 -0.8364
17120TIP3    H272776   1.060   1.706  11.984  0.8536  0.5757  0.0606
17121TIP3   OH272777   0.354   2.197   4.729 -0.4339 -0.1489  0.0841
17121TIP3    H172778   0.430   2.246   4.760 -2.4298  3.4215 -0.1959
17121TIP3    H272779   0.282   2.226   4.785 -2.0624 -1.7191 -1.0629
17122TIP3   OH272780   3.418   2.016  17.084  0.4217 -0.2196 -0.1159
17122TIP3    H172781   3.378   1.948  17.030 -0.1040  1.1544 -1.5108
17122TIP3    H272782   3.446   2.083  17.022  4.0416 -0.6257  0.8695
17123TIP3   OH272783   3.747   2.222  10.543  0.1497 -0.0705  0.5643
17123TIP3    H172784   3.728   2.233  10.636  1.5227  1.4799  0.7113
17123TIP3    H272785   3.839   2.198  10.540  0.9908  2.8000 -0.4228
17124TIP3   OH272786   0.765   1.340   5.801  0.0099 -0.0781  0.0854
17124TIP3    H172787   0.817   1.414   5.831 -1.1767  0.8225 -0.0276
17124TIP3    H272788   0.829   1.280   5.763  1.1889  0.0851  1.7271
17125TIP3   OH272789   1.640   0.138   0.060 -0.4030 -0.3855 -0.2292
17125TIP3    H172790   1.617   0.186   0.139  1.4086  0.8749 -0.3872
17125TIP3    H272791   1.670   0.053   0.091 -1.2021 -0.4840  0.2913
17126TIP3   OH272792   6.714   1.285  11.542 -0.3392 -0.4811  0.0453
17126TIP3    H172793   6.700   1.205  11.592  0.6553 -0.0920  0.9718
17126TIP3    H272794   6.630   1.329  11.542 -0.7166 -1.1951  0.1097
17127TIP3   OH272795   6.277   3.630   3.219  0.1152  0.3855 -0.2401
17127TIP3    H172796   6.215   3.572   3.262  0.2957  0.1762 -0.2589
17127TIP3    H272797   6.270   3.712   3.268 -1.4005  0.9254 -1.3074
17128TIP3   OH272798   0.236   2.881   3.303  0.0190  0.0244 -0.8131
17128TIP3    H172799   0.190   2.812   3.352 -0.8636  1.1030 -0.0753
17128TIP3    H272800   0.185   2.960   3.320  0.1436  0.6059 -2.8443
17129TIP3   OH272801   3.560   3.740  14.143  0.4225  0.2586 -0.3105
17129TIP3    H172802   3.593   3.824  14.175  0.0599  1.3697 -2.6126
17129TIP3    H272803   3.468   3.740  14.169 -0.3908  2.0499 -2.7888
17130TIP3   OH272804   3.109   6.156   1.942  0.3843 -0.6737  0.3190
17130TIP3    H172805   3.027   6.178   1.986  0.5683  0.4056  0.1362
17130TIP3    H272806   3.082   6.110   1.862 -0.0527  0.0276  0.0620
17131TIP3   OH272807   0.794   1.846   3.697 -0.4371 -0.0224  0.5580
17131TIP3    H172808   0.859   1.912   3.672 -1.8945  1.0797 -0.4874
17131TIP3    H272809   0.822   1.818   3.784  1.1173  0.8211  0.3721
17132TIP3   OH272810   4.262   0.717   0.612  0.1882 -0.3055 -0.0771
17132TIP3    H172811   4.352   0.738   0.637 -0.1694 -0.2022  1.1723
17132TIP3    H272812   4.235   0.649   0.674 -0.0927 -1.4563 -1.4098
17133TIP3   OH272813   0.860   2.156  17.276  0.1379 -0.7614  0.1152
17133TIP3    H172814   0.912   2.077  17.263  1.2020 -0.2990  1.3965
17133TIP3    H272815   0.919   2.228  17.256  0.1608 -0.2112  1.9699
17134TIP3   OH272816   5.334   2.905  13.609 -0.7594 -0.5303 -0.3772
17134TIP3    H172817   5.337   2.847  13.533  1.4594 -0.4025 -0.4439
17134TIP3    H272818   5.282   2.980  13.579 -0.2328 -0.6450 -1.6685
17135TIP3   OH272819   3.931   2.355  11.592  0.0867 -0.0986  0.2593
17135TIP3    H172820   3.891   2.380  11.676 -0.6737  0.5144 -0.2623
17135TIP3    H272821   4.019   2.392  11.596  0.2779 -0.6148  1.0362
17136TIP3   OH272822   4.070   5.972  11.969  0.3208  0.1452  0.5252
17136TIP3    H172823   4.071   6.058  12.012  1.0561 -0.3151  1.4686
17136TIP3    H272824   4.110   5.987  11.884  2.4861  0.3472  1.5212
17137TIP3   OH272825   5.256   4.715  14.716  0.2945  0.1929 -0.3805
17137TIP3    H172826   5.208   4.705  14.634 -0.2131 -1.2473  0.0551
17137TIP3    H272827   5.348   4.716  14.691  0.1640 -0.8238 -0.9319
17138TIP3   OH272828   0.112   2.682  16.047 -0.6776  0.6051  0.5199
17138TIP3    H172829   0.144   2.700  15.959  0.4085  1.4357  1.0702
17138TIP3    H272830   0.028   2.637  16.033 -1.0700  1.7139 -0.9269
17139TIP3   OH272831   1.554   2.437  17.186  0.4238 -0.0477 -0.0367
17139TIP3    H172832   1.633   2.460  17.234  0.3351 -0.1139  0.1434
17139TIP3    H272833   1.492   2.410  17.254  0.7136 -1.3795 -0.2748
17140TIP3   OH272834   1.329   6.412  12.695  0.3097  0.4207 -0.0170
17140TIP3    H172835   1.421   6.426  12.673  0.2582  0.1244 -0.4247
17140TIP3    H272836   1.289   6.498  12.688  0.7453  0.7279  1.0882
17141TIP3   OH272837   5.639   1.795  14.221 -0.1864  0.2705  0.1061
17141TIP3    H172838   5.567   1.795  14.158 -1.1126  2.8325  1.0385
17141TIP3    H272839   5.616   1.863  14.284  2.3685  0.1619  1.2949
17142TIP3   OH272840   5.379   6.212  12.720 -0.6616  0.5496  0.2334
17142TIP3    H172841   5.470   6.216  12.748 -0.8975 -1.2272  1.4316
17142TIP3    H272842   5.373   6.134  12.665 -1.5483  0.3556  0.5774
17143TIP3   OH272843   4.855   1.744  10.654 -0.0766  0.0194 -0.3829
17143TIP3    H172844   4.876   1.656  10.686 -1.3684 -0.1567 -0.0083
17143TIP3    H272845   4.868   1.801  10.729 -1.4636 -0.1716  0.0268
17144TIP3   OH272846   5.888   6.410  12.329 -0.2638 -0.1830 -0.5554
17144TIP3    H172847   5.897   6.332  12.274 -1.6926 -0.8142  0.0577
17144TIP3    H272848   5.934   6.388  12.410 -0.8604 -0.5004 -0.2934
17145TIP3   OH272849   4.864   5.509   1.618 -0.4761  0.1832  0.0771
17145TIP3    H172850   4.771   5.500   1.642 -0.4135 -1.1658 -0.1289
17145TIP3    H272851   4.879   5.441   1.553  0.2607  1.5030 -1.1896
17146TIP3   OH272852   3.117   1.270   2.940 -0.0382  0.4456 -0.0832
17146TIP3    H172853   3.136   1.182   2.973 -3.6612 -1.6565 -2.8272
17146TIP3    H272854   3.193   1.292   2.886  1.7419 -0.0727  2.0578
17147TIP3   OH272855   4.407   5.849  15.984  0.3678 -0.9469 -0.1464
17147TIP3    H172856   4.336   5.817  15.929  1.3828 -1.4036 -1.2505
17147TIP3    H272857   4.391   5.809  16.070 -1.6876  0.4281  0.1739
17148TIP3   OH272858   4.016   3.438   5.755  0.2946  0.7907 -0.0770
17148TIP3    H172859   4.108   3.456   5.776  0.0708  2.8565 -0.6464
17148TIP3    H272860   4.017   3.351   5.717  1.7699  0.0601  1.4633
17149TIP3   OH272861   6.367   3.245   5.938  0.5213  0.5292 -0.0659
17149TIP3    H172862   6.414   3.230   5.856  0.6228 -0.4502  0.1492
17149TIP3    H272863   6.351   3.157   5.972  0.8520  0.9174  1.1635
17150TIP3   OH272864   3.823   2.560  13.378  0.0041 -0.1159  0.3877
17150TIP3    H172865   3.739   2.601  13.356  0.4229  0.4228 -0.2487
17150TIP3    H272866   3.810   2.524  13.466 -1.0395 -0.4425  0.1160
17151TIP3   OH272867   0.769   0.375   6.382 -0.1876  0.5867  0.7062
17151TIP3    H172868   0.772   0.436   6.456 -2.2620  0.7284  0.7138
17151TIP3    H272869   0.731   0.295   6.419  1.7684 -0.5034  0.5119
17152TIP3   OH272870   2.554   4.027  14.240 -0.1184  0.1656  0.4073
17152TIP3    H172871   2.638   4.006  14.197  0.2934 -0.1651  1.3351
17152TIP3    H272872   2.548   3.963  14.311 -0.8103  0.6545  0.7953
17153TIP3   OH272873   2.147   3.331   0.661 -0.1401 -0.2485  0.4825
17153TIP3    H172874   2.076   3.297   0.606 -0.3957 -0.6026  1.0144
17153TIP3    H272875   2.226   3.287   0.628 -0.2037 -0.0430  0.0487
17154TIP3   OH272876   6.417   4.954  14.922  0.1027 -0.3407  0.0189
17154TIP3    H172877   6.395   4.949  15.015 -0.5802  3.2633  0.1801
17154TIP3    H272878   6.512   4.944  14.920  0.0305 -1.5754  0.9092
17155TIP3   OH272879   1.309   0.622   4.518  0.2875 -0.9291 -0.6658
17155TIP3    H172880   1.269   0.541   4.550 -2.2804  0.7889  0.7447
17155TIP3    H272881   1.326   0.674   4.596  1.7688  0.0258 -1.5572
17156TIP3   OH272882   0.782   6.727  11.794 -0.0946  0.3555  0.1748
17156TIP3    H172883   0.761   6.799  11.854  0.5483  1.1022 -0.4792
17156TIP3    H272884   0.868   6.750  11.758 -0.3642 -0.1966 -0.8612
17157TIP3   OH272885   6.386   6.207   4.588 -0.6768 -0.0690 -0.0410
17157TIP3    H172886   6.318   6.264   4.553 -0.2080 -0.2989 -1.3833
17157TIP3    H272887   6.459   6.217   4.527  1.3264  1.7536  2.4668
17158TIP3   OH272888   3.191   0.522  14.690  0.1812 -0.3723  1.2782
17158TIP3    H172889   3.137   0.592  14.727 -1.9578 -1.6078  0.6706
17158TIP3    H272890   3.255   0.567  14.636 -2.5928  1.1690 -1.0229
17159TIP3   OH272891   1.129   4.763  13.220 -0.3039 -0.0472 -0.5221
17159TIP3    H172892   1.058   4.815  13.183 -0.1614 -0.4244 -1.3482
17159TIP3    H272893   1.201   4.825  13.230  0.1426 -0.2235 -2.2869
17160TIP3   OH272894   3.163   0.587  11.704  0.2239  0.3151 -0.5505
17160TIP3    H172895   3.216   0.666  11.712  0.5341  0.1541 -0.9361
17160TIP3    H272896   3.142   0.583  11.610 -1.3786  0.9530 -0.2474
17161TIP3   OH272897   2.443   0.619   3.956  0.0890 -0.6175  0.3644
17161TIP3    H172898   2.503   0.601   4.028 -0.0286 -1.4151  0.2720
17161TIP3    H272899   2.417   0.533   3.923 -1.0418 -0.2953  0.3507
17162TIP3   OH272900   3.901   5.060  16.819  0.2353 -0.6101 -0.1724
17162TIP3    H172901   3.979   5.066  16.875 -0.5191 -1.6352  1.0528
17162TIP3    H272902   3.907   4.974  16.779  0.5464 -0.0435 -1.3753
17163TIP3   OH272903   1.032   0.119  14.992 -0.1869 -0.0124  0.2981
17163TIP3    H172904   1.070   0.045  14.946 -1.4271  0.0048 -0.8134
17163TIP3    H272905   1.076   0.196  14.955  0.0749 -0.0991  0.4256
17164TIP3   OH272906   3.527   5.060   0.192  0.0797 -0.0093 -0.0093
17164TIP3    H172907   3.540   5.077   0.098 -0.8206  0.4110 -0.0760
17164TIP3    H272908   3.450   5.112   0.214  0.8804  0.6933  1.2044
17165TIP3   OH272909   4.526   6.460  15.162  0.0682 -0.3175  0.0026
17165TIP3    H172910   4.451   6.422  15.115 -0.1235  0.2885 -0.1815
17165TIP3    H272911   4.494   6.543  15.196  0.5760 -0.1864  0.1725
17166TIP3   OH272912   1.398   5.326  16.190  0.7847 -0.1213 -0.0161
17166TIP3    H172913   1.387   5.255  16.254  0.6689 -0.7868 -0.7648
17166TIP3    H272914   1.401   5.282  16.105 -1.5660  0.9201 -0.7322
17167TIP3   OH272915   0.560   1.298  11.996  0.3825 -0.9149 -0.8368
17167TIP3    H172916   0.609   1.312  12.077  0.3449 -0.4008 -0.9015
17167TIP3    H272917   0.583   1.373  11.941 -0.0950 -0.9289 -1.0567
17168TIP3   OH272918   2.226   4.087  13.204  0.5052 -0.3185  0.0626
17168TIP3    H172919   2.307   4.118  13.244 -0.0901  1.0963  0.2486
17168TIP3    H272920   2.197   4.015  13.259  2.0680 -1.4417 -0.5132
17169TIP3   OH272921   0.568   2.108   2.352  0.1047 -0.1093  0.0763
17169TIP3    H172922   0.613   2.174   2.301 -0.0145 -0.7385 -0.8628
17169TIP3    H272923   0.631   2.036   2.360  0.2474  0.1058  1.1187
17170TIP3   OH272924   4.651   4.650   2.630  0.1878 -0.3997  0.8906
17170TIP3    H172925   4.612   4.604   2.555 -1.0137  0.7558  0.7620
17170TIP3    H272926   4.740   4.670   2.602  0.1751 -1.1320  0.2923
17171TIP3   OH272927   1.816   3.642   3.846  0.5180  0.1089 -0.0430
17171TIP3    H172928   1.878   3.665   3.777  1.2268 -0.4251  0.4107
17171TIP3    H272929   1.732   3.632   3.800  0.5917  1.6019 -0.5386
17172TIP3   OH272930   0.824   6.067   2.415  0.2583 -0.4025 -0.2452
17172TIP3    H172931   0.795   5.979   2.437  0.4863 -0.7384 -1.2345
17172TIP3    H272932   0.920   6.062   2.416  0.3865  0.6337  2.7489
17173TIP3   OH272933   1.157   0.475  13.772  0.5521  0.2984  0.1194
17173TIP3    H172934   1.072   0.502  13.739  1.0110  2.7864  0.7437
17173TIP3    H272935   1.148   0.474  13.867  1.0727  0.1311  0.1737
17174TIP3   OH272936   1.454   1.277   4.566 -0.1847  0.2686  0.0224
17174TIP3    H172937   1.490   1.229   4.492 -1.5789  2.3015 -2.1075
17174TIP3    H272938   1.521   1.342   4.588  0.2559 -0.3754  0.6537
17175TIP3   OH272939   6.121   4.636  17.025  0.0496  0.5080 -0.1984
17175TIP3    H172940   6.188   4.575  17.057 -2.1237 -0.5081  2.8208
17175TIP3    H272941   6.171   4.710  16.989  2.7503 -1.4541 -0.8236
17176TIP3   OH272942   5.085   0.864   2.417  0.3346  0.3699 -0.3741
17176TIP3    H172943   5.055   0.898   2.501  1.2942  0.3527 -0.0188
17176TIP3    H272944   5.006   0.828   2.376 -0.2540  0.9472  0.2395
17177TIP3   OH272945   5.154   5.545  16.896 -0.2248  0.0318 -0.4284
17177TIP3    H172946   5.226   5.609  16.902  1.2898 -1.6465  0.2949
17177TIP3    H272947   5.084   5.592  16.851  1.2568  1.8116 -1.0215
17178TIP3   OH272948   4.863   5.194  15.869 -0.3617 -0.1358 -0.2470
17178TIP3    H172949   4.868   5.120  15.809 -0.6541 -0.2565 -0.1234
17178TIP3    H272950   4.921   5.169  15.942  1.1063  0.6106 -1.1030
17179TIP3   OH272951   4.648   2.656   3.750 -0.3408  0.1408 -0.2577
17179TIP3    H172952   4.696   2.573   3.756 -1.2281 -0.3171  1.0536
17179TIP3    H272953   4.673   2.703   3.829 -3.3391 -0.8798  1.4488
17180TIP3   OH272954   4.135   1.437  14.488  0.2203  0.2117  0.0893
17180TIP3    H172955   4.152   1.491  14.411  0.9819 -0.1453 -0.0015
17180TIP3    H272956   4.072   1.372  14.457 -2.2167  2.1289  0.6788
17181TIP3   OH272957   5.568   3.298  16.768  0.1917  0.7118  0.1030
17181TIP3    H172958   5.609   3.220  16.805 -2.3613 -0.7715  0.0191
17181TIP3    H272959   5.587   3.294  16.675  1.2528  1.0066  0.2877
17182TIP3   OH272960   0.035   0.376   5.420  0.0045 -0.2928  0.4704
17182TIP3    H172961  -0.022   0.384   5.344  1.2137  0.5458 -0.3834
17182TIP3    H272962   0.123   0.373   5.383  0.5295 -1.7135  1.7418
17183TIP3   OH272963   1.491   3.493  12.662  0.3503 -0.2218  0.8663
17183TIP3    H172964   1.517   3.464  12.575  0.3641  0.2931  0.6956
17183TIP3    H272965   1.538   3.434  12.722  0.0153 -0.8405  0.5270
17184TIP3   OH272966   1.194   2.095  16.029  0.7450 -0.1855  0.2276
17184TIP3    H172967   1.105   2.118  16.002  0.8325  0.4161  0.4465
17184TIP3    H272968   1.213   2.153  16.102  0.3356 -2.1203  1.9523
17185TIP3   OH272969   0.959   3.733  16.599 -0.3524  0.3970  0.6637
17185TIP3    H172970   0.881   3.723  16.544  0.2021  1.0913 -0.2623
17185TIP3    H272971   0.939   3.681  16.677 -1.6470  0.3735  0.3427
17186TIP3   OH272972   3.176   0.823  12.330 -0.5596  0.5489 -0.9467
17186TIP3    H172973   3.226   0.848  12.407  0.2898 -1.3986 -0.8194
17186TIP3    H272974   3.085   0.824  12.359 -0.3928  1.5359 -0.4321
17187TIP3   OH272975   6.141   5.792   0.767 -0.0310 -0.3693  0.3022
17187TIP3    H172976   6.231   5.764   0.782  0.4656  0.3943 -1.1064
17187TIP3    H272977   6.144   5.844   0.687 -1.5858  0.4114  0.6968
17188TIP3   OH272978   6.404   3.860   4.018 -0.0128  0.2416  0.3548
17188TIP3    H172979   6.411   3.879   3.925  0.2992 -0.4997  0.2244
17188TIP3    H272980   6.325   3.807   4.026  0.0728  0.1345  0.4868
17189TIP3   OH272981   6.114   1.139  15.779 -0.3993 -0.1844  0.4859
17189TIP3    H172982   6.058   1.085  15.835  1.1549 -1.7582  0.6145
17189TIP3    H272983   6.080   1.227  15.790 -1.5578 -0.7756  2.1591
17190TIP3   OH272984   5.844   5.358   1.408  0.2755  0.2740  0.0818
17190TIP3    H172985   5.885   5.317   1.332 -1.3012 -1.3263  0.0325
17190TIP3    H272986   5.808   5.285   1.458 -1.3956  1.4883  0.7528
17191TIP3   OH272987   5.133   6.537   3.694  0.2739  0.3895 -0.0725
17191TIP3    H172988   5.049   6.582   3.703  0.0586 -0.1699  0.9322
17191TIP3    H272989   5.191   6.601   3.653 -0.5487  0.9073 -0.4355
17192TIP3   OH272990   1.232   2.553  16.558 -0.7444  0.1790  0.0330
17192TIP3    H172991   1.190   2.467  16.557  3.7974 -2.3121 -1.2531
17192TIP3    H272992   1.222   2.586  16.468 -1.9739  0.8271  0.3787
17193TIP3   OH272993   4.993   0.236  15.665 -0.0785 -0.1802 -0.5016
17193TIP3    H172994   4.913   0.219  15.616  0.8226 -0.9001 -1.8045
17193TIP3    H272995   4.989   0.328  15.690 -1.5795 -0.3667 -0.0023
17194TIP3   OH272996   3.093   2.807   0.097 -0.1718  0.7596  0.8016
17194TIP3    H172997   3.175   2.842   0.133  0.0933 -0.5832  1.5725
17194TIP3    H272998   3.025   2.842   0.155  0.2572 -1.4317  2.7846
17195TIP3   OH272999   2.352   3.370   4.780 -0.1648  0.7849 -0.0484
17195TIP3    H173000   2.328   3.337   4.866  1.9806 -0.6320  0.0860
17195TIP3    H273001   2.372   3.462   4.794  1.2725  0.3047  1.2553
17196TIP3   OH273002   3.482   4.369  12.801 -0.0377  0.1867 -0.3965
17196TIP3    H173003   3.482   4.391  12.707 -0.1155  0.4355 -0.3369
17196TIP3    H273004   3.399   4.404  12.834 -0.0681 -0.0138 -0.2604
17197TIP3   OH273005   0.767   3.269  15.506  0.2199 -0.7287  0.0058
17197TIP3    H173006   0.832   3.273  15.576 -0.7186 -0.7742  0.9053
17197TIP3    H273007   0.696   3.215  15.541  0.8145 -2.9120 -1.9421
17198TIP3   OH273008   0.079   5.377   1.273  0.4552  0.0942  0.1564
17198TIP3    H173009   0.133   5.456   1.266 -0.4754  0.8295  1.1198
17198TIP3    H273010   0.113   5.320   1.204  1.4586  1.1365 -0.2545
17199TIP3   OH273011   5.266   6.479   0.015 -0.3752  0.6422  0.3247
17199TIP3    H173012   5.177   6.465  -0.017 -0.4432 -1.1199  1.1645
17199TIP3    H273013   5.319   6.486  -0.064 -0.9872 -0.3519 -0.1942
17200TIP3   OH273014   5.693   2.979   3.310 -0.0758  0.4125 -0.2893
17200TIP3    H173015   5.768   2.981   3.251  0.8846  1.2007  0.9136
17200TIP3    H273016   5.689   2.889   3.341  0.0158  0.2328 -0.7944
17201TIP3   OH273017   0.738   2.445   1.921  0.1961 -0.2444  0.1131
17201TIP3    H173018   0.690   2.514   1.876 -2.1060 -2.5700 -1.2452
17201TIP3    H273019   0.770   2.388   1.851  0.5573 -1.4598  1.2297
17202TIP3   OH273020   0.482   0.221   4.050 -0.6034 -0.4722 -0.3598
17202TIP3    H173021   0.435   0.237   4.132  0.7080 -1.1693  0.5576
17202TIP3    H273022   0.538   0.298   4.039 -0.6383 -0.4680 -0.5108
17203TIP3   OH273023   3.268   1.620   2.358  0.0810 -0.1212 -0.2707
17203TIP3    H173024   3.208   1.649   2.427  0.8645 -0.5761  0.6329
17203TIP3    H273025   3.326   1.557   2.402 -1.1868 -2.6408 -1.9857
17204TIP3   OH273026   5.566   3.111  13.401 -0.1131 -0.0279  0.3459
17204TIP3    H173027   5.509   3.081  13.330  1.0895  0.5677 -0.8968
17204TIP3    H273028   5.625   3.037  13.417  0.9210  0.5309 -0.6933
17205TIP3   OH273029   5.320   1.565   1.885 -0.1173  0.0806 -0.0201
17205TIP3    H173030   5.286   1.587   1.798 -0.6208 -0.2371  0.0930
17205TIP3    H273031   5.396   1.622   1.896  1.4827 -1.6325 -1.7062
17206TIP3   OH273032   0.151   4.133  15.028  0.1571 -0.0688 -0.2967
17206TIP3    H173033   0.076   4.145  14.969  0.7023  1.0806 -0.7822
17206TIP3    H273034   0.120   4.069  15.093 -0.4399 -1.4314 -1.8511
17207TIP3   OH273035   3.122   2.020   3.751  0.8214  0.0742 -0.6003
17207TIP3    H173036   3.105   2.072   3.829 -0.4099  0.6496 -1.2141
17207TIP3    H273037   3.167   2.080   3.691  1.0679 -0.1300 -0.6208
17208TIP3   OH273038   0.525   6.251   4.673  0.1235 -0.4495  0.2980
17208TIP3    H173039   0.504   6.235   4.581 -0.6021  1.8393  0.0196
17208TIP3    H273040   0.450   6.217   4.721  1.7580 -4.4483  0.4139
17209TIP3   OH273041   2.965   0.102  16.976  0.0203 -0.2725 -0.5854
17209TIP3    H173042   3.051   0.143  16.964  0.6148 -1.1516  0.3573
17209TIP3    H273043   2.906   0.174  16.996  0.6163  0.3223 -0.9425
17210TIP3   OH273044   4.672   4.915   4.292 -0.2722  0.2554 -0.3331
17210TIP3    H173045   4.714   4.967   4.360  1.1999 -1.8992  0.5186
17210TIP3    H273046   4.580   4.941   4.295  0.4079  2.8568 -0.0963
17211TIP3   OH273047   2.701   2.071   1.398 -0.1566 -0.1096  0.0022
17211TIP3    H173048   2.613   2.044   1.371 -0.1808  0.1321 -0.1628
17211TIP3    H273049   2.707   2.163   1.372  0.1852 -0.1553 -0.0822
17212TIP3   OH273050   6.345   4.825   3.484 -0.3203 -0.2113 -0.4876
17212TIP3    H173051   6.421   4.876   3.456 -0.0412 -1.1029 -1.4134
17212TIP3    H273052   6.383   4.744   3.519 -0.7057  0.4991  1.7484
17213TIP3   OH273053   0.252   3.237   0.962 -0.2979 -0.3913 -0.5057
17213TIP3    H173054   0.332   3.282   0.988  1.2791 -2.4291 -1.4775
17213TIP3    H273055   0.233   3.270   0.874 -1.9473  1.7813  0.5659
17214TIP3   OH273056   6.027   3.499  11.741 -0.0865 -0.6477  0.2680
17214TIP3    H173057   6.108   3.551  11.736 -0.9144  0.7946  1.0996
17214TIP3    H273058   6.037   3.447  11.820 -0.0828 -0.2466  0.5373
17215TIP3   OH273059   6.628   1.849  15.175  0.2685  0.0224 -0.3574
17215TIP3    H173060   6.645   1.942  15.162 -0.0917  0.2715  0.8194
17215TIP3    H273061   6.559   1.846  15.241  1.1476 -1.0940  0.5561
17216TIP3   OH273062   2.469   1.982  15.145 -0.1657 -0.2002 -0.0661
17216TIP3    H173063   2.542   2.015  15.092 -0.5204  0.3532 -0.2193
17216TIP3    H273064   2.431   1.912  15.092 -0.3613  0.1806 -0.4385
17217TIP3   OH273065   6.362   2.327  15.232 -0.5400 -0.4861  0.5069
17217TIP3    H173066   6.300   2.398  15.217  0.0111 -0.0370  0.3164
17217TIP3    H273067   6.382   2.331  15.326  1.4880  1.3301  0.0924
17218TIP3   OH273068   5.484   5.093  15.414 -0.0085  0.1863 -0.0646
17218TIP3    H173069   5.558   5.053  15.459  1.1353  0.3773 -1.7005
17218TIP3    H273070   5.419   5.023  15.407  0.6652 -0.4446 -0.0549
17219TIP3   OH273071   3.058   6.713  15.494 -0.2886  0.6061  0.8982
17219TIP3    H173072   3.013   6.792  15.525  0.1725  0.8403  0.9914
17219TIP3    H273073   3.149   6.726  15.522 -0.2946 -0.1538  1.2895
17220TIP3   OH273074   5.054   4.957  10.742  0.0159 -0.0992 -0.4994
17220TIP3    H173075   5.141   4.985  10.769 -0.1677  0.9740 -0.9636
17220TIP3    H273076   5.006   5.039  10.729 -0.8861 -0.6692 -0.8133
17221TIP3   OH273077   6.634   3.605  16.170 -0.2577 -0.2960  0.5812
17221TIP3    H173078   6.651   3.572  16.258 -1.0751 -0.6949  0.6025
17221TIP3    H273079   6.549   3.567  16.146  0.6787 -1.5024 -1.0135
17222TIP3   OH273080   5.779   4.057   1.636 -0.1841  0.0097  0.0908
17222TIP3    H173081   5.813   3.969   1.624  1.5042  0.7612 -1.2000
17222TIP3    H273082   5.822   4.109   1.568 -0.1662  2.0801  1.5645
17223TIP3   OH273083   3.373   3.958  16.595  0.2227 -0.7236  0.6260
17223TIP3    H173084   3.449   3.907  16.625  0.3278  0.3593  2.2944
17223TIP3    H273085   3.298   3.901  16.610  0.6281 -1.7052 -0.7953
17224TIP3   OH273086   4.893   1.430  15.631  0.0010  0.2700  0.6516
17224TIP3    H173087   4.970   1.487  15.638  0.7502 -0.6677  0.3355
17224TIP3    H273088   4.824   1.487  15.596  0.7840  0.9397  0.1476
17225TIP3   OH273089   3.075   5.412   0.151  0.3266  0.4743  0.3042
17225TIP3    H173090   3.011   5.347   0.123  0.2414  1.3650 -1.7616
17225TIP3    H273091   3.025   5.475   0.203 -0.0166  0.0141  0.5288
17226TIP3   OH273092   0.748   5.335  12.800 -0.3307 -0.5187 -0.4621
17226TIP3    H173093   0.659   5.363  12.779  0.3841  3.1771  0.6028
17226TIP3    H273094   0.746   5.317  12.894  0.3011  1.4589 -0.0004
17227TIP3   OH273095   2.293   1.165   4.550  0.1329 -0.3439 -0.4509
17227TIP3    H173096   2.366   1.224   4.570 -0.7550  1.5265 -2.4485
17227TIP3    H273097   2.320   1.081   4.588  1.7862  1.0958  1.8234
17228TIP3   OH273098   3.600   4.166   2.993 -0.0513 -0.0901 -0.2483
17228TIP3    H173099   3.600   4.257   2.965  0.0692 -0.1341 -0.3977
17228TIP3    H273100   3.581   4.116   2.913 -1.1850 -0.1430  0.0438
17229TIP3   OH273101   1.028   0.152  16.350 -0.0361  0.0221  0.4724
17229TIP3    H173102   1.011   0.091  16.278  0.7606  0.1305  0.1784
17229TIP3    H273103   1.026   0.098  16.429  0.9520 -0.4429  0.1880
17230TIP3   OH273104   2.015   0.041  15.464  0.5594  0.4035 -0.4272
17230TIP3    H173105   2.020   0.127  15.422  1.2048  0.7492  0.3180
17230TIP3    H273106   2.056   0.055  15.550 -0.5089 -0.3326  0.2247
17231TIP3   OH273107   4.727   0.556  12.921 -0.3655 -0.4430  0.1983
17231TIP3    H173108   4.754   0.551  12.829 -2.4829 -0.4444 -0.4626
17231TIP3    H273109   4.705   0.466  12.944  0.0428 -0.4221  0.6952
17232TIP3   OH273110   6.390   0.685   3.411  0.1936  0.4948 -0.3123
17232TIP3    H173111   6.433   0.745   3.473  1.0516 -0.9206  0.5237
17232TIP3    H273112   6.431   0.704   3.327  0.2980  1.2361 -0.0994
17233TIP3   OH273113   3.208   0.863  12.606 -0.3676  0.1519  0.0231
17233TIP3    H173114   3.188   0.796  12.672  1.6163  1.3180  1.9727
17233TIP3    H273115   3.146   0.934  12.624 -0.8407 -0.1375 -0.4237
17234TIP3   OH273116   1.134   3.111  10.781 -0.3817  0.0363  0.2859
17234TIP3    H173117   1.122   3.206  10.780 -0.7859  0.0382  2.1785
17234TIP3    H273118   1.226   3.099  10.758  0.4975  1.1198  2.8695
17235TIP3   OH273119   1.862   0.016   0.730 -0.0722 -0.5851 -0.1023
17235TIP3    H173120   1.871  -0.074   0.700 -0.8910 -0.2348 -1.4637
17235TIP3    H273121   1.884   0.012   0.824  0.5635 -2.0600 -0.2825
17236TIP3   OH273122   1.490   0.968   5.771  0.3951  0.2948  0.2619
17236TIP3    H173123   1.432   1.010   5.707  1.2995 -0.8531 -1.3918
17236TIP3    H273124   1.545   1.039   5.804 -0.9531  1.1355  0.7675
17237TIP3   OH273125   1.431   1.141   3.782  0.7337 -0.1914 -0.2165
17237TIP3    H173126   1.349   1.144   3.733  0.4847 -0.9166  0.1426
17237TIP3    H273127   1.491   1.092   3.726  0.7890 -0.0427 -0.2874
17238TIP3   OH273128   1.925   4.288   5.926  1.0340 -0.5026 -0.3375
17238TIP3    H173129   1.876   4.294   5.844  1.2424 -1.2016 -0.5267
17238TIP3    H273130   1.872   4.232   5.982  1.0746 -0.3380 -0.1342
17239TIP3   OH273131   2.494   1.009   2.688 -0.3488 -0.0750  0.2328
17239TIP3    H173132   2.466   1.098   2.707 -0.5835 -0.4883  1.9678
17239TIP3    H273133   2.459   0.956   2.760 -1.0513 -1.7416 -1.2438
17240TIP3   OH273134   3.976   2.729   1.450 -0.3295 -0.3783 -0.3686
17240TIP3    H173135   3.971   2.823   1.435 -0.6017 -0.3814 -0.2962
17240TIP3    H273136   3.969   2.691   1.363 -1.6254 -0.3840 -0.2819
17241TIP3   OH273137   6.658   4.144  13.115  0.3079 -0.6911  0.4180
17241TIP3    H173138   6.708   4.184  13.043 -0.7347 -1.3186 -0.6933
17241TIP3    H273139   6.723   4.097  13.166  1.1615  0.2496  0.2387
17242TIP3   OH273140   4.947   5.354   5.070 -0.1246 -0.1539 -0.3488
17242TIP3    H173141   4.875   5.390   5.122 -0.0555  0.5180 -0.7129
17242TIP3    H273142   5.010   5.425   5.064  0.8536 -0.9204  0.4575
17243TIP3   OH273143   2.930   1.204   3.826  0.1289 -0.8150  0.2144
17243TIP3    H173144   2.967   1.289   3.803 -2.4224  0.2193 -0.4069
17243TIP3    H273145   2.996   1.140   3.797  1.7845  0.8733  0.0456
17244TIP3   OH273146   2.867   5.126   4.879 -0.4447  1.0525 -0.5351
17244TIP3    H173147   2.783   5.085   4.857  0.4452 -1.6747  0.7314
17244TIP3    H273148   2.868   5.129   4.974  1.4122 -0.1948 -0.4826
17245TIP3   OH273149   0.489   4.118  15.235  0.1230 -0.4877  0.1246
17245TIP3    H173150   0.563   4.065  15.203  1.3578  1.6838 -0.9028
17245TIP3    H273151   0.523   4.160  15.314 -0.8424 -1.1927  0.9335
17246TIP3   OH273152   2.350   1.328  15.464 -0.5238  0.6256 -0.1849
17246TIP3    H173153   2.428   1.380  15.445 -0.1910  0.1219 -0.2146
17246TIP3    H273154   2.365   1.293  15.552  0.5549 -1.7095 -1.2320
17247TIP3   OH273155   3.979   3.847   2.078 -0.2612 -0.2825  0.0796
17247TIP3    H173156   3.955   3.763   2.039  1.0478 -0.0543 -1.3536
17247TIP3    H273157   4.073   3.840   2.094 -0.1252  0.9175 -0.1139
17248TIP3   OH273158   1.059   0.467   5.888  0.7675 -0.5295  0.5023
17248TIP3    H173159   1.044   0.546   5.836  2.9075 -0.0399  0.5097
17248TIP3    H273160   1.051   0.496   5.979 -0.8352 -0.8968  0.4972
17249TIP3   OH273161   0.021   0.065   0.972 -0.2584 -0.2622 -0.2850
17249TIP3    H173162   0.116   0.056   0.960 -0.1455  0.8704 -0.3014
17249TIP3    H273163  -0.002   0.143   0.922 -0.8601  0.7350  1.4659
17250TIP3   OH273164   6.595   5.759  14.271  0.4556  0.6803  0.6031
17250TIP3    H173165   6.574   5.669  14.248 -0.0059  0.9178  0.0762
17250TIP3    H273166   6.690   5.759  14.286  0.7585  0.4534 -1.0907
17251TIP3   OH273167   3.655   1.572   2.124 -0.2478  0.0038 -0.6937
17251TIP3    H173168   3.675   1.651   2.074 -1.0639  0.6647  0.0146
17251TIP3    H273169   3.663   1.598   2.216 -0.9012 -0.6234 -0.4491
17252TIP3   OH273170   5.542   6.128   0.259 -0.6684  0.3650  0.4885
17252TIP3    H173171   5.543   6.065   0.187 -0.3256  0.0654  0.7500
17252TIP3    H273172   5.457   6.171   0.253 -1.3358 -0.8484  0.9317
17253TIP3   OH273173   2.571   3.503   5.119  0.5378  0.3214  0.1027
17253TIP3    H173174   2.479   3.519   5.138  0.5297 -0.0610  0.3814
17253TIP3    H273175   2.614   3.588   5.132  0.2767  0.4248  0.2813
17254TIP3   OH273176   0.689   1.669   3.264 -0.6052  0.1877  0.0358
17254TIP3    H173177   0.689   1.734   3.334 -2.2620  1.2602 -0.8862
17254TIP3    H273178   0.610   1.689   3.213  0.3194 -0.8215 -1.8923
17255TIP3   OH273179   6.219   1.580  10.822  0.0522 -0.2103 -0.1623
17255TIP3    H173180   6.258   1.569  10.735 -1.5183  0.2370 -0.9785
17255TIP3    H273181   6.233   1.497  10.866  1.9060 -0.0633 -0.3722
17256TIP3   OH273182   0.230   1.212   0.179 -0.6267  0.0745  0.0827
17256TIP3    H173183   0.269   1.155   0.245 -0.2856 -0.4018 -0.5210
17256TIP3    H273184   0.154   1.163   0.148 -0.1231 -0.2179 -0.6979
17257TIP3   OH273185   2.640   2.942  12.898  0.1563 -0.0102  0.1711
17257TIP3    H173186   2.605   2.947  12.810  0.6288 -0.3065 -0.0376
17257TIP3    H273187   2.649   2.849  12.915 -1.0250  0.0008  0.9813
17258TIP3   OH273188   1.189   0.413  10.770 -0.0161 -0.0154 -0.2516
17258TIP3    H173189   1.158   0.366  10.848 -2.5495  1.0407 -0.5013
17258TIP3    H273190   1.175   0.352  10.699  0.3778 -0.2596 -0.1206
17259TIP3   OH273191   2.533   0.278  12.744 -0.3152 -0.6914 -0.1545
17259TIP3    H173192   2.542   0.365  12.706 -1.3568 -0.3979  0.2289
17259TIP3    H273193   2.544   0.219  12.669 -0.1734 -0.2045 -0.5243
17260TIP3   OH273194   3.813   0.518   4.713  0.0560 -0.0036 -0.0280
17260TIP3    H173195   3.906   0.537   4.716  0.1783 -0.6517  0.4920
17260TIP3    H273196   3.800   0.472   4.631  0.6069 -1.9198  0.8950
17261TIP3   OH273197   0.851   2.921   5.742  0.2013  0.3606 -0.4728
17261TIP3    H173198   0.817   2.870   5.815  2.9644 -1.3646 -0.2547
17261TIP3    H273199   0.918   2.865   5.703  1.4620  2.7582 -1.9757
17262TIP3   OH273200   5.353   3.931   3.597  0.9633  0.7567 -0.2953
17262TIP3    H173201   5.303   3.945   3.677  0.8037 -0.4255 -0.1785
17262TIP3    H273202   5.399   4.014   3.584  1.0279  0.9600  1.0370
17263TIP3   OH273203   4.084   5.786  15.278 -0.3656 -0.5070 -0.1688
17263TIP3    H173204   4.050   5.864  15.322 -0.2107  0.1410 -1.1606
17263TIP3    H273205   4.163   5.763  15.327 -0.7433 -0.4099  0.4989
17264TIP3   OH273206   2.283   1.478  16.943 -0.0766 -0.1743  0.2301
17264TIP3    H173207   2.208   1.428  16.974  0.7112 -0.6689  1.3674
17264TIP3    H273208   2.353   1.414  16.934  0.5548  0.4921  0.3453
17265TIP3   OH273209   3.052   3.916  11.292 -0.2680 -1.0247  0.0146
17265TIP3    H173210   3.008   3.886  11.372 -0.6802 -1.8043 -0.4924
17265TIP3    H273211   3.049   3.841  11.233 -0.6135 -0.2365 -1.0014
17266TIP3   OH273212   6.640   2.453   0.671 -0.1666 -0.1129 -0.2799
17266TIP3    H173213   6.677   2.377   0.627  1.3725  0.7920 -0.6064
17266TIP3    H273214   6.624   2.516   0.600 -2.6802 -0.5619 -0.2063
17267TIP3   OH273215   5.646   6.549   0.155  0.1057 -0.2419  0.0033
17267TIP3    H173216   5.725   6.602   0.165  0.1562 -0.2331 -0.4215
17267TIP3    H273217   5.582   6.608   0.117 -0.5969  0.1862  1.7601
17268TIP3   OH273218   6.374   6.789   0.463 -0.1018 -0.7405 -0.3732
17268TIP3    H173219   6.405   6.877   0.441 -2.3135 -0.4795 -3.0165
17268TIP3    H273220   6.435   6.730   0.418  0.2801 -0.4797 -0.1990
17269TIP3   OH273221   1.025   0.621   4.851 -0.2458 -0.3679 -0.4101
17269TIP3    H173222   0.946   0.614   4.798 -1.7753  2.9558  1.1602
17269TIP3    H273223   1.036   0.534   4.889 -2.5175 -1.2091 -1.4857
17270TIP3   OH273224   6.749   3.483   1.775 -0.1399 -0.0675 -0.0811
17270TIP3    H173225   6.794   3.411   1.731  0.3593  0.2128 -0.0308
17270TIP3    H273226   6.656   3.469   1.755  0.1305  0.4918 -1.8979
17271TIP3   OH273227   3.725   1.709   3.699 -0.5503 -0.5608  0.3120
17271TIP3    H173228   3.819   1.692   3.690 -0.4866  0.1784 -0.4621
17271TIP3    H273229   3.689   1.626   3.732  0.7035 -0.1408  2.9745
17272TIP3   OH273230   1.561   2.272  16.241 -0.1696  0.3580  0.0554
17272TIP3    H173231   1.465   2.266  16.237 -0.2498  1.4468  0.2348
17272TIP3    H273232   1.578   2.328  16.316  0.6363 -0.1902  0.2945
17273TIP3   OH273233   0.732   6.653   5.697  0.2028  0.0000 -0.3407
17273TIP3    H173234   0.823   6.658   5.670  0.7793 -0.4826  1.3641
17273TIP3    H273235   0.715   6.738   5.738 -0.1805  0.1541 -0.8108
17274TIP3   OH273236   2.525   2.156   1.620  0.4152 -0.1145 -0.1924
17274TIP3    H173237   2.461   2.188   1.556  1.1950 -0.8217 -1.3419
17274TIP3    H273238   2.598   2.124   1.568  0.6642 -1.6143  1.0061
17275TIP3   OH273239   6.103   5.841  14.167 -0.0423 -0.4071 -0.0778
17275TIP3    H173240   6.033   5.828  14.103  0.0651  0.6986 -0.4458
17275TIP3    H273241   6.059   5.840  14.252 -0.1911 -1.8662 -0.1349
17276TIP3   OH273242   6.208   0.052  16.019 -0.5027 -0.1112  0.8156
17276TIP3    H173243   6.159   0.016  16.093 -1.1299 -1.4537 -0.2174
17276TIP3    H273244   6.195   0.147  16.026 -1.0099 -0.2547  2.0992
17277TIP3   OH273245   4.993   2.950  12.115  0.2950  0.6381 -0.4250
17277TIP3    H173246   4.962   2.908  12.194 -0.0153  1.6546  0.0155
17277TIP3    H273247   5.068   2.898  12.087  0.4250  0.2881  0.5487
17278TIP3   OH273248   3.400   3.150  13.462 -0.4186  0.0574 -0.2139
17278TIP3    H173249   3.449   3.207  13.403 -0.0009 -1.0186 -0.9512
17278TIP3    H273250   3.431   3.173  13.549 -2.1871  2.7877 -0.1798
17279TIP3   OH273251   1.484   4.481  16.990 -0.3787  0.3368 -0.3975
17279TIP3    H173252   1.474   4.392  16.956  2.5606 -0.4218  0.4360
17279TIP3    H273253   1.468   4.537  16.914 -3.1545 -0.7461 -0.7494
17280TIP3   OH273254   2.788   1.562  14.565 -0.3381 -0.0134 -0.4203
17280TIP3    H173255   2.765   1.474  14.597 -0.4211 -0.1542 -0.8588
17280TIP3    H273256   2.712   1.616  14.585 -0.0233  0.1264  0.4751
17281TIP3   OH273257   2.145   4.037  13.906 -0.0802  0.5695 -0.4346
17281TIP3    H173258   2.234   4.004  13.906  0.4434  1.9101  0.0613
17281TIP3    H273259   2.105   4.000  13.827  0.0286 -2.2550  0.7307
17282TIP3   OH273260   0.463   3.048   2.596  0.3855 -0.0228  0.2302
17282TIP3    H173261   0.558   3.044   2.593  0.4295 -1.6586  1.7511
17282TIP3    H273262   0.434   2.957   2.584 -0.8495  0.1192  1.7356
17283TIP3   OH273263   6.272   1.385   2.593  0.4535  0.2151 -0.2864
17283TIP3    H173264   6.220   1.341   2.660  2.2356 -1.1403  0.2849
17283TIP3    H273265   6.208   1.415   2.529 -1.0316 -1.4058  0.3546
17284TIP3   OH273266   6.185   1.539  13.195  0.1574 -0.5671  0.0135
17284TIP3    H173267   6.126   1.580  13.258  0.6011 -0.3204  0.2728
17284TIP3    H273268   6.218   1.612  13.142  1.6506 -0.4472  1.0571
17285TIP3   OH273269   1.152   0.024  12.389 -0.2514  0.3417 -0.3260
17285TIP3    H173270   1.062   0.008  12.360 -1.1077  1.7244  1.3761
17285TIP3    H273271   1.153   0.116  12.414  1.5164  0.2325  0.1434
17286TIP3   OH273272   3.214   4.889   5.647  0.5631  0.4949 -0.3854
17286TIP3    H173273   3.274   4.832   5.599 -1.1571 -1.8686  0.0890
17286TIP3    H273274   3.155   4.924   5.580  2.7859  3.4821 -0.9779
17287TIP3   OH273275   0.100   3.261   5.791 -0.4741  0.0482 -0.2644
17287TIP3    H173276   0.116   3.210   5.871 -1.1885  0.6772  0.2854
17287TIP3    H273277   0.122   3.200   5.720 -0.6564 -0.8030  0.3892
17288TIP3   OH273278   5.509   0.210  11.694  0.4625  0.2972 -0.2756
17288TIP3    H173279   5.584   0.269  11.696  0.3453  0.4534 -0.4992
17288TIP3    H273280   5.437   0.263  11.662  0.4436 -0.0631 -0.8483
17289TIP3   OH273281   4.119   4.140  15.265  0.2810  0.1969 -0.3705
17289TIP3    H173282   4.076   4.224  15.248  0.4880  0.5200  0.6280
17289TIP3    H273283   4.097   4.120  15.356  1.5946 -0.0057 -0.0775
17290TIP3   OH273284   0.425   4.481  13.889  0.0946 -0.5975  0.3319
17290TIP3    H173285   0.515   4.509  13.904 -0.1832  1.8125 -1.7789
17290TIP3    H273286   0.386   4.478  13.976  1.5565  0.8987  1.0993
17291TIP3   OH273287   2.844   6.407  11.118 -0.0271 -0.3132  0.0687
17291TIP3    H173288   2.898   6.390  11.041 -0.1060  0.4451 -0.1539
17291TIP3    H273289   2.755   6.415  11.084  0.1143  1.4245  0.0392
17292TIP3   OH273290   1.086   2.766  14.636  0.0311  0.1016  0.1602
17292TIP3    H173291   1.051   2.816  14.562  0.0856  0.0316  0.0875
17292TIP3    H273292   1.077   2.675  14.610  0.8422  0.0979 -0.1230
17293TIP3   OH273293   5.880   3.345   2.437 -0.3761  0.0388  0.7954
17293TIP3    H173294   5.909   3.403   2.508  2.1462  0.8725 -0.7861
17293TIP3    H273295   5.825   3.401   2.382  0.8576  0.5534  0.0546
17294TIP3   OH273296   2.264   1.251  17.254  0.2377 -0.1639  0.1768
17294TIP3    H173297   2.185   1.295  17.223 -1.3255 -0.6084  3.1564
17294TIP3    H273298   2.234   1.165  17.283  2.5822 -1.9592 -2.1486
17295TIP3   OH273299   4.899   6.195  10.586 -0.5885  0.5978  0.8879
17295TIP3    H173300   4.860   6.162  10.506 -0.7840  0.6463  0.9629
17295TIP3    H273301   4.853   6.148  10.656 -0.4215  0.5575  0.9702
17296TIP3   OH273302   5.113   5.196  13.619 -0.3200  0.2299 -0.1655
17296TIP3    H173303   5.185   5.234  13.669  0.7034 -0.8620 -0.7412
17296TIP3    H273304   5.111   5.104  13.648 -0.4799 -0.1217 -1.2524
17297TIP3   OH273305   2.036   5.252   1.088  0.2039  0.1634 -0.3225
17297TIP3    H173306   1.960   5.305   1.064  0.0774 -0.1208 -0.5455
17297TIP3    H273307   2.000   5.170   1.121  0.4270 -0.4484 -1.5497
17298TIP3   OH273308   0.969   2.177   1.673 -0.6811  0.9722 -0.7257
17298TIP3    H173309   1.002   2.128   1.748 -1.3037  1.5640 -0.0548
17298TIP3    H273310   1.040   2.236   1.650 -0.7751  1.3231 -0.1174
17299TIP3   OH273311   1.833   6.537  14.888  0.2985 -0.0809  0.4006
17299TIP3    H173312   1.819   6.614  14.832  1.6641 -0.0278  0.0912
17299TIP3    H273313   1.813   6.567  14.976 -1.8882 -0.1610 -0.0029
17300TIP3   OH273314   4.586   6.407   5.160 -0.3204  0.2138 -0.2162
17300TIP3    H173315   4.590   6.326   5.211 -0.7403  0.0074 -0.4978
17300TIP3    H273316   4.528   6.464   5.210 -1.9057 -0.5093 -1.1388
17301TIP3   OH273317   1.741   4.815  12.667  0.3804  0.2040 -0.1684
17301TIP3    H173318   1.688   4.806  12.746 -0.1459 -2.4177 -0.7162
17301TIP3    H273319   1.774   4.904  12.670 -0.0321  0.3500  2.7432
17302TIP3   OH273320   5.763   0.517  13.012  0.0963  0.0565  0.2507
17302TIP3    H173321   5.852   0.486  12.993 -0.4499 -0.6152 -1.3727
17302TIP3    H273322   5.776   0.597  13.062  1.6886  0.7910 -1.2169
17303TIP3   OH273323   3.841   0.976  15.198  0.1142  0.3846  0.1286
17303TIP3    H173324   3.917   1.000  15.145 -0.1356  0.6344 -0.1186
17303TIP3    H273325   3.874   0.973  15.288  0.6705 -0.5775 -0.0908
17304TIP3   OH273326   3.190   1.417   5.183  0.3895  0.1073  0.0273
17304TIP3    H173327   3.249   1.368   5.126 -0.5695 -0.1659 -0.7545
17304TIP3    H273328   3.240   1.429   5.264  1.6390  0.1985 -0.7308
17305TIP3   OH273329   1.649   2.313   3.838 -0.6997 -0.0687 -0.5169
17305TIP3    H173330   1.616   2.361   3.913  1.4321  0.5735  0.0894
17305TIP3    H273331   1.672   2.380   3.774 -0.6286 -0.4847 -0.9371
17306TIP3   OH273332   1.132   2.554  13.667 -0.0386 -0.0043 -0.1701
17306TIP3    H173333   1.064   2.583  13.728  0.4643  0.2966  0.2624
17306TIP3    H273334   1.134   2.622  13.599 -1.1361 -0.7351 -0.9638
17307TIP3   OH273335   4.491   1.663  13.696  0.0201  0.4151  0.6009
17307TIP3    H173336   4.492   1.716  13.616  0.3583 -0.1433  0.2309
17307TIP3    H273337   4.414   1.608  13.687  0.6980 -0.4837  0.0929
17308TIP3   OH273338   1.416   4.797  15.974  0.8587  0.2191  0.3703
17308TIP3    H173339   1.352   4.746  16.024 -1.0383  1.5978 -0.4943
17308TIP3    H273340   1.419   4.882  16.018  3.0440 -0.1599  1.0764
17309TIP3   OH273341   1.709   5.262  16.008  0.1411  0.3324  0.5736
17309TIP3    H173342   1.619   5.256  15.976 -0.8094 -1.5099  3.2306
17309TIP3    H273343   1.751   5.181  15.979  1.4101  1.7098 -1.6849
17310TIP3   OH273344   3.828   0.260  16.115 -0.2085  0.4313  0.6889
17310TIP3    H173345   3.901   0.267  16.054 -0.1023 -0.2692  0.7332
17310TIP3    H273346   3.867   0.227  16.196 -0.6216 -0.2551  0.6134
17311TIP3   OH273347   3.692   2.083   5.771 -0.2634 -0.0965  0.1493
17311TIP3    H173348   3.598   2.098   5.777 -0.6373 -2.4963  1.7788
17311TIP3    H273349   3.707   2.002   5.820  3.0279  1.5282  2.2197
17312TIP3   OH273350   1.807   1.592  13.146 -0.4962 -0.5119 -0.3157
17312TIP3    H173351   1.807   1.680  13.182  0.7940 -0.5589 -0.1484
17312TIP3    H273352   1.814   1.534  13.222  2.6386 -0.6015 -0.5069
17313TIP3   OH273353   0.389   3.826   1.527 -0.0871 -0.7695 -0.3018
17313TIP3    H173354   0.466   3.789   1.571  0.0888 -0.5679 -0.4340
17313TIP3    H273355   0.422   3.906   1.485 -0.3480 -0.7328 -0.4394
17314TIP3   OH273356   5.629   6.331   1.575  0.5965 -0.3401 -0.3493
17314TIP3    H173357   5.577   6.390   1.521  0.3065 -1.7197 -1.6682
17314TIP3    H273358   5.588   6.334   1.661 -1.5597 -1.1546 -1.2673
17315TIP3   OH273359   2.848   2.410   2.357  0.0995 -0.0911  0.5284
17315TIP3    H173360   2.789   2.337   2.336  0.0769  0.1176 -0.1851
17315TIP3    H273361   2.922   2.399   2.298  1.1139 -0.7221  1.8761
17316TIP3   OH273362   5.709   2.728   3.396  0.2718  0.5626  0.2565
17316TIP3    H173363   5.760   2.653   3.426 -0.6762  0.6718  2.2643
17316TIP3    H273364   5.640   2.690   3.341  0.5054  0.0933  0.2842
17317TIP3   OH273365   3.074   1.761   3.005  0.2489  0.4356  0.4572
17317TIP3    H173366   3.092   1.745   2.913 -0.3261  0.7154  0.2906
17317TIP3    H273367   3.151   1.728   3.051  1.3708  1.9997 -0.2410
17318TIP3   OH273368   5.147   4.367  12.325  0.7700 -0.0812  0.0163
17318TIP3    H173369   5.122   4.388  12.415 -0.8185 -0.4048 -0.3172
17318TIP3    H273370   5.073   4.399  12.272  1.5248 -0.2009 -1.1413
17319TIP3   OH273371   4.484   2.723  13.158 -0.9331  0.9147 -0.6644
17319TIP3    H173372   4.474   2.679  13.074 -0.0936  1.0128 -0.8254
17319TIP3    H273373   4.446   2.663  13.222 -2.0520  1.0628 -1.1624
17320TIP3   OH273374   6.616   1.100   6.383 -0.8336 -0.4256  0.1298
17320TIP3    H173375   6.672   1.030   6.350 -0.1217  0.6512 -1.0229
17320TIP3    H273376   6.676   1.174   6.394 -1.7180  0.2323  0.5694
17321TIP3   OH273377   1.954   3.873  14.565  0.4599 -0.4874 -0.2315
17321TIP3    H173378   1.944   3.872  14.661  0.6431 -0.6721 -0.2138
17321TIP3    H273379   1.895   3.943  14.536  0.6213 -0.2356  0.0407
17322TIP3   OH273380   4.062   4.782   2.329 -0.4316  0.0292 -0.2191
17322TIP3    H173381   4.115   4.842   2.382 -1.1882 -1.7458  2.7776
17322TIP3    H273382   3.979   4.828   2.317 -0.6732  0.0230  1.2392
17323TIP3   OH273383   0.612   3.180   5.983 -0.0898 -0.0980  0.6364
17323TIP3    H173384   0.704   3.191   6.008  0.0076  0.2961  0.1142
17323TIP3    H273385   0.603   3.229   5.902 -0.6389 -0.5712  0.4053
17324TIP3   OH273386   3.112   0.226   3.347  0.0951  0.2872  0.4981
17324TIP3    H173387   3.073   0.218   3.260 -2.6425  2.4802  1.3810
17324TIP3    H273388   3.203   0.252   3.330  0.0473 -0.6953 -1.6514
17325TIP3   OH273389   4.657   0.308  14.782  0.0594 -0.6761  0.5914
17325TIP3    H173390   4.581   0.325  14.725  1.2351 -1.2757 -1.2454
17325TIP3    H273391   4.618   0.290  14.868 -1.9759 -1.8901 -0.4835
17326TIP3   OH273392   0.001   4.016   0.671 -0.4784 -0.1564 -0.0746
17326TIP3    H173393  -0.034   3.959   0.602 -1.2015 -0.6297  0.6676
17326TIP3    H273394  -0.048   3.992   0.750 -0.6921  1.3727  0.3037
17327TIP3   OH273395   6.604   1.323   3.444 -0.1908  0.0123  0.2763
17327TIP3    H173396   6.647   1.278   3.516 -0.5056  1.1249  1.1979
17327TIP3    H273397   6.641   1.284   3.365 -0.1877 -1.5692  1.0192
17328TIP3   OH273398   0.059   6.370   5.652 -0.3142  0.0848 -0.0092
17328TIP3    H173399   0.013   6.420   5.584  2.1900  1.2064 -0.9785
17328TIP3    H273400   0.038   6.416   5.734 -1.4584  0.1350 -0.3140
17329TIP3   OH273401   5.631   4.454   2.273 -0.2953  0.1858  0.0708
17329TIP3    H173402   5.708   4.506   2.251  0.9602 -1.3090  0.7965
17329TIP3    H273403   5.663   4.387   2.333 -1.9950 -1.0274 -0.2993
17330TIP3   OH273404   6.674   1.056  12.281  0.5128 -0.5000  0.3178
17330TIP3    H173405   6.726   0.992  12.329  1.2235  0.6588  1.1532
17330TIP3    H273406   6.712   1.056  12.193  0.2295 -1.5119  0.1901
17331TIP3   OH273407   2.668   0.837   6.504 -0.4502 -0.1088 -0.3980
17331TIP3    H173408   2.654   0.762   6.445  2.4274 -1.2612  0.1905
17331TIP3    H273409   2.757   0.866   6.484  0.7908 -0.7205  3.4052
17332TIP3   OH273410   4.381   0.509  11.166  0.2946  0.2515  0.2922
17332TIP3    H173411   4.443   0.482  11.098  0.1640 -0.5760  0.4915
17332TIP3    H273412   4.395   0.447  11.237 -0.9415 -0.1093  0.2365
17333TIP3   OH273413   2.700   0.255  12.955 -0.0268  0.3033  0.7770
17333TIP3    H173414   2.634   0.271  12.887  1.1199  1.3954 -0.1230
17333TIP3    H273415   2.745   0.175  12.926  1.9657  1.9773 -1.0593
17334TIP3   OH273416   0.536   3.406   3.917 -0.3966  0.2133 -0.9291
17334TIP3    H173417   0.591   3.331   3.897 -1.5130 -0.5737 -1.1225
17334TIP3    H273418   0.547   3.465   3.843 -0.1729 -0.1413 -1.1804
17335TIP3   OH273419   0.457   5.034   1.761 -0.4869 -0.2358  0.3695
17335TIP3    H173420   0.417   5.014   1.676  0.0821 -1.8516  0.4425
17335TIP3    H273421   0.409   4.980   1.824 -0.7409  0.7675  1.0519
17336TIP3   OH273422   3.292   3.426  17.103  0.1778  0.5579 -0.2519
17336TIP3    H173423   3.243   3.478  17.166 -1.1710  2.3084 -2.5677
17336TIP3    H273424   3.253   3.339  17.108 -0.4089  0.8668  0.7827
17337TIP3   OH273425   3.770   0.464  15.454  0.2871  0.0312  0.2591
17337TIP3    H173426   3.832   0.488  15.385 -0.6586 -1.5382 -1.2283
17337TIP3    H273427   3.781   0.370  15.464 -0.5220  0.0345  1.3467
17338TIP3   OH273428   3.688   3.417  13.411 -0.1044  0.0126 -0.2197
17338TIP3    H173429   3.606   3.443  13.451  0.2914  0.9634 -0.0062
17338TIP3    H273430   3.714   3.337  13.458  0.4577  1.2037  1.5820
17339TIP3   OH273431   5.044   1.765   5.752  0.1186 -0.3783 -0.5209
17339TIP3    H173432   5.117   1.805   5.800 -0.8715 -0.6416  1.3015
17339TIP3    H273433   4.976   1.753   5.818 -2.3700  1.6724 -2.5023
17340TIP3   OH273434   3.945   6.655   5.842  0.2151  0.2811  0.0126
17340TIP3    H173435   4.026   6.677   5.889 -0.1277 -1.9987  1.7979
17340TIP3    H273436   3.875   6.683   5.899 -0.2189 -0.8923  0.0852
17341TIP3   OH273437   2.170   3.027  16.074  0.5791 -0.1957  0.2473
17341TIP3    H173438   2.252   3.027  16.123  0.6886  0.0409  0.0674
17341TIP3    H273439   2.182   3.095  16.008  1.9053 -2.8956 -2.5366
17342TIP3   OH273440   1.867   2.822  14.674  0.0188 -0.3759  0.4549
17342TIP3    H173441   1.784   2.869  14.680 -0.1177 -0.7458  1.5594
17342TIP3    H273442   1.927   2.870  14.731  0.4796 -0.3012 -0.0815
17343TIP3   OH273443   5.193   4.012   2.149  0.1908 -0.3122 -0.1423
17343TIP3    H173444   5.120   4.064   2.114 -1.4566 -2.0030  0.6121
17343TIP3    H273445   5.222   3.960   2.074  1.3377  1.0873 -0.7028
17344TIP3   OH273446   4.819   2.077   3.120 -0.3487 -0.2237 -0.3657
17344TIP3    H173447   4.762   2.033   3.057 -0.5315  1.4240 -1.4258
17344TIP3    H273448   4.763   2.145   3.158  0.8866  1.5994 -1.6153
17345TIP3   OH273449   1.196   5.075  14.797 -0.2533  0.3160  0.3313
17345TIP3    H173450   1.240   5.005  14.749 -0.1019  0.3754  0.3813
17345TIP3    H273451   1.247   5.154  14.777  0.4965  0.1558  1.4595
17346TIP3   OH273452   5.947   5.884  12.723 -1.0414  0.1609  0.0966
17346TIP3    H173453   6.024   5.833  12.748 -0.5069  0.0682 -1.5750
17346TIP3    H273454   5.878   5.819  12.713 -0.5068 -0.2245 -1.4630
17347TIP3   OH273455   1.375   6.552  14.149  0.2165 -0.3236 -0.1494
17347TIP3    H173456   1.302   6.493  14.167  0.2980 -0.4627 -0.2735
17347TIP3    H273457   1.380   6.555  14.053  0.2733 -0.1910 -0.1422
17348TIP3   OH273458   2.195   0.671  12.967  0.1583 -0.8065  0.0942
17348TIP3    H173459   2.255   0.707  13.032 -0.5038  1.4031 -0.4473
17348TIP3    H273460   2.163   0.747  12.918 -1.6012 -2.1084 -0.9042
17349TIP3   OH273461   2.647   5.405   5.590  0.3293 -0.1813  0.2506
17349TIP3    H173462   2.555   5.398   5.563  0.5342 -3.0230 -0.0025
17349TIP3    H273463   2.645   5.392   5.685  0.4872 -0.5022  0.2105
17350TIP3   OH273464   2.848   3.419   1.416 -0.0844 -0.7352  0.1152
17350TIP3    H173465   2.853   3.476   1.340  0.0178 -1.6608 -0.5946
17350TIP3    H273466   2.808   3.473   1.484 -1.7273 -0.3853 -1.0738
17351TIP3   OH273467   5.258   1.264   2.176 -0.0257  0.1847 -0.1955
17351TIP3    H173468   5.293   1.246   2.263 -0.3047  0.4864 -0.0208
17351TIP3    H273469   5.224   1.180   2.146 -0.0622  0.1133  0.0463
17352TIP3   OH273470   2.926   5.105  14.015  1.0395 -0.2404 -0.0857
17352TIP3    H173471   2.951   5.014  14.029 -0.4730 -0.5583  0.8449
17352TIP3    H273472   3.008   5.151  13.999  1.8730 -1.6789 -0.1051
17353TIP3   OH273473   3.393   6.621  16.610 -0.1834  0.2147  0.1665
17353TIP3    H173474   3.413   6.709  16.578 -0.1511 -0.5264 -2.0400
17353TIP3    H273475   3.327   6.587  16.549  0.0954 -1.4360  0.7088
17354TIP3   OH273476   3.145   0.743   4.239 -0.1025 -0.1936  0.3672
17354TIP3    H173477   3.216   0.787   4.286  0.2587 -1.3116  0.9066
17354TIP3    H273478   3.170   0.747   4.147  0.2748  0.0894  0.4812
17355TIP3   OH273479   3.336   0.308  12.373 -0.5214 -0.1448  0.1752
17355TIP3    H173480   3.430   0.323  12.386 -0.9313  2.6683  0.4340
17355TIP3    H273481   3.322   0.322  12.280 -0.6246 -1.2716  0.0007
17356TIP3   OH273482   5.341   1.120   3.496 -0.0143  0.2212 -0.4228
17356TIP3    H173483   5.342   1.120   3.592 -0.3189 -0.3504 -0.4195
17356TIP3    H273484   5.407   1.186   3.472  2.8910 -2.2089  0.1528
17357TIP3   OH273485   4.023   2.473  16.794  0.2177  0.2394  0.2369
17357TIP3    H173486   4.084   2.434  16.856  0.8450  0.5165 -0.1910
17357TIP3    H273487   4.031   2.567  16.809  1.0643  0.3700 -0.8674
17358TIP3   OH273488   2.192   0.821  15.127  0.2283 -0.3616  0.7769
17358TIP3    H173489   2.206   0.910  15.093  0.7081 -0.7055  0.0476
17358TIP3    H273490   2.268   0.805  15.183  1.0871 -0.9650 -0.5109
17359TIP3   OH273491   2.966   3.661  12.891 -0.1048 -0.8963  0.2944
17359TIP3    H173492   2.881   3.697  12.917  0.0051 -0.3121 -0.1334
17359TIP3    H273493   2.944   3.578  12.847 -0.4328 -0.8728  0.4109
17360TIP3   OH273494   4.831   2.681  15.260 -0.4713  0.1091  0.1432
17360TIP3    H173495   4.830   2.621  15.335 -0.0841 -0.8110 -0.5754
17360TIP3    H273496   4.917   2.722  15.264  0.0649 -0.9195 -0.5474
17361TIP3   OH273497   5.802   3.168  16.349  0.4404  0.6080  0.6465
17361TIP3    H173498   5.741   3.239  16.371 -0.0445 -0.5345  3.3243
17361TIP3    H273499   5.872   3.176  16.412  2.5483  1.1168 -1.6022
17362TIP3   OH273500   2.489   1.615   4.407 -0.2097  0.2349 -0.7853
17362TIP3    H173501   2.514   1.552   4.475  0.3385  0.2167 -1.0010
17362TIP3    H273502   2.397   1.594   4.389  0.3794 -1.5679 -1.9630
17363TIP3   OH273503   4.780   0.661  11.397  0.3395 -0.0125  0.3479
17363TIP3    H173504   4.781   0.566  11.405  1.5958 -0.1814 -1.1868
17363TIP3    H273505   4.738   0.678  11.313  0.8246  0.7331  0.2436
17364TIP3   OH273506   5.837   2.482   3.475 -0.5714 -0.5038 -0.5078
17364TIP3    H173507   5.849   2.388   3.491  0.5929 -0.3099 -0.1573
17364TIP3    H273508   5.871   2.496   3.387 -0.5748 -0.3715 -0.4886
17365TIP3   OH273509   0.945   5.917   3.807  0.3878 -0.4804 -0.9106
17365TIP3    H173510   0.964   5.823   3.805 -1.6449 -0.9548 -0.1769
17365TIP3    H273511   0.955   5.946   3.717  1.7869 -1.2131 -1.0202
17366TIP3   OH273512   1.583   5.334  13.229 -0.2938 -0.0445  0.3109
17366TIP3    H173513   1.494   5.365  13.245  0.4292  2.9904 -0.8244
17366TIP3    H273514   1.638   5.411  13.245  2.2113 -1.9156  1.3248
17367TIP3   OH273515   3.099   2.447   3.075 -0.3664 -0.4694 -0.0146
17367TIP3    H173516   3.111   2.536   3.109  0.1052 -0.7973  0.7002
17367TIP3    H273517   3.099   2.391   3.153  1.3794 -1.3073 -0.5665
17368TIP3   OH273518   2.241   3.448   5.133 -0.8526  0.1496 -0.2290
17368TIP3    H173519   2.176   3.403   5.079  0.8642 -1.0699 -1.3830
17368TIP3    H273520   2.249   3.394   5.211 -0.4006 -0.3474 -0.6134
17369TIP3   OH273521   5.256   4.664  16.348 -0.2860 -0.1433  0.0206
17369TIP3    H173522   5.259   4.722  16.424  0.3625  0.7393 -0.6584
17369TIP3    H273523   5.344   4.626  16.343 -0.4639 -0.5509 -0.0206
17370TIP3   OH273524   5.691   5.949   5.516 -0.0629  0.1451 -0.8321
17370TIP3    H173525   5.703   5.901   5.598 -0.4668  1.3651 -0.0268
17370TIP3    H273526   5.732   6.034   5.532  1.5349 -0.2499 -2.5818
17371TIP3   OH273527   2.488   4.703  16.760  0.2777  0.0035  0.0153
17371TIP3    H173528   2.449   4.753  16.688 -0.9939  0.9265  1.3099
17371TIP3    H273529   2.432   4.626  16.769 -1.1940  1.2049  1.7087
17372TIP3   OH273530   5.923   6.411  17.160  0.5018  0.0010 -0.3007
17372TIP3    H173531   5.980   6.485  17.141 -1.0362  1.0706 -0.9467
17372TIP3    H273532   5.938   6.392  17.253 -0.0715  2.0491  0.2656
17373TIP3   OH273533   3.135   4.560   2.532 -0.3282 -0.3093  0.2062
17373TIP3    H173534   3.140   4.472   2.569  3.0460  0.5629  2.1933
17373TIP3    H273535   3.043   4.586   2.544 -0.7295 -2.4225  2.3620
17374TIP3   OH273536   3.891   3.479   3.422 -0.5065 -0.0810 -0.4855
17374TIP3    H173537   3.925   3.391   3.436 -0.2113 -0.8447 -4.6213
17374TIP3    H273538   3.953   3.537   3.465  0.7741 -1.8000  0.0787
17375TIP3   OH273539   3.819   0.281   3.767  0.0858 -0.6253  0.3720
17375TIP3    H173540   3.774   0.197   3.771 -0.9919 -0.0203  2.1762
17375TIP3    H273541   3.902   0.266   3.812  1.4405 -1.5397 -2.2702
17376TIP3   OH273542   4.384   1.202  16.491  0.6242  0.4167  0.1696
17376TIP3    H173543   4.394   1.226  16.399  1.5782 -0.1143  0.1230
17376TIP3    H273544   4.322   1.266  16.526  1.6299  1.7366 -0.4028
17377TIP3   OH273545   3.882   0.674   2.421 -1.1908  0.2635  0.2814
17377TIP3    H173546   3.859   0.581   2.419 -1.4557  0.3181  0.7788
17377TIP3    H273547   3.978   0.674   2.422 -1.1389  0.0337 -1.5091
17378TIP3   OH273548   2.189   4.433   2.974 -0.1936 -0.4237 -0.0539
17378TIP3    H173549   2.152   4.479   2.899 -1.5261 -0.8286  0.3286
17378TIP3    H273550   2.133   4.356   2.985 -0.2310 -0.1915  1.5597
17379TIP3   OH273551   2.113   5.373  17.254 -0.1173 -0.1734 -0.7854
17379TIP3    H173552   2.078   5.450  17.300  1.5166  0.6221 -0.8294
17379TIP3    H273553   2.204   5.395  17.235 -0.1276 -1.3890 -2.4578
17380TIP3   OH273554   3.574   5.026  16.724 -0.3779  0.1796 -0.1106
17380TIP3    H173555   3.545   4.937  16.704  0.9227 -0.1539 -0.6490
17380TIP3    H273556   3.664   5.015  16.755 -0.2214  1.3075 -0.1217
17381TIP3   OH273557   6.704   1.596  17.249 -0.0765  0.1037 -0.0744
17381TIP3    H173558   6.644   1.522  17.249  1.6456 -1.3532  0.5319
17381TIP3    H273559   6.785   1.562  17.287  0.9520  2.1537 -0.2824
17382TIP3   OH273560   0.951   1.098  10.600 -0.3705 -0.2028 -0.4661
17382TIP3    H173561   0.945   1.165  10.669 -3.0807  0.3937 -1.1998
17382TIP3    H273562   0.959   1.148  10.519  1.2602 -0.8878 -0.7657
17383TIP3   OH273563   5.113   6.345   3.332  0.3101  0.4182  0.3138
17383TIP3    H173564   5.030   6.385   3.306  0.3057  0.1927 -0.0249
17383TIP3    H273565   5.178   6.388   3.278  0.4977  1.0337  1.0108
17384TIP3   OH273566   4.907   0.834   5.286  0.2584  0.4045  0.0239
17384TIP3    H173567   4.995   0.800   5.302 -1.0741 -2.2504  2.7558
17384TIP3    H273568   4.907   0.920   5.326  1.3568  0.0373  0.8695
17385TIP3   OH273569   2.302   4.037   2.152 -0.2050 -0.3091  0.4237
17385TIP3    H173570   2.212   4.042   2.183  0.0744  1.6682  1.0506
17385TIP3    H273571   2.315   4.118   2.102  1.8844  0.6356  2.3090
17386TIP3   OH273572   2.519   2.379   6.654  0.6468 -0.1316  0.2202
17386TIP3    H173573   2.458   2.313   6.622  2.0742 -0.4895 -1.9792
17386TIP3    H273574   2.606   2.343   6.634  1.5258  1.2822  1.3212
17387TIP3   OH273575   3.789   3.573  12.392 -0.3741  0.3086 -0.1122
17387TIP3    H173576   3.745   3.643  12.345 -0.3595  0.1523 -0.3585
17387TIP3    H273577   3.795   3.501  12.329  1.5880  0.8193 -0.5793
17388TIP3   OH273578   2.986   4.549   4.165  0.2041 -0.2750  0.1285
17388TIP3    H173579   3.039   4.524   4.241  2.2854 -1.2796 -1.5236
17388TIP3    H273580   3.051   4.576   4.100 -1.5346  0.9307 -1.1814
17389TIP3   OH273581   3.768   2.489   2.130  0.5610  0.2303  0.1069
17389TIP3    H173582   3.768   2.479   2.226  0.2497 -0.3834  0.0517
17389TIP3    H273583   3.827   2.562   2.113  0.3634  0.5560  0.7921
17390TIP3   OH273584   6.248   2.688  14.586 -1.0555 -0.1081 -0.0302
17390TIP3    H173585   6.274   2.695  14.494 -2.4309  0.8209 -0.3776
17390TIP3    H273586   6.190   2.763  14.600 -0.5179  0.0086  1.7237
17391TIP3   OH273587   4.732   0.119   3.070 -0.4016 -0.3122 -0.0971
17391TIP3    H173588   4.641   0.134   3.093 -0.2629 -0.3133  0.4524
17391TIP3    H273589   4.739   0.023   3.065 -1.0104 -0.3103 -2.5078
17392TIP3   OH273590   5.723   5.423   3.168  0.3033 -0.6221 -0.0651
17392TIP3    H173591   5.790   5.491   3.161  0.4944 -0.3329  3.1141
17392TIP3    H273592   5.648   5.458   3.120  1.0754  0.9205 -0.2020
17393TIP3   OH273593   0.712   4.920   4.589 -0.2495  0.3814  0.4668
17393TIP3    H173594   0.712   4.889   4.498  0.5333  0.6290  0.3708
17393TIP3    H273595   0.693   4.842   4.641 -0.6185  0.2212  0.0989
17394TIP3   OH273596   0.603   5.507   0.206  0.3080 -0.5762 -0.0543
17394TIP3    H173597   0.538   5.570   0.235 -0.4164 -1.6663  0.7442
17394TIP3    H273598   0.594   5.504   0.111  0.4093  0.5571 -0.1123
17395TIP3   OH273599   2.105   1.246  14.197  0.2145  0.2447  0.0096
17395TIP3    H173600   2.178   1.305  14.177  1.0742 -1.0770 -0.8798
17395TIP3    H273601   2.112   1.230  14.291  0.5045  0.8364  0.0957
17396TIP3   OH273602   6.600   1.027  13.837 -0.1233  0.1402  0.1878
17396TIP3    H173603   6.521   0.992  13.880 -0.4610 -0.1375 -0.6446
17396TIP3    H273604   6.612   1.114  13.877 -0.7973  0.1432  0.3967
17397TIP3   OH273605   2.766   2.467   0.893  0.1714 -0.1931  0.3065
17397TIP3    H173606   2.834   2.515   0.846 -0.7400  0.2189 -0.6203
17397TIP3    H273607   2.750   2.389   0.840 -0.5974  0.0841  0.1213
17398TIP3   OH273608   3.797   4.630   1.336  0.2160 -0.4915  0.0182
17398TIP3    H173609   3.880   4.602   1.298  0.4399 -0.6706  0.6143
17398TIP3    H273610   3.779   4.715   1.295  1.4010  0.2118  0.8772
17399TIP3   OH273611   1.623   2.488   1.546 -0.0242 -0.3614  0.4056
17399TIP3    H173612   1.666   2.573   1.557  1.7311 -1.3261  1.6498
17399TIP3    H273613   1.605   2.482   1.452  0.9195  0.8981  0.1112
17400TIP3   OH273614   3.989   6.146  11.717  0.3135  0.6280  0.6062
17400TIP3    H173615   3.936   6.215  11.678 -0.0205  0.5605  0.9397
17400TIP3    H273616   3.927   6.076  11.739  0.9737 -1.2291 -2.6933
17401TIP3   OH273617   5.767   4.658   1.015  0.1019 -0.1912  0.6348
17401TIP3    H173618   5.696   4.593   1.008  0.4944 -0.5833  0.2385
17401TIP3    H273619   5.803   4.643   1.103  2.2055 -2.6590 -0.5192
17402TIP3   OH273620   4.442   2.037   0.764 -0.3845  0.5911  0.6069
17402TIP3    H173621   4.434   2.069   0.854 -1.9202 -2.0857  1.5325
17402TIP3    H273622   4.369   1.975   0.754  1.4039 -1.3674 -1.4701
17403TIP3   OH273623   2.319   0.053  10.252  0.6927  0.0174 -0.5686
17403TIP3    H173624   2.334   0.043  10.158  0.6475 -0.4029 -0.5342
17403TIP3    H273625   2.395   0.102  10.283 -0.1389  1.7274 -1.1051
17404TIP3   OH273626   1.450   2.518  14.757  0.0787 -0.0450  0.1883
17404TIP3    H173627   1.371   2.463  14.753 -0.5525  0.7584  1.1457
17404TIP3    H273628   1.421   2.598  14.800  0.7982  1.3855 -1.8762
17405TIP3   OH273629   0.697   5.768   1.618 -0.7697 -0.4775  0.0641
17405TIP3    H173630   0.628   5.707   1.591 -1.1304  0.4807 -1.2929
17405TIP3    H273631   0.717   5.817   1.539 -0.4951  1.1700  1.1148
17406TIP3   OH273632   1.965   0.851   0.953 -0.1392  0.1577 -0.0317
17406TIP3    H173633   2.023   0.787   0.912  0.5693  0.5700  0.3052
17406TIP3    H273634   1.879   0.810   0.952  0.1113 -0.3600 -0.7673
17407TIP3   OH273635   0.082   1.061  11.283 -1.1057 -0.4052  0.1681
17407TIP3    H173636   0.156   1.008  11.255  0.0286  0.9000  0.5819
17407TIP3    H273637   0.009   1.000  11.287  0.1844 -1.9716  0.8466
17408TIP3   OH273638   4.300   5.498   3.967 -0.0070 -0.1051 -0.7423
17408TIP3    H173639   4.339   5.580   3.997 -1.5480  0.2394  0.4522
17408TIP3    H273640   4.329   5.432   4.031 -0.4371 -0.0754 -0.5142
17409TIP3   OH273641   2.881   5.130  16.487  0.5870  0.0285  0.1093
17409TIP3    H173642   2.884   5.224  16.503  3.0620 -0.1272  0.8652
17409TIP3    H273643   2.944   5.115  16.417 -0.6814 -0.9710 -0.8841
17410TIP3   OH273644   5.660   1.011  16.736  0.0368  0.8613 -0.1196
17410TIP3    H173645   5.670   1.061  16.817  1.2585 -1.5112  1.3054
17410TIP3    H273646   5.710   1.060  16.671  0.8850  1.6669  1.1066
17411TIP3   OH273647   1.368   4.448  13.667  0.1823 -0.7636 -0.0641
17411TIP3    H173648   1.277   4.439  13.640  0.4626 -0.8779 -0.9795
17411TIP3    H273649   1.390   4.363  13.706 -0.0914 -0.7431  0.1379
17412TIP3   OH273650   4.712   2.683   3.458  0.5038 -0.1624  0.3532
17412TIP3    H173651   4.709   2.588   3.467 -0.7772 -0.1043  0.7130
17412TIP3    H273652   4.699   2.716   3.546 -1.5087  0.3353 -0.0730
17413TIP3   OH273653   5.823   2.477  13.343  0.0960 -0.3199 -0.1385
17413TIP3    H173654   5.747   2.491  13.287 -0.0694 -0.5295  0.0319
17413TIP3    H273655   5.886   2.431  13.288  1.0454  1.9441 -1.0256
17414TIP3   OH273656   4.630   3.044   2.742 -0.2263 -0.1128 -0.1008
17414TIP3    H173657   4.625   3.135   2.715  1.4257  0.2851  0.8516
17414TIP3    H273658   4.620   3.046   2.837  0.0994 -0.8921 -0.0373
17415TIP3   OH273659   0.684   3.807  15.147 -0.2751  0.1050 -0.4575
17415TIP3    H173660   0.690   3.901  15.128 -0.1927  0.2508  0.2845
17415TIP3    H273661   0.715   3.765  15.066  0.0742  0.7196 -0.6537
17416TIP3   OH273662   1.696   0.593  16.054  0.0473  0.0086  0.3850
17416TIP3    H173663   1.773   0.627  16.008  0.3125 -0.2549  0.6353
17416TIP3    H273664   1.668   0.665  16.109 -3.0185  2.1294 -3.4203
17417TIP3   OH273665   5.323   4.425  13.285 -0.8442 -0.6048 -0.1544
17417TIP3    H173666   5.378   4.499  13.311 -1.2914 -0.3046 -0.0493
17417TIP3    H273667   5.266   4.411  13.360 -1.1305 -0.7047 -0.3918
17418TIP3   OH273668   2.518   5.573  14.280 -0.5518  0.0381  0.4895
17418TIP3    H173669   2.457   5.503  14.302  0.0462 -1.5440 -2.3748
17418TIP3    H273670   2.485   5.609  14.198  1.1736  0.6076 -0.0014
17419TIP3   OH273671   4.489   1.480   0.029  0.5468 -0.3612  0.1206
17419TIP3    H173672   4.458   1.473  -0.061  0.5007  1.0337  0.0026
17419TIP3    H273673   4.555   1.550   0.027  1.9808 -1.6188  0.8180
17420TIP3   OH273674   2.174   3.847  11.159  0.1521 -0.4432  0.8065
17420TIP3    H173675   2.097   3.899  11.180 -0.7422 -0.9688 -0.9887
17420TIP3    H273676   2.214   3.892  11.085  1.4469 -0.3329  1.5400
17421TIP3   OH273677   2.723   4.763  14.744 -0.6592 -0.6700 -0.2236
17421TIP3    H173678   2.738   4.857  14.757 -1.3513 -0.3000 -1.7768
17421TIP3    H273679   2.684   4.733  14.826  0.4703  0.1700  0.6561
17422TIP3   OH273680   6.232   6.049   5.311 -0.0329 -0.0160 -0.6636
17422TIP3    H173681   6.196   5.967   5.276  0.6999 -0.3779 -0.5858
17422TIP3    H273682   6.311   6.022   5.358  0.2223  0.7409 -0.6519
17423TIP3   OH273683   5.114   4.764   4.059  0.7269  0.2641  0.2521
17423TIP3    H173684   5.087   4.776   4.150  2.0727 -1.2355  0.9146
17423TIP3    H273685   5.089   4.845   4.015 -0.8953  0.6128  1.7123
17424TIP3   OH273686   1.335   0.981   0.439 -0.1214 -0.6497  0.2953
17424TIP3    H173687   1.324   1.069   0.475  0.7321 -0.2027 -0.4812
17424TIP3    H273688   1.251   0.938   0.454 -0.7656  0.5052  0.1185
17425TIP3   OH273689   2.952   2.427   1.950 -0.0859  0.3817  0.8143
17425TIP3    H173690   2.984   2.515   1.927 -1.1723  0.8858  1.1746
17425TIP3    H273691   2.867   2.421   1.907  0.6630 -1.1386 -0.5593
17426TIP3   OH273692   2.708   0.205  16.457  0.3018  0.4785 -0.1353
17426TIP3    H173693   2.789   0.232  16.500  0.9174 -0.8460 -0.4098
17426TIP3    H273694   2.661   0.154  16.524  0.5447 -0.2703 -0.5178
17427TIP3   OH273695   5.346   1.458   5.312  0.1252  0.4867  0.0559
17427TIP3    H173696   5.400   1.391   5.269 -0.2613  0.2687 -0.1048
17427TIP3    H273697   5.276   1.475   5.248  0.9542  2.0282 -0.4843
17428TIP3   OH273698   4.164   2.891  12.990 -0.0126  0.0442  0.1922
17428TIP3    H173699   4.254   2.897  12.957  0.2660  1.3826  1.0995
17428TIP3    H273700   4.162   2.812  13.043  0.1719 -0.8500 -1.0725
17429TIP3   OH273701   5.112   5.100   0.633 -0.3222 -0.0870  0.0951
17429TIP3    H173702   5.057   5.123   0.558  1.2722  0.8804 -0.8309
17429TIP3    H273703   5.194   5.147   0.618  0.0682  0.0979  2.4357
17430TIP3   OH273704   5.207   5.496   5.556  0.3194 -0.1191 -0.0507
17430TIP3    H173705   5.121   5.535   5.538 -0.2095 -1.8243 -1.3938
17430TIP3    H273706   5.270   5.563   5.527 -0.5210  1.1447  0.9412
17431TIP3   OH273707   5.783   1.360  15.825  0.2319 -0.2325 -0.3135
17431TIP3    H173708   5.703   1.309  15.836 -0.9442  1.7624  1.1423
17431TIP3    H273709   5.837   1.337  15.901  0.0563  0.0459 -0.0999
17432TIP3   OH273710   3.185   2.056   2.463 -0.3629  0.5900  0.1057
17432TIP3    H173711   3.144   2.134   2.503 -1.4632 -1.6884  3.9459
17432TIP3    H273712   3.127   2.034   2.390 -1.6437  1.7759  0.6994
17433TIP3   OH273713   3.062   5.710   3.704  0.0150 -0.1500 -0.2022
17433TIP3    H173714   3.121   5.779   3.734 -0.8775 -0.1260  1.6215
17433TIP3    H273715   3.096   5.630   3.743 -0.7055 -0.2506  0.2339
17434TIP3   OH273716   6.704   0.902  11.970 -0.6023  0.1525  0.8140
17434TIP3    H173717   6.734   0.822  11.928 -0.0744 -0.4831  2.3350
17434TIP3    H273718   6.617   0.919  11.932  0.6348  0.7497 -1.9580
17435TIP3   OH273719   4.202   4.275  15.662 -0.3146 -0.3430 -0.2686
17435TIP3    H173720   4.130   4.248  15.605  0.0698 -1.4971 -0.2216
17435TIP3    H273721   4.163   4.284  15.749 -0.2651 -1.7200 -0.0886
17436TIP3   OH273722   4.939   2.106   6.458 -0.2101  0.2759  0.1006
17436TIP3    H173723   4.851   2.102   6.421 -0.6597 -0.5454  1.1977
17436TIP3    H273724   4.976   2.019   6.443  0.4445  0.6203 -0.3801
17437TIP3   OH273725   1.059   3.104   1.515  0.1622 -0.0032 -0.0381
17437TIP3    H173726   1.040   3.198   1.513  2.9852  0.7665  2.3245
17437TIP3    H273727   1.009   3.071   1.589 -0.3190 -0.2742 -0.4724
17438TIP3   OH273728   0.577   2.147   5.401 -0.3811 -0.0632 -0.1879
17438TIP3    H173729   0.661   2.181   5.432 -1.0928  1.1645  0.4941
17438TIP3    H273730   0.595   2.056   5.377  1.3186  0.4015 -0.8203
17439TIP3   OH273731   3.033   0.410  10.403 -0.1525  0.3211  0.2120
17439TIP3    H173732   2.971   0.339  10.389  0.6984 -0.5785  0.8622
17439TIP3    H273733   3.100   0.398  10.335  0.1547  0.3103  0.5104
17440TIP3   OH273734   5.578   1.106  12.387 -0.4367 -0.4355  0.2299
17440TIP3    H173735   5.534   1.070  12.464  1.2811 -1.5981  0.7153
17440TIP3    H273736   5.666   1.129  12.417  0.2640 -0.8818 -1.3690
17441TIP3   OH273737   5.125   0.736   5.526  0.0267  0.4784 -0.3344
17441TIP3    H173738   5.195   0.770   5.470  1.0327 -0.6757  0.1715
17441TIP3    H273739   5.113   0.804   5.593  0.5810  0.7417 -0.4916
17442TIP3   OH273740   6.025   3.459   2.711  0.5004  0.3053 -0.2877
17442TIP3    H173741   6.007   3.501   2.795 -0.3449 -0.1213 -0.2466
17442TIP3    H273742   6.039   3.532   2.650 -1.2944  0.6855 -0.2991
17443TIP3   OH273743   1.074   4.511   4.135 -0.3458 -0.9764 -0.2901
17443TIP3    H173744   1.109   4.461   4.062  0.8118 -2.6554  1.3347
17443TIP3    H273745   1.101   4.462   4.213 -1.9333  0.4815  1.2564
17444TIP3   OH273746   4.959   6.324  12.787 -0.4315 -0.4922 -0.3861
17444TIP3    H173747   4.867   6.348  12.800 -0.2029 -0.4148  1.2824
17444TIP3    H273748   4.989   6.295  12.873  1.2121 -0.1821 -0.8159
17445TIP3   OH273749   6.713   2.291   2.254  0.1243 -0.1806 -0.5334
17445TIP3    H173750   6.715   2.386   2.270  0.0097 -0.1604 -0.6362
17445TIP3    H273751   6.777   2.255   2.316  1.5098  0.1401 -1.7247
17446TIP3   OH273752   5.324   1.933   0.387 -0.5125 -0.2352 -0.2716
17446TIP3    H173753   5.315   1.840   0.366 -0.7519 -0.0162 -1.1905
17446TIP3    H273754   5.417   1.944   0.408 -0.8435 -1.0807  1.9692
17447TIP3   OH273755   6.121   1.350   6.257 -0.4503 -0.1607 -0.0928
17447TIP3    H173756   6.106   1.304   6.175  2.0678 -0.4196 -0.4747
17447TIP3    H273757   6.090   1.439   6.241 -1.7486 -0.6855 -0.6468
17448TIP3   OH273758   4.978   3.661   1.865  0.3916 -0.3172 -0.2764
17448TIP3    H173759   4.914   3.608   1.818  1.5989 -2.1012 -0.0048
17448TIP3    H273760   5.054   3.603   1.876  1.2981  1.0585  1.1566
17449TIP3   OH273761   3.481   1.922  13.144  0.1047 -0.0188 -0.2342
17449TIP3    H173762   3.541   1.947  13.214 -0.1861 -0.2773  0.1072
17449TIP3    H273763   3.403   1.976  13.158  1.5373  3.0136 -2.7630
17450TIP3   OH273764   4.863   1.484   2.643  0.6979  0.0673 -0.5072
17450TIP3    H173765   4.881   1.549   2.575  0.5476  0.3317 -0.2941
17450TIP3    H273766   4.901   1.402   2.609  1.2486  0.3542 -0.5914
17451TIP3   OH273767   4.946   4.388  15.453 -0.2045  0.2453  0.2045
17451TIP3    H173768   4.883   4.405  15.522  1.6250  1.6112  1.6566
17451TIP3    H273769   5.025   4.359  15.499  1.1268  1.3455 -1.2418
17452TIP3   OH273770   2.345   1.484   1.742  0.6316 -0.0682 -0.2183
17452TIP3    H173771   2.375   1.557   1.688 -0.1093  0.5194  0.1359
17452TIP3    H273772   2.310   1.526   1.821 -2.5596 -0.5322 -1.2302
17453TIP3   OH273773   4.458   2.370   2.390 -0.4465  0.0961 -0.0268
17453TIP3    H173774   4.471   2.436   2.458  1.8367 -0.1831 -0.1272
17453TIP3    H273775   4.363   2.365   2.379 -0.8262  0.9450  2.3397
17454TIP3   OH273776   3.242   0.509   5.316  0.4419 -0.4672 -0.1328
17454TIP3    H173777   3.302   0.465   5.377 -1.1133 -0.9635  1.0842
17454TIP3    H273778   3.163   0.455   5.316 -0.9483  1.4795  0.1954
17455TIP3   OH273779   0.991   0.110   4.734  0.5859  0.3772 -0.7621
17455TIP3    H173780   0.945   0.026   4.736 -1.6433  1.5200 -1.2477
17455TIP3    H273781   1.069   0.095   4.787 -0.9768 -1.3128  1.2342
17456TIP3   OH273782   2.613   3.552  14.645  0.2429  0.0984 -0.0202
17456TIP3    H173783   2.632   3.486  14.712  0.5609  0.2486  0.0385
17456TIP3    H273784   2.577   3.502  14.572  2.6146 -0.4628 -0.8893
17457TIP3   OH273785   2.871   2.803   4.442 -0.4688  0.0212  0.3418
17457TIP3    H173786   2.840   2.725   4.397  0.3157 -0.1269  0.0501
17457TIP3    H273787   2.866   2.873   4.377  1.2407 -0.3142 -0.2001
17458TIP3   OH273788   2.150   1.408  13.311 -0.0683 -0.6140  0.1980
17458TIP3    H173789   2.243   1.406  13.289 -0.2434 -0.9203 -0.5357
17458TIP3    H273790   2.135   1.496  13.347  0.2734 -0.1518 -0.7429
17459TIP3   OH273791   2.004   5.423  12.818 -0.3106  0.1270  0.0259
17459TIP3    H173792   2.079   5.380  12.777 -0.9149  0.6248 -1.6823
17459TIP3    H273793   1.945   5.352  12.842  1.1332 -0.3859  2.4860
17460TIP3   OH273794   2.369   5.128   5.090  0.3423  0.3088  0.4463
17460TIP3    H173795   2.410   5.064   5.148  2.1496  1.3219  0.3575
17460TIP3    H273796   2.302   5.169   5.145 -1.1144 -1.8400  0.3924
17461TIP3   OH273797   2.178   1.130  14.634 -0.2845 -0.2013 -0.0419
17461TIP3    H173798   2.209   1.219  14.615  1.2908 -0.8571 -0.6121
17461TIP3    H273799   2.255   1.075  14.628 -0.5997 -1.2392  3.2463
17462TIP3   OH273800   2.796   4.324  16.574 -0.2568  0.1921 -0.3922
17462TIP3    H173801   2.869   4.344  16.633  0.0704  0.0285 -0.7417
17462TIP3    H273802   2.837   4.299  16.492 -0.6748 -1.0384 -0.2476
17463TIP3   OH273803   4.612   2.049  16.981  0.2266  0.5626 -0.0881
17463TIP3    H173804   4.662   2.097  17.048  1.4211 -1.3709  0.4919
17463TIP3    H273805   4.675   2.036  16.910 -0.2925  0.4447 -0.5306
17464TIP3   OH273806   3.910   4.764   4.667 -0.2025 -0.3356 -0.4008
17464TIP3    H173807   3.982   4.779   4.728 -0.2745 -1.7032  0.0780
17464TIP3    H273808   3.843   4.719   4.720 -2.8421  3.6079  0.0348
17465TIP3   OH273809   2.333   4.380  16.633 -0.0460  0.9381 -0.6123
17465TIP3    H173810   2.284   4.414  16.558  1.5091  1.2045 -1.5554
17465TIP3    H273811   2.295   4.424  16.708 -1.4149  0.9333 -1.2738
17466TIP3   OH273812   4.590   4.924  14.267 -0.6303 -0.0389 -0.9333
17466TIP3    H173813   4.531   4.998  14.281 -0.6101 -0.0291 -0.8980
17466TIP3    H273814   4.664   4.942  14.325 -0.3072  0.2590 -1.4322
17467TIP3   OH273815   2.777   2.802   1.437  0.0866  0.3087 -0.1751
17467TIP3    H173816   2.707   2.862   1.409 -0.5424 -0.1585  0.3853
17467TIP3    H273817   2.820   2.848   1.509  0.5602  0.7258 -0.7108
17468TIP3   OH273818   4.902   3.476  13.669  0.0310  0.3351 -0.1911
17468TIP3    H173819   4.960   3.483  13.593 -2.0843  1.7175 -1.7885
17468TIP3    H273820   4.814   3.475  13.632 -1.0909  1.0905  2.2575
17469TIP3   OH273821   4.109   1.058   1.471 -0.5760 -0.3030 -0.2485
17469TIP3    H173822   4.121   1.066   1.566 -0.0786  0.5106 -0.3640
17469TIP3    H273823   4.018   1.084   1.456 -0.1959  1.2180 -0.1404
17470TIP3   OH273824   5.429   3.946   2.504 -0.0027  0.5378 -0.7539
17470TIP3    H173825   5.446   3.995   2.585 -0.9106 -0.7511  0.2480
17470TIP3    H273826   5.345   3.979   2.473 -0.6555 -0.3994 -0.0333
17471TIP3   OH273827   3.557   4.325   3.313  0.0716  0.6561 -0.4496
17471TIP3    H173828   3.553   4.234   3.283 -2.2567 -0.2391  2.1885
17471TIP3    H273829   3.645   4.333   3.351  0.6287 -0.1860 -1.4999
17472TIP3   OH273830   1.630   6.440  12.975  0.5094 -0.2466  0.1326
17472TIP3    H173831   1.602   6.360  13.020 -1.0372  0.0558 -0.2307
17472TIP3    H273832   1.581   6.510  13.019  0.1859  0.2327 -0.9661
17473TIP3   OH273833   2.945   3.964  10.807  0.0528 -0.6594  0.1135
17473TIP3    H173834   3.021   3.998  10.853 -0.0255 -0.2855 -0.0242
17473TIP3    H273835   2.881   4.035  10.811 -0.7107 -1.3772  1.2109
17474TIP3   OH273836   2.724   1.223  12.155  0.0405 -0.0551  0.9098
17474TIP3    H173837   2.682   1.304  12.127  0.3592 -0.1138  0.2372
17474TIP3    H273838   2.749   1.239  12.245 -0.1273  0.5051  0.8612
17475TIP3   OH273839   0.639   3.619   5.239 -0.0763 -0.3236  0.2972
17475TIP3    H173840   0.641   3.624   5.335 -1.1779 -1.2085  0.3910
17475TIP3    H273841   0.653   3.709   5.210 -0.0183  0.0054  1.2960
17476TIP3   OH273842   2.850   1.046  17.000  0.5797  0.3634 -0.6550
17476TIP3    H173843   2.789   0.974  16.984 -0.0732  1.0941 -1.5443
17476TIP3    H273844   2.795   1.118  17.028  1.3950  0.0189  2.1792
17477TIP3   OH273845   1.671   4.597  12.975  0.5858  0.9701 -0.0694
17477TIP3    H173846   1.645   4.600  13.067 -0.9179  2.2481 -0.4879
17477TIP3    H273847   1.602   4.548  12.932  1.0770  0.7284 -0.5954
17478TIP3   OH273848   6.043   6.196   3.981  0.2442 -0.2762 -0.2161
17478TIP3    H173849   6.121   6.233   4.023  0.1670  1.3405 -1.3588
17478TIP3    H273850   5.975   6.198   4.048  0.2915  1.6219 -0.1683
17479TIP3   OH273851   0.814   1.310   2.480 -0.3332  0.1852 -0.0670
17479TIP3    H173852   0.818   1.395   2.435 -0.0111 -0.0369 -0.4735
17479TIP3    H273853   0.721   1.291   2.486 -0.3828  0.0440 -1.0021
17480TIP3   OH273854   1.702   2.121  11.430  0.0132 -0.1624 -0.0326
17480TIP3    H173855   1.692   2.029  11.456  0.1092 -0.0881  0.2843
17480TIP3    H273856   1.659   2.170  11.500 -1.3295 -0.0129 -0.9450
17481TIP3   OH273857   2.455   3.548   6.160 -0.1748 -0.7885 -0.1225
17481TIP3    H173858   2.365   3.544   6.190 -0.3116 -2.3957 -0.6671
17481TIP3    H273859   2.483   3.457   6.154  1.6645 -0.3160  0.5425
17482TIP3   OH273860   2.186   6.041  13.974 -0.0589  0.3308 -0.5057
17482TIP3    H173861   2.268   6.064  14.017  1.3588 -0.9826 -2.3522
17482TIP3    H273862   2.203   5.954  13.936 -2.7448 -0.5756  0.1672
17483TIP3   OH273863   1.201   0.787  12.417  0.3479  0.5415 -0.3266
17483TIP3    H173864   1.144   0.729  12.468 -0.1508  1.4253  0.1373
17483TIP3    H273865   1.150   0.867  12.405  0.5894  0.4914 -1.9259
17484TIP3   OH273866   3.253   5.968  16.651  0.0713  0.1910 -0.1485
17484TIP3    H173867   3.285   5.989  16.739  2.4989 -3.1439  0.0004
17484TIP3    H273868   3.159   5.980  16.656 -0.0891 -1.2038  3.4349
17485TIP3   OH273869   0.494   4.288   0.047 -0.2457  0.0235 -0.1469
17485TIP3    H173870   0.587   4.301   0.065 -0.5006 -1.2799  2.5463
17485TIP3    H273871   0.480   4.334  -0.036  3.0901 -1.0853 -1.5265
17486TIP3   OH273872   4.729   4.104  15.028 -0.2355 -0.0948 -0.9902
17486TIP3    H173873   4.728   4.149  15.113 -2.3929  1.3697 -1.7202
17486TIP3    H273874   4.816   4.123  14.992  0.3087  0.1879  0.4062
17487TIP3   OH273875   5.800   6.130  16.910 -0.5261  0.2772  0.9453
17487TIP3    H173876   5.783   6.039  16.883 -0.1225  0.1114  1.2423
17487TIP3    H273877   5.882   6.125  16.960  0.4835  1.0703 -0.5388
17488TIP3   OH273878   2.047   0.087  13.910  0.0381  0.2020  0.5238
17488TIP3    H173879   1.996   0.070  13.990 -1.0287 -0.0029 -0.1805
17488TIP3    H273880   1.991   0.056  13.839  1.8006 -1.5100 -0.1976
17489TIP3   OH273881   6.166   1.281  17.091  0.5425 -0.0184  0.6337
17489TIP3    H173882   6.159   1.377  17.093 -0.6269 -0.0630 -0.3516
17489TIP3    H273883   6.237   1.264  17.029 -0.2306  0.1916 -0.3238
17490TIP3   OH273884   4.180   1.806  11.044 -0.4461 -0.2506  0.2101
17490TIP3    H173885   4.233   1.877  11.081  0.1677 -0.2378 -0.6742
17490TIP3    H273886   4.244   1.746  11.007 -1.0694  0.4834 -2.1903
17491TIP3   OH273887   2.202   3.646  16.005 -0.5733 -0.1505  0.0078
17491TIP3    H173888   2.298   3.652  16.003 -0.6150  0.3738 -0.5637
17491TIP3    H273889   2.173   3.706  15.937 -1.2773 -1.0610 -0.5236
17492TIP3   OH273890   0.824   5.648   3.134 -0.0578 -0.0401 -0.2422
17492TIP3    H173891   0.826   5.610   3.222 -0.2691  1.8566  0.6448
17492TIP3    H273892   0.733   5.638   3.106 -0.5409  1.2753  0.7198
17493TIP3   OH273893   3.755   6.304  12.931  0.2341  0.1088 -0.0340
17493TIP3    H173894   3.681   6.247  12.908  0.9360 -0.8992  0.1370
17493TIP3    H273895   3.797   6.324  12.847  0.5805 -0.4738 -0.0059
17494TIP3   OH273896   5.211   6.220   0.607  0.9848  0.0968 -0.3688
17494TIP3    H173897   5.262   6.146   0.575  1.8995  0.3744  0.3865
17494TIP3    H273898   5.233   6.293   0.549  1.5751  0.2532  0.0449
17495TIP3   OH273899   0.773   1.848   5.019  0.0999 -0.0646 -0.6732
17495TIP3    H173900   0.800   1.878   4.932  2.1734 -0.4483 -0.2303
17495TIP3    H273901   0.812   1.912   5.079 -1.7529  0.4978 -0.0219
17496TIP3   OH273902   2.565   2.585   2.758 -0.2473  0.2266  0.0622
17496TIP3    H173903   2.513   2.664   2.775 -1.7037 -0.8032  0.5700
17496TIP3    H273904   2.653   2.609   2.785 -0.3097  2.2012 -1.2821
17497TIP3   OH273905   2.792   2.963  13.631  0.1081  0.1290  0.5279
17497TIP3    H173906   2.707   2.921  13.617  0.3602 -0.3633  0.4892
17497TIP3    H273907   2.825   2.923  13.712  0.1721  0.5324  0.7041
17498TIP3   OH273908   6.429   2.372   4.121 -0.0194  0.2498  0.0218
17498TIP3    H173909   6.478   2.289   4.115 -0.4789 -0.0218 -0.0277
17498TIP3    H273910   6.481   2.434   4.071  0.6017  0.1241  0.4948
17499TIP3   OH273911   4.961   0.954  16.722  0.1100 -0.0004 -0.2580
17499TIP3    H173912   5.010   0.931  16.643  0.4573 -1.0711  0.2516
17499TIP3    H273913   5.017   0.925  16.794  0.1792  1.7091  0.4250
17500TIP3   OH273914   3.053   0.478  16.736 -0.5794 -0.3585  0.0033
17500TIP3    H173915   2.969   0.486  16.690 -1.4576 -1.3495  1.3513
17500TIP3    H273916   3.096   0.403  16.694 -0.4517 -0.0014 -0.5243
17501TIP3   OH273917   6.236   0.464   5.700 -0.3627 -0.2677  0.1226
17501TIP3    H173918   6.303   0.523   5.734  2.4141 -3.7245  1.3182
17501TIP3    H273919   6.165   0.468   5.764 -0.7217  2.3500 -0.3587
17502TIP3   OH273920   2.229   6.273  12.319 -0.1924 -0.0090 -0.0608
17502TIP3    H173921   2.268   6.197  12.277 -0.9209  0.8594 -2.4314
17502TIP3    H273922   2.262   6.269  12.409  4.2080 -0.1514 -1.4496
17503TIP3   OH273923   5.208   4.063  12.072 -0.0086  0.4051 -0.5406
17503TIP3    H173924   5.127   4.082  12.120  0.0961 -1.5636  0.5313
17503TIP3    H273925   5.178   4.021  11.992 -0.0863  1.2709 -0.9772
17504TIP3   OH273926   5.341   2.937   2.454  0.0682  0.6664 -0.4944
17504TIP3    H173927   5.271   2.997   2.429  0.6393  2.4292  1.7927
17504TIP3    H273928   5.346   2.944   2.550  1.6245 -1.4239 -0.3381
17505TIP3   OH273929   3.200   0.360   0.084  0.1702  0.4737  0.5131
17505TIP3    H173930   3.130   0.413   0.046 -0.5682 -0.4165  0.6020
17505TIP3    H273931   3.159   0.276   0.103  0.7000  0.6230  2.5602
17506TIP3   OH273932   5.637   1.377   4.159 -0.4171 -0.0441 -0.0140
17506TIP3    H173933   5.586   1.432   4.218 -0.0909  0.2784 -0.0279
17506TIP3    H273934   5.676   1.310   4.216  0.0625  0.3863  0.1786
17507TIP3   OH273935   0.047   0.829  14.288  0.2496  0.0267 -0.3199
17507TIP3    H173936  -0.035   0.789  14.261 -0.0158 -0.5414  1.2317
17507TIP3    H273937   0.092   0.850  14.205 -0.8488 -0.8755 -1.1775
17508TIP3   OH273938   4.033   2.939  10.552 -0.4783  0.1093  0.3685
17508TIP3    H173939   3.977   2.871  10.515 -2.0705  0.3954  2.1019
17508TIP3    H273940   4.041   3.004  10.482 -1.6582 -0.3356 -0.1985
17509TIP3   OH273941   1.480   0.053   1.795  0.7479  0.3531  0.5436
17509TIP3    H173942   1.483   0.143   1.761 -0.0344  0.1522 -0.1111
17509TIP3    H273943   1.527   0.001   1.730  0.8040  0.2261  0.6855
17510TIP3   OH273944   5.058   4.136  15.957 -0.1020  0.0660  0.2028
17510TIP3    H173945   5.073   4.206  16.020 -1.4447  0.0393  0.5855
17510TIP3    H273946   5.058   4.056  16.009  1.8204 -0.3060 -0.2878
17511TIP3   OH273947   0.377   4.899  15.133 -0.2096  0.0337  0.3861
17511TIP3    H173948   0.321   4.956  15.185 -0.9026  2.2290 -2.5332
17511TIP3    H273949   0.318   4.831  15.100 -1.0773  1.7627 -1.8504
17512TIP3   OH273950   3.597   3.038  17.020 -0.3201 -0.2681 -0.3324
17512TIP3    H173951   3.525   3.093  17.051 -0.4653 -0.5341 -0.1971
17512TIP3    H273952   3.664   3.046  17.088  0.5661  1.4897 -1.3363
17513TIP3   OH273953   0.902   6.463   5.319  0.2172 -0.2493 -0.5042
17513TIP3    H173954   0.869   6.540   5.367 -0.8201  0.0929 -1.7274
17513TIP3    H273955   0.947   6.411   5.386 -0.0316  0.8678  0.5706
17514TIP3   OH273956   4.036   5.230  11.363  0.3469 -0.5925  0.1194
17514TIP3    H173957   4.020   5.202  11.453 -1.4127  0.3554  0.1360
17514TIP3    H273958   4.029   5.149  11.312 -2.2611 -0.6528  0.4525
17515TIP3   OH273959   2.209   3.696   5.076  0.3439  0.4159  0.3528
17515TIP3    H173960   2.230   3.608   5.106  0.0892  0.3129  0.2362
17515TIP3    H273961   2.200   3.687   4.981  0.3649  0.5774  0.3358
17516TIP3   OH273962   2.223   5.324   5.512 -0.1444 -0.1280  0.2192
17516TIP3    H173963   2.151   5.362   5.563 -0.6924  0.7522 -1.1394
17516TIP3    H273964   2.277   5.399   5.488 -0.1705 -0.4386 -0.8809
17517TIP3   OH273965   2.297   2.476   5.009  0.1924 -0.5978  0.6659
17517TIP3    H173966   2.389   2.457   4.991  0.3558 -0.4778  1.3368
17517TIP3    H273967   2.297   2.515   5.097 -0.2077  1.7637 -0.2898
17518TIP3   OH273968   6.110   2.341  13.858  0.3278 -0.3242 -0.2937
17518TIP3    H173969   6.063   2.413  13.900  0.2225 -0.5703  0.0106
17518TIP3    H273970   6.052   2.312  13.788  0.0096 -0.6547  0.1084
17519TIP3   OH273971   1.971   1.186   0.346 -0.4028  0.4955 -0.0175
17519TIP3    H173972   1.965   1.132   0.425  0.2015  0.1763 -0.1889
17519TIP3    H273973   1.901   1.154   0.290  0.3999 -0.6051 -0.4159
17520TIP3   OH273974   2.231   4.147  12.575  0.3392  0.1728 -0.3077
17520TIP3    H173975   2.139   4.125  12.559  0.6055 -1.2685 -0.0631
17520TIP3    H273976   2.262   4.180  12.490  0.5094 -2.8863 -1.5939
17521TIP3   OH273977   0.259   6.084   3.347 -0.2940  0.3091  0.5874
17521TIP3    H173978   0.316   6.089   3.424 -1.0216 -2.0197  1.3568
17521TIP3    H273979   0.232   6.175   3.332 -1.6162  0.7069  4.2740
17522TIP3   OH273980   0.511   3.423  14.354  0.0043 -0.4694 -0.4369
17522TIP3    H173981   0.425   3.444  14.391  0.0851 -0.8140 -0.0473
17522TIP3    H273982   0.496   3.418  14.260 -0.0857  0.9958 -0.5209
17523TIP3   OH273983   3.837   5.650   1.406 -0.0223  0.0234  0.1785
17523TIP3    H173984   3.848   5.742   1.427 -1.9446  0.3428 -0.0827
17523TIP3    H273985   3.915   5.607   1.442  0.2040  1.5333  1.5610
17524TIP3   OH273986   0.532   1.851  14.123 -0.9240 -0.1466  0.1944
17524TIP3    H173987   0.606   1.805  14.163 -1.3392  0.7962  2.1852
17524TIP3    H273988   0.475   1.782  14.091  0.4672 -0.9022 -0.7559
17525TIP3   OH273989   3.655   4.422   2.917 -0.2885  0.3739 -0.2504
17525TIP3    H173990   3.646   4.494   2.855  0.7009  1.2462  0.5841
17525TIP3    H273991   3.629   4.459   3.001 -0.8948 -0.5839 -0.0016
17526TIP3   OH273992   2.423   3.804   5.445 -0.5459  0.2190 -0.0841
17526TIP3    H173993   2.500   3.756   5.474 -0.0613  0.5250 -0.8319
17526TIP3    H273994   2.420   3.882   5.501  0.9023  1.2711 -1.3883
17527TIP3   OH273995   4.552   0.732  11.563 -0.7409 -0.5748 -0.4871
17527TIP3    H173996   4.604   0.718  11.642 -1.5952  1.6076  0.5482
17527TIP3    H273997   4.615   0.757  11.496 -0.3092  1.0433  0.4813
17528TIP3   OH273998   3.516   6.516   5.620 -0.2406  0.5990  0.0768
17528TIP3    H173999   3.507   6.420   5.620  0.4434  0.5237  0.4737
17528TIP3    H274000   3.603   6.531   5.658 -0.6064  1.4027  0.6202
17529TIP3   OH274001   6.767   2.454   6.263 -0.0926  0.2831 -0.2475
17529TIP3    H174002   6.692   2.514   6.266 -0.5832 -0.3220 -0.1982
17529TIP3    H274003   6.772   2.418   6.351  0.9436  1.1323  0.0608
17530TIP3   OH274004   5.647   1.408  14.897  0.0671  0.2614  0.3197
17530TIP3    H174005   5.586   1.336  14.911  1.3585 -0.5417  2.2333
17530TIP3    H274006   5.691   1.420  14.981  2.5323  0.8263 -0.9275
17531TIP3   OH274007   5.411   2.501   3.368  0.7201  0.7652  0.0229
17531TIP3    H174008   5.397   2.596   3.360  0.0118  0.7735  1.1797
17531TIP3    H274009   5.392   2.467   3.280  0.5536  1.6331 -0.2968
17532TIP3   OH274010   3.571   5.547  12.281 -0.2576  0.5656  0.6586
17532TIP3    H174011   3.549   5.454  12.270 -0.5531  0.5969  0.9797
17532TIP3    H274012   3.659   5.555  12.243 -0.5730  0.3351 -0.1388
17533TIP3   OH274013   6.467   0.940  15.684  0.0742 -0.3583  0.3772
17533TIP3    H174014   6.492   1.029  15.706  1.1155 -0.3582 -0.7104
17533TIP3    H274015   6.490   0.888  15.761  1.9489 -0.0843  0.0464
17534TIP3   OH274016   4.771   3.761  12.855 -0.4120 -0.0172 -0.1246
17534TIP3    H174017   4.681   3.733  12.872 -0.6932  1.1106  0.3046
17534TIP3    H274018   4.767   3.805  12.770 -0.4592  0.8112  0.2915
17535TIP3   OH274019   2.079   2.921  14.827 -0.0290 -0.0212  0.0646
17535TIP3    H174020   2.171   2.897  14.818  0.1055  0.5486 -0.0804
17535TIP3    H274021   2.078   3.016  14.822 -0.9275 -0.0730 -2.8508
17536TIP3   OH274022   0.970   2.516   1.119 -0.0711 -0.0664  0.0245
17536TIP3    H174023   0.911   2.509   1.195 -0.9243 -3.1962 -0.7840
17536TIP3    H274024   0.989   2.610   1.113 -2.6279  0.7347  2.0880
17537TIP3   OH274025   4.789   2.471  14.730  0.0608 -0.6377 -0.2230
17537TIP3    H174026   4.753   2.475  14.819 -1.9163  0.7371 -1.0171
17537TIP3    H274027   4.849   2.545  14.725  2.3003 -2.2433  0.7163
17538TIP3   OH274028   0.350   3.291  15.954 -0.2703 -0.0422 -0.5616
17538TIP3    H174029   0.315   3.207  15.924 -2.8760  1.1208 -1.0121
17538TIP3    H274030   0.355   3.282  16.049  0.1603 -0.9388 -0.6574
17539TIP3   OH274031   3.119   4.959  16.720 -0.1188  0.4012  0.0933
17539TIP3    H174032   3.197   4.937  16.669 -1.6102 -0.5114 -1.9354
17539TIP3    H274033   3.131   4.912  16.803  1.4430  0.2295 -0.1958
17540TIP3   OH274034   6.347   4.980  15.183 -0.6791 -0.5234  0.2085
17540TIP3    H174035   6.287   5.012  15.251  0.0219 -1.0154  1.0743
17540TIP3    H274036   6.360   4.888  15.205 -2.0227 -1.2562 -1.7773
17541TIP3   OH274037   5.276   3.908  14.171  0.6745 -0.1711  0.3543
17541TIP3    H174038   5.322   3.862  14.241  0.7072  0.6085  0.8500
17541TIP3    H274039   5.255   3.994  14.208  0.5278  0.1816 -0.5307
17542TIP3   OH274040   4.200   1.516  16.850 -0.2838 -0.5588 -0.3173
17542TIP3    H174041   4.173   1.531  16.941  0.2397  1.5500 -0.4558
17542TIP3    H274042   4.147   1.577  16.799  1.1588  0.0635 -1.1295
17543TIP3   OH274043   3.649   3.622   1.671 -0.4719 -0.3554  0.4594
17543TIP3    H174044   3.648   3.550   1.734 -3.2702 -0.5295  0.3406
17543TIP3    H274045   3.570   3.609   1.618 -0.3669  2.0728 -0.4221
17544TIP3   OH274046   5.780   4.243  13.055  0.0701 -0.3812  0.4160
17544TIP3    H174047   5.812   4.332  13.042  2.3724 -1.2031  0.1158
17544TIP3    H274048   5.796   4.225  13.147  0.7862 -0.9222  0.1851
17545TIP3   OH274049   6.728   0.546  11.172  0.2195 -0.2455 -0.4843
17545TIP3    H174050   6.755   0.492  11.098  1.4822 -2.2279  1.3189
17545TIP3    H274051   6.777   0.627  11.162  2.5204 -1.5523 -0.4135
17546TIP3   OH274052   1.545   4.226   1.325 -0.4435 -0.1189 -0.1725
17546TIP3    H174053   1.486   4.231   1.399 -0.3013 -1.5937  0.0706
17546TIP3    H274054   1.605   4.154   1.346 -0.4810 -0.6578 -1.7597
17547TIP3   OH274055   1.553   3.562   4.888  0.0285  0.5387 -0.0047
17547TIP3    H174056   1.517   3.531   4.805  0.4878  0.0129 -0.0129
17547TIP3    H274057   1.562   3.657   4.877  0.9667  0.3638 -0.9019
17548TIP3   OH274058   0.111   4.623  15.746  0.2190 -0.1035 -0.3109
17548TIP3    H174059   0.160   4.558  15.797 -0.8476 -1.3004 -0.7626
17548TIP3    H274060   0.140   4.610  15.656  0.4817  0.5058 -0.3171
17549TIP3   OH274061   4.881   4.968  15.556  0.1455 -0.1023  0.0094
17549TIP3    H174062   4.962   4.932  15.520 -0.3828 -1.1711 -0.1304
17549TIP3    H274063   4.811   4.928  15.505 -0.4938  0.5833  0.3216
17550TIP3   OH274064   0.050   1.559  16.818 -0.2821  0.0292  0.2295
17550TIP3    H174065   0.088   1.474  16.842 -0.1926  0.0828  0.2813
17550TIP3    H274066   0.095   1.621  16.875 -0.7219  0.0514  0.5583
17551TIP3   OH274067   2.504   0.233  16.219 -0.0100  0.1023 -0.4891
17551TIP3    H174068   2.496   0.189  16.135 -1.0656  1.1856 -0.9845
17551TIP3    H274069   2.581   0.194  16.260  2.5131  1.7922 -3.3124
17552TIP3   OH274070   6.758   4.417   1.132 -0.2060  0.0622 -0.0337
17552TIP3    H174071   6.732   4.470   1.207 -0.9354 -0.1144 -0.1624
17552TIP3    H274072   6.686   4.356   1.118  0.2080 -0.3383 -0.4759
17553TIP3   OH274073   1.434   3.445   3.943  0.3112 -0.1876 -0.3781
17553TIP3    H174074   1.498   3.415   3.879  0.4501  0.7513 -0.6889
17553TIP3    H274075   1.366   3.377   3.942 -0.6795  0.7094 -2.9496
17554TIP3   OH274076   5.137   4.508   5.370  0.3002  0.3490  0.5634
17554TIP3    H174077   5.194   4.521   5.446 -0.7158  0.7186  1.2700
17554TIP3    H274078   5.143   4.591   5.321 -0.0108  0.5683  0.8954
17555TIP3   OH274079   0.685   1.132  17.010 -0.0463  0.4134  0.2578
17555TIP3    H174080   0.774   1.163  17.024  0.2286 -0.4744  0.5661
17555TIP3    H274081   0.637   1.160  17.088  0.7436 -1.8313  1.6437
17556TIP3   OH274082   2.008   1.132   6.025  0.5259  0.1285  0.4299
17556TIP3    H174083   1.969   1.117   5.938  0.6861 -1.6917  0.6449
17556TIP3    H274084   1.951   1.085   6.085  0.8344  0.7737  1.2451
17557TIP3   OH274085   3.536   0.994   4.607  0.4757  0.1931 -0.0602
17557TIP3    H174086   3.452   0.952   4.624 -0.1704  2.0103  1.6570
17557TIP3    H274087   3.600   0.924   4.618 -0.6080 -0.6098  1.6971
17558TIP3   OH274088   5.970   0.874  16.876  0.0203 -0.0468 -0.0569
17558TIP3    H174089   6.061   0.845  16.865  0.4302  0.7911  1.0103
17558TIP3    H274090   5.932   0.865  16.788  1.3942  0.4630 -0.7400
17559TIP3   OH274091   1.318   1.494   1.496  0.2390  0.6046  0.1314
17559TIP3    H174092   1.233   1.518   1.460 -0.7716 -0.0989  1.9351
17559TIP3    H274093   1.344   1.417   1.445  0.6384  1.7968 -1.5556
17560TIP3   OH274094   0.251   1.598  13.547 -0.2929 -0.3063  0.1581
17560TIP3    H174095   0.256   1.612  13.452  0.7858 -0.7847  0.1248
17560TIP3    H274096   0.191   1.666  13.578 -1.7687 -1.0136 -1.0230
17561TIP3   OH274097   2.262   4.530  13.407  0.3184 -0.0732 -0.2348
17561TIP3    H174098   2.266   4.625  13.421  3.0947 -0.1140 -0.0557
17561TIP3    H274099   2.187   4.501  13.459 -0.2028  1.9363  0.2279
17562TIP3   OH274100   6.309   5.776  16.512 -0.2906  0.2814  0.3317
17562TIP3    H174101   6.270   5.713  16.451  0.1805  0.5040 -0.2131
17562TIP3    H274102   6.357   5.837  16.455  0.9987 -0.0988  0.9925
17563TIP3   OH274103   6.076   4.309  16.936 -0.4135  0.2445  0.0219
17563TIP3    H174104   6.169   4.311  16.913 -0.3902 -0.3337  0.0628
17563TIP3    H274105   6.074   4.334  17.029 -0.1772 -0.9749  0.3716
17564TIP3   OH274106   1.304   6.448   4.982 -0.1263 -0.2956  0.3461
17564TIP3    H174107   1.340   6.397   4.909 -1.0590 -0.1563 -0.2316
17564TIP3    H274108   1.337   6.537   4.968 -2.7055  0.4726 -1.7166
17565TIP3   OH274109   3.547   2.281   4.418 -0.3126  0.1370  0.4295
17565TIP3    H174110   3.601   2.350   4.455  0.9112 -0.7071  0.2700
17565TIP3    H274111   3.565   2.285   4.324  1.3670 -1.6600  0.6043
17566TIP3   OH274112   1.465   3.011   5.372 -0.4795 -0.1613 -0.2710
17566TIP3    H174113   1.472   3.047   5.460 -0.1430 -0.5407 -0.1401
17566TIP3    H274114   1.410   2.934   5.382  1.0699 -1.2844 -0.0552
17567TIP3   OH274115   5.462   1.773  11.913  0.5361 -0.4905  0.3880
17567TIP3    H174116   5.469   1.754  12.006  1.9099  0.0847  0.4245
17567TIP3    H274117   5.499   1.860  11.903  3.7841 -1.8592 -1.1299
17568TIP3   OH274118   3.057   5.171   6.295 -0.1041  0.5939 -0.3358
17568TIP3    H174119   2.973   5.133   6.320  0.7761 -0.8184  0.5507
17568TIP3    H274120   3.119   5.137   6.358  1.4161  0.4175 -1.8545
17569TIP3   OH274121   6.198   4.412  11.612  0.3369  0.3583  0.4019
17569TIP3    H174122   6.174   4.344  11.675 -1.7515 -0.2599 -0.9482
17569TIP3    H274123   6.276   4.453  11.649  0.7887 -1.7726  2.0006
17570TIP3   OH274124   4.934   1.788  13.387  0.4126  0.1253 -0.5034
17570TIP3    H174125   4.875   1.764  13.316  0.4279 -0.1268 -0.4319
17570TIP3    H274126   4.948   1.707  13.436  0.1239  0.3645 -0.0038
17571TIP3   OH274127   1.467   4.071  16.312  0.2216 -0.0153  0.2731
17571TIP3    H174128   1.521   4.082  16.234 -0.1478 -1.5424 -0.2326
17571TIP3    H274129   1.454   3.977  16.319 -2.6494  0.2598  0.1354
17572TIP3   OH274130   5.654   6.053   0.897 -0.7086  0.2455  0.8336
17572TIP3    H174131   5.643   6.105   0.817  0.8409 -1.1331 -0.3300
17572TIP3    H274132   5.682   6.117   0.963  1.0992  0.9726 -0.5429
17573TIP3   OH274133   0.305   3.705  12.771 -0.6453 -0.0834  0.0618
17573TIP3    H174134   0.260   3.643  12.713  1.8145  0.4073 -2.6110
17573TIP3    H274135   0.249   3.782  12.772 -1.9126 -0.9815  0.3377
17574TIP3   OH274136   2.362   0.226  11.674 -0.2988  0.0875  0.2703
17574TIP3    H174137   2.451   0.241  11.704  0.9505 -0.5815 -2.7765
17574TIP3    H274138   2.349   0.131  11.683 -1.2660  0.3394  1.9606
17575TIP3   OH274139   1.296   6.158   2.992 -0.1038  0.0961 -0.5276
17575TIP3    H174140   1.378   6.195   3.025  0.0797 -0.8530  0.1398
17575TIP3    H274141   1.321   6.113   2.912  0.1891 -0.8157  0.0582
17576TIP3   OH274142   5.261   4.960  11.545  0.0120 -0.1183  0.3952
17576TIP3    H174143   5.271   5.055  11.551  0.2765 -0.1215  0.0567
17576TIP3    H274144   5.198   4.938  11.614 -1.2059  0.4829 -0.4847
17577TIP3   OH274145   4.086   4.163   1.876 -0.0866  0.0653 -0.8199
17577TIP3    H174146   4.062   4.108   1.951  1.2098  0.0286 -0.3998
17577TIP3    H274147   4.050   4.118   1.800  0.9901 -1.4260 -0.4947
17578TIP3   OH274148   6.599   6.224  14.408  0.0341 -0.4253 -0.0247
17578TIP3    H174149   6.684   6.232  14.451  0.0398  2.8391 -0.4008
17578TIP3    H274150   6.537   6.257  14.473 -1.2337 -3.6761  0.6366
17579TIP3   OH274151   3.172   5.439   0.922  0.3122 -0.0532 -0.4206
17579TIP3    H174152   3.080   5.465   0.920  1.0042  2.6452 -0.0014
17579TIP3    H274153   3.205   5.462   0.835  1.1973  1.5629  0.3101
17580TIP3   OH274154   1.423   4.923   3.202 -0.3714  0.1295 -0.5296
17580TIP3    H174155   1.329   4.942   3.202  0.0360  2.5208 -1.5499
17580TIP3    H274156   1.451   4.936   3.293 -0.7446  1.2158 -0.5533
17581TIP3   OH274157   1.604   5.833   6.136 -0.7520  0.3924  0.0480
17581TIP3    H174158   1.573   5.755   6.183  0.0179  0.4842  0.7184
17581TIP3    H274159   1.639   5.799   6.054  0.3677 -0.0867  0.6994
17582TIP3   OH274160   6.177   6.140   1.848 -0.3705 -0.5562 -0.0518
17582TIP3    H174161   6.242   6.071   1.852 -1.4294 -1.7333 -1.6706
17582TIP3    H274162   6.166   6.169   1.938  1.2344 -1.3939  0.4523
17583TIP3   OH274163   3.414   1.244   1.544  0.6304  0.2053 -0.0164
17583TIP3    H174164   3.346   1.239   1.477  1.0404 -0.5759 -0.3956
17583TIP3    H274165   3.391   1.320   1.597  0.3333  0.8593 -1.0749
17584TIP3   OH274166   0.784   4.768  16.644  0.0020  0.2117  0.2119
17584TIP3    H174167   0.846   4.833  16.614  0.0595  0.0421 -0.0392
17584TIP3    H274168   0.699   4.812  16.641 -0.0849 -0.0207 -0.8635
17585TIP3   OH274169   0.029   3.467   4.778 -0.1075 -0.1742 -0.1217
17585TIP3    H174170   0.084   3.469   4.699  1.5513  1.5925  1.0031
17585TIP3    H274171  -0.020   3.386   4.770  0.3392 -0.2723 -2.7528
17586TIP3   OH274172   4.437   6.770   0.749 -0.0712 -0.4358 -0.0778
17586TIP3    H174173   4.435   6.676   0.727  0.7046 -0.4322 -0.1787
17586TIP3    H274174   4.449   6.814   0.665  1.2004 -0.3328  0.1457
17587TIP3   OH274175   5.953   5.252   0.313  0.4860 -0.0675  0.2588
17587TIP3    H174176   5.959   5.288   0.402 -0.8057 -0.0512  0.3615
17587TIP3    H274177   6.023   5.187   0.308  0.3932 -0.2756  1.3975
17588TIP3   OH274178   4.875   4.202  12.925 -0.8576  0.0691  0.2683
17588TIP3    H174179   4.844   4.173  13.010  2.0909 -1.8651  0.8064
17588TIP3    H274180   4.828   4.146  12.862 -1.2601 -0.1629  0.7676
17589TIP3   OH274181   5.598   4.817  13.692  0.2565 -0.3572 -0.3880
17589TIP3    H174182   5.598   4.882  13.762  1.6154 -1.4880  0.7148
17589TIP3    H274183   5.615   4.868  13.612 -0.5737  0.8491  0.1653
17590TIP3   OH274184   1.909   3.743   5.499  0.1488  0.0870  0.1542
17590TIP3    H174185   1.927   3.754   5.406 -2.0075 -1.0411 -0.4584
17590TIP3    H274186   1.971   3.802   5.542  0.9327  0.9459 -1.9954
17591TIP3   OH274187   2.159   1.537  15.225 -0.1990  0.3556  0.2713
17591TIP3    H174188   2.247   1.545  15.263 -0.7097  1.7954  1.2305
17591TIP3    H274189   2.115   1.619  15.247 -1.2760  0.3476 -1.5952
17592TIP3   OH274190   0.485   1.504   6.022 -0.4075  0.9188 -0.1361
17592TIP3    H174191   0.455   1.517   6.112  0.7243  0.3114  0.3485
17592TIP3    H274192   0.581   1.501   6.029 -0.0201  4.2570 -1.7833
17593TIP3   OH274193   1.525   3.832   1.489 -0.2710  0.6226 -0.3111
17593TIP3    H174194   1.580   3.909   1.474 -1.1831  1.2888 -0.3429
17593TIP3    H274195   1.567   3.763   1.439 -0.4740  1.5696 -1.8621
17594TIP3   OH274196   1.403   6.722   0.368 -0.2118 -0.6358  0.6374
17594TIP3    H174197   1.489   6.718   0.409 -0.1472  0.4426  0.6238
17594TIP3    H274198   1.349   6.662   0.420  0.2102 -0.3299  1.4462
17595TIP3   OH274199   4.529   3.707   4.226 -0.3041  0.4320 -0.1565
17595TIP3    H174200   4.551   3.638   4.163 -0.0959  0.7387 -0.4250
17595TIP3    H274201   4.435   3.696   4.241  0.0815 -1.2215  1.3992
17596TIP3   OH274202   1.360   5.055   2.181 -0.4410  0.2731 -0.1678
17596TIP3    H174203   1.331   4.967   2.156  0.5582 -0.2673  0.4921
17596TIP3    H274204   1.409   5.086   2.105  0.5345 -0.3871  0.1733
17597TIP3   OH274205   0.207   1.878  15.754 -0.4664  0.2745 -0.2652
17597TIP3    H174206   0.227   1.814  15.823  0.3110  0.3084 -0.4449
17597TIP3    H274207   0.164   1.950  15.800 -0.8447 -0.1348  0.0292
17598TIP3   OH274208   0.701   0.832  15.515  0.0584  0.0913 -0.2424
17598TIP3    H174209   0.789   0.814  15.548  0.0277 -0.4566 -0.4622
17598TIP3    H274210   0.716   0.872  15.429  0.0906 -0.1179 -0.3351
17599TIP3   OH274211   4.747   3.364   3.684  0.5497  0.0022  0.1201
17599TIP3    H174212   4.671   3.385   3.631  0.7100 -4.4082 -2.3734
17599TIP3    H274213   4.818   3.351   3.621  1.9190 -1.2771  1.8103
17600TIP3   OH274214   3.616   2.110  15.783  0.4437  0.1577  0.4429
17600TIP3    H174215   3.527   2.134  15.807  0.3596 -1.1035  1.5382
17600TIP3    H274216   3.672   2.170  15.833  0.2159 -0.0820  0.9982
17601TIP3   OH274217   3.135   3.898   1.080 -0.0249  0.1356 -0.2905
17601TIP3    H174218   3.149   3.811   1.116 -1.2375 -1.2471 -2.9306
17601TIP3    H274219   3.217   3.920   1.035 -0.4488 -0.6440 -1.4851
17602TIP3   OH274220   3.996   5.552   1.000  0.0602  0.6202 -0.5965
17602TIP3    H174221   4.011   5.462   0.973 -0.0252  0.2817  0.4248
17602TIP3    H274222   3.917   5.548   1.055  0.2124  1.2681 -0.3128
17603TIP3   OH274223   6.480   6.279   1.157 -0.0096 -0.7547 -0.4905
17603TIP3    H174224   6.446   6.362   1.191  0.2654 -1.0446  0.5322
17603TIP3    H274225   6.513   6.301   1.070  2.1514  0.7584  0.6138
17604TIP3   OH274226   2.062   2.174  14.701 -0.3466  0.0679 -0.1732
17604TIP3    H174227   2.096   2.108  14.762  1.3590  0.1088 -1.0093
17604TIP3    H274228   2.011   2.233  14.756  1.1273  0.0904  1.2439
17605TIP3   OH274229   6.337   5.129   3.368 -0.3279 -0.0516  0.4765
17605TIP3    H174230   6.431   5.146   3.379 -0.3161 -0.8440  1.7730
17605TIP3    H274231   6.333   5.056   3.307 -0.2168  1.3636 -1.3178
17606TIP3   OH274232   0.353   3.327  11.694  0.2294  0.0079 -0.2083
17606TIP3    H174233   0.398   3.363  11.618  0.4913  0.3900  0.1256
17606TIP3    H274234   0.320   3.404  11.741 -2.3115 -0.2663 -1.3452
17607TIP3   OH274235   2.265   0.705   0.096 -0.1748  0.0590 -0.2191
17607TIP3    H174236   2.353   0.733   0.119  0.7595 -0.2990 -2.9342
17607TIP3    H274237   2.218   0.787   0.079  1.1673  0.3445 -3.4808
17608TIP3   OH274238   1.898   5.448   1.677 -0.5174 -0.2354  0.0136
17608TIP3    H174239   1.858   5.519   1.627 -1.5578 -1.7143 -1.3821
17608TIP3    H274240   1.973   5.421   1.623 -0.1330 -0.2121  0.5331
17609TIP3   OH274241   4.331   4.771   4.613  0.4417 -0.2610 -0.2628
17609TIP3    H174242   4.374   4.793   4.696 -0.5847  1.0409 -0.0401
17609TIP3    H274243   4.291   4.853   4.584 -0.5173 -1.0528 -1.2697
17610TIP3   OH274244   3.790   1.693   1.879 -0.4468 -0.6276 -0.0971
17610TIP3    H174245   3.884   1.707   1.885 -0.0636 -2.3344 -1.3847
17610TIP3    H274246   3.765   1.734   1.796 -0.5852 -1.3312 -0.4080
17611TIP3   OH274247   1.675   5.405  12.948 -0.4620 -0.2847 -0.2676
17611TIP3    H174248   1.644   5.396  13.038  0.4886 -0.2319  0.0677
17611TIP3    H274249   1.723   5.325  12.930 -0.6711 -0.3079 -0.7403
17612TIP3   OH274250   3.316   3.553   5.022  0.1881 -0.6945  0.4008
17612TIP3    H174251   3.253   3.541   5.093 -0.4572  1.0800  0.1771
17612TIP3    H274252   3.358   3.637   5.041  1.1485 -0.9541 -0.4711
17613TIP3   OH274253   5.466   5.376  13.863 -0.7028 -0.4835 -0.0370
17613TIP3    H174254   5.425   5.303  13.910 -0.8346 -1.3129 -1.4073
17613TIP3    H274255   5.517   5.335  13.794 -1.4305  0.7341 -1.3499
17614TIP3   OH274256   2.277   3.458   1.068 -0.0165 -0.2864 -0.1008
17614TIP3    H174257   2.266   3.494   1.156 -2.2700  0.4245 -0.6173
17614TIP3    H274258   2.225   3.515   1.012  0.3068 -1.5049 -1.7138
17615TIP3   OH274259   3.456   6.562   5.179 -0.4105  0.2201  0.0821
17615TIP3    H174260   3.439   6.534   5.089  0.0068  1.7056 -0.4974
17615TIP3    H274261   3.539   6.610   5.173  0.3890 -0.8886  1.5405
17616TIP3   OH274262   2.472   2.690  15.807 -0.0778  0.0363 -0.1671
17616TIP3    H174263   2.533   2.760  15.785 -1.3947  1.3868  0.2825
17616TIP3    H274264   2.415   2.682  15.731  0.3020 -0.8398 -0.3728
17617TIP3   OH274265   5.804   5.881  15.999  0.1756 -0.4303 -0.0671
17617TIP3    H174266   5.808   5.861  16.092  3.1456 -0.0316  0.0013
17617TIP3    H274267   5.737   5.823  15.964 -0.7889 -0.8056  2.2461
17618TIP3   OH274268   4.448   6.476   2.378 -0.8861  0.1836  0.3338
17618TIP3    H174269   4.446   6.437   2.290  0.0803 -0.0438  0.4038
17618TIP3    H274270   4.517   6.428   2.424 -1.6073  0.0714  1.3332
17619TIP3   OH274271   0.950   2.048   4.064 -0.3841  0.3302 -0.1764
17619TIP3    H174272   0.869   2.010   4.099  0.8073 -0.6332  1.6486
17619TIP3    H274273   0.925   2.136   4.036 -1.4355  1.2931  3.3358
17620TIP3   OH274274   5.347   5.991   4.289  0.0609 -0.0887 -0.1637
17620TIP3    H174275   5.259   6.001   4.326  0.2146  0.0915  0.1571
17620TIP3    H274276   5.403   6.042   4.347  0.8800 -2.7220  1.5277
17621TIP3   OH274277   5.331   2.791  13.329  0.3076 -0.6265 -0.0031
17621TIP3    H174278   5.313   2.879  13.297  0.8626 -0.0518  1.2389
17621TIP3    H274279   5.308   2.734  13.255 -0.0434  0.5445 -0.8211
17622TIP3   OH274280   4.811   5.969  15.897  0.1607  0.0589  0.0322
17622TIP3    H174281   4.836   5.921  15.976  1.0995  0.6407  0.1117
17622TIP3    H274282   4.721   5.998  15.914 -0.1615 -1.0424  0.2712
17623TIP3   OH274283   5.303   6.462   6.300  0.1322 -0.8597  0.0645
17623TIP3    H174284   5.335   6.552   6.310 -1.9767  0.2180 -1.8855
17623TIP3    H274285   5.377   6.415   6.263  1.7949 -0.3857  2.5797
17624TIP3   OH274286   4.763   0.828   1.427  0.7567  0.3043 -0.2998
17624TIP3    H174287   4.748   0.817   1.333  1.3620 -0.2639 -0.3401
17624TIP3    H274288   4.715   0.907   1.450 -0.1638 -0.0635 -0.9033
17625TIP3   OH274289   1.092   5.216  15.039  0.3389 -0.0248  0.5202
17625TIP3    H174290   1.138   5.300  15.038 -1.3104  0.9744  2.2152
17625TIP3    H274291   1.054   5.209  14.952  1.2450  0.5443  0.0626
17626TIP3   OH274292   6.604   1.317  13.868  0.0463 -0.2150  0.2784
17626TIP3    H174293   6.547   1.355  13.936 -0.7601 -1.0305  0.0815
17626TIP3    H274294   6.595   1.377  13.793 -0.8621 -0.5362  0.1197
17627TIP3   OH274295   6.767   4.162  12.867  0.1405  0.0383  0.5507
17627TIP3    H174296   6.825   4.190  12.796  1.0341  0.3369  1.3689
17627TIP3    H274297   6.692   4.123  12.823  0.8843 -0.2069 -0.5495
17628TIP3   OH274298   0.559   0.416   3.731  0.1028  0.1207  0.1509
17628TIP3    H174299   0.639   0.367   3.711 -1.0052 -1.6211 -0.1418
17628TIP3    H274300   0.577   0.455   3.817  1.4761  0.2514 -0.1592
17629TIP3   OH274301   4.147   6.122  10.143  0.8227  0.2934  0.2751
17629TIP3    H174302   4.131   6.090  10.232 -2.7777  0.8881 -0.0446
17629TIP3    H274303   4.103   6.059  10.086 -0.7338  2.2013 -0.7533
17630TIP3   OH274304   4.855   2.892  15.787  0.4420  0.0183  0.3230
17630TIP3    H174305   4.760   2.879  15.793  0.3817  0.6258  0.6783
17630TIP3    H274306   4.867   2.987  15.786  0.9623 -0.0244 -1.0602
17631TIP3   OH274307   5.448   4.150  11.964  0.1999 -0.6854 -0.3119
17631TIP3    H174308   5.428   4.227  11.910  0.3644 -1.0968 -0.9705
17631TIP3    H274309   5.372   4.141  12.021 -0.2006 -0.5199 -0.8065
17632TIP3   OH274310   6.459   0.793   4.886  0.2337  0.4537  0.2148
17632TIP3    H174311   6.492   0.841   4.961 -0.4289  0.3918  0.5539
17632TIP3    H274312   6.408   0.858   4.836  0.0412  0.3143  0.2268
17633TIP3   OH274313   0.106   2.788  15.114  0.0900 -0.2700 -0.0238
17633TIP3    H174314   0.099   2.693  15.110 -1.6609 -0.1241 -1.6710
17633TIP3    H274315   0.096   2.809  15.207 -2.4254 -1.5450  0.0686
17634TIP3   OH274316   3.808   5.115  12.770 -0.4497 -0.0853 -0.0418
17634TIP3    H174317   3.745   5.045  12.791 -0.7932  0.0878 -0.4957
17634TIP3    H274318   3.848   5.088  12.688  1.6851 -1.3081  1.2914
17635TIP3   OH274319   3.110   2.555   5.497 -0.2371  0.2080 -0.3096
17635TIP3    H174320   3.137   2.533   5.407 -0.3219  0.8089 -0.4889
17635TIP3    H274321   3.069   2.641   5.489 -0.7458  0.0166  0.2258
17636TIP3   OH274322   4.653   0.003  11.083 -0.3935  0.2795 -0.4641
17636TIP3    H174323   4.589   0.068  11.055 -1.6329  1.2784  3.9115
17636TIP3    H274324   4.626  -0.078  11.040 -1.7242  1.6404 -2.3184
17637TIP3   OH274325   3.310   2.842   1.105  0.4632  0.1622  0.1030
17637TIP3    H174326   3.227   2.837   1.152 -0.5855  0.0160 -1.6634
17637TIP3    H274327   3.370   2.786   1.156 -1.6848 -3.1942 -0.7663
17638TIP3   OH274328   3.259   2.431   5.240  0.5856  0.3363  0.0138
17638TIP3    H174329   3.239   2.340   5.264  1.9044  0.1634  0.5455
17638TIP3    H274330   3.285   2.427   5.148 -0.8333  0.4288 -0.4163
17639TIP3   OH274331   0.628   5.884  11.286  0.0057  0.0429 -0.5727
17639TIP3    H174332   0.554   5.928  11.328  1.1687  0.5232  1.0906
17639TIP3    H274333   0.617   5.792  11.309 -0.7589 -0.0913 -1.4340
17640TIP3   OH274334   0.064   6.491  12.995 -0.6848  0.8348 -0.0039
17640TIP3    H174335   0.093   6.582  12.991 -0.4753  0.8631  1.3949
17640TIP3    H274336   0.139   6.439  12.967 -0.6352  1.0793 -0.3148
17641TIP3   OH274337   4.411   0.026  12.990  0.1477  0.1464  0.8521
17641TIP3    H174338   4.437   0.082  13.063 -0.8595 -1.4109  2.4805
17641TIP3    H274339   4.315   0.030  12.988  0.1639  1.6029 -1.6368
17642TIP3   OH274340   4.129   2.330  15.432  0.0377  0.3513 -0.5123
17642TIP3    H174341   4.109   2.265  15.365  1.0354  0.4482 -0.9285
17642TIP3    H274342   4.044   2.358  15.465 -0.4068 -1.4290 -0.0484
17643TIP3   OH274343   4.258   3.111   5.755  0.3383  0.3108 -0.4637
17643TIP3    H174344   4.266   3.205   5.771 -3.9523  1.3146 -2.6881
17643TIP3    H274345   4.284   3.100   5.663  0.7049 -0.7074 -0.2570
17644TIP3   OH274346   0.266   0.514   4.412 -0.3566  0.1017  0.4449
17644TIP3    H174347   0.295   0.484   4.499  1.7436  0.8316  0.0512
17644TIP3    H274348   0.256   0.608   4.422  0.0881  0.2121 -0.1503
17645TIP3   OH274349   0.681   3.606  14.417 -0.4850 -0.2319  0.3542
17645TIP3    H174350   0.607   3.565  14.373  0.5828 -2.8869  0.8808
17645TIP3    H274351   0.679   3.573  14.506  0.9900  0.0727  0.5351
17646TIP3   OH274352   0.482   6.093  17.207 -0.2233 -0.2391 -0.3824
17646TIP3    H174353   0.547   6.116  17.141 -0.3640 -0.1670 -0.4963
17646TIP3    H274354   0.496   5.999  17.222 -0.1621 -0.2468 -0.4815
17647TIP3   OH274355   1.889   1.611   2.101  0.3277  0.2910  0.5855
17647TIP3    H174356   1.959   1.654   2.151  1.5030 -0.0621 -0.6834
17647TIP3    H274357   1.879   1.526   2.143  0.2076  0.5815  1.1614
17648TIP3   OH274358   6.636   2.134  16.662 -0.0911  0.2798  0.5445
17648TIP3    H174359   6.604   2.156  16.575  1.1043  1.2006  0.3132
17648TIP3    H274360   6.653   2.219  16.703  0.8131 -0.1661  1.1110
17649TIP3   OH274361   2.570   2.773   0.589 -0.3690  0.1001 -0.0358
17649TIP3    H174362   2.555   2.813   0.675  0.2008 -1.8078  1.0191
17649TIP3    H274363   2.658   2.735   0.596 -0.9801 -1.5448 -0.8330
17650TIP3   OH274364   3.614   6.385   1.544 -0.0942  0.3493 -0.3236
17650TIP3    H174365   3.704   6.408   1.523  1.0266 -4.2769 -1.8589
17650TIP3    H274366   3.566   6.394   1.462 -0.0501 -0.7239 -0.4916
17651TIP3   OH274367   2.506   5.404   5.831 -0.4715 -0.5983  0.5411
17651TIP3    H174368   2.466   5.452   5.903 -0.1490  2.4571 -1.1442
17651TIP3    H274369   2.487   5.312   5.850 -1.6073  0.1608  3.7195
17652TIP3   OH274370   5.049   0.602   0.139 -0.4831  0.0859 -0.0357
17652TIP3    H174371   5.124   0.593   0.080  1.9318 -0.6305  2.9182
17652TIP3    H274372   5.061   0.688   0.179 -1.7183  0.2845 -0.0655
17653TIP3   OH274373   4.457   5.793  14.927  0.1242 -0.0416 -0.3200
17653TIP3    H174374   4.372   5.761  14.896 -0.5293  0.5742  0.7554
17653TIP3    H274375   4.484   5.730  14.993  0.6412 -0.3750 -0.8415
17654TIP3   OH274376   0.188   4.536  16.063 -0.1984 -0.0650  0.1985
17654TIP3    H174377   0.129   4.592  16.113 -1.0353 -0.9048  0.1770
17654TIP3    H274378   0.132   4.466  16.030  0.8553 -1.0058  0.3596
17655TIP3   OH274379   3.851   6.059   2.884  1.0236 -0.3568  0.4184
17655TIP3    H174380   3.766   6.037   2.923  1.0747 -2.3764 -0.4529
17655TIP3    H274381   3.886   6.128   2.940 -0.7954 -0.1123  1.3294
17656TIP3   OH274382   4.245   3.515   4.064  0.2171 -0.1775  0.8457
17656TIP3    H174383   4.152   3.508   4.088  0.1056  0.5066  0.6205
17656TIP3    H274384   4.281   3.580   4.125  0.7803 -1.1529  1.5799
17657TIP3   OH274385   6.525   6.234   5.209  0.6811  0.1685  0.2226
17657TIP3    H174386   6.453   6.228   5.146 -1.8486  1.2331  2.7767
17657TIP3    H274387   6.506   6.165   5.273  2.5143 -0.1372  0.4911
17658TIP3   OH274388   2.715   0.215   0.543  0.3640  0.1251 -0.3774
17658TIP3    H174389   2.727   0.283   0.610 -0.3085  0.4435 -0.5726
17658TIP3    H274390   2.803   0.199   0.509  0.7464 -0.2072  0.7402
17659TIP3   OH274391   5.061   0.130  16.850 -0.0679  0.1856  0.2105
17659TIP3    H174392   4.977   0.139  16.895  0.3518 -2.7356  1.7990
17659TIP3    H274393   5.124   0.113  16.920  1.4380 -0.0540 -1.1494
17660TIP3   OH274394   6.631   6.539  13.614 -0.0251 -0.1245 -0.3269
17660TIP3    H174395   6.623   6.571  13.704  2.4460  0.2898 -0.1760
17660TIP3    H274396   6.626   6.444  13.622 -0.2324 -0.0725  0.2016
17661TIP3   OH274397   0.874   3.411   0.574  0.4694  0.0061 -0.3611
17661TIP3    H174398   0.969   3.417   0.584  0.4145 -1.3454  1.4222
17661TIP3    H274399   0.838   3.469   0.642  0.0105 -0.0082 -0.5828
17662TIP3   OH274400   0.687   2.288   3.789  0.0104  0.1084 -0.5272
17662TIP3    H174401   0.602   2.245   3.778 -0.7391  0.1684  3.5439
17662TIP3    H274402   0.665   2.374   3.827  1.8269  1.3516 -2.0974
17663TIP3   OH274403   4.525   3.042  13.160 -0.0836  0.0055 -0.2638
17663TIP3    H174404   4.514   2.949  13.142 -0.0800 -0.0328 -0.0665
17663TIP3    H274405   4.437   3.075  13.179  0.1017 -0.2692  1.1538
17664TIP3   OH274406   5.979   1.765  13.295 -0.1783  0.3323  0.0965
17664TIP3    H174407   5.918   1.741  13.226  1.0452 -0.7491 -0.6601
17664TIP3    H274408   5.924   1.796  13.367 -1.5378  0.3074 -0.9071
17665TIP3   OH274409   3.009   4.239  16.395  0.0967 -0.2223  0.6193
17665TIP3    H174410   3.057   4.239  16.478 -0.7477 -1.5049  1.1374
17665TIP3    H274411   3.075   4.220  16.329  0.9745  1.8509  0.8353
17666TIP3   OH274412   0.468   4.799   3.426  0.5533 -0.6790  0.1545
17666TIP3    H174413   0.453   4.841   3.511  0.4067  0.6770 -0.5150
17666TIP3    H274414   0.544   4.742   3.441  1.3849  0.5672  0.8637
17667TIP3   OH274415   2.953   5.088  13.520  0.1825  0.1284 -0.8986
17667TIP3    H174416   2.908   5.121  13.442 -0.4250  0.3842 -0.4483
17667TIP3    H274417   2.885   5.087  13.587 -0.0093 -2.6768 -1.0293
17668TIP3   OH274418   5.602   0.694  11.822 -0.2934  0.1002 -0.0775
17668TIP3    H174419   5.577   0.742  11.743 -0.8453  0.8605  0.5481
17668TIP3    H274420   5.651   0.758  11.874 -0.1877 -0.3098  0.3329
17669TIP3   OH274421   3.392   2.074   5.654 -0.0880  0.9387  0.1373
17669TIP3    H174422   3.415   2.148   5.710  0.3804  1.6670 -0.9688
17669TIP3    H274423   3.383   2.113   5.567  1.2879 -0.4932 -0.6817
17670TIP3   OH274424   0.169   2.595  14.063 -0.1401  0.2160  0.1727
17670TIP3    H174425   0.196   2.571  13.974 -0.0383  1.2933 -0.0967
17670TIP3    H274426   0.213   2.530  14.119 -0.7220 -0.8671 -0.5909
17671TIP3   OH274427   3.946   5.472  15.312 -0.0770 -0.0337 -0.1417
17671TIP3    H174428   4.031   5.488  15.271  0.4401  0.4949  1.0805
17671TIP3    H274429   3.885   5.526  15.263  0.7620  1.6930  0.6377
17672TIP3   OH274430   4.088   6.225  12.042 -0.1012 -0.0806  0.0677
17672TIP3    H174431   4.103   6.319  12.028  0.6134 -0.2437 -0.2638
17672TIP3    H274432   4.092   6.215  12.137 -0.8562  0.3285  0.1577
17673TIP3   OH274433   5.621   6.437   2.690 -0.5323 -0.2380  0.2657
17673TIP3    H174434   5.525   6.430   2.682 -0.3380 -3.0823 -0.4412
17673TIP3    H274435   5.645   6.499   2.621 -1.7302 -0.8526 -0.7583
17674TIP3   OH274436   1.243   2.022   6.164  0.1934  0.1913 -0.3885
17674TIP3    H174437   1.174   2.015   6.099 -0.6311 -2.3281  0.6289
17674TIP3    H274438   1.252   1.934   6.199  0.7898  1.3328  2.7018
17675TIP3   OH274439   2.876   6.684  14.181 -0.2569  0.0036 -0.1826
17675TIP3    H174440   2.817   6.712  14.252  0.4242 -0.5556  0.6263
17675TIP3    H274441   2.818   6.642  14.117 -0.9764  1.1360 -0.2959
17676TIP3   OH274442   3.827   0.451  13.340 -0.1736 -0.6470  0.1653
17676TIP3    H174443   3.740   0.429  13.373 -0.1136 -0.6433  0.3277
17676TIP3    H274444   3.852   0.529  13.389 -0.0066 -0.7486  0.2438
17677TIP3   OH274445   4.601   4.795   5.052  0.0265  0.1206 -0.3847
17677TIP3    H174446   4.549   4.714   5.053  1.4135 -0.8295 -0.8408
17677TIP3    H274447   4.553   4.855   5.109 -0.7814 -1.2101  0.4111
17678TIP3   OH274448   1.043   1.959   5.721  0.1478 -0.4868 -0.1873
17678TIP3    H174449   0.985   1.938   5.795 -2.1602  0.1177 -1.7170
17678TIP3    H274450   1.099   2.029   5.754 -0.8732 -0.1902  0.9884
17679TIP3   OH274451   6.499   0.366   2.198 -0.1179  0.4035  0.0374
17679TIP3    H174452   6.556   0.290   2.186  0.2087  0.4434  1.2050
17679TIP3    H274453   6.470   0.389   2.110 -0.2444 -1.0850 -0.3313
17680TIP3   OH274454   5.928   1.049   2.972  0.2259 -0.1251 -0.5197
17680TIP3    H174455   5.875   0.997   2.912  0.0417 -1.0869  0.4387
17680TIP3    H274456   5.910   1.140   2.947 -1.0400 -0.4625 -0.9347
17681TIP3   OH274457   6.628   0.292   4.800  0.0263  0.3761 -0.2738
17681TIP3    H174458   6.542   0.327   4.824  0.2406 -0.0765  1.3072
17681TIP3    H274459   6.648   0.229   4.870  3.2714  3.1196  1.5658
17682TIP3   OH274460   6.023   0.641   1.823  0.2297 -0.6103  0.2299
17682TIP3    H174461   5.966   0.616   1.896  2.6874 -2.1046  1.7804
17682TIP3    H274462   6.054   0.558   1.787  0.9880  0.1431 -0.9293
17683TIP3   OH274463   2.121   5.777  17.245 -0.6577 -0.0912  0.0711
17683TIP3    H174464   2.120   5.785  17.150 -1.1714 -0.8101  0.0048
17683TIP3    H274465   2.190   5.838  17.274 -0.2332 -0.1512 -0.7805
17684TIP3   OH274466   2.521   0.424   5.376 -0.6649  0.2864  0.2083
17684TIP3    H174467   2.546   0.513   5.401 -0.5624  0.9848 -2.0974
17684TIP3    H274468   2.573   0.367   5.433  0.8349  1.7106  0.3333
17685TIP3   OH274469   1.234   5.838  17.049 -0.1750  0.6993  0.2280
17685TIP3    H174470   1.140   5.850  17.034 -0.8382  1.6967  4.0561
17685TIP3    H274471   1.265   5.925  17.077  1.3004 -0.1806  1.4909
17686TIP3   OH274472   3.705   0.600  15.939 -0.3284 -0.4035  0.6231
17686TIP3    H174473   3.656   0.524  15.908 -0.5320  0.7904 -2.3244
17686TIP3    H274474   3.773   0.613  15.873  0.2022  1.4855  1.4806
17687TIP3   OH274475   4.795   3.449  11.422 -0.9246 -0.3741 -0.0332
17687TIP3    H174476   4.702   3.470  11.412 -0.5145  1.5697 -0.2637
17687TIP3    H274477   4.800   3.399  11.504 -1.8348  2.5739  1.9933
17688TIP3   OH274478   5.653   3.029  14.481  0.5330 -0.2868 -0.1182
17688TIP3    H174479   5.560   3.016  14.461  0.3226  1.1192 -0.1528
17688TIP3    H274480   5.657   3.035  14.576  0.3362  1.1932 -0.1757
17689TIP3   OH274481   0.554   5.248  10.666  0.3692 -0.0023  0.3589
17689TIP3    H174482   0.604   5.329  10.662  0.8391 -0.1536  2.2814
17689TIP3    H274483   0.601   5.187  10.610 -0.9986  1.4905 -2.6374
17690TIP3   OH274484   6.562   1.787  11.452 -0.2787  0.3729  0.1362
17690TIP3    H174485   6.602   1.731  11.518 -0.8196 -1.6882 -1.1874
17690TIP3    H274486   6.475   1.807  11.487 -0.2628 -0.0303  0.4082
17691TIP3   OH274487   3.520   5.598  17.260  0.3381 -0.3852  0.0524
17691TIP3    H174488   3.491   5.643  17.181 -0.2894  0.0795  0.5395
17691TIP3    H274489   3.552   5.513  17.229 -1.9003 -1.0994 -0.4815
17692TIP3   OH274490   3.004   5.937  16.747  0.3874  0.1419 -0.2541
17692TIP3    H174491   2.924   5.987  16.732  0.2371  0.3316  1.0367
17692TIP3    H274492   2.976   5.845  16.746  0.1714  0.2024  0.0416
17693TIP3   OH274493   1.384   6.569   4.699  0.3025 -0.1346 -0.5181
17693TIP3    H174494   1.444   6.567   4.625  0.1577  0.6396 -0.6622
17693TIP3    H274495   1.398   6.655   4.740 -1.0578  0.2690 -0.8577
17694TIP3   OH274496   0.962   5.929  13.430  0.4541  0.2833  0.2491
17694TIP3    H174497   0.891   5.949  13.491 -0.7145 -2.6999  0.0259
17694TIP3    H274498   0.934   5.969  13.348 -0.2744  0.3443  0.5135
17695TIP3   OH274499   0.144   6.681   0.087 -0.3881  0.4488 -0.1867
17695TIP3    H174500   0.154   6.749   0.020  1.2516 -0.1963 -0.6427
17695TIP3    H274501   0.167   6.600   0.043  0.9701  0.0401  1.1799
17696TIP3   OH274502   0.811   4.365   3.316 -0.2660  0.2792  0.0645
17696TIP3    H174503   0.758   4.329   3.387  0.2294  0.4443  0.5307
17696TIP3    H274504   0.895   4.321   3.324 -1.0324 -1.7518 -2.1478
17697TIP3   OH274505   4.906   1.368  16.272  0.3060 -1.0239  0.0596
17697TIP3    H174506   4.860   1.402  16.349  3.5421 -0.1709  1.8293
17697TIP3    H274507   4.927   1.277  16.295  1.2401 -0.7821  0.1947
17698TIP3   OH274508   3.302   2.581   2.092  0.7711  0.2649 -0.0944
17698TIP3    H174509   3.261   2.497   2.070  0.8584  0.0018  0.7108
17698TIP3    H274510   3.385   2.581   2.045  1.4982 -0.8042  1.1177
17699TIP3   OH274511   1.378   3.712   2.039 -0.1033  0.2247  0.1569
17699TIP3    H174512   1.416   3.758   1.964 -0.4252 -1.3498 -1.0218
17699TIP3    H274513   1.284   3.718   2.025 -0.1465 -1.2953 -0.3768
17700TIP3   OH274514   4.986   1.331  14.812 -0.2342  0.0489 -0.4226
17700TIP3    H174515   4.921   1.392  14.849  0.1247  0.4750 -0.4863
17700TIP3    H274516   5.070   1.375  14.824 -0.0312 -0.1645 -1.0238
17701TIP3   OH274517   0.877   1.114  12.894  0.1936 -0.2079 -0.2225
17701TIP3    H174518   0.790   1.075  12.894  0.7894 -1.6039  0.8001
17701TIP3    H274519   0.920   1.077  12.817 -0.0630  0.3640 -0.6426
17702TIP3   OH274520   4.328   5.859   4.951 -0.2200  0.1182 -0.4633
17702TIP3    H174521   4.267   5.877   5.023 -0.2093  0.4208 -0.5253
17702TIP3    H274522   4.307   5.926   4.886  0.9383  0.9459 -0.0169
17703TIP3   OH274523   1.901   2.971  17.103 -0.2266 -0.2799 -0.0094
17703TIP3    H174524   1.898   3.066  17.092 -1.3525 -0.3158 -0.0569
17703TIP3    H274525   1.993   2.948  17.088 -0.0446  0.7368 -0.5082
17704TIP3   OH274526   5.987   4.242  13.731 -0.1468  0.1843 -0.4700
17704TIP3    H174527   6.077   4.210  13.744  0.7612  2.7356  0.1253
17704TIP3    H274528   5.998   4.323  13.682 -1.6700  2.9003  3.2483
17705TIP3   OH274529   1.151   4.955   1.023  0.9626 -0.7158 -0.3575
17705TIP3    H174530   1.167   4.913   1.108  0.0686 -1.5741 -0.5894
17705TIP3    H274531   1.238   4.984   0.994  1.5667 -2.0388  0.0217
17706TIP3   OH274532   1.492   5.711  13.577  0.2163  0.3812 -0.1284
17706TIP3    H174533   1.444   5.746  13.502  0.2479  1.2235  0.2374
17706TIP3    H274534   1.576   5.757  13.576  0.3232  0.1982  0.2660
17707TIP3   OH274535   3.065   0.283  15.920 -0.2111  0.2885  0.5998
17707TIP3    H174536   3.053   0.200  15.966 -0.8151  0.5823  0.9939
17707TIP3    H274537   3.154   0.279  15.885 -0.6143 -0.9901 -0.3474
17708TIP3   OH274538   1.907   1.533   6.379  0.1820 -0.0449 -0.4282
17708TIP3    H174539   1.897   1.439   6.366  0.0236 -0.1327  0.3282
17708TIP3    H274540   1.958   1.542   6.459 -2.5605  0.5160  1.4110
17709TIP3   OH274541   5.854   3.173  14.320  0.1103  0.5066 -0.1624
17709TIP3    H174542   5.894   3.087  14.325  1.3911  1.1503  2.1264
17709TIP3    H274543   5.764   3.161  14.352  0.2486  0.0091  0.0303
17710TIP3   OH274544   0.603   3.325  16.668  0.4547 -0.1939  0.3418
17710TIP3    H174545   0.620   3.245  16.717  2.9138 -0.2469 -0.4878
17710TIP3    H274546   0.624   3.396  16.729 -1.1701 -0.1378  0.8871
17711TIP3   OH274547   0.722   0.567  15.893 -0.7656 -0.0203  0.1108
17711TIP3    H174548   0.668   0.630  15.844 -0.0258 -0.5102 -1.3958
17711TIP3    H274549   0.678   0.483  15.881  0.1902 -0.3923 -0.9817
17712TIP3   OH274550   0.406   5.296  16.131 -0.6267 -0.1385  0.1416
17712TIP3    H174551   0.437   5.299  16.221 -1.2147 -0.0598  0.3456
17712TIP3    H274552   0.421   5.206  16.103 -0.6005 -0.2062  0.3713
17713TIP3   OH274553   2.313   6.333   2.480 -0.2058 -0.4033 -0.2162
17713TIP3    H174554   2.385   6.275   2.506  1.4124  1.2020 -0.8595
17713TIP3    H274555   2.314   6.403   2.544 -1.2309 -0.3599 -0.2360
17714TIP3   OH274556   3.659   6.785  10.467  0.1674 -0.0740  0.1320
17714TIP3    H174557   3.587   6.846  10.481  1.9775  2.0352  0.9225
17714TIP3    H274558   3.729   6.839  10.430  2.1329 -1.4552  1.5978
17715TIP3   OH274559   6.697   2.893  14.006  0.4634  0.0857  0.5583
17715TIP3    H174560   6.609   2.927  14.020  0.1798  0.1220 -1.0958
17715TIP3    H274561   6.711   2.833  14.079 -1.6428 -1.2755 -0.0501
17716TIP3   OH274562   2.791   0.106   0.000  0.0832 -0.0026  0.3475
17716TIP3    H174563   2.774   0.098   0.094 -0.9406 -0.7516  0.1141
17716TIP3    H274564   2.749   0.029  -0.038 -1.2248  1.2925 -0.9333
17717TIP3   OH274565   0.101   2.475  13.661  0.8032  0.0281 -0.3815
17717TIP3    H174566   0.007   2.484  13.673  0.8607  0.2064 -0.0389
17717TIP3    H274567   0.117   2.381  13.667  0.5323 -0.0928 -1.3718
17718TIP3   OH274568   2.729   6.045   0.016  0.1825 -0.2993 -0.1550
17718TIP3    H174569   2.741   6.139   0.002 -0.5791 -0.1904 -0.1130
17718TIP3    H274570   2.765   6.030   0.104 -0.9674  0.2257  0.4327
17719TIP3   OH274571   3.125   5.669   1.327  0.5755 -0.2743  0.2926
17719TIP3    H174572   3.202   5.721   1.351  1.9315 -1.0185 -2.1225
17719TIP3    H274573   3.097   5.703   1.243 -0.9872 -0.8611  0.5401
17720TIP3   OH274574   2.469   1.216  14.195 -0.3096 -0.0886 -0.8003
17720TIP3    H174575   2.444   1.127  14.170 -1.9605 -0.4736  1.7935
17720TIP3    H274576   2.387   1.266  14.188  0.5763  1.2598 -2.1375
17721TIP3   OH274577   1.156   5.267   2.710  0.3843  0.3786 -1.0224
17721TIP3    H174578   1.166   5.358   2.736  1.8661 -0.0004 -0.1835
17721TIP3    H274579   1.099   5.270   2.633  0.0056  1.9562 -0.7036
17722TIP3   OH274580   6.734   1.927  11.094  0.1754 -0.2905 -0.0962
17722TIP3    H174581   6.823   1.899  11.115  0.7998  1.7131  0.1383
17722TIP3    H274582   6.740   1.958  11.003 -0.7557 -1.8888 -0.7433
17723TIP3   OH274583   1.530   5.521  14.457  0.2394 -0.1284 -0.0361
17723TIP3    H174584   1.594   5.464  14.500  3.4610  2.7763 -0.5555
17723TIP3    H274585   1.516   5.592  14.520 -1.0252  0.3020 -0.7646
17724TIP3   OH274586   1.381   4.572   2.187  0.3908  0.6282 -0.1915
17724TIP3    H174587   1.324   4.576   2.110 -1.5930 -1.4225  1.0309
17724TIP3    H274588   1.469   4.561   2.151 -0.3900  0.3674 -2.1660
17725TIP3   OH274589   5.713   1.855   4.803  0.0033  0.5356 -0.3262
17725TIP3    H174590   5.730   1.761   4.815 -1.1765  0.2307 -0.8901
17725TIP3    H274591   5.627   1.858   4.761  0.3388  1.8534 -0.9536
17726TIP3   OH274592   3.444   3.828  11.079 -0.2931  0.1898 -0.7537
17726TIP3    H174593   3.398   3.804  10.998 -1.1476 -0.8505  0.0171
17726TIP3    H274594   3.498   3.751  11.099  0.6102  0.7952 -0.7956
17727TIP3   OH274595   0.719   0.103   0.817  0.6649 -0.1970 -0.4336
17727TIP3    H174596   0.647   0.165   0.805 -2.3801 -3.2575  0.4677
17727TIP3    H274597   0.725   0.092   0.912  2.1654 -0.2390 -0.5122
17728TIP3   OH274598   1.546   2.949  14.511  0.0742  0.3492  0.2383
17728TIP3    H174599   1.566   2.975  14.601 -2.2833  1.6605  0.4578
17728TIP3    H274600   1.610   2.995  14.458  0.9515  0.2527  1.1844
17729TIP3   OH274601   1.833   6.332  13.771  0.6545  0.0099  0.2790
17729TIP3    H174602   1.853   6.368  13.857 -0.7311  0.9696  0.2373
17729TIP3    H274603   1.834   6.408  13.712  1.0003 -0.5433 -0.4476
17730TIP3   OH274604   2.032   6.279   4.228 -0.7403  0.6370  0.0878
17730TIP3    H174605   2.074   6.263   4.143 -1.5303  1.6738 -0.5249
17730TIP3    H274606   2.089   6.236   4.291 -0.7845 -1.2532 -1.0705
17731TIP3   OH274607   5.152   5.649  13.214 -0.1210 -0.3162  0.3016
17731TIP3    H174608   5.194   5.578  13.166  1.7094 -0.2219  1.6528
17731TIP3    H274609   5.105   5.699  13.147 -1.5434 -2.7877 -0.6880
17732TIP3   OH274610   5.116   6.215  15.388 -0.0308  0.3371 -0.1869
17732TIP3    H174611   5.141   6.186  15.476  1.3385  0.4090 -0.5351
17732TIP3    H274612   5.050   6.283  15.403 -0.4294 -0.2476  0.7552
17733TIP3   OH274613   1.894   4.091  13.545  0.2199 -0.0161  0.1981
17733TIP3    H174614   1.885   4.039  13.625  0.6483 -0.1760  0.1439
17733TIP3    H274615   1.825   4.157  13.552  0.2481 -0.0316  0.6968
17734TIP3   OH274616   5.976   3.467   4.420  0.0928 -0.6425  0.2079
17734TIP3    H174617   5.981   3.431   4.331  0.8092 -1.1710  0.4505
17734TIP3    H274618   6.037   3.540   4.419 -0.6444 -0.0195 -0.0100
17735TIP3   OH274619   5.086   2.644   3.136 -0.2347  0.3154 -0.3811
17735TIP3    H174620   5.082   2.738   3.120  1.7571  0.3181 -1.1555
17735TIP3    H274621   5.097   2.635   3.231 -0.7778  0.8315 -0.2658
17736TIP3   OH274622   3.495   1.819   7.122  0.2681  0.4089  0.3083
17736TIP3    H174623   3.439   1.875   7.067  1.3606  0.0120 -1.2707
17736TIP3    H274624   3.570   1.874   7.143  1.8381 -0.6707 -2.0847
17737TIP3   OH274625   6.501   3.679   2.165 -0.2976 -0.1807  0.0093
17737TIP3    H174626   6.565   3.704   2.098 -0.3279  0.4406  0.2051
17737TIP3    H274627   6.420   3.724   2.139  0.0726  1.3163  1.2494
17738TIP3   OH274628   4.562   5.924  17.182 -0.0076 -0.1370 -0.0213
17738TIP3    H174629   4.487   5.966  17.223  1.2048  0.7471  1.3956
17738TIP3    H274630   4.613   5.888  17.254  2.4304  1.8523 -0.5620
17739TIP3   OH274631   1.225   1.797   2.512  0.2220 -0.1787  0.3469
17739TIP3    H174632   1.308   1.843   2.526  0.4136 -0.8970  1.7202
17739TIP3    H274633   1.240   1.709   2.546 -0.0940 -1.3683 -2.3302
17740TIP3   OH274634   2.977   3.658   0.486 -0.2577  0.1520  0.4991
17740TIP3    H174635   2.917   3.592   0.450 -1.5202  1.1138  0.7656
17740TIP3    H274636   2.919   3.725   0.524  0.9210  2.1575 -1.0548
17741TIP3   OH274637   6.107   4.545   5.954  0.0600 -0.1175  0.9310
17741TIP3    H174638   6.181   4.601   5.929 -0.6854  1.3190  1.7991
17741TIP3    H274639   6.033   4.605   5.960 -0.5914 -1.0369  2.7789
17742TIP3   OH274640   2.859   4.419  12.640 -0.5458 -0.0679 -0.0071
17742TIP3    H174641   2.815   4.396  12.722  0.2242 -1.9936 -0.0789
17742TIP3    H274642   2.947   4.445  12.666 -0.5162 -0.0027 -0.1688
17743TIP3   OH274643   4.516   1.106   5.028 -0.1650  0.2292  0.0495
17743TIP3    H174644   4.454   1.178   5.041 -0.8820 -0.3183 -0.2763
17743TIP3    H274645   4.559   1.095   5.113 -0.9267  0.2347  0.4395
17744TIP3   OH274646   3.641   6.435   2.099  0.4591  0.4668  0.2337
17744TIP3    H174647   3.699   6.400   2.031  1.2317  0.7085  0.7496
17744TIP3    H274648   3.643   6.368   2.168  1.0185  0.9751  0.7257
17745TIP3   OH274649   1.062   1.434   5.035  0.1642  0.0592 -0.1305
17745TIP3    H174650   1.004   1.504   5.005  1.7790  1.1792 -0.8067
17745TIP3    H274651   1.084   1.458   5.125 -1.7609 -1.3237  0.7692
17746TIP3   OH274652   2.356   2.203   0.294  0.1056 -0.3235 -0.3839
17746TIP3    H174653   2.315   2.129   0.339 -1.2998  1.0841  0.7885
17746TIP3    H274654   2.308   2.211   0.212 -1.6592  0.9106  0.6953
17747TIP3   OH274655   6.507   4.741  14.600 -0.1054 -0.3962 -0.3049
17747TIP3    H174656   6.469   4.674  14.543  0.4533 -0.4412 -0.6317
17747TIP3    H274657   6.553   4.800  14.540  0.4379 -0.4127  0.0888
17748TIP3   OH274658   1.772   3.244  17.120 -0.6287 -0.3783 -0.5957
17748TIP3    H174659   1.691   3.201  17.148 -0.5123 -0.3073 -0.1361
17748TIP3    H274660   1.755   3.338  17.131 -0.1987 -0.3994  0.3115
17749TIP3   OH274661   5.689   0.208   4.154 -0.4550  0.1818  0.5371
17749TIP3    H174662   5.601   0.225   4.119 -1.1688  1.4549  2.7743
17749TIP3    H274663   5.698   0.113   4.148 -2.4090 -0.0916  1.1729
17750TIP3   OH274664   3.480   3.957   0.572  0.2319  0.0006 -0.1336
17750TIP3    H174665   3.387   3.943   0.590 -0.5061  1.9404 -1.9725
17750TIP3    H274666   3.508   4.022   0.636 -0.0183  0.3367 -0.3624
17751TIP3   OH274667   1.818   4.063   5.100 -0.4052 -0.4044 -0.0398
17751TIP3    H174668   1.834   3.990   5.040  0.7401 -0.1859 -0.0252
17751TIP3    H274669   1.904   4.082   5.137 -0.3381  1.9652 -1.1997
17752TIP3   OH274670   2.578   3.071  14.305 -0.3860  0.2786  0.6666
17752TIP3    H174671   2.569   3.153  14.354 -0.9202  0.2441  0.6228
17752TIP3    H274672   2.575   3.002  14.372  1.2112  0.3269  0.8420
17753TIP3   OH274673   3.088   2.963   2.138  0.0197  0.3895 -0.2675
17753TIP3    H174674   3.077   3.039   2.194  1.3201  0.1290  0.3795
17753TIP3    H274675   3.183   2.957   2.123 -0.1746 -0.3908 -1.2972
17754TIP3   OH274676   6.076   0.049   1.535 -0.0741 -0.1207  0.1795
17754TIP3    H174677   5.986   0.077   1.521 -0.8158 -2.6962 -0.8174
17754TIP3    H274678   6.125   0.085   1.461 -0.4867  0.3841  0.1469
17755TIP3   OH274679   5.091   6.263  11.256 -0.0301 -0.2997  0.2007
17755TIP3    H174680   5.126   6.305  11.335 -0.9733 -0.0133  0.4780
17755TIP3    H274681   5.016   6.213  11.288 -1.3638  1.0329 -0.7203
17756TIP3   OH274682   0.332   5.596  12.312  0.0334  0.4778 -0.5588
17756TIP3    H174683   0.243   5.582  12.345  1.4961 -4.2731  2.2990
17756TIP3    H274684   0.329   5.562  12.222 -0.9909  0.1591 -0.4196
17757TIP3   OH274685   1.665   4.926  12.994 -0.0370  0.1488  0.2243
17757TIP3    H174686   1.578   4.893  13.016 -0.9058  2.2415  0.2334
17757TIP3    H274687   1.726   4.867  13.038 -1.4066 -1.7525 -0.3098
17758TIP3   OH274688   3.069   6.282  16.387  0.2732 -0.2307 -0.1059
17758TIP3    H174689   3.123   6.205  16.372 -0.6750 -0.4637 -2.8396
17758TIP3    H274690   2.984   6.247  16.413  0.8910  0.1034  2.7408
17759TIP3   OH274691   6.129   1.075  15.466  0.6184  0.0207  0.2747
17759TIP3    H174692   6.159   1.066  15.556  2.9910 -0.3610 -0.4870
17759TIP3    H274693   6.206   1.057  15.413 -0.5529  0.8629 -1.8410
17760TIP3   OH274694   1.810   1.597  13.903  0.1160  0.4429 -0.1468
17760TIP3    H174695   1.870   1.528  13.930  0.7981  0.9964 -0.2260
17760TIP3    H274696   1.813   1.661  13.974 -0.1411  0.6223 -0.2937
17761TIP3   OH274697   5.801   4.123  13.299 -0.1762  0.1967  0.1191
17761TIP3    H174698   5.752   4.162  13.372 -1.2409 -0.0391 -0.4551
17761TIP3    H274699   5.871   4.074  13.342  0.1938  1.3754  0.9161
17762TIP3   OH274700   0.705   1.211   1.594 -0.4718 -0.8468  0.1993
17762TIP3    H174701   0.612   1.225   1.609 -0.8455  0.8947 -2.9475
17762TIP3    H274702   0.711   1.125   1.554 -0.9247 -0.4539 -0.7425
17763TIP3   OH274703   6.787   4.866  13.024 -0.0636  0.8074  0.1346
17763TIP3    H174704   6.874   4.840  12.995 -0.2301  0.5415 -0.1352
17763TIP3    H274705   6.744   4.784  13.048 -0.8651  0.7135 -1.4581
17764TIP3   OH274706   1.056   3.424   2.191  0.2137  0.3754 -0.4380
17764TIP3    H174707   1.074   3.516   2.172  1.0249  0.7644  1.8343
17764TIP3    H274708   0.970   3.424   2.233 -1.1639 -0.3422 -3.0788
17765TIP3   OH274709   5.361   0.913   5.299 -0.1601  0.0085  0.2321
17765TIP3    H174710   5.348   0.853   5.226  1.5091  0.3015 -0.3518
17765TIP3    H274711   5.310   0.991   5.276 -2.0017 -0.9915  0.7989
17766TIP3   OH274712   0.933   0.019  16.616  0.0443  0.9104 -0.1000
17766TIP3    H174713   0.866   0.050  16.678 -1.4822  0.5714 -1.5177
17766TIP3    H274714   0.910  -0.073  16.600  0.2821  1.0483 -1.3139
17767TIP3   OH274715   4.395   0.674   3.370  0.2700  0.4116  0.1710
17767TIP3    H174716   4.360   0.721   3.447  0.3485  0.4390  0.1894
17767TIP3    H274717   4.370   0.729   3.296  0.2585  0.4225  0.1828
17768TIP3   OH274718   3.829   1.610  15.083  0.4898 -0.7283  0.4536
17768TIP3    H174719   3.865   1.566  15.160  0.2508  0.2537  1.1371
17768TIP3    H274720   3.799   1.538  15.026  0.8480 -1.4653  1.1813
17769TIP3   OH274721   5.347   3.364   3.346 -0.1634  0.0651 -0.6178
17769TIP3    H174722   5.252   3.374   3.344 -0.1936 -0.1989 -0.5674
17769TIP3    H274723   5.361   3.273   3.373  0.0686 -0.9926 -3.9208
17770TIP3   OH274724   4.998   4.829   4.307 -0.1372  0.4973  0.6716
17770TIP3    H174725   5.088   4.816   4.338  0.3130 -1.0556 -1.1314
17770TIP3    H274726   4.945   4.775   4.365  0.4530 -0.8097  0.0266
17771TIP3   OH274727   2.403   1.424   5.731  0.3951  0.3846 -0.6673
17771TIP3    H174728   2.385   1.330   5.734 -1.7634  0.7613  1.4352
17771TIP3    H274729   2.316   1.464   5.741  1.4218  2.5856 -0.1743
17772TIP3   OH274730   5.908   2.702   2.160  0.3741  0.2546 -0.3711
17772TIP3    H174731   5.941   2.638   2.223  0.0383  0.0084 -0.4409
17772TIP3    H274732   5.885   2.650   2.083 -0.4664  0.3721 -0.2112
17773TIP3   OH274733   2.012   5.797   6.117  0.2445  0.0386  0.3540
17773TIP3    H174734   1.953   5.733   6.077  0.4974 -0.2853  0.4992
17773TIP3    H274735   2.085   5.745   6.151  0.8136  0.4783 -0.1720
17774TIP3   OH274736   5.880   2.771   5.819  0.0683  0.2187  0.1904
17774TIP3    H174737   5.855   2.678   5.821 -0.2785  0.3189  0.6890
17774TIP3    H274738   5.838   2.805   5.740 -2.5135  0.6767  1.6441
17775TIP3   OH274739   6.236   3.829   2.126 -1.0612  0.4326 -0.0270
17775TIP3    H174740   6.262   3.903   2.181 -2.3382  1.5249 -0.8465
17775TIP3    H274741   6.221   3.867   2.040 -2.2288 -0.7026 -0.3571
17776TIP3   OH274742   6.285   2.471   0.983  0.0199  0.1370 -0.5974
17776TIP3    H174743   6.211   2.497   0.927  0.5441  1.0038 -0.8975
17776TIP3    H274744   6.336   2.551   0.995  0.4962 -0.2803  0.2536
17777TIP3   OH274745   1.843   0.762  17.248 -0.3717 -0.7402  0.0861
17777TIP3    H174746   1.803   0.691  17.299 -2.4868 -0.0032 -0.4211
17777TIP3    H274747   1.856   0.724  17.161 -1.3960 -0.5831 -0.1535
17778TIP3   OH274748   1.636   0.170   2.580 -0.1513 -0.4280 -0.3232
17778TIP3    H174749   1.684   0.158   2.662 -1.0915 -2.0149  0.0370
17778TIP3    H274750   1.702   0.203   2.519  0.8447 -0.3372  0.7546
17779TIP3   OH274751   4.820   0.988  15.246  0.1896  0.3352 -0.2776
17779TIP3    H174752   4.773   0.932  15.308 -3.3030  1.9256 -1.2272
17779TIP3    H274753   4.824   0.937  15.166 -0.1703  0.2869 -0.2650
17780TIP3   OH274754   5.965   0.021   4.648 -0.5216 -0.3338  0.5023
17780TIP3    H174755   6.039  -0.009   4.701 -1.3412 -1.5645  1.0091
17780TIP3    H274756   6.002   0.036   4.561  0.0810 -2.2648  0.3806
17781TIP3   OH274757   4.277   3.997  13.768  0.1272 -0.1699  0.1650
17781TIP3    H174758   4.327   4.034  13.695 -1.9873  0.8683 -0.8372
17781TIP3    H274759   4.304   4.049  13.844  0.4484  0.4748 -0.3780
17782TIP3   OH274760   5.354   4.185  15.991  0.1795 -0.4091 -0.1622
17782TIP3    H174761   5.342   4.147  15.904  0.8059  0.6254 -0.7241
17782TIP3    H274762   5.405   4.265  15.976 -0.1945  0.0983  1.0871
17783TIP3   OH274763   5.157   5.181   2.881  0.0806  0.8325 -0.1943
17783TIP3    H174764   5.212   5.124   2.826  1.9735  0.1603  2.2150
17783TIP3    H274765   5.094   5.122   2.921  0.9056  0.6825  0.9310
17784TIP3   OH274766   1.430   0.002   2.069 -0.1488  0.7685  0.5162
17784TIP3    H174767   1.433   0.020   1.975 -1.5927 -1.2540  0.0275
17784TIP3    H274768   1.345   0.034   2.098  0.3382  1.5029  1.2061
17785TIP3   OH274769   0.629   6.713  15.801  0.4048 -0.3266  0.1930
17785TIP3    H174770   0.616   6.619  15.787  2.4415 -0.5105 -0.7488
17785TIP3    H274771   0.719   6.730  15.772  0.4104  1.7485  1.2270
17786TIP3   OH274772   4.331   1.681   0.915 -0.0117 -0.1680  0.2320
17786TIP3    H174773   4.264   1.715   0.856 -0.0306 -0.0381  0.3283
17786TIP3    H274774   4.316   1.586   0.917 -1.2473  0.0312  1.5615
17787TIP3   OH274775   3.559   3.713   4.561 -0.1749 -0.2020 -0.0111
17787TIP3    H174776   3.484   3.714   4.621 -0.8954  1.4055 -0.8752
17787TIP3    H274777   3.632   3.743   4.614 -0.9361  1.8309 -0.0358
17788TIP3   OH274778   4.706   1.742  10.964 -0.5907  0.0689  0.0221
17788TIP3    H174779   4.668   1.710  11.046 -0.2085  2.7524  1.3517
17788TIP3    H274780   4.648   1.707  10.896 -1.4074 -1.5427  1.4698
17789TIP3   OH274781   3.171   3.954  15.686 -0.8335 -0.2858 -0.5443
17789TIP3    H174782   3.188   3.880  15.745 -0.3086  0.0794 -0.2311
17789TIP3    H274783   3.167   4.030  15.745  0.8850  0.2639 -1.0864
17790TIP3   OH274784   0.722   2.207   6.097  0.1859 -0.3985  1.2961
17790TIP3    H174785   0.763   2.174   6.177  0.7923 -0.7919  0.8324
17790TIP3    H274786   0.634   2.234   6.125  0.1850 -1.0601  1.9788
17791TIP3   OH274787   2.640   4.885   0.428  0.1746 -0.0112  0.3434
17791TIP3    H174788   2.699   4.869   0.354  0.2316 -0.9845  0.5878
17791TIP3    H274789   2.633   4.981   0.432 -0.2477  0.0479 -1.2373
17792TIP3   OH274790   0.373   5.947   4.085 -0.0737  0.0331  0.7277
17792TIP3    H174791   0.437   5.941   4.014 -0.1186 -0.7717  0.7532
17792TIP3    H274792   0.402   6.024   4.135 -0.8198  1.4266 -0.8852
17793TIP3   OH274793   1.924   3.399   3.277 -0.8176 -0.0310  0.1379
17793TIP3    H174794   1.912   3.315   3.232 -1.9787  1.3974 -2.4080
17793TIP3    H274795   1.877   3.462   3.224  2.3579  2.7866  0.3183
17794TIP3   OH274796   5.877   0.022   6.562 -0.1933 -0.3111  0.6781
17794TIP3    H174797   5.936  -0.044   6.527 -0.2219  0.9204 -1.9012
17794TIP3    H274798   5.933   0.095   6.586 -0.4321 -0.0936  0.5815
17795TIP3   OH274799   0.271   2.573  13.167  0.1264  0.0945 -0.4006
17795TIP3    H174800   0.295   2.576  13.260 -0.9098 -3.2265  0.0795
17795TIP3    H274801   0.332   2.511  13.128  0.6220  1.5373 -2.0308
17796TIP3   OH274802   4.169   2.431   5.819 -0.3038  0.6889  0.2471
17796TIP3    H174803   4.245   2.392   5.777 -0.4885 -0.5391  1.0093
17796TIP3    H274804   4.096   2.409   5.762 -0.7293 -1.9529  1.6926
17797TIP3   OH274805   2.586   0.115   3.665  0.1831 -0.1236  0.4294
17797TIP3    H174806   2.657   0.074   3.614 -1.0405  0.3548 -1.7704
17797TIP3    H274807   2.565   0.050   3.732  0.0176 -2.0930 -1.3904
17798TIP3   OH274808   4.258   0.317  15.245  0.2453  0.2537 -0.1914
17798TIP3    H174809   4.219   0.230  15.245  0.8574 -0.0956  2.1309
17798TIP3    H274810   4.352   0.301  15.247  0.3690  0.9759 -0.0859
17799TIP3   OH274811   2.703   2.025   4.920  0.4095  0.4549 -0.0466
17799TIP3    H174812   2.649   1.995   4.847  1.3599  0.3764 -0.7443
17799TIP3    H274813   2.772   1.959   4.926 -0.1458 -0.0312  1.5217
17800TIP3   OH274814   2.893   1.361   3.493  0.3881 -0.0766  0.2082
17800TIP3    H174815   2.808   1.381   3.532  1.1866  0.6569  1.6582
17800TIP3    H274816   2.877   1.283   3.440 -1.3436  0.4909 -0.1875
17801TIP3   OH274817   5.885   5.104   3.007 -0.0855 -0.0255 -0.1268
17801TIP3    H174818   5.888   5.029   2.947  1.2987  0.1306 -0.2770
17801TIP3    H274819   5.902   5.180   2.952 -0.7794  0.3474  0.1521
17802TIP3   OH274820   0.615   5.140   0.912 -0.0122  0.3256  0.5772
17802TIP3    H174821   0.663   5.107   0.836 -0.4143  1.5759 -0.2592
17802TIP3    H274822   0.546   5.076   0.927 -1.0678  0.9446 -1.2985
17803TIP3   OH274823   3.552   0.413   5.639  0.1577 -0.0557 -0.1719
17803TIP3    H174824   3.532   0.406   5.546 -2.5728 -0.0662  0.3247
17803TIP3    H274825   3.598   0.332   5.660  0.7014 -0.1045 -1.4614
17804TIP3   OH274826   1.482   3.303  14.414  0.1095 -0.0252 -0.1396
17804TIP3    H174827   1.423   3.261  14.351  1.0880  0.1104 -1.1758
17804TIP3    H274828   1.563   3.252  14.408  0.1942 -0.0649  1.0972
17805TIP3   OH274829   4.115   4.858   4.853  0.3284 -0.1955 -0.0079
17805TIP3    H174830   4.112   4.952   4.838  0.9134 -0.1692  0.0381
17805TIP3    H274831   4.192   4.828   4.804  0.2982 -0.6115  0.1906
17806TIP3   OH274832   4.214   4.737  12.215 -0.2085 -0.3540  0.0706
17806TIP3    H174833   4.235   4.794  12.290 -1.7256  0.1685  0.1338
17806TIP3    H274834   4.189   4.654  12.254 -2.3505  0.3343  0.2824
17807TIP3   OH274835   2.174   2.938  12.142  0.2080 -0.1293  0.2746
17807TIP3    H174836   2.104   2.876  12.163 -0.6161  0.7024  0.0965
17807TIP3    H274837   2.253   2.885  12.136 -0.6255 -1.3010 -0.8483
17808TIP3   OH274838   2.731   3.119  10.448 -0.1787 -0.1973  0.2024
17808TIP3    H174839   2.822   3.123  10.421  0.0180 -0.3564  0.8197
17808TIP3    H274840   2.717   3.027  10.471 -0.7805 -0.3830 -0.8318
17809TIP3   OH274841   3.849   0.230   4.389  0.0476 -0.5563  0.1011
17809TIP3    H174842   3.840   0.230   4.484  0.0906 -2.3679  0.1480
17809TIP3    H274843   3.762   0.205   4.357  0.5751 -2.1277 -0.1986
17810TIP3   OH274844   6.292   0.207   1.654  0.0815 -0.3767  0.3578
17810TIP3    H174845   6.238   0.134   1.623 -0.4596  0.7927 -1.5452
17810TIP3    H274846   6.264   0.219   1.745 -0.8044 -1.6359  0.2865
17811TIP3   OH274847   2.821   3.439   0.715 -0.2369 -0.3251 -0.1157
17811TIP3    H174848   2.911   3.464   0.737 -0.3777  1.1573 -1.0849
17811TIP3    H274849   2.809   3.353   0.756  2.2001 -1.3745 -1.4018
17812TIP3   OH274850   0.864   1.285   3.976  0.6329 -0.1985  0.0861
17812TIP3    H174851   0.822   1.354   3.925 -0.4078 -0.4003  0.6344
17812TIP3    H274852   0.956   1.311   3.981  0.3811  0.8039 -0.2663
17813TIP3   OH274853   4.805   5.332  13.995 -0.0887 -0.1075 -0.0595
17813TIP3    H174854   4.870   5.270  14.030  0.4845  1.6406  2.2730
17813TIP3    H274855   4.850   5.375  13.923  1.2349  0.6814  1.1638
17814TIP3   OH274856   2.871   6.185   5.591  0.5489  0.1858 -0.2048
17814TIP3    H174857   2.960   6.154   5.607  0.9456  1.6113  0.4987
17814TIP3    H274858   2.825   6.171   5.674  0.5991  1.0071 -0.0338
17815TIP3   OH274859   2.757   5.180  13.735  0.2161 -0.8092  0.0145
17815TIP3    H174860   2.825   5.247  13.739 -0.5408  0.1471 -1.7705
17815TIP3    H274861   2.716   5.182  13.822 -0.4376  1.8086 -0.2668
17816TIP3   OH274862   6.772   4.099  13.613  0.2870 -0.1433  0.0075
17816TIP3    H174863   6.782   4.156  13.537  1.2367  0.9161  0.8863
17816TIP3    H274864   6.801   4.013  13.583 -1.5873 -0.3103 -1.4622
17817TIP3   OH274865   6.036   2.493   5.937  0.0697 -0.3094 -0.2793
17817TIP3    H174866   6.056   2.401   5.924 -0.4567 -0.5303  0.3958
17817TIP3    H274867   5.943   2.495   5.959 -0.2818  0.5360 -1.7438
17818TIP3   OH274868   0.597   2.915  11.361 -0.2605  0.6975  0.2966
17818TIP3    H174869   0.570   2.992  11.411 -3.0825 -0.3996  0.6181
17818TIP3    H274870   0.572   2.934  11.271  1.8524  1.3385 -0.2085
17819TIP3   OH274871   2.166   1.749   0.027  0.1969  0.0778  0.4787
17819TIP3    H174872   2.128   1.735   0.114 -0.7876  0.6505  0.1508
17819TIP3    H274873   2.096   1.788  -0.025  0.5395 -0.9259 -0.8036
17820TIP3   OH274874   4.880   3.373   2.179  0.4343 -0.8989  0.0132
17820TIP3    H174875   4.867   3.308   2.248  0.4315  0.7693  1.6492
17820TIP3    H274876   4.961   3.418   2.204  0.1178  0.1314 -0.7676
17821TIP3   OH274877   1.766   0.163   1.895  0.8511 -0.8115 -0.0541
17821TIP3    H174878   1.819   0.217   1.954  2.6823 -2.2697 -0.2763
17821TIP3    H274879   1.720   0.102   1.953  0.6010 -0.5376  0.0372
17822TIP3   OH274880   0.603   4.820  14.436  0.2434 -0.1769  0.9436
17822TIP3    H174881   0.691   4.791  14.459  0.5605  0.5027  0.6371
17822TIP3    H274882   0.548   4.793  14.509  0.8737  0.2014  1.5667
17823TIP3   OH274883   2.432   2.966   4.230 -0.8567 -0.5519  0.2477
17823TIP3    H174884   2.387   3.048   4.214  0.6524  0.5161  1.1904
17823TIP3    H274885   2.459   2.971   4.322  1.7914 -0.7589 -0.4383
17824TIP3   OH274886   0.306   6.254   2.343 -0.3290 -0.2164 -0.5646
17824TIP3    H174887   0.377   6.317   2.329 -1.0441  0.0524 -3.8017
17824TIP3    H274888   0.350   6.169   2.342  0.3496  0.0558  1.4680
17825TIP3   OH274889   1.745   3.169  14.442 -0.4225  0.4257  0.0734
17825TIP3    H174890   1.794   3.127  14.513 -0.3928  0.9275  0.3542
17825TIP3    H274891   1.796   3.149  14.363 -1.0883 -1.1547  0.0076
17826TIP3   OH274892   1.517   2.024  11.148  0.4031  0.0358 -0.0271
17826TIP3    H174893   1.448   2.035  11.083 -0.5043  1.2559  1.0852
17826TIP3    H274894   1.593   2.068  11.110  0.6214 -1.3446 -1.2754
17827TIP3   OH274895   4.033   1.479  11.828 -0.0530  0.6687  0.1615
17827TIP3    H174896   4.062   1.563  11.864 -0.2949  1.0791 -0.5721
17827TIP3    H274897   3.951   1.499  11.783  0.3452  0.2300 -0.8003
17828TIP3   OH274898   3.232   1.741   3.889 -0.0134  0.9273  0.6362
17828TIP3    H174899   3.172   1.671   3.864 -0.6620  1.5050  0.5324
17828TIP3    H274900   3.196   1.775   3.971  1.7203 -0.5106  2.0843
17829TIP3   OH274901   6.436   3.550   4.686  0.5858 -0.0646  0.1065
17829TIP3    H174902   6.469   3.636   4.711  0.3832  0.6847 -2.0680
17829TIP3    H274903   6.362   3.567   4.628 -0.1463 -1.7216  0.4815
17830TIP3   OH274904   0.376   2.252   0.516 -0.1555 -0.7893  0.0443
17830TIP3    H174905   0.406   2.166   0.545 -0.0891 -0.4967  0.8788
17830TIP3    H274906   0.451   2.310   0.531  0.2825 -0.8117 -1.7822
17831TIP3   OH274907   2.927   6.287  15.197  0.0757  0.2911 -0.0919
17831TIP3    H174908   2.945   6.222  15.129 -0.5222 -1.5533  1.4155
17831TIP3    H274909   2.842   6.324  15.174 -1.7775 -2.7367  1.2754
17832TIP3   OH274910   2.279   3.402  14.770 -0.3391 -0.0715  0.2329
17832TIP3    H174911   2.307   3.451  14.692  2.0959  0.8447  1.5429
17832TIP3    H274912   2.203   3.450  14.802 -0.9793 -0.0837 -1.2045
17833TIP3   OH274913   0.551   4.877  13.981 -0.1355 -0.0920 -0.3208
17833TIP3    H174914   0.479   4.905  14.037 -1.1513 -0.4749 -1.3835
17833TIP3    H274915   0.615   4.839  14.041 -0.7032  0.4869  0.6774
17834TIP3   OH274916   0.180   1.169  13.415 -0.1115 -0.2754  0.3887
17834TIP3    H174917   0.239   1.160  13.491  0.1019 -3.2447 -0.0133
17834TIP3    H274918   0.233   1.215  13.349 -0.1450  1.9291  1.7787
17835TIP3   OH274919   0.124   5.970   0.695  0.2477 -0.2032 -0.0992
17835TIP3    H174920   0.063   5.904   0.727 -0.9116  1.5369  1.4830
17835TIP3    H274921   0.072   6.025   0.637 -0.1546  2.0858  2.2861
17836TIP3   OH274922   1.503   0.255   1.611  0.8800  0.1955  0.0643
17836TIP3    H174923   1.530   0.166   1.590 -0.5764 -0.1224 -0.5338
17836TIP3    H274924   1.516   0.304   1.530 -0.1148  0.0911 -0.1610
17837TIP3   OH274925   2.106   4.750   3.035 -0.3997  0.6515  0.5971
17837TIP3    H174926   2.110   4.745   3.131 -1.3333 -0.3496  0.5993
17837TIP3    H274927   2.197   4.740   3.007  0.0802  2.2717  1.4003
17838TIP3   OH274928   2.936   2.493   6.043 -0.4319  0.7415  0.1902
17838TIP3    H174929   2.999   2.560   6.072  2.6415 -2.1886  0.9879
17838TIP3    H274930   2.962   2.473   5.953  0.2627 -0.8874  0.7071
17839TIP3   OH274931   3.820   4.234  16.531  0.3687 -0.8339  0.0711
17839TIP3    H174932   3.856   4.296  16.594 -0.1782 -0.1509 -0.2824
17839TIP3    H274933   3.858   4.259  16.447 -0.1739 -0.6954 -0.1441
17840TIP3   OH274934   3.524   0.891   5.781 -0.6817  0.0836  0.0886
17840TIP3    H174935   3.438   0.875   5.742 -0.5222  0.5906 -0.4883
17840TIP3    H274936   3.517   0.855   5.869 -1.5465  0.2788  0.1125
17841TIP3   OH274937   0.684   0.425   2.204 -0.9276  0.0670 -0.6247
17841TIP3    H174938   0.696   0.374   2.124  0.5313  1.4736 -1.3377
17841TIP3    H274939   0.690   0.516   2.177 -0.9719  0.5985  1.0070
17842TIP3   OH274940   1.113   2.797  15.170 -0.1002  0.5170  0.7664
17842TIP3    H174941   1.205   2.823  15.181  0.2477 -0.5311  0.4866
17842TIP3    H274942   1.063   2.877  15.185  0.9908  1.8040 -1.9239
17843TIP3   OH274943   4.675   5.454   2.093  0.1024  0.0279  0.0941
17843TIP3    H174944   4.650   5.542   2.122 -0.7655 -0.4455  0.8377
17843TIP3    H274945   4.597   5.402   2.106  0.1937 -0.5782 -1.6277
17844TIP3   OH274946   2.758   2.940   3.591 -0.1398 -0.2851  0.4262
17844TIP3    H174947   2.818   2.999   3.546  1.3760 -2.8586 -1.2036
17844TIP3    H274948   2.791   2.935   3.681  0.9699 -0.2308  0.0370
17845TIP3   OH274949   5.770   2.091  13.899  0.2549  0.1290  0.4243
17845TIP3    H174950   5.765   1.997  13.881 -1.1723  0.6217 -2.3270
17845TIP3    H274951   5.804   2.097  13.988 -1.2149 -3.0355  1.3392
17846TIP3   OH274952   6.322   6.785  13.889 -0.3348 -0.0792 -0.1266
17846TIP3    H174953   6.235   6.824  13.880 -1.1171 -1.7113 -0.0132
17846TIP3    H274954   6.352   6.813  13.976 -1.2843 -0.4996  0.3475
17847TIP3   OH274955   5.584   4.853  12.073  0.4569  0.3148 -0.4967
17847TIP3    H174956   5.635   4.841  12.153 -0.2763  2.8892  0.4585
17847TIP3    H274957   5.507   4.797  12.085  1.0901 -0.5019 -0.1354
17848TIP3   OH274958   4.036   5.867   2.426  0.2503  0.0478 -0.3407
17848TIP3    H174959   4.027   5.807   2.501 -0.6294 -0.8527 -1.1300
17848TIP3    H274960   3.953   5.915   2.425  0.1758 -0.0938 -0.8604
17849TIP3   OH274961   0.983   4.405   0.244  0.0044  0.6792  0.1675
17849TIP3    H174962   1.078   4.413   0.246  0.2147 -1.1795  3.1382
17849TIP3    H274963   0.951   4.484   0.286  0.1710  1.4241 -1.0558
17850TIP3   OH274964   4.639   3.948   4.327 -0.2280  0.6023  0.2486
17850TIP3    H174965   4.663   3.975   4.238 -1.2308  1.7375  0.2937
17850TIP3    H274966   4.592   3.866   4.316  0.0366  0.5133 -0.2339
17851TIP3   OH274967   1.142   5.572  14.175  0.0502 -0.7547 -0.2241
17851TIP3    H174968   1.090   5.649  14.198 -0.3079 -1.4070  1.2951
17851TIP3    H274969   1.191   5.598  14.097  1.7070  1.8079  1.5114
17852TIP3   OH274970   2.895   4.070  14.713 -0.3749  0.2001  0.0001
17852TIP3    H174971   2.961   4.119  14.663 -1.8735  1.3346 -0.9633
17852TIP3    H274972   2.873   4.128  14.786  0.4247 -0.6407  0.9476
17853TIP3   OH274973   0.918   6.539  13.379  0.3953 -0.4383  0.0102
17853TIP3    H174974   0.963   6.553  13.462 -0.5052 -1.4218  0.7026
17853TIP3    H274975   0.827   6.522  13.404  0.4784 -2.7941 -0.9654
17854TIP3   OH274976   4.510   4.278  17.137 -0.2459 -0.0585 -0.2693
17854TIP3    H174977   4.574   4.272  17.208 -2.1138 -1.4600  1.4093
17854TIP3    H274978   4.563   4.273  17.057  1.6800 -3.2690  1.0145
17855TIP3   OH274979   5.937   5.584  15.751  0.3451 -0.2509 -0.4684
17855TIP3    H174980   5.883   5.660  15.730 -0.3421 -0.8583 -0.9795
17855TIP3    H274981   5.973   5.556  15.667  1.0207 -0.1821 -0.2091
17856TIP3   OH274982   0.001   5.746  11.249  0.0441 -0.0691 -0.3596
17856TIP3    H174983   0.036   5.805  11.182 -0.7934  0.8685 -0.0066
17856TIP3    H274984  -0.006   5.801  11.327  0.3699 -0.9669  0.3215
17857TIP3   OH274985   2.244   2.581  11.311  0.3697  0.8041 -0.0512
17857TIP3    H174986   2.205   2.537  11.236  1.9485 -1.5553  0.4264
17857TIP3    H274987   2.181   2.568  11.382  0.1743  0.5950 -0.2631
17858TIP3   OH274988   3.414   4.683  16.414  0.0001  0.4201 -0.3297
17858TIP3    H174989   3.390   4.591  16.401  0.0301  0.2628  0.6207
17858TIP3    H274990   3.439   4.688  16.506  0.5247  1.2720 -0.5072
17859TIP3   OH274991   3.185   3.003  15.459  0.2951  0.4858 -1.0719
17859TIP3    H174992   3.267   2.985  15.414  0.3638 -0.9738 -0.4374
17859TIP3    H274993   3.207   3.068  15.525  1.3207 -0.9473  0.0724
17860TIP3   OH274994   1.775   4.088  14.527 -0.4684 -0.1501 -0.0039
17860TIP3    H174995   1.800   4.157  14.465  0.0565 -0.6831 -0.3918
17860TIP3    H274996   1.776   4.131  14.613 -0.6342  0.4457 -0.2949
17861TIP3   OH274997   6.340   0.503  11.740  0.5354 -0.6227  0.2007
17861TIP3    H174998   6.382   0.417  11.736 -0.2862 -0.9862 -1.3557
17861TIP3    H274999   6.250   0.487  11.712  0.6777  0.9213 -1.2343
17862TIP3   OH275000   4.767   4.293   1.284  0.0941  0.0385 -0.6166
17862TIP3    H175001   4.696   4.261   1.229 -1.2276 -2.6060  2.3011
17862TIP3    H275002   4.833   4.224   1.282  1.0421  0.9118 -0.5860
17863TIP3   OH275003   6.255   0.275   4.039 -0.1853  0.1232  0.1030
17863TIP3    H175004   6.159   0.280   4.041 -0.1185  1.2281  1.3671
17863TIP3    H275005   6.276   0.258   3.947 -1.5757  0.0898 -0.2235
17864TIP3   OH275006   1.410   6.274   4.736  0.7517 -0.3418  0.7823
17864TIP3    H175007   1.427   6.368   4.731  1.1294 -0.4678 -1.2590
17864TIP3    H275008   1.497   6.234   4.727  0.3333 -0.8787 -1.6200
17865TIP3   OH275009   0.443   1.260   3.092 -0.2011 -0.1787 -0.1030
17865TIP3    H175010   0.418   1.256   3.000  0.9618  0.7486 -0.4773
17865TIP3    H275011   0.395   1.335   3.127  0.9044  0.7267 -0.4743
17866TIP3   OH275012   3.280   0.637   4.873 -0.0090  0.1426 -0.1528
17866TIP3    H175013   3.289   0.565   4.935 -1.3320  0.8671  0.9155
17866TIP3    H275014   3.369   0.670   4.861  0.8560 -2.4802 -1.7207
17867TIP3   OH275015   6.367   3.646  13.447 -0.3816 -0.5415 -0.2479
17867TIP3    H175016   6.412   3.705  13.507 -0.0775 -1.1188  0.1006
17867TIP3    H275017   6.283   3.627  13.490 -0.3671 -0.5704 -0.2317
17868TIP3   OH275018   0.231   4.758  12.943 -0.6338  0.6610  0.2786
17868TIP3    H175019   0.218   4.801  12.858 -2.6179  0.5566  0.4779
17868TIP3    H275020   0.269   4.673  12.921 -0.6289  0.8436 -0.4595
17869TIP3   OH275021   5.706   4.269  14.167 -0.0460  0.4796 -0.1359
17869TIP3    H175022   5.792   4.229  14.173 -0.8739 -2.2575 -3.5009
17869TIP3    H275023   5.648   4.210  14.216 -0.3666  1.2154  0.4105
17870TIP3   OH275024   6.059   2.374  13.507 -0.2473 -0.4363  0.1509
17870TIP3    H175025   6.068   2.454  13.558  1.9304 -0.5899  0.1278
17870TIP3    H275026   5.965   2.358  13.503 -0.7571  2.1651  0.0437
17871TIP3   OH275027   4.224   2.024  14.275  0.2039 -0.0936  0.3925
17871TIP3    H175028   4.216   2.098  14.215  0.8819  0.8588  1.4682
17871TIP3    H275029   4.256   2.061  14.356 -1.4135 -1.2443  1.6298
17872TIP3   OH275030   3.689   2.887  15.935 -0.6861  0.3250 -0.1235
17872TIP3    H175031   3.630   2.833  15.881 -0.9775 -0.8532  1.2973
17872TIP3    H275032   3.715   2.959  15.877 -1.9958 -0.1696 -1.4098
17873TIP3   OH275033   0.330   5.168   1.230  0.0555  0.0825  0.7150
17873TIP3    H175034   0.288   5.102   1.284  1.4515 -0.8357  0.7335
17873TIP3    H275035   0.424   5.157   1.247  0.4926  0.2699 -1.3068
17874TIP3   OH275036   0.947   3.607   4.394 -0.1698 -0.0472  0.3064
17874TIP3    H175037   0.860   3.627   4.429 -0.4640  0.8455 -0.8921
17874TIP3    H275038   0.933   3.531   4.338 -0.2437  0.2985 -0.1462
17875TIP3   OH275039   0.293   0.692  12.424 -0.3947 -0.3902  0.4103
17875TIP3    H175040   0.216   0.660  12.378 -0.3615  0.1299 -0.0212
17875TIP3    H275041   0.336   0.613  12.457 -1.4338 -0.6577  1.2087
17876TIP3   OH275042   0.145   5.540   3.575  0.3272 -0.1481 -0.0635
17876TIP3    H175043   0.094   5.590   3.512 -0.4950 -2.2355 -1.1433
17876TIP3    H275044   0.182   5.606   3.634 -0.7781  1.6813 -1.3285
17877TIP3   OH275045   5.388   5.844   6.332 -0.0551  0.3331 -0.3642
17877TIP3    H175046   5.432   5.815   6.412 -0.7840 -2.0872 -0.7748
17877TIP3    H275047   5.456   5.841   6.265  0.0991  0.5077 -0.2171
17878TIP3   OH275048   1.241   4.012  12.651  0.0462  0.1864  0.1025
17878TIP3    H175049   1.218   3.976  12.737  0.4412 -0.1495  0.0706
17878TIP3    H275050   1.178   4.083  12.637  0.6529  0.9564  1.1532
17879TIP3   OH275051   6.661   5.841  13.044  0.0085  0.1022  0.0588
17879TIP3    H175052   6.722   5.877  13.108 -1.6184 -0.4519  2.0175
17879TIP3    H275053   6.658   5.906  12.974  0.8231  1.3845  1.1761
17880TIP3   OH275054   2.751   4.863   0.169 -0.4659 -0.2223  0.6607
17880TIP3    H175055   2.717   4.896   0.085  1.4499  3.4167  1.0769
17880TIP3    H275056   2.830   4.815   0.146  0.0402  0.7458  0.3236
17881TIP3   OH275057   2.244   4.064  11.432 -0.3225 -0.5465  0.0930
17881TIP3    H175058   2.190   4.071  11.354  0.1556  0.1920 -0.1786
17881TIP3    H275059   2.182   4.065  11.505 -0.7850 -1.4429 -0.2707
17882TIP3   OH275060   1.186   1.415   3.696  0.3703  0.0275 -0.1457
17882TIP3    H175061   1.213   1.343   3.639 -1.1119 -0.4585 -0.2817
17882TIP3    H275062   1.233   1.491   3.663  0.6580 -0.5398 -1.0821
17883TIP3   OH275063   0.728   4.887   5.326 -0.0328  0.4655 -0.0979
17883TIP3    H175064   0.742   4.972   5.283 -0.2737  0.7426  0.3558
17883TIP3    H275065   0.797   4.831   5.291  1.5826  1.4862  1.2871
17884TIP3   OH275066   6.161   4.781  15.444  0.2719 -0.0799 -0.2236
17884TIP3    H175067   6.092   4.760  15.381 -0.6092 -1.2898  1.1060
17884TIP3    H275068   6.131   4.862  15.486 -0.0716 -0.3074 -0.0297
17885TIP3   OH275069   4.578   4.685  16.937 -0.0190 -0.3880 -0.1662
17885TIP3    H175070   4.613   4.755  16.992  1.5171 -0.0504 -1.4811
17885TIP3    H275071   4.532   4.627  16.997 -1.5655  1.8503  0.9427
17886TIP3   OH275072   5.590   1.294  15.228  0.0840 -0.4298 -0.1214
17886TIP3    H175073   5.552   1.243  15.299 -0.6393  0.1694 -0.0692
17886TIP3    H275074   5.664   1.340  15.269 -0.1959 -0.2572  0.1865
17887TIP3   OH275075   4.018   6.243   3.011 -0.1211 -1.1131  0.1573
17887TIP3    H175076   3.988   6.220   3.099  1.0843 -2.3096  0.2893
17887TIP3    H275077   4.110   6.268   3.022 -0.8931  2.4704 -0.2290
17888TIP3   OH275078   4.828   1.107   3.497 -0.2426 -0.2855  0.5257
17888TIP3    H175079   4.778   1.119   3.417  1.2856  0.0956 -0.4242
17888TIP3    H275080   4.913   1.147   3.478  0.5419 -1.1884  1.9425
17889TIP3   OH275081   3.502   6.569  15.659  0.3239  0.4313 -0.0088
17889TIP3    H175082   3.525   6.500  15.721 -2.3961  0.0740  0.7638
17889TIP3    H275083   3.584   6.614  15.639  1.9320 -2.0985  0.5838
17890TIP3   OH275084   2.271   6.713   3.428 -0.0185  0.1682 -0.7341
17890TIP3    H175085   2.219   6.789   3.453 -0.7260 -1.1520  2.4082
17890TIP3    H275086   2.207   6.643   3.417  0.8037 -0.7041 -0.1957
17891TIP3   OH275087   4.612   6.239  15.551 -0.0065  0.5760 -0.0789
17891TIP3    H175088   4.529   6.267  15.590 -0.0366  0.4718 -0.0700
17891TIP3    H275089   4.591   6.225  15.458  0.0183  0.6242 -0.0921
17892TIP3   OH275090   5.097   6.084   0.176  0.3494 -0.3093  0.6665
17892TIP3    H175091   5.088   6.038   0.259 -0.2299  0.5760  1.1083
17892TIP3    H275092   5.010   6.122   0.160  0.9166  1.0109  0.5558
17893TIP3   OH275093   0.133   6.451   4.973  0.1425 -0.2017 -0.2145
17893TIP3    H175094   0.199   6.451   4.903 -0.6253 -0.3040 -0.9519
17893TIP3    H275095   0.183   6.432   5.052  1.0640  0.1070 -0.6980
17894TIP3   OH275096   0.735   4.648  12.153 -0.1669  0.0072  0.0207
17894TIP3    H175097   0.696   4.728  12.189  0.8853  0.5734 -0.0523
17894TIP3    H275098   0.828   4.668  12.145  0.1156 -1.2255 -0.0286
17895TIP3   OH275099   2.987   6.519  16.136 -0.2601  0.2429  0.3791
17895TIP3    H175100   3.022   6.430  16.149  0.9626  0.3506 -1.7116
17895TIP3    H275101   2.923   6.529  16.206  0.8254 -1.6223  1.7668
17896TIP3   OH275102   1.556   4.765   5.939  0.2060 -0.1115 -0.3094
17896TIP3    H175103   1.602   4.848   5.953  2.0341 -1.1949  0.4848
17896TIP3    H275104   1.620   4.708   5.896 -0.9715 -1.1626 -0.7447
17897TIP3   OH275105   5.293   2.328  11.841  0.5001 -0.0109  0.0547
17897TIP3    H175106   5.204   2.311  11.809  0.4063 -1.5792  1.0638
17897TIP3    H275107   5.340   2.362  11.765 -1.0049  1.1035 -0.4424
17898TIP3   OH275108   0.762   0.563   6.119  0.3746 -0.2466 -0.8052
17898TIP3    H175109   0.792   0.491   6.175 -0.1176  0.2381  0.1068
17898TIP3    H275110   0.709   0.521   6.052 -0.7313 -0.6577  0.3005
17899TIP3   OH275111   3.795   0.895   5.652  0.0651 -0.2153  0.0381
17899TIP3    H175112   3.721   0.916   5.709  0.9654  1.3531  0.6686
17899TIP3    H275113   3.756   0.846   5.579 -1.7953  1.5842 -0.2450
17900TIP3   OH275114   1.346   3.625   6.105 -0.3904 -0.2495 -0.1619
17900TIP3    H175115   1.360   3.604   6.012 -0.2008  0.5530 -0.3223
17900TIP3    H275116   1.363   3.719   6.111 -1.0726 -0.1620  0.5586
17901TIP3   OH275117   5.383   0.759   4.185 -0.0015  0.0382 -0.3440
17901TIP3    H175118   5.430   0.710   4.252 -0.2043 -0.8820 -0.8475
17901TIP3    H275119   5.329   0.821   4.233  0.8313  0.2851  0.2818
17902TIP3   OH275120   1.669   1.394  17.244  1.0513  0.4606 -0.5775
17902TIP3    H175121   1.722   1.464  17.283 -1.3353  1.9386  0.2256
17902TIP3    H275122   1.660   1.328  17.312 -3.3232  3.1439  1.9147
17903TIP3   OH275123   3.136   2.680  14.958 -0.6457  0.7664 -0.5252
17903TIP3    H175124   3.103   2.747  15.019  0.2336  0.4672  0.3005
17903TIP3    H275125   3.215   2.647  14.999  0.5700  1.2726 -2.3356
17904TIP3   OH275126   0.114   1.968  14.243  0.1711  0.7001  0.0266
17904TIP3    H175127   0.032   1.966  14.293 -0.0691 -1.2616 -0.3622
17904TIP3    H275128   0.088   1.999  14.156 -0.2986 -0.4981 -0.2780
17905TIP3   OH275129   3.029   3.008   5.704 -0.0812  0.0218  0.0228
17905TIP3    H175130   3.071   3.040   5.784 -1.1300 -1.5144  1.2696
17905TIP3    H275131   2.949   3.061   5.696 -0.2948 -0.2344  0.3839
17906TIP3   OH275132   5.113   5.105   4.028  0.6301  0.1645  0.9316
17906TIP3    H175133   5.046   5.133   4.090  2.2819  1.5334  2.2405
17906TIP3    H275134   5.120   5.177   3.965 -0.1477 -0.6501 -0.1209
17907TIP3   OH275135   4.157   1.720  13.221  0.8308  0.1822  0.9988
17907TIP3    H175136   4.064   1.701  13.214  0.8066  0.7084 -0.3702
17907TIP3    H275137   4.200   1.653  13.167  1.1167  0.8661  0.3581
17908TIP3   OH275138   4.339   0.338   3.645 -0.0133  0.0226 -0.1671
17908TIP3    H175139   4.280   0.356   3.719  0.0037  0.2505 -0.2078
17908TIP3    H275140   4.386   0.259   3.671 -0.7036 -0.4589 -0.3564
17909TIP3   OH275141   6.223   3.312  12.264  0.5032 -0.1491 -0.0370
17909TIP3    H175142   6.230   3.308  12.359  1.4837 -1.7360 -0.1499
17909TIP3    H275143   6.140   3.268  12.243 -0.0192  0.7393  0.0890
17910TIP3   OH275144   3.007   2.175  12.347  0.0349 -0.5706  0.1559
17910TIP3    H175145   2.993   2.080  12.357  0.9006 -0.6549  0.6936
17910TIP3    H275146   2.980   2.211  12.431 -1.7327 -0.1445 -0.5566
17911TIP3   OH275147   3.072   6.632  13.192 -0.0929 -0.3508  0.5865
17911TIP3    H175148   2.991   6.669  13.227  0.9433  1.4075  1.2563
17911TIP3    H275149   3.095   6.562  13.253 -1.6590 -1.6386 -0.2355
17912TIP3   OH275150   5.854   0.827  13.428 -0.3029 -0.0302 -0.7046
17912TIP3    H175151   5.896   0.870  13.353  0.7902  1.6488  0.7950
17912TIP3    H275152   5.800   0.895  13.468  0.0090 -0.5672  0.6762
17913TIP3   OH275153   3.342   4.088  14.147 -0.5701  0.1579  0.0587
17913TIP3    H175154   3.428   4.125  14.165 -1.8845  2.8835  1.4137
17913TIP3    H275155   3.339   4.078  14.051  1.2932 -0.2970  0.0103
17914TIP3   OH275156   4.082   5.994   3.169 -0.6043 -0.3409  0.0078
17914TIP3    H175157   4.117   5.932   3.105  3.0533  1.8380 -0.3959
17914TIP3    H275158   4.091   5.949   3.253  2.0630 -0.5052 -0.2570
17915TIP3   OH275159   2.057   0.149  13.141  0.0915 -0.1522 -0.6216
17915TIP3    H175160   2.041   0.087  13.212  1.5985 -1.8784 -1.6918
17915TIP3    H275161   2.093   0.226  13.183 -0.6897 -0.4454  0.6426
17916TIP3   OH275162   3.079   0.370   3.966  0.3773  0.0448  0.5278
17916TIP3    H175163   3.106   0.461   3.951 -0.2899  0.1847  0.1026
17916TIP3    H275164   3.159   0.319   3.955  0.8609  0.6286  1.2832
17917TIP3   OH275165   6.777   4.596  13.155  0.1748 -0.1327 -0.2400
17917TIP3    H175166   6.793   4.530  13.087 -1.2682 -1.3200  0.4958
17917TIP3    H275167   6.706   4.558  13.208  0.1785  1.4669  0.9741
17918TIP3   OH275168   2.278   0.172  14.724 -0.1375  0.2902 -0.4273
17918TIP3    H175169   2.206   0.115  14.700 -0.6812  0.2753  1.1242
17918TIP3    H275170   2.239   0.260  14.729  0.2936  0.5238 -1.0706
17919TIP3   OH275171   4.540   0.125  11.719 -0.2740  0.0084  0.8471
17919TIP3    H175172   4.521   0.041  11.677  1.8835 -0.1400  0.0229
17919TIP3    H275173   4.582   0.101  11.802  0.7848  0.2310  0.3940
17920TIP3   OH275174   3.015   1.293   6.237 -0.3918  0.2663 -0.2847
17920TIP3    H175175   2.953   1.265   6.303  0.6059 -1.2208  0.0697
17920TIP3    H275176   3.094   1.316   6.286 -0.0772  0.4265 -0.8516
17921TIP3   OH275177   5.491   6.731  13.139  0.3570 -0.3268 -0.1837
17921TIP3    H175178   5.549   6.693  13.073  0.8892 -0.4620  0.3547
17921TIP3    H275179   5.550   6.780  13.197 -0.3167  1.5049 -0.9708
17922TIP3   OH275180   3.706   5.379   4.039 -0.3468  0.0561  0.0737
17922TIP3    H175181   3.631   5.327   4.010 -0.4843  0.6558 -0.6794
17922TIP3    H275182   3.675   5.470   4.037  0.3789  0.3069 -0.1918
17923TIP3   OH275183   6.626   1.781   1.166  0.2043 -0.0853  0.0537
17923TIP3    H175184   6.589   1.821   1.088 -1.1280 -0.6430  0.3695
17923TIP3    H275185   6.583   1.696   1.172  1.0058 -0.4489  0.8578
17924TIP3   OH275186   4.012   6.413  14.245 -0.0754  0.1105  0.8184
17924TIP3    H175187   3.922   6.399  14.216 -0.0086  0.6278  0.3325
17924TIP3    H275188   4.005   6.477  14.316  0.0259  1.5126 -0.3721
17925TIP3   OH275189   4.737   1.847   2.675 -0.2016 -0.2525 -0.3656
17925TIP3    H175190   4.809   1.903   2.643 -1.4766  0.5948 -1.9114
17925TIP3    H275191   4.663   1.871   2.620 -1.6028 -1.3303  0.9895
17926TIP3   OH275192   6.609   5.918   1.350  0.1054  0.3375  0.0372
17926TIP3    H175193   6.577   5.851   1.411  0.8570 -1.3277 -1.3017
17926TIP3    H275194   6.674   5.872   1.297  1.0528  2.3057 -0.5915
17927TIP3   OH275195   2.454   3.634   2.143  0.1810  0.1922  0.2424
17927TIP3    H175196   2.366   3.599   2.134  0.0602 -0.1917  2.4315
17927TIP3    H275197   2.457   3.708   2.082 -1.6321  0.2065  0.1217
17928TIP3   OH275198   0.123   5.104  14.000  0.0974 -0.7635 -0.5996
17928TIP3    H175199   0.156   5.075  13.915  3.5152  0.1060  0.3051
17928TIP3    H275200   0.104   5.197  13.987 -1.7526 -1.1419 -0.9699
17929TIP3   OH275201   3.685   3.345   3.984  0.1675 -0.6501 -0.5044
17929TIP3    H175202   3.608   3.360   4.040 -0.5443 -0.4064 -1.5273
17929TIP3    H275203   3.674   3.256   3.952 -1.1395  0.2426 -2.7695
17930TIP3   OH275204   6.307   6.456   5.699 -0.1185  0.4554 -1.1645
17930TIP3    H175205   6.396   6.435   5.726  0.0202  3.8083  1.9117
17930TIP3    H275206   6.252   6.397   5.751  0.3431  1.5702  0.7023
17931TIP3   OH275207   4.807   2.778   1.030 -0.2417  0.1537 -0.0611
17931TIP3    H175208   4.828   2.871   1.039 -0.7344  0.3078 -0.4820
17931TIP3    H275209   4.811   2.761   0.936  2.3959 -0.8726  0.1550
17932TIP3   OH275210   3.133   4.252   5.290  0.5251 -0.2892  0.1759
17932TIP3    H175211   3.166   4.337   5.260  2.4272 -1.0885 -0.1747
17932TIP3    H275212   3.183   4.188   5.239 -0.4407 -1.6335  0.8573
17933TIP3   OH275213   2.125   4.698   4.065  0.2271  0.3756 -0.2508
17933TIP3    H175214   2.206   4.670   4.022 -0.4731 -0.9690 -0.7767
17933TIP3    H275215   2.151   4.722   4.153  1.0863 -0.9462 -0.1121
17934TIP3   OH275216   1.834   0.336   4.509  0.0650  0.0641  0.6087
17934TIP3    H175217   1.919   0.354   4.549 -0.5398  0.6715  1.6700
17934TIP3    H275218   1.847   0.254   4.461  0.9896 -0.3857  1.5674
17935TIP3   OH275219   6.617   1.036  14.194 -0.0974 -0.0826  0.2853
17935TIP3    H175220   6.579   0.978  14.261  1.6226  0.4759  1.8284
17935TIP3    H275221   6.545   1.092  14.168 -1.3475 -1.6848  0.1038
17936TIP3   OH275222   2.145   1.645   1.132  0.1242 -0.1587 -0.2737
17936TIP3    H175223   2.077   1.610   1.190  1.8693  0.2814  2.2133
17936TIP3    H275224   2.111   1.730   1.105 -1.0771 -0.7108 -0.5884
17937TIP3   OH275225   4.418   0.614  14.273  0.0708  0.1090  0.1206
17937TIP3    H175226   4.469   0.674  14.217 -0.6121  1.0554  0.4938
17937TIP3    H275227   4.328   0.644  14.264 -0.7486 -2.5725 -1.8433
17938TIP3   OH275228   1.772   4.490  11.559  0.0904 -0.2176 -0.2726
17938TIP3    H175229   1.751   4.410  11.510  2.2703 -1.3224  0.4438
17938TIP3    H275230   1.867   4.485  11.572 -0.1178  1.0847  2.2477
17939TIP3   OH275231   0.872   3.932   2.116  0.0443  0.0559 -1.1221
17939TIP3    H175232   0.841   4.022   2.117 -0.9543 -0.2718 -1.2276
17939TIP3    H275233   0.837   3.893   2.196 -1.1519 -0.7385 -1.9904
17940TIP3   OH275234   0.004   1.924  11.433 -1.0807 -0.1988  0.7531
17940TIP3    H175235   0.054   1.850  11.398  0.9190  1.5421 -0.3385
17940TIP3    H275236  -0.086   1.893  11.436 -0.2517 -2.9153  1.0899
17941TIP3   OH275237   6.089   5.933  12.071  0.3902  0.3089  0.0139
17941TIP3    H175238   6.162   5.958  12.014  1.4713 -1.9016  0.3167
17941TIP3    H275239   6.128   5.873  12.134 -1.5749 -0.4156  0.6035
17942TIP3   OH275240   2.766   4.219   4.016  0.3543  0.7808  0.4385
17942TIP3    H175241   2.756   4.307   4.054 -0.0953  1.5104 -1.2537
17942TIP3    H275242   2.851   4.221   3.973  1.3511 -0.4041  2.2500
17943TIP3   OH275243   1.063   5.116   0.394 -0.4480 -0.2779  0.4944
17943TIP3    H175244   1.135   5.053   0.396 -0.2208 -0.1968 -1.9943
17943TIP3    H275245   0.985   5.062   0.405 -0.2226 -1.0225 -1.1215
17944TIP3   OH275246   3.811   0.138  16.522  0.0310  0.3406 -0.8705
17944TIP3    H175247   3.901   0.113  16.543 -0.6003 -0.2061  1.3883
17944TIP3    H275248   3.820   0.212  16.462  1.9657  0.0424 -1.0078
17945TIP3   OH275249   4.749   4.705   4.665 -0.0522  0.7276  0.4062
17945TIP3    H175250   4.703   4.633   4.709 -0.0508  0.4003 -0.1244
17945TIP3    H275251   4.762   4.770   4.734  0.7300 -0.1503  1.1146
17946TIP3   OH275252   2.327   1.918  16.104 -0.6575 -0.1367  0.7005
17946TIP3    H175253   2.260   1.980  16.133  0.1736  1.1199  0.0045
17946TIP3    H275254   2.296   1.886  16.020  0.2954  1.6188 -0.3760
17947TIP3   OH275255   2.365   5.519  13.688  0.4065  0.7193  0.4551
17947TIP3    H175256   2.316   5.479  13.616 -0.3041  2.0839  0.1300
17947TIP3    H275257   2.402   5.445  13.736 -2.2090 -0.4447  0.8814
17948TIP3   OH275258   2.371   0.986   4.083  0.1017 -0.5342 -0.5180
17948TIP3    H175259   2.441   1.007   4.145 -0.3294  1.0455 -0.5144
17948TIP3    H275260   2.312   0.929   4.132 -0.7516  1.4761  0.9314
17949TIP3   OH275261   4.939   4.118  12.621 -0.8285  0.0114  0.2960
17949TIP3    H175262   4.927   4.024  12.608 -0.9788  0.0889 -0.1437
17949TIP3    H275263   4.852   4.155  12.605 -0.9080  0.1639  1.0564
17950TIP3   OH275264   0.185   6.714   3.955  0.5160  0.1014  0.9602
17950TIP3    H175265   0.092   6.714   3.934  0.2745  0.2926  2.0113
17950TIP3    H275266   0.191   6.753   4.042  1.4355 -1.2107  1.5231
17951TIP3   OH275267   6.133   2.766   4.026  0.0439 -0.1728 -0.0040
17951TIP3    H175268   6.208   2.711   4.047  0.5645  0.0803 -1.1359
17951TIP3    H275269   6.138   2.838   4.089  0.7614 -0.1480 -0.0805
17952TIP3   OH275270   4.501   0.057  15.349 -0.2659 -1.0483  0.1042
17952TIP3    H175271   4.457   0.036  15.432  1.4569 -1.8408  0.8784
17952TIP3    H275272   4.452   0.010  15.283 -0.9331 -1.4318  0.8509
17953TIP3   OH275273   1.787   6.460   6.594 -0.2619 -0.6662  0.4997
17953TIP3    H175274   1.741   6.381   6.622  1.7727 -1.2527  2.4584
17953TIP3    H275275   1.734   6.532   6.629 -2.6439 -0.9955 -2.0827
17954TIP3   OH275276   0.436   0.103   0.108 -0.4760  0.0977 -0.3131
17954TIP3    H175277   0.343   0.103   0.082 -0.5455 -2.8997 -0.4354
17954TIP3    H275278   0.434   0.112   0.203 -0.6978  2.1566 -0.4545
17955TIP3   OH275279   6.383   5.381   4.803 -0.2350  0.1417 -0.2030
17955TIP3    H175280   6.369   5.296   4.761  0.2980 -0.7171  1.2828
17955TIP3    H275281   6.347   5.370   4.891  0.9671  1.0457  0.4254
17956TIP3   OH275282   6.764   1.903   4.460 -0.0701  0.3655  0.5075
17956TIP3    H175283   6.825   1.903   4.387  0.6164 -2.3263  0.9813
17956TIP3    H275284   6.691   1.849   4.431  1.1211 -2.4878  2.3580
17957TIP3   OH275285   3.258   0.975  16.008  0.0702 -0.5824  0.2172
17957TIP3    H175286   3.278   1.018  15.924  1.0603 -0.0945  0.6831
17957TIP3    H275287   3.224   0.889  15.984 -1.4370  0.2296 -0.7343
17958TIP3   OH275288   2.453   0.523   3.346 -0.0098 -0.0037  0.2568
17958TIP3    H175289   2.411   0.438   3.332 -0.6880  0.3366  0.2175
17958TIP3    H275290   2.478   0.521   3.439 -0.5515 -0.0173  0.4073
17959TIP3   OH275291   2.721   1.809   2.734 -0.2816 -0.4582  0.3865
17959TIP3    H175292   2.762   1.832   2.817  0.4940  1.3079 -0.4295
17959TIP3    H275293   2.664   1.884   2.714 -1.2159 -1.3015 -0.1970
17960TIP3   OH275294   5.583   5.298  16.111  0.0626 -0.1516  0.1433
17960TIP3    H175295   5.591   5.242  16.188  1.6632  1.8428  1.5122
17960TIP3    H275296   5.546   5.380  16.145  0.9196  0.8105 -1.1707
17961TIP3   OH275297   4.462   0.204   1.913 -0.7554  0.8693 -0.4605
17961TIP3    H175298   4.462   0.296   1.940  0.3860  0.7359  0.0769
17961TIP3    H275299   4.544   0.193   1.864 -0.1992 -0.1482  0.6259
17962TIP3   OH275300   5.219   5.315   4.671 -0.0741 -0.1141 -0.3564
17962TIP3    H175301   5.153   5.381   4.694 -0.7492 -1.0639  0.5413
17962TIP3    H275302   5.302   5.362   4.675 -0.6309  0.9492 -0.8588
17963TIP3   OH275303   3.512   6.628   2.789  0.2804  1.2808 -0.0038
17963TIP3    H175304   3.433   6.683   2.788 -1.6357 -1.2986 -0.5235
17963TIP3    H275305   3.485   6.549   2.836  1.8054 -0.6738 -2.2308
17964TIP3   OH275306   1.021   1.992  15.821 -0.1822  0.7786 -0.0718
17964TIP3    H175307   1.115   2.004  15.807  0.4485 -2.3224  0.8509
17964TIP3    H275308   1.002   1.904  15.787 -1.9982 -0.0994  2.8184
17965TIP3   OH275309   5.041   4.216  13.984  0.5914 -0.2931 -0.0821
17965TIP3    H175310   5.083   4.270  13.917 -0.3430 -1.8623 -2.0605
17965TIP3    H275311   5.089   4.133  13.982 -0.1232 -0.7380  0.3997
17966TIP3   OH275312   0.225   0.934  12.186 -0.1617 -0.6616  0.1606
17966TIP3    H175313   0.199   0.943  12.277  0.8217  0.2980  0.3551
17966TIP3    H275314   0.315   0.903  12.189  1.0038  2.3382 -0.3999
17967TIP3   OH275315   6.751   2.880   4.238  0.0846  0.1112  0.4356
17967TIP3    H175316   6.718   2.944   4.175 -0.0098 -1.2460 -0.9627
17967TIP3    H275317   6.844   2.871   4.217  0.5576  1.1726  1.9065
17968TIP3   OH275318   4.351   0.093  14.907  0.2642  0.2111  0.4879
17968TIP3    H175319   4.435   0.132  14.934  0.2885 -0.9767  2.3508
17968TIP3    H275320   4.364  -0.001  14.921  0.0122 -0.5110 -3.2630
17969TIP3   OH275321   0.589   0.144  12.461  0.0957  0.0607 -0.5200
17969TIP3    H175322   0.607   0.233  12.432 -1.2656  0.6336  0.3148
17969TIP3    H275323   0.628   0.089  12.393 -0.9640  1.3056 -2.2364
17970TIP3   OH275324   0.991   6.205   6.104  0.2297  0.5175 -0.0362
17970TIP3    H175325   1.078   6.191   6.067  0.7336 -0.5572  1.4333
17970TIP3    H275326   0.998   6.288   6.151  1.9835 -1.5170  3.8381
17971TIP3   OH275327   2.871   0.367   2.052  0.4748 -0.3852 -0.2093
17971TIP3    H175328   2.901   0.356   2.142 -1.7894  0.9885  0.8009
17971TIP3    H275329   2.905   0.290   2.006  2.2421 -0.7850  1.6409
17972TIP3   OH275330   3.193   6.325  11.514  0.0548 -0.1343  0.2293
17972TIP3    H175331   3.113   6.366  11.548 -0.6433 -1.0745 -0.2179
17972TIP3    H275332   3.162   6.264  11.447  1.1920 -0.2160 -0.2450
17973TIP3   OH275333   2.731   2.366  16.605 -0.1490 -0.6427  0.1120
17973TIP3    H175334   2.747   2.417  16.526  2.1365 -1.8067 -0.2842
17973TIP3    H275335   2.766   2.419  16.676 -0.7994 -0.2606  0.1534
17974TIP3   OH275336   1.754   5.722  16.097 -0.1693 -0.1458 -0.4545
17974TIP3    H175337   1.728   5.736  16.006 -1.0047  0.0533 -0.1932
17974TIP3    H275338   1.687   5.767  16.149 -0.6548 -1.6761  0.3132
17975TIP3   OH275339   0.286   1.886  12.368  0.8524 -0.3050  0.5684
17975TIP3    H175340   0.196   1.857  12.351  0.4607  0.8421  0.6121
17975TIP3    H275341   0.313   1.927  12.286  1.3792 -0.7401  0.5223
17976TIP3   OH275342   1.577   5.635   0.360 -0.1222  0.1678  0.2513
17976TIP3    H175343   1.656   5.685   0.338 -0.3576  1.5035  2.1721
17976TIP3    H275344   1.505   5.689   0.329 -0.3311  0.2848  0.9198
17977TIP3   OH275345   2.126   3.606   2.425  0.5008 -0.1931 -0.1024
17977TIP3    H175346   2.094   3.520   2.397 -0.5290  0.3122 -0.4982
17977TIP3    H275347   2.209   3.616   2.378 -0.6397  0.1437 -2.1676
17978TIP3   OH275348   0.208   3.018   1.800 -0.1806 -0.0051  0.6050
17978TIP3    H175349   0.289   2.968   1.804  0.9369  1.6428 -0.1429
17978TIP3    H275350   0.140   2.956   1.825  0.9786 -2.1691 -1.2131
17979TIP3   OH275351   3.901   0.962  15.448 -0.2771 -0.1910 -0.0917
17979TIP3    H175352   3.836   0.967  15.519 -0.7097 -1.7921 -0.3283
17979TIP3    H275353   3.959   0.890  15.475  1.0764  0.8364 -0.1698
17980TIP3   OH275354   4.144   4.316  16.778  0.1318  0.0748  0.6931
17980TIP3    H175355   4.235   4.310  16.806  0.5862 -2.4306 -0.9148
17980TIP3    H275356   4.149   4.331  16.684 -1.1195  0.0283  0.6039
17981TIP3   OH275357   5.241   2.160   3.536 -0.1408  0.0294  0.2517
17981TIP3    H175358   5.280   2.145   3.449  1.0643  0.7232  0.6425
17981TIP3    H275359   5.308   2.128   3.597  0.0129  1.6167  0.9571
17982TIP3   OH275360   1.176   1.688  15.905  0.0461 -0.0306 -0.2660
17982TIP3    H175361   1.091   1.688  15.949 -0.0575 -0.9239 -0.4339
17982TIP3    H275362   1.155   1.687  15.812  0.2586  1.0988 -0.3374
17983TIP3   OH275363   2.271   0.584   6.009 -0.8528  0.0334 -0.3403
17983TIP3    H175364   2.185   0.625   6.024 -2.1120 -2.8641  1.1486
17983TIP3    H275365   2.313   0.586   6.095 -0.1225 -0.0808 -0.6887
17984TIP3   OH275366   5.135   4.140  14.258  0.2171 -0.4515 -0.1442
17984TIP3    H175367   5.137   4.175  14.168 -1.0429 -0.3616 -0.1624
17984TIP3    H275368   5.100   4.212  14.310 -1.3451 -1.2765  0.0061
17985TIP3   OH275369   4.597   4.902   0.131  0.4114  0.1559  0.2160
17985TIP3    H175370   4.562   4.831   0.185  0.5615 -0.9912 -1.1255
17985TIP3    H275371   4.654   4.858   0.067  0.1094  1.4231 -0.9826
17986TIP3   OH275372   3.483   2.874  11.908 -0.1113 -0.5482 -0.2653
17986TIP3    H175373   3.569   2.904  11.880 -0.3581 -0.5857 -1.0825
17986TIP3    H275374   3.436   2.854  11.827 -1.1517  0.1814  0.1303
17987TIP3   OH275375   1.315   2.415   4.443 -0.4130  0.6428  0.0999
17987TIP3    H175376   1.278   2.375   4.364  0.3993 -0.1252  0.0872
17987TIP3    H275377   1.407   2.388   4.442 -0.3298  0.8640  1.1593
17988TIP3   OH275378   6.191   5.923  14.797 -0.7215 -0.5502 -0.6644
17988TIP3    H175379   6.272   5.941  14.750 -0.2060  0.9226  0.6765
17988TIP3    H275380   6.219   5.883  14.879 -1.3559 -0.2119 -0.2754
17989TIP3   OH275381   1.993   5.321   4.197  0.4081  0.4437  0.1750
17989TIP3    H175382   1.930   5.355   4.261 -2.8035  0.9607 -2.9676
17989TIP3    H275383   1.966   5.230   4.183 -0.5456  0.9958 -2.0477
17990TIP3   OH275384   5.925   4.114  10.530  0.0930 -0.4261  0.2207
17990TIP3    H175385   5.971   4.141  10.451  2.4301 -1.9083  0.9617
17990TIP3    H275386   5.834   4.100  10.502  0.5755  0.3239 -1.8695
17991TIP3   OH275387   3.665   6.163  12.276 -0.4465  0.1420  0.5586
17991TIP3    H175388   3.652   6.069  12.290 -0.6868 -0.2288 -1.7199
17991TIP3    H275389   3.674   6.172  12.181 -1.7190  2.5903  0.5899
17992TIP3   OH275390   1.434   5.661  15.854 -0.1067 -0.2798 -0.1935
17992TIP3    H175391   1.400   5.659  15.944 -0.8648 -0.4646 -0.4710
17992TIP3    H275392   1.504   5.725  15.856 -0.6683  0.3383  0.3459
17993TIP3   OH275393   1.154   2.306  16.484  0.1165  0.3838 -0.5547
17993TIP3    H175394   1.205   2.230  16.453 -0.4709  0.3846 -1.5607
17993TIP3    H275395   1.111   2.339  16.406  0.2427  1.6827 -0.0926
17994TIP3   OH275396   1.863   3.377  13.764  0.1082  0.2355  0.1588
17994TIP3    H175397   1.937   3.315  13.764  1.2568  1.5465 -0.5363
17994TIP3    H275398   1.811   3.351  13.840  1.0773 -0.9707  0.4591
17995TIP3   OH275399   5.871   4.173  12.375 -0.1642  0.6022  0.0961
17995TIP3    H175400   5.844   4.082  12.361  0.1126  0.3047  1.3685
17995TIP3    H275401   5.916   4.197  12.294 -0.8882 -0.1454 -0.5464
17996TIP3   OH275402   2.847   4.157  16.167 -0.4480  0.2167 -0.2919
17996TIP3    H175403   2.790   4.213  16.113  0.2360  0.2831 -0.9561
17996TIP3    H275404   2.871   4.212  16.241 -1.0087  0.2872 -0.1579
17997TIP3   OH275405   2.316   3.415  12.763 -0.8050  0.2715 -0.2461
17997TIP3    H175406   2.268   3.462  12.831 -2.4531 -1.3089 -0.2150
17997TIP3    H275407   2.288   3.457  12.681 -1.3338  0.1372 -0.1408
17998TIP3   OH275408   6.082   0.860  12.964 -0.2750 -0.1440  0.4460
17998TIP3    H175409   6.029   0.917  12.908 -0.7279 -0.0502  0.9723
17998TIP3    H275410   6.148   0.918  13.001 -0.1533 -0.1498  0.2422
17999TIP3   OH275411   5.505   4.432  11.365  0.0923  0.3348 -0.0866
17999TIP3    H175412   5.431   4.441  11.304  0.7351 -0.8678 -1.0901
17999TIP3    H275413   5.469   4.458  11.450 -0.8893  1.8670 -0.9143
18000TIP3   OH275414   6.012   3.607   3.686 -0.1968  0.1298  0.1093
18000TIP3    H175415   6.015   3.513   3.670 -0.2237  0.0422  0.6086
18000TIP3    H275416   6.043   3.646   3.604  0.2762 -0.3258  0.0631
18001TIP3   OH275417   0.418   3.640   1.916 -0.0500  0.4831 -0.0611
18001TIP3    H175418   0.447   3.601   1.999 -0.8663  0.2005  0.0919
18001TIP3    H275419   0.326   3.662   1.930 -0.1631  0.5407 -0.8579
18002TIP3   OH275420   3.853   0.870  12.107 -0.0071 -0.1397  0.1999
18002TIP3    H175421   3.759   0.858  12.097 -0.0034 -1.7665  1.7010
18002TIP3    H275422   3.866   0.965  12.101 -1.7613  0.1263  0.2074
18003TIP3   OH275423   6.049   4.679  12.082  0.7258  0.1521 -0.1435
18003TIP3    H175424   6.040   4.774  12.087  1.0741  0.4276 -2.9080
18003TIP3    H275425   5.960   4.646  12.095 -0.1195  1.1620 -2.7493
18004TIP3   OH275426   0.150   1.909   0.375  0.6706  0.3360 -0.1545
18004TIP3    H175427   0.185   1.865   0.452 -0.4264 -1.1706 -0.4771
18004TIP3    H275428   0.201   1.989   0.368  2.4854 -0.6832  0.7044
18005TIP3   OH275429   6.594   3.224   4.634 -0.1814 -0.2844 -0.3707
18005TIP3    H175430   6.554   3.297   4.586  0.0848  1.4479  1.9201
18005TIP3    H275431   6.622   3.163   4.565 -4.0827 -0.2875 -2.2799
18006TIP3   OH275432   2.823   0.516  14.185  0.1936 -0.7692 -0.0854
18006TIP3    H175433   2.784   0.457  14.249 -0.1145 -0.5632 -0.0826
18006TIP3    H275434   2.755   0.529  14.119 -0.1518  0.4453  0.4713
18007TIP3   OH275435   0.260   3.892   2.530  0.0382  0.3429 -0.0813
18007TIP3    H175436   0.258   3.847   2.445 -0.8239 -0.4934  0.3724
18007TIP3    H275437   0.337   3.949   2.524  1.0951 -1.0959 -0.7149
18008TIP3   OH275438   5.941   6.065  13.968 -0.4022  0.3190 -0.3321
18008TIP3    H175439   6.018   6.118  13.947  0.8337 -1.7854 -1.4645
18008TIP3    H275440   5.869   6.109  13.925  0.1684  2.2029  0.5373
18009TIP3   OH275441   2.103   6.710   0.987  0.2338  0.0713 -0.4637
18009TIP3    H175442   2.167   6.781   0.984  0.2120  0.1326  0.2546
18009TIP3    H275443   2.104   6.681   1.078  0.0965 -0.7203 -0.7095
18010TIP3   OH275444   3.303   5.277   0.061 -0.3026  0.0608  0.2223
18010TIP3    H175445   3.362   5.306   0.130 -0.6798  0.4694  0.3837
18010TIP3    H275446   3.224   5.331   0.073  0.0509  0.9657 -1.2229
18011TIP3   OH275447   6.017   4.730  15.844  0.1128  0.7264 -0.4659
18011TIP3    H175448   6.055   4.679  15.772  0.0339 -0.9547  0.6221
18011TIP3    H275449   6.063   4.700  15.922  0.3451  2.6748  0.2017
18012TIP3   OH275450   4.758   2.457   5.478 -0.2963 -0.2174 -1.1914
18012TIP3    H175451   4.822   2.396   5.514 -1.4610 -1.4626 -1.1442
18012TIP3    H275452   4.809   2.534   5.454  0.8780 -0.2671  0.8898
18013TIP3   OH275453   6.103   3.970   3.566 -0.0030  0.1668 -0.9973
18013TIP3    H175454   6.098   4.062   3.540  1.2969  0.5348 -0.0843
18013TIP3    H275455   6.014   3.948   3.595 -1.0159  0.2931 -3.7032
18014TIP3   OH275456   0.952   2.754   5.070 -0.0809 -0.5890 -0.0223
18014TIP3    H175457   1.020   2.723   5.130 -0.1396  1.2972  1.1023
18014TIP3    H275458   0.884   2.687   5.076 -0.0308 -0.5285  1.9479
18015TIP3   OH275459   1.480   5.447  11.549 -0.7335 -0.1075  0.2463
18015TIP3    H175460   1.517   5.475  11.465 -0.6472  0.5465  0.4945
18015TIP3    H275461   1.387   5.465  11.542 -0.7840 -0.4064  0.1515
18016TIP3   OH275462   6.418   4.217  12.365 -0.5216 -0.4898 -0.1784
18016TIP3    H175463   6.436   4.236  12.457 -0.3789  0.2446 -0.3517
18016TIP3    H275464   6.333   4.173  12.366  0.1581 -1.8502  0.4299
18017TIP3   OH275465   1.574   4.515  15.143  0.0007 -0.8205  0.3091
18017TIP3    H175466   1.517   4.583  15.178  1.2491 -0.2108  1.2418
18017TIP3    H275467   1.547   4.435  15.187 -2.2322 -1.2370 -1.6126
18018TIP3   OH275468   2.383   2.754  12.573 -0.4895  0.1022  0.2955
18018TIP3    H175469   2.455   2.805  12.611  1.9360  0.2935 -3.8559
18018TIP3    H275470   2.414   2.663  12.575 -0.2561  0.1208 -1.0282
18019TIP3   OH275471   5.448   3.598   0.498  0.0828 -0.4800  0.4274
18019TIP3    H175472   5.401   3.651   0.563 -0.3165 -1.2920  0.8161
18019TIP3    H275473   5.467   3.516   0.544  3.3296  0.3900  0.8681
18020TIP3   OH275474   0.368   0.321  15.649 -0.6263 -0.2952  0.1039
18020TIP3    H175475   0.451   0.367  15.640 -1.8587  2.4747  1.5062
18020TIP3    H275476   0.392   0.229  15.661  2.0805  0.1355 -1.3647
18021TIP3   OH275477   2.197   4.228  13.621 -0.3166 -0.1949  0.4470
18021TIP3    H175478   2.263   4.231  13.552  0.9314  0.8288  1.6304
18021TIP3    H275479   2.183   4.135  13.637  1.6895 -0.4584  0.9229
18022TIP3   OH275480   5.265   0.850  12.247 -0.0004 -0.2139  0.5974
18022TIP3    H175481   5.355   0.827  12.224  0.0890  1.9062 -1.5650
18022TIP3    H275482   5.275   0.911  12.320  0.2140 -0.8832  1.1427
18023TIP3   OH275483   5.047   5.929   0.400  0.0765 -0.1670  0.4776
18023TIP3    H175484   5.019   6.011   0.440  0.3829  0.0625  0.2242
18023TIP3    H275485   4.968   5.875   0.398  0.0647 -0.2028  1.4321
18024TIP3   OH275486   1.843   0.380   4.152 -0.6488 -0.5528  0.3380
18024TIP3    H175487   1.776   0.396   4.218 -0.5966  0.4288  0.1745
18024TIP3    H275488   1.816   0.433   4.077 -1.0491 -2.1344 -0.6904
18025TIP3   OH275489   0.657   5.844  15.531  0.8933 -0.0139  0.3064
18025TIP3    H175490   0.718   5.904  15.489  1.5321 -0.8817 -0.0236
18025TIP3    H275491   0.652   5.769  15.471 -1.1464  0.3896 -0.1130
18026TIP3   OH275492   5.408   5.123  14.006  0.3991 -0.1311 -0.7106
18026TIP3    H175493   5.313   5.120  14.020  0.4301 -1.9313 -0.7366
18026TIP3    H275494   5.445   5.124  14.094  0.3675  1.3892 -0.6906
18027TIP3   OH275495   1.777   5.828  14.348 -0.0086 -0.3155 -0.6463
18027TIP3    H175496   1.791   5.758  14.412  0.1061  0.0013 -0.3230
18027TIP3    H275497   1.843   5.893  14.368 -2.5555  1.7795  1.6997
18028TIP3   OH275498   3.323   6.160  12.281 -0.1610 -0.2716  0.0854
18028TIP3    H175499   3.363   6.160  12.194  1.5408 -0.3221  0.8297
18028TIP3    H275500   3.345   6.074  12.318 -0.6406 -0.1465  0.6820
18029TIP3   OH275501   6.724   4.206  14.856  0.4239  0.5576 -0.4075
18029TIP3    H175502   6.725   4.242  14.767  0.8644  0.3117 -0.5059
18029TIP3    H275503   6.663   4.132  14.850 -0.6133  1.3720 -0.1631
18030TIP3   OH275504   0.693   6.546  13.780  0.3419  0.2419 -0.5443
18030TIP3    H175505   0.742   6.620  13.745  0.9061  0.5594  0.8502
18030TIP3    H275506   0.603   6.577  13.786  0.8858  1.5358  1.8332
18031TIP3   OH275507   3.215   6.532   0.314  0.4120  0.1671 -0.1210
18031TIP3    H175508   3.280   6.491   0.257  0.1152 -0.1696 -0.2155
18031TIP3    H275509   3.132   6.520   0.269 -0.0714 -1.5923  1.1637
18032TIP3   OH275510   5.855   5.815  15.645 -0.3284  0.0183  0.2698
18032TIP3    H175511   5.860   5.889  15.705 -0.1419  0.1424  0.1006
18032TIP3    H275512   5.909   5.840  15.570 -1.5804  0.4147 -0.5336
18033TIP3   OH275513   3.745   6.069  12.665  0.3015  0.0256  0.1319
18033TIP3    H175514   3.682   6.138  12.646 -0.0615 -0.2628  0.2854
18033TIP3    H275515   3.819   6.088  12.607  0.4122  0.8160  0.5125
18034TIP3   OH275516   6.550   4.035  12.718  0.2192 -0.1417  0.3466
18034TIP3    H175517   6.481   3.977  12.688 -0.0920 -0.2981  1.3352
18034TIP3    H275518   6.529   4.120  12.679  0.2397 -0.5007 -0.4596
18035TIP3   OH275519   5.164   0.978  15.589  0.4701  0.6191  0.6848
18035TIP3    H175520   5.134   1.010  15.675 -1.7352  1.4052 -0.2921
18035TIP3    H275521   5.178   1.057  15.538 -0.7314  0.1577 -0.4166
18036TIP3   OH275522   0.413   1.473   3.473 -0.0456 -0.0807  0.0568
18036TIP3    H175523   0.355   1.418   3.525 -1.2694  0.1099 -1.0636
18036TIP3    H275524   0.455   1.412   3.412 -1.5798  0.2019 -1.3453
18037TIP3   OH275525   3.469   3.709   4.304  0.0338 -0.2498  0.0083
18037TIP3    H175526   3.415   3.788   4.303 -0.9599 -0.8234 -2.9224
18037TIP3    H275527   3.518   3.714   4.386  0.6091  3.7863 -0.3834
18038TIP3   OH275528   6.124   3.291   2.308  0.0653  0.2168  0.2483
18038TIP3    H175529   6.039   3.303   2.351  0.0077 -1.6733  0.7421
18038TIP3    H275530   6.104   3.243   2.227  0.6591 -0.3054  0.4018
18039TIP3   OH275531   5.480   4.423  15.968  0.1251  0.3217  0.4271
18039TIP3    H175532   5.467   4.483  15.894  0.5295 -2.4548 -2.1250
18039TIP3    H275533   5.574   4.429  15.986  0.1319  0.5906  0.3157
18040TIP3   OH275534   1.053   2.803   3.280 -0.4771  0.0144 -0.8755
18040TIP3    H175535   1.058   2.897   3.265 -0.5973  0.0745 -0.5488
18040TIP3    H275536   1.066   2.764   3.194 -0.6512  0.3360 -1.0496
18041TIP3   OH275537   3.589   5.168   2.695 -0.2142  0.0369  0.4129
18041TIP3    H175538   3.572   5.115   2.773 -0.2841  0.4895  0.7044
18041TIP3    H275539   3.574   5.108   2.622  0.4011 -0.5514  0.7574
18042TIP3   OH275540   0.794   4.090  13.434  0.7556 -0.1485 -0.3235
18042TIP3    H175541   0.755   4.130  13.513  2.3465  2.9665 -0.9780
18042TIP3    H275542   0.879   4.058  13.463  0.7502 -0.3069 -0.4824
18043TIP3   OH275543   3.417   2.484  16.686  0.2520 -0.2027  0.1842
18043TIP3    H175544   3.506   2.487  16.722  0.8381  0.5970 -1.2687
18043TIP3    H275545   3.421   2.539  16.608 -1.6196  0.1272  0.2836
18044TIP3   OH275546   0.269   4.215   3.014 -0.0015 -0.2085 -0.0269
18044TIP3    H175547   0.258   4.280   2.944  1.8016 -0.7730 -0.8785
18044TIP3    H275548   0.239   4.261   3.093 -0.3514  1.0754 -0.8610
18045TIP3   OH275549   0.179   4.086   0.361 -0.3618  0.0509 -0.3582
18045TIP3    H175550   0.099   4.038   0.380  0.1726  0.1420  2.5081
18045TIP3    H275551   0.153   4.178   0.363 -0.1322  0.0973  1.0156
18046TIP3   OH275552   1.071   6.654   6.401  0.2056 -0.7780  0.3396
18046TIP3    H175553   1.139   6.654   6.469  0.1096  1.2397  0.4817
18046TIP3    H275554   1.003   6.712   6.435 -0.7289 -1.2489 -0.6607
18047TIP3   OH275555   0.366   4.577   1.402 -0.2911  0.0230 -0.1012
18047TIP3    H175556   0.393   4.496   1.445  1.3617 -0.4914 -1.9162
18047TIP3    H275557   0.369   4.555   1.308  1.9221  2.6221 -0.7456
18048TIP3   OH275558   6.492   4.140   1.826  0.0988 -0.3786 -0.7002
18048TIP3    H175559   6.577   4.107   1.856 -1.2211  0.8583  5.7290
18048TIP3    H275560   6.442   4.061   1.804  1.0233 -1.7400  1.6996
18049TIP3   OH275561   4.557   3.127   0.747 -0.6703  0.1967 -0.2095
18049TIP3    H175562   4.507   3.159   0.671 -0.9160 -0.4468 -0.3223
18049TIP3    H275563   4.588   3.041   0.721  1.6876  1.1285 -0.6566
18050TIP3   OH275564   2.674   5.333  13.239 -0.0676  0.1934  0.4401
18050TIP3    H175565   2.687   5.258  13.181  0.1248  1.1190 -0.7601
18050TIP3    H275566   2.579   5.349  13.237  0.0000  0.5801 -0.1176
18051TIP3   OH275567   1.662   0.963  12.345  0.4301  0.1802  0.1671
18051TIP3    H175568   1.717   0.891  12.313  0.5499 -0.2195  1.2262
18051TIP3    H275569   1.646   1.017  12.268  0.8516 -0.6505 -0.5210
18052TIP3   OH275570   5.579   5.870  11.110  0.6597  0.2347 -0.1032
18052TIP3    H175571   5.499   5.879  11.059  1.7655  2.0966 -1.6369
18052TIP3    H275572   5.642   5.830  11.049  1.4813  0.7728  0.3657
18053TIP3   OH275573   4.851   3.659   4.926 -0.3937 -0.0667 -0.0726
18053TIP3    H175574   4.875   3.574   4.889 -0.4703  0.0923 -0.4847
18053TIP3    H275575   4.802   3.637   5.005 -1.3300 -0.4139 -0.7366
18054TIP3   OH275576   4.227   6.435   4.516  0.0746 -0.0936  0.3938
18054TIP3    H175577   4.212   6.438   4.422  0.8598 -0.9311  0.2277
18054TIP3    H275578   4.199   6.521   4.548 -3.7889 -0.9924 -0.0239
18055TIP3   OH275579   5.765   6.166   2.625  0.1644 -0.1450 -0.2967
18055TIP3    H175580   5.708   6.239   2.651  2.7695  1.2521  2.0803
18055TIP3    H275581   5.708   6.107   2.577 -2.9737  1.6753  0.8759
18056TIP3   OH275582   5.473   1.893  13.623  0.5100 -0.2344  0.4110
18056TIP3    H175583   5.394   1.839  13.620  0.0985  0.3038  1.2742
18056TIP3    H275584   5.449   1.969  13.676  2.1072 -0.8961  2.2024
18057TIP3   OH275585   3.122   2.199  16.166 -0.0320 -0.4022  0.0169
18057TIP3    H175586   3.047   2.257  16.151  0.4603  0.1489 -0.3315
18057TIP3    H275587   3.199   2.254  16.150  0.4663 -0.7178  1.2459
18058TIP3   OH275588   4.810   3.518   0.351  0.0727  0.1482  0.0684
18058TIP3    H175589   4.868   3.448   0.379  0.1023  0.0372 -0.2663
18058TIP3    H275590   4.747   3.528   0.422  0.3972  0.1513  0.3545
18059TIP3   OH275591   4.374   5.788  16.766 -0.6481 -0.9480  0.3347
18059TIP3    H175592   4.289   5.769  16.805 -0.8946  1.6836  1.3109
18059TIP3    H275593   4.421   5.838  16.833  0.6689 -0.1953 -1.0765
18060TIP3   OH275594   3.256   5.053   4.903 -0.2988  0.9084 -0.4361
18060TIP3    H175595   3.328   5.072   4.962 -1.1959  0.4108  0.8541
18060TIP3    H275596   3.182   5.102   4.939 -1.1780 -0.3950 -0.3850
18061TIP3   OH275597   3.128   1.125   5.598  0.1992  0.2874  0.3089
18061TIP3    H175598   3.061   1.174   5.645  1.1110  1.6938  0.2045
18061TIP3    H275599   3.201   1.187   5.588  0.3992 -0.2285 -2.1531
18062TIP3   OH275600   5.551   2.488  15.309  0.0596  0.3654  0.2036
18062TIP3    H175601   5.492   2.561  15.287  1.6701  1.1065 -2.0739
18062TIP3    H275602   5.521   2.415  15.255  0.7270  0.5332 -0.4210
18063TIP3   OH275603   1.788   2.642   4.620  0.3699  0.4407  0.1769
18063TIP3    H175604   1.727   2.616   4.690  0.0918 -0.7576 -0.4890
18063TIP3    H275605   1.867   2.670   4.667 -0.0139  0.2016  0.9882
18064TIP3   OH275606   0.717   4.891   2.025  0.2381  0.1412  0.1603
18064TIP3    H175607   0.708   4.882   1.930 -1.6576  0.2547  0.2935
18064TIP3    H275608   0.770   4.815   2.051  0.6666  0.0338 -0.9497
18065TIP3   OH275609   6.236   0.379  16.430  0.4697  0.4265 -0.0488
18065TIP3    H175610   6.150   0.391  16.388 -0.4917 -1.0594  1.3480
18065TIP3    H275611   6.250   0.461  16.479 -1.4631 -0.2330  1.8052
18066TIP3   OH275612   4.904   4.596   4.452 -0.4127  0.1622 -0.2797
18066TIP3    H175613   4.990   4.588   4.491 -0.7516 -0.2613  0.4042
18066TIP3    H275614   4.850   4.636   4.520 -1.1645 -1.1762 -0.0348
18067TIP3   OH275615   6.441   2.456  11.699  0.5852  0.1953  0.2346
18067TIP3    H175616   6.385   2.403  11.642  0.2349  2.1132 -1.3142
18067TIP3    H275617   6.379   2.505  11.754  0.6669  2.0743 -1.2523
18068TIP3   OH275618   4.432   6.679   1.211 -0.5547  0.6341  0.1636
18068TIP3    H175619   4.405   6.728   1.288 -0.2609  0.8165  0.1535
18068TIP3    H275620   4.352   6.637   1.179 -0.6017  0.2201  0.8055
18069TIP3   OH275621   3.823   6.303  10.451 -0.1256  0.8144  0.5121
18069TIP3    H175622   3.866   6.238  10.395 -2.0524  0.3773 -0.5529
18069TIP3    H275623   3.816   6.261  10.536 -1.2674 -0.3962 -0.1391
18070TIP3   OH275624   4.661   3.333  11.858 -0.7677  0.4473 -0.2404
18070TIP3    H175625   4.626   3.246  11.839  2.1780 -0.8342 -0.2658
18070TIP3    H275626   4.711   3.322  11.939  2.0806  1.2891 -1.7405
18071TIP3   OH275627   1.258   5.029  13.706 -0.8142  0.0476  0.1121
18071TIP3    H175628   1.205   4.958  13.669  0.6368 -1.1782  0.2950
18071TIP3    H275629   1.286   5.080  13.631 -1.6662  0.3034 -0.0430
18072TIP3   OH275630   5.510   6.098  13.140 -0.0843 -0.1041 -0.0976
18072TIP3    H175631   5.570   6.025  13.155  0.2335  0.2733  0.5281
18072TIP3    H275632   5.566   6.173  13.122 -0.3772  0.1557  0.0456
18073TIP3   OH275633   4.652   0.021   1.152 -0.2922  1.2330  0.2931
18073TIP3    H175634   4.623   0.069   1.075 -0.5672  1.9242  0.8120
18073TIP3    H275635   4.586  -0.046   1.166  1.3617 -1.0465 -1.9285
18074TIP3   OH275636   6.427   3.209   4.320 -0.5239  0.1071  0.6410
18074TIP3    H175637   6.461   3.270   4.385  0.3355  0.3445 -0.0243
18074TIP3    H275638   6.489   3.212   4.247 -0.9405 -0.8900  0.2122
18075TIP3   OH275639   6.479   4.712   1.273  1.0235  0.3649 -0.3314
18075TIP3    H175640   6.431   4.787   1.238  1.3738  1.2591  1.0629
18075TIP3    H275641   6.509   4.665   1.195 -1.2806  0.2710 -1.2569
18076TIP3   OH275642   1.073   0.568  15.335  0.0912  0.1558 -0.1110
18076TIP3    H175643   1.153   0.552  15.285 -1.1390 -0.9258 -1.8549
18076TIP3    H275644   1.058   0.662  15.326  0.4759  0.1491 -0.8890
18077TIP3   OH275645   4.212   4.550  13.034  0.6219  0.6663 -0.3303
18077TIP3    H175646   4.307   4.549  13.031  0.6667  0.7387  0.6774
18077TIP3    H275647   4.190   4.540  13.127 -0.3668 -0.0433 -0.6213
18078TIP3   OH275648   2.119   2.788  15.214 -0.0306 -0.0366 -0.3712
18078TIP3    H175649   2.093   2.700  15.242 -1.8725  0.8821  1.0673
18078TIP3    H275650   2.203   2.803  15.255  2.0740 -2.3075 -3.3789
18079TIP3   OH275651   2.222   1.607   4.400  0.3225 -0.8770  0.4027
18079TIP3    H175652   2.197   1.692   4.364 -1.3036 -1.1938  0.7290
18079TIP3    H275653   2.180   1.543   4.343 -1.6920 -1.3970  2.3405
18080TIP3   OH275654   4.387   4.763  14.417  0.1617 -0.1956 -0.1031
18080TIP3    H175655   4.464   4.800  14.372 -0.7199 -0.0892 -1.6011
18080TIP3    H275656   4.313   4.791  14.363 -1.2212  1.7077  2.5936
18081TIP3   OH275657   5.952   4.054  15.767  0.4374 -0.2729 -0.3234
18081TIP3    H175658   5.983   4.089  15.850  1.0715  1.8870 -1.4144
18081TIP3    H275659   5.878   4.109  15.744  0.6320 -0.4713 -1.4801
18082TIP3   OH275660   4.511   2.435  17.181 -0.2528  0.2801 -0.5049
18082TIP3    H175661   4.506   2.518  17.228 -0.7516  0.6848 -1.2429
18082TIP3    H275662   4.425   2.395  17.193 -0.6347  0.7191 -1.6363
18083TIP3   OH275663   3.728   6.755  12.507 -0.0390 -0.2545 -0.1860
18083TIP3    H175664   3.704   6.791  12.421  0.3310  0.2077 -0.0996
18083TIP3    H275665   3.763   6.830  12.555 -0.6916 -0.4003  0.5403
18084TIP3   OH275666   0.784   3.486  16.370 -0.0606 -0.1578  0.6304
18084TIP3    H175667   0.750   3.398  16.357  0.4090 -0.5933  2.1629
18084TIP3    H275668   0.709   3.535  16.405 -0.1444 -0.1218  0.3989
18085TIP3   OH275669   3.399   0.463  15.109 -0.0032 -0.7037  0.3535
18085TIP3    H175670   3.391   0.368  15.118  1.1162 -0.7887  0.5561
18085TIP3    H275671   3.444   0.491  15.188 -0.8802  0.0855  0.5846
18086TIP3   OH275672   2.841   3.017  14.872 -0.1341  0.1976 -0.4975
18086TIP3    H175673   2.799   2.995  14.955 -1.7984 -1.5181 -1.7053
18086TIP3    H275674   2.874   2.933  14.840  0.2721  0.7940 -1.6835
18087TIP3   OH275675   6.050   1.522  15.382  0.3703  0.2987  0.0737
18087TIP3    H175676   6.010   1.489  15.462  0.2671  1.2359  0.4142
18087TIP3    H275677   6.041   1.617  15.387  0.4094  0.3797 -1.0272
18088TIP3   OH275678   2.790   4.574   0.965 -0.2620  0.5876 -0.2484
18088TIP3    H175679   2.769   4.502   1.025  2.3279 -0.3593 -0.3682
18088TIP3    H275680   2.705   4.598   0.926 -1.2864 -2.0631  0.1480
18089TIP3   OH275681   0.632   5.969  10.490 -0.7104 -0.1893 -0.3583
18089TIP3    H175682   0.576   6.011  10.555 -0.4145  2.2226 -1.5467
18089TIP3    H275683   0.617   6.019  10.410  2.4299 -0.0375 -0.9655
18090TIP3   OH275684   4.738   5.847   5.618 -0.7698 -0.0625 -0.2649
18090TIP3    H175685   4.661   5.805   5.655  0.2874 -1.6894  0.1888
18090TIP3    H275686   4.807   5.831   5.682  0.2043  0.4198 -1.1709
18091TIP3   OH275687   1.089   0.874   2.252  0.0214 -0.0247 -0.3317
18091TIP3    H175688   1.175   0.894   2.214 -0.5607 -1.0110 -2.2699
18091TIP3    H275689   1.073   0.945   2.313  1.8638  0.6125 -0.5294
18092TIP3   OH275690   1.645   3.735  15.866 -0.2385  0.6199  0.3205
18092TIP3    H175691   1.701   3.803  15.903 -1.4684  1.8546 -0.0181
18092TIP3    H275692   1.602   3.695  15.942  0.5576  0.1215  0.5263
18093TIP3   OH275693   4.013   0.560   6.308  0.6715 -0.4554 -0.7907
18093TIP3    H175694   4.065   0.617   6.365 -0.4670 -1.6993  1.6739
18093TIP3    H275695   3.941   0.531   6.363 -1.6209 -0.3051 -3.5009
18094TIP3   OH275696   4.954   3.266   1.490 -0.3037  0.0182 -0.1653
18094TIP3    H175697   4.875   3.233   1.534  0.0163  0.2603  0.5896
18094TIP3    H275698   4.921   3.299   1.406 -0.6946 -1.9042 -0.8400
18095TIP3   OH275699   3.231   5.083   3.379 -0.5166 -0.1152  0.7775
18095TIP3    H175700   3.289   5.009   3.396 -0.3987 -0.4650 -0.9539
18095TIP3    H275701   3.277   5.134   3.312 -0.4237  1.7531  2.1944
18096TIP3   OH275702   4.481   4.148   2.375  0.0291  0.0045 -0.4265
18096TIP3    H175703   4.463   4.227   2.425  0.0237  0.3585 -0.9781
18096TIP3    H275704   4.399   4.098   2.377 -0.2054  0.3712 -0.7133
18097TIP3   OH275705   4.080   3.165  15.136 -1.3536  0.2557  0.0832
18097TIP3    H175706   4.001   3.167  15.083 -0.6834 -0.8014 -1.0063
18097TIP3    H275707   4.145   3.121  15.081 -0.5817 -0.7498  1.7024
18098TIP3   OH275708   5.276   1.098   1.893  0.2029  0.2092 -0.5605
18098TIP3    H175709   5.367   1.094   1.865  0.2172  0.3298 -0.5358
18098TIP3    H275710   5.236   1.018   1.860  0.5502 -0.3165  0.2510
18099TIP3   OH275711   5.892   6.286   1.671 -0.2540 -1.1945  0.4448
18099TIP3    H175712   5.865   6.355   1.732  1.2031  0.3924 -0.6129
18099TIP3    H275713   5.810   6.248   1.640 -1.1687  0.6878  0.4057
18100TIP3   OH275714   3.368   6.672  16.888  0.1762  0.4266 -0.3250
18100TIP3    H175715   3.355   6.767  16.878  3.8709  1.1849  0.6817
18100TIP3    H275716   3.385   6.641  16.799  3.1583  1.6061 -0.2773
18101TIP3   OH275717   5.462   1.537  17.118  0.5146 -0.3110  0.5480
18101TIP3    H175718   5.513   1.618  17.109 -1.3189  0.8800  0.3806
18101TIP3    H275719   5.373   1.566  17.139  0.0799 -2.3489  1.8234
18102TIP3   OH275720   4.460   3.017   5.933  0.4605  0.5782 -0.2290
18102TIP3    H175721   4.519   3.088   5.959 -0.3049  2.2254 -2.7035
18102TIP3    H275722   4.388   3.060   5.888 -1.1047 -1.6433 -0.0144
18103TIP3   OH275723   2.205   3.605  13.548 -0.4344 -0.3609  0.0363
18103TIP3    H175724   2.254   3.530  13.515  1.4928  0.8191  0.0871
18103TIP3    H275725   2.174   3.650  13.469  2.6017  1.4289 -0.3121
18104TIP3   OH275726   5.444   2.355   5.276 -0.4534 -0.8868  0.4676
18104TIP3    H175727   5.384   2.280   5.281 -0.1224 -1.2609 -0.8364
18104TIP3    H275728   5.485   2.347   5.190 -1.1032  1.3470 -0.1011
18105TIP3   OH275729   0.021   1.137  16.722  0.1308  0.0832  0.1024
18105TIP3    H175730   0.024   1.232  16.732  0.7758 -0.0857  1.6559
18105TIP3    H275731  -0.033   1.123  16.644 -0.8254  1.6810  0.4416
18106TIP3   OH275732   4.147   6.463  15.660 -0.0794  0.1343  0.5968
18106TIP3    H175733   4.074   6.514  15.695 -0.9593 -1.1345  0.6797
18106TIP3    H275734   4.191   6.428  15.737 -1.7130 -2.2381  0.5825
18107TIP3   OH275735   0.360   5.140   6.318  0.0320  0.1085 -0.3537
18107TIP3    H175736   0.351   5.064   6.260  0.6947  0.8407 -1.4264
18107TIP3    H275737   0.272   5.178   6.321 -0.5725 -1.2724  1.0421
18108TIP3   OH275738   2.974   0.453   5.334 -0.1824 -0.2186  0.1098
18108TIP3    H175739   2.961   0.419   5.423  0.0692 -0.7735 -0.0630
18108TIP3    H275740   2.918   0.531   5.330 -2.3120 -1.6764 -0.1197
18109TIP3   OH275741   1.879   5.576  15.525  0.0904 -0.7368  0.1864
18109TIP3    H175742   1.807   5.633  15.497 -0.7484 -2.8085 -2.4127
18109TIP3    H275743   1.841   5.488  15.522  2.4684 -1.8248 -0.4226
18110TIP3   OH275744   4.063   6.780   3.200 -0.1060 -0.0775  0.1086
18110TIP3    H175745   4.070   6.876   3.194 -1.7605  0.0338 -0.7029
18110TIP3    H275746   3.985   6.759   3.150  0.1918 -1.8732  0.3338
18111TIP3   OH275747   4.711   2.402  13.597 -0.1241  0.7113  0.4778
18111TIP3    H175748   4.683   2.491  13.619 -0.1405  0.5765  1.0309
18111TIP3    H275749   4.679   2.349  13.671  1.2391  0.4945  0.9307
18112TIP3   OH275750   5.177   1.728   5.517 -0.0397  0.4078  0.4191
18112TIP3    H175751   5.269   1.740   5.541  0.0759 -1.5049  1.1707
18112TIP3    H275752   5.132   1.723   5.601 -0.6415  0.1463  0.0821
18113TIP3   OH275753   2.986   1.849  14.780  0.1679 -0.9951 -0.5551
18113TIP3    H175754   2.951   1.766  14.811 -0.9814 -0.0515  0.8283
18113TIP3    H275755   3.071   1.858  14.823  0.9119 -2.0252 -1.7471
18114TIP3   OH275756   5.395   2.527  12.001  0.2706 -0.1804 -0.4063
18114TIP3    H175757   5.336   2.475  11.946  1.1520 -1.1103 -0.4975
18114TIP3    H275758   5.465   2.467  12.024  0.1644  0.3359  1.3578
18115TIP3   OH275759   0.134   0.530  14.057 -0.3311 -0.1876  0.1317
18115TIP3    H175760   0.070   0.597  14.080 -2.2151 -1.2743 -1.6261
18115TIP3    H275761   0.117   0.458  14.118 -1.2281 -0.7123 -0.7204
18116TIP3   OH275762   1.022   2.314  13.587  0.6629  0.4173 -0.4022
18116TIP3    H175763   1.077   2.387  13.612 -1.3690  1.1072  2.6562
18116TIP3    H275764   0.944   2.355  13.548  0.1692 -0.1858 -0.0702
18117TIP3   OH275765   2.324   0.896   4.662 -0.0207  0.4195 -0.1259
18117TIP3    H175766   2.313   0.840   4.586 -1.0519  1.7983 -1.0481
18117TIP3    H275767   2.412   0.876   4.695  0.6482  0.1474 -1.9831
18118TIP3   OH275768   4.997   4.388   5.581 -0.0342 -0.4478  0.3427
18118TIP3    H175769   4.922   4.333   5.561 -0.0255  0.0122 -1.1042
18118TIP3    H275770   5.013   4.437   5.500  1.2924  0.0872  0.8937
18119TIP3   OH275771   5.219   1.827   3.518  0.0084  0.0887 -0.4136
18119TIP3    H175772   5.141   1.880   3.501 -1.0228 -1.2866 -0.1721
18119TIP3    H275773   5.193   1.738   3.495  1.3735 -0.4734  0.0933
18120TIP3   OH275774   4.053   4.633   0.184 -0.5870 -0.2453  0.1374
18120TIP3    H175775   4.003   4.709   0.214  0.3784  0.0742  1.0103
18120TIP3    H275776   4.051   4.572   0.258  0.5380 -0.0960  0.3122
18121TIP3   OH275777   3.047   4.567   2.229 -0.8490  0.5029  0.0446
18121TIP3    H175778   3.057   4.552   2.135  0.7769 -3.0537  0.6482
18121TIP3    H275779   3.123   4.619   2.254 -0.3701  0.0042 -0.3583
18122TIP3   OH275780   3.578   3.656   2.209  0.3892 -0.2459 -0.0370
18122TIP3    H175781   3.604   3.690   2.124  2.4524 -0.1870  0.5537
18122TIP3    H275782   3.503   3.709   2.235 -0.0275 -0.0173 -1.6377
18123TIP3   OH275783   2.644   5.027   5.938 -0.4986  0.2725  0.2490
18123TIP3    H175784   2.556   5.063   5.928 -0.4759  0.3453  0.3097
18123TIP3    H275785   2.638   4.968   6.014 -0.8044 -0.7020 -0.5109
18124TIP3   OH275786   2.062   5.228  16.282 -0.4452  0.0161 -0.1143
18124TIP3    H175787   2.026   5.146  16.248  1.7545  0.0180 -2.8461
18124TIP3    H275788   1.985   5.283  16.299 -1.9281 -2.2636  0.9415
18125TIP3   OH275789   0.624   5.351   0.687  0.5050  0.1347 -0.5800
18125TIP3    H175790   0.698   5.298   0.717 -1.3709 -2.1638  0.2819
18125TIP3    H275791   0.608   5.322   0.597 -0.0028 -0.1344 -0.4029
18126TIP3   OH275792   3.858   5.755  15.650  0.1547 -0.3910  0.0124
18126TIP3    H175793   3.815   5.806  15.581  0.5876  0.0510  0.0602
18126TIP3    H275794   3.906   5.821  15.701 -1.4327 -0.4577  1.7125
18127TIP3   OH275795   1.766   5.482  14.989  0.1035 -0.0201 -0.1877
18127TIP3    H175796   1.859   5.475  14.968  0.5401  1.5100  1.0551
18127TIP3    H275797   1.760   5.461  15.083 -0.6728  0.6660 -0.0639
18128TIP3   OH275798   4.493   6.733   4.769  0.9314  0.2582  0.2272
18128TIP3    H175799   4.555   6.796   4.806  0.0352  0.5973  1.2236
18128TIP3    H275800   4.492   6.660   4.831 -0.7671  0.9386  1.0947
18129TIP3   OH275801   4.911   4.282  14.399 -0.0919 -0.0767  0.7053
18129TIP3    H175802   4.846   4.349  14.379  0.1460  0.0012  0.1993
18129TIP3    H275803   4.864   4.200  14.388  0.4501 -0.1130 -1.7887
18130TIP3   OH275804   1.744   1.435  16.524 -0.1105  0.3775 -0.6390
18130TIP3    H175805   1.700   1.422  16.440  0.7923  0.0646 -1.0744
18130TIP3    H275806   1.703   1.514  16.560 -1.2109 -0.0587 -0.8923
18131TIP3   OH275807   4.686   1.427  11.414 -0.1779 -0.0723 -0.3139
18131TIP3    H175808   4.605   1.429  11.363  0.0167 -1.3380 -0.7172
18131TIP3    H275809   4.659   1.444  11.504 -0.9529 -0.8357 -0.3909
18132TIP3   OH275810   0.353   0.829  14.867 -0.4148  0.4015 -0.1814
18132TIP3    H175811   0.331   0.888  14.939 -1.6310 -0.8312  0.5042
18132TIP3    H275812   0.337   0.880  14.788 -0.8438  1.1917  0.4052
18133TIP3   OH275813   3.071   1.576  12.215 -0.1341 -0.2217  0.1947
18133TIP3    H175814   3.056   1.532  12.299 -2.7789  1.6099  0.8399
18133TIP3    H275815   3.036   1.516  12.150 -1.1817 -0.2789  0.7826
18134TIP3   OH275816   4.065   2.222   5.372  0.2512 -0.6330  0.0403
18134TIP3    H175817   4.079   2.144   5.318 -1.8125 -2.6672  2.1923
18134TIP3    H275818   3.980   2.255   5.344 -0.1678 -0.8527  1.0365
18135TIP3   OH275819   2.894   4.958   4.430  0.3169  0.2079  0.1985
18135TIP3    H175820   2.914   5.044   4.467  0.7959 -0.4547  1.5395
18135TIP3    H275821   2.977   4.911   4.434  0.1132 -0.2443 -0.7516
18136TIP3   OH275822   4.237   5.408   2.442 -0.6779  0.4585  0.1660
18136TIP3    H175823   4.267   5.346   2.508 -1.3682 -1.0107 -0.8275
18136TIP3    H275824   4.143   5.391   2.435 -0.7847  1.2556 -0.5044
18137TIP3   OH275825   2.195   4.987  15.933  0.6887 -0.9631  0.3209
18137TIP3    H175826   2.216   4.944  16.016  0.6910 -0.0874  0.7890
18137TIP3    H275827   2.111   4.948  15.907 -0.0659 -0.2234  1.4961
18138TIP3   OH275828   3.421   4.321  13.737  0.1030  0.0365  0.1951
18138TIP3    H175829   3.469   4.337  13.656 -1.0032  1.6249 -0.1925
18138TIP3    H275830   3.486   4.283  13.797  0.7521 -1.9668 -1.6464
18139TIP3   OH275831   6.607   2.528   2.591  0.0952 -0.5758  0.0804
18139TIP3    H175832   6.673   2.462   2.611  1.7256  0.7789 -0.5290
18139TIP3    H275833   6.609   2.537   2.495  0.2463  0.6389  0.1718
18140TIP3   OH275834   2.013   4.054  11.221 -0.0523  0.0215 -0.4959
18140TIP3    H175835   2.018   4.105  11.141  0.8964 -0.0422 -0.4840
18140TIP3    H275836   1.919   4.040  11.235 -0.2247  0.0323 -1.5851
18141TIP3   OH275837   0.003   4.125  13.915 -0.0970  0.0655 -0.1356
18141TIP3    H175838   0.043   4.038  13.917 -0.7468 -0.2249  0.6403
18141TIP3    H275839   0.013   4.153  13.824 -0.1664 -0.9513 -0.4733
18142TIP3   OH275840   4.007   0.791  10.598  0.3161 -0.3676  0.3225
18142TIP3    H175841   4.057   0.860  10.553 -0.7523  0.6926  0.6987
18142TIP3    H275842   4.054   0.710  10.578  0.8878  0.3031 -1.2059
18143TIP3   OH275843   1.713   3.418   0.065  0.6669 -0.0142 -0.3247
18143TIP3    H175844   1.684   3.400   0.154  0.3831  0.3284 -0.3483
18143TIP3    H275845   1.632   3.431   0.015  0.8120 -0.4568 -0.6894
18144TIP3   OH275846   5.232   5.916  12.005 -0.3676  0.1295  0.3801
18144TIP3    H175847   5.320   5.879  12.002 -0.3640  0.2229 -1.2568
18144TIP3    H275848   5.241   6.004  11.969 -1.1309  0.1637  0.2576
18145TIP3   OH275849   6.271   5.080  15.947  0.1882 -0.3280  0.3056
18145TIP3    H175850   6.327   5.091  16.024 -0.9627  0.0931  1.1189
18145TIP3    H275851   6.312   5.009  15.897  1.3746 -0.0977  0.9093
18146TIP3   OH275852   4.085   3.378  15.644 -0.1388  0.2852  0.1738
18146TIP3    H175853   4.055   3.422  15.565  0.0556 -0.1793 -0.1629
18146TIP3    H275854   4.049   3.289  15.637  0.4559  0.0327  0.2700
18147TIP3   OH275855   6.414   0.456  11.985  0.0700  0.0623  0.1742
18147TIP3    H175856   6.371   0.489  11.906  0.3988 -0.1451 -0.0974
18147TIP3    H275857   6.378   0.508  12.056  0.1114  0.5673 -0.1717
18148TIP3   OH275858   2.723   0.243   5.952 -0.0411  0.7655 -0.9250
18148TIP3    H175859   2.632   0.232   5.978  0.3752  0.8865  0.6713
18148TIP3    H275860   2.755   0.154   5.939 -0.3531  0.7204 -1.4203
18149TIP3   OH275861   3.179   6.416   2.545 -0.0678  0.4088  0.5275
18149TIP3    H175862   3.097   6.408   2.593 -0.1628 -0.7954  0.1977
18149TIP3    H275863   3.154   6.411   2.453  0.3175  0.6642  0.4052
18150TIP3   OH275864   3.796   2.942   1.416 -0.1799  0.2233  0.0658
18150TIP3    H175865   3.757   2.980   1.495  0.6993  1.1958  0.0574
18150TIP3    H275866   3.780   3.007   1.347 -0.1859 -0.2212 -0.3527
18151TIP3   OH275867   3.034   4.708   6.251  0.4952 -0.3779  0.0603
18151TIP3    H175868   2.948   4.666   6.248  0.4597 -0.2675 -0.5023
18151TIP3    H275869   3.015   4.802   6.250  0.6221 -0.3536 -0.1636
18152TIP3   OH275870   3.880   4.214  12.786 -0.4824  0.2424 -0.0825
18152TIP3    H175871   3.836   4.176  12.863  0.4857 -0.6779  0.0404
18152TIP3    H275872   3.925   4.291  12.821  0.2900 -0.3996  0.3849
18153TIP3   OH275873   6.223   1.315   5.213  0.1582 -0.1390 -0.2794
18153TIP3    H175874   6.201   1.305   5.121  1.7436  0.9010 -0.8119
18153TIP3    H275875   6.316   1.338   5.213 -0.1268  1.2105  1.5083
18154TIP3   OH275876   3.909   3.037  16.620  0.1206 -0.7097 -0.1404
18154TIP3    H175877   3.862   2.954  16.630 -0.0606 -0.5717  0.1709
18154TIP3    H275878   3.889   3.085  16.700 -0.7454  0.1266 -0.8342
18155TIP3   OH275879   1.595   1.632  13.359  0.2203  0.5207  0.0838
18155TIP3    H175880   1.570   1.540  13.370 -0.5907  1.0229  3.4376
18155TIP3    H275881   1.545   1.661  13.282 -3.5979 -0.6407  1.8547
18156TIP3   OH275882   6.614   5.282  10.637 -0.1587  0.1680 -0.2893
18156TIP3    H175883   6.603   5.194  10.674  0.9746 -0.3637 -1.1517
18156TIP3    H275884   6.679   5.271  10.568  1.2348  1.9830  0.6287
18157TIP3   OH275885   4.245   0.066   4.869 -0.2842  0.2453  0.3214
18157TIP3    H175886   4.324   0.119   4.863 -1.1166  1.7590  1.9116
18157TIP3    H275887   4.276  -0.023   4.884  1.1072  0.6706  0.0871
18158TIP3   OH275888   1.270   2.021  10.449 -0.5539  0.1289  0.1193
18158TIP3    H175889   1.358   2.007  10.482 -0.5448 -2.6346 -0.8496
18158TIP3    H275890   1.247   2.109  10.478  2.3403  0.7607  0.7430
18159TIP3   OH275891   2.721   3.754  14.464  0.2848 -0.3525  0.6440
18159TIP3    H175892   2.651   3.754  14.399  0.8675 -1.2048 -0.0063
18159TIP3    H275893   2.689   3.697  14.534 -0.8096  1.4285  1.6668
18160TIP3   OH275894   5.352   3.752  13.141 -0.0993 -0.0228  0.1237
18160TIP3    H175895   5.336   3.733  13.234 -1.3240  2.0779  0.4058
18160TIP3    H275896   5.433   3.803  13.141 -0.0517 -0.0979  0.0198
18161TIP3   OH275897   5.687   3.395  15.313  0.4887  0.4834 -0.0035
18161TIP3    H175898   5.692   3.306  15.279 -0.3379 -0.4885  2.1979
18161TIP3    H275899   5.623   3.439  15.257  1.2118 -0.1723 -1.3640
18162TIP3   OH275900   1.428   6.258  14.633 -0.1948  0.2924  0.3695
18162TIP3    H175901   1.481   6.211  14.697 -0.3460 -0.8840 -0.3578
18162TIP3    H275902   1.346   6.276  14.679 -0.2235 -0.3478  0.5724
18163TIP3   OH275903   0.306   5.224   2.002  0.0589  0.1118 -0.0306
18163TIP3    H175904   0.292   5.190   2.090 -0.5669 -0.1800 -0.2417
18163TIP3    H275905   0.235   5.187   1.950 -0.1575  1.0642 -0.4455
18164TIP3   OH275906   0.386   0.334  17.123  0.8474 -0.1451  0.3754
18164TIP3    H175907   0.454   0.333  17.191 -0.3616  3.2472  1.8731
18164TIP3    H275908   0.434   0.344  17.041  2.2289 -0.0768  1.1618
18165TIP3   OH275909   0.617   3.055   1.076  0.0133  0.3127 -0.0797
18165TIP3    H175910   0.539   3.091   1.118 -0.6113  0.6870 -1.5020
18165TIP3    H275911   0.687   3.067   1.140 -1.3174 -1.2711  1.8064
18166TIP3   OH275912   4.121   6.626  14.897  0.1122 -0.3565 -0.1211
18166TIP3    H175913   4.168   6.629  14.815 -0.0048  0.1766 -0.1730
18166TIP3    H275914   4.037   6.585  14.875  0.7828 -1.9333  0.1011
18167TIP3   OH275915   1.860   6.292   5.119 -0.0629  0.1503 -0.2910
18167TIP3    H175916   1.784   6.245   5.084 -0.5008  0.2282  0.5321
18167TIP3    H275917   1.932   6.268   5.061 -1.1581  1.8738 -2.5041
18168TIP3   OH275918   2.076   4.885   4.798 -0.9039 -0.0935  0.4794
18168TIP3    H175919   2.091   4.832   4.720 -0.1937  1.4516 -0.4952
18168TIP3    H275920   2.160   4.928   4.814 -1.8590  1.9507  0.2505
18169TIP3   OH275921   2.174   1.578   5.720 -0.3434  0.0798 -0.1731
18169TIP3    H175922   2.082   1.556   5.737 -0.0254  0.3703  2.3026
18169TIP3    H275923   2.172   1.669   5.692 -0.7641  0.3419  0.6799
18170TIP3   OH275924   3.056   0.085  10.918  0.1368 -0.1470  0.2381
18170TIP3    H175925   3.122   0.080  10.849  0.2170  0.1646  0.2917
18170TIP3    H275926   2.973   0.071  10.873  0.3669 -2.7416  0.4691
18171TIP3   OH275927   1.877   3.762  11.714  0.4384  0.2165 -0.6992
18171TIP3    H175928   1.928   3.808  11.781 -1.5891  1.0719  0.3652
18171TIP3    H275929   1.895   3.669  11.730  1.6084  0.4864 -0.3491
18172TIP3   OH275930   1.703   5.158  10.907  0.1119  0.4912  0.0674
18172TIP3    H175931   1.676   5.246  10.883  0.4732 -0.0705 -2.7029
18172TIP3    H275932   1.636   5.101  10.870  0.8690 -0.4956  0.1701
18173TIP3   OH275933   2.054   5.466  15.034  0.0679 -0.3962 -0.1918
18173TIP3    H175934   2.064   5.530  15.105  0.9205 -1.1393  0.3794
18173TIP3    H275935   2.143   5.442  15.011 -0.2103 -0.3241 -1.3859
18174TIP3   OH275936   1.179   2.981   4.395 -1.3299  0.1291  0.3356
18174TIP3    H175937   1.267   2.958   4.424  0.0272  0.1245 -3.2701
18174TIP3    H275938   1.123   2.912   4.431 -0.5695  1.5840  5.0676
18175TIP3   OH275939   5.900   2.854   3.168 -0.0694 -0.9323 -0.1423
18175TIP3    H175940   5.893   2.800   3.247 -3.0569  0.2798  0.5602
18175TIP3    H275941   5.962   2.922   3.191  0.7742 -1.8403  0.3412
18176TIP3   OH275942   3.754   4.017   6.414 -0.0592 -0.6416 -0.4219
18176TIP3    H175943   3.724   3.927   6.418  1.3490 -1.1835 -1.2734
18176TIP3    H275944   3.770   4.042   6.505 -1.3998 -0.8961 -0.1025
18177TIP3   OH275945   6.752   6.125  11.271  0.1940  1.1440  0.7189
18177TIP3    H175946   6.695   6.171  11.209 -2.2229 -0.6557  1.4640
18177TIP3    H275947   6.755   6.035  11.239  2.7779  1.1745  0.6698
18178TIP3   OH275948   1.653   0.101   4.079  0.1241  0.5340  0.0524
18178TIP3    H175949   1.673   0.017   4.037 -0.5109  0.0124  0.7621
18178TIP3    H275950   1.714   0.163   4.039  0.0040 -0.0748 -1.1366
18179TIP3   OH275951   4.876   4.792  10.664 -0.4816 -0.4289 -0.1820
18179TIP3    H175952   4.939   4.863  10.681  0.1129 -0.6211 -1.4837
18179TIP3    H275953   4.812   4.831  10.604  0.4506 -1.2718 -1.7752
18180TIP3   OH275954   5.735   2.765  14.429 -0.3620 -0.1715 -0.2598
18180TIP3    H175955   5.741   2.734  14.519  2.8107 -0.1959 -0.3777
18180TIP3    H275956   5.736   2.860  14.436  4.2244 -0.0252 -0.2241
18181TIP3   OH275957   6.004   1.526  13.891 -0.0353 -0.6283  0.1619
18181TIP3    H175958   6.021   1.611  13.851 -1.4826 -0.4943 -0.2281
18181TIP3    H275959   5.993   1.544  13.984  1.7979 -0.7234  0.4368
18182TIP3   OH275960   2.276   5.067   2.300  0.1658 -0.1586 -0.2572
18182TIP3    H175961   2.207   5.062   2.366  0.8703  0.9084  0.6001
18182TIP3    H275962   2.296   5.160   2.293  1.5571 -0.4432 -0.4162
18183TIP3   OH275963   6.423   1.550   0.229 -0.1502 -0.1358 -0.6682
18183TIP3    H175964   6.330   1.568   0.238 -0.0895  0.2153 -0.7470
18183TIP3    H275965   6.431   1.504   0.145 -0.3322 -0.7361 -0.3576
18184TIP3   OH275966   4.310   0.146  14.044  0.0685 -0.2681 -0.0451
18184TIP3    H175967   4.393   0.100  14.053 -0.2339 -0.7267  0.5143
18184TIP3    H275968   4.245   0.086  14.082 -0.4933  0.1471 -0.3258
18185TIP3   OH275969   5.311   4.588   5.564  0.4103  0.1656 -0.1149
18185TIP3    H175970   5.298   4.676   5.601 -1.5865  1.2584 -3.0236
18185TIP3    H275971   5.396   4.593   5.520  0.4363  0.5266 -0.0279
18186TIP3   OH275972   0.014   1.740  12.303  0.2672 -0.6558 -0.5201
18186TIP3    H175973  -0.062   1.791  12.334  0.9485  0.6278 -0.8994
18186TIP3    H275974   0.009   1.745  12.208  0.0888 -1.7238 -0.5814
18187TIP3   OH275975   6.381   5.486   0.678 -0.9016 -0.5257 -0.3491
18187TIP3    H175976   6.421   5.400   0.688 -0.4236 -0.3625 -0.7881
18187TIP3    H275977   6.357   5.512   0.767  0.0623 -0.5934 -0.0524
18188TIP3   OH275978   4.226   1.168  13.251  0.4718 -0.0683 -0.1257
18188TIP3    H175979   4.247   1.080  13.280  0.1610 -0.2704 -0.5145
18188TIP3    H275980   4.308   1.217  13.264  0.1236  0.0590  1.8674
18189TIP3   OH275981   0.132   2.747  10.971 -0.1374 -0.3785 -0.0391
18189TIP3    H175982   0.127   2.771  11.064 -2.0256  0.0453 -0.2126
18189TIP3    H275983   0.096   2.658  10.968 -2.1774  0.4030 -0.5901
18190TIP3   OH275984   5.373   5.765  14.734 -0.4173 -0.1110 -0.0008
18190TIP3    H175985   5.327   5.772  14.650  2.3389 -0.6474 -1.6920
18190TIP3    H275986   5.430   5.842  14.737 -0.4551 -0.1116  1.4061
18191TIP3   OH275987   1.779   3.270   5.726 -0.3144 -0.4544 -0.1216
18191TIP3    H175988   1.849   3.241   5.784 -2.8278 -2.7876  2.0205
18191TIP3    H275989   1.755   3.357   5.758  0.4183 -0.3804  0.2386
18192TIP3   OH275990   0.845   4.663  13.724  0.0809  0.0408  0.2524
18192TIP3    H175991   0.792   4.742  13.729 -1.0769 -0.5272 -1.8144
18192TIP3    H275992   0.845   4.640  13.631  2.0441 -1.2975  0.5181
18193TIP3   OH275993   0.151   6.252  13.638  0.0476 -0.0838 -0.6623
18193TIP3    H175994   0.093   6.180  13.663 -0.8743 -0.4595 -3.4504
18193TIP3    H275995   0.133   6.321  13.701 -2.9444 -0.4734 -0.9464
18194TIP3   OH275996   5.043   5.237  10.974  0.0200  1.0000 -0.3080
18194TIP3    H175997   5.028   5.315  11.028 -0.2689  1.5326 -1.1353
18194TIP3    H275998   4.972   5.239  10.910  0.7015  0.7239 -1.0845
18195TIP3   OH275999   6.433   1.152  14.848 -0.2554  0.0060  0.2063
18195TIP3    H176000   6.366   1.220  14.840 -1.3888 -1.1366 -0.3021
18195TIP3    H276001   6.447   1.143  14.942 -0.6298  0.4201  0.3066
18196TIP3   OH276002   1.902   0.244   0.268  0.1965  0.1961  0.2280
18196TIP3    H176003   1.936   0.205   0.187  0.7147  0.8936  0.0931
18196TIP3    H276004   1.895   0.171   0.329  3.2355  0.1725  0.6920
18197TIP3   OH276005   4.334   3.526  15.500  0.2057  0.7076  0.1214
18197TIP3    H176006   4.351   3.477  15.581 -2.1928 -0.9347 -0.2289
18197TIP3    H276007   4.282   3.466  15.447  1.6971  1.7379 -2.6960
18198TIP3   OH276008   3.877   5.481  10.987 -0.4090 -0.3877  0.0499
18198TIP3    H176009   3.964   5.488  11.025 -0.9809  1.6078  1.1460
18198TIP3    H276010   3.841   5.569  10.992 -2.9911 -1.3744  0.9123
18199TIP3   OH276011   5.146   2.647  12.875  0.4108  0.0366  0.1725
18199TIP3    H176012   5.209   2.613  12.812  0.0605 -1.4662  0.6092
18199TIP3    H276013   5.066   2.598  12.858 -0.4096  1.3077  0.2091
18200TIP3   OH276014   6.564   6.606   5.460  0.0708  0.3818  0.0726
18200TIP3    H176015   6.530   6.651   5.384 -0.7955  2.6560  1.7043
18200TIP3    H276016   6.521   6.648   5.535  0.6075 -1.9567  1.8322
18201TIP3   OH276017   5.752   4.604  11.786  0.3832  0.1473  0.0324
18201TIP3    H176018   5.782   4.683  11.831  3.2908 -1.7638  1.8197
18201TIP3    H276019   5.815   4.591  11.716 -0.3638 -0.3248 -0.5648
18202TIP3   OH276020   3.610   6.044   3.671 -0.3446  0.1908  0.5463
18202TIP3    H176021   3.602   6.027   3.765  1.2358  1.2264  0.9030
18202TIP3    H276022   3.597   5.958   3.631 -0.5399 -0.3659  1.7451
18203TIP3   OH276023   2.073   5.265   0.335  0.2848  0.0120  0.0423
18203TIP3    H176024   1.983   5.294   0.354  0.1560 -0.8754  0.8861
18203TIP3    H276025   2.089   5.294   0.245 -1.3698 -1.0218 -0.6371
18204TIP3   OH276026   6.489   0.703   2.054 -0.0634 -0.1196  0.1491
18204TIP3    H176027   6.534   0.622   2.029  0.7806  0.3982 -0.0540
18204TIP3    H276028   6.531   0.729   2.136 -1.7838 -0.9984  1.3533
18205TIP3   OH276029   0.264   6.506   1.215  0.2786  0.6955  0.2495
18205TIP3    H176030   0.206   6.543   1.149 -0.2397  0.4032  0.5350
18205TIP3    H276031   0.242   6.413   1.217  1.4070  0.3983 -0.3040
18206TIP3   OH276032   1.705   4.008   1.361 -0.0861 -0.8662  0.2736
18206TIP3    H176033   1.736   3.942   1.300  0.1080  1.0924 -1.8876
18206TIP3    H276034   1.775   4.074   1.363 -0.9662  0.0853  1.0337
18207TIP3   OH276035   6.151   6.475  16.465 -0.2405 -0.0724  0.1050
18207TIP3    H176036   6.083   6.468  16.532 -1.6347  1.6854 -0.9904
18207TIP3    H276037   6.222   6.522  16.507 -0.2198 -0.8224  0.9211
18208TIP3   OH276038   4.357   5.373   2.929  0.0751  0.5808 -0.1845
18208TIP3    H176039   4.336   5.403   3.017  0.2365  0.2140 -0.0192
18208TIP3    H276040   4.334   5.280   2.929  0.9608  0.3580 -0.2397
18209TIP3   OH276041   5.892   6.599   4.157  0.0199  0.5701 -0.0394
18209TIP3    H176042   5.872   6.549   4.236 -0.8923  1.1751  0.1362
18209TIP3    H276043   5.942   6.539   4.102  0.0003 -0.1170  0.6773
18210TIP3   OH276044   1.478   4.013  17.015  0.1448 -0.3627  0.4002
18210TIP3    H176045   1.433   3.982  16.936  0.3653 -0.6608  0.3900
18210TIP3    H276046   1.512   4.100  16.990 -2.2712  0.8571  1.1045
18211TIP3   OH276047   4.919   1.481   5.548  0.1266 -0.8291 -0.2665
18211TIP3    H176048   4.968   1.403   5.573 -0.3095 -0.4340  2.0796
18211TIP3    H276049   4.901   1.525   5.631  1.3063  2.3573 -1.5320
18212TIP3   OH276050   5.105   6.647  11.308 -0.3489  0.4330  0.1957
18212TIP3    H176051   5.048   6.579  11.272  1.9985 -1.8458  0.4614
18212TIP3    H276052   5.104   6.632  11.403  0.1019  0.8566  0.2725
18213TIP3   OH276053   2.551   6.441  13.261 -0.0619 -0.1273  0.8848
18213TIP3    H176054   2.605   6.373  13.300 -0.6361  0.4450  2.7705
18213TIP3    H276055   2.470   6.397  13.237  0.9299 -0.8625 -1.4325
18214TIP3   OH276056   5.408   2.363  15.848 -0.5860  0.2604  0.1606
18214TIP3    H176057   5.422   2.378  15.755 -0.4730 -1.5639 -0.1441
18214TIP3    H276058   5.479   2.410  15.892  1.6877 -1.9772 -0.9051
18215TIP3   OH276059   4.080   6.497   5.231  0.4444  0.0825 -0.1896
18215TIP3    H176060   4.048   6.447   5.156  0.8160 -0.3061 -0.0921
18215TIP3    H276061   4.103   6.582   5.196  2.2109 -0.6373 -0.8424
18216TIP3   OH276062   6.459   3.255  12.122  0.3489  0.3520 -0.2281
18216TIP3    H176063   6.371   3.259  12.159  0.5338 -1.4905  0.4951
18216TIP3    H276064   6.517   3.281  12.193  0.4066  1.7580 -0.7616
18217TIP3   OH276065   3.344   3.106   6.067 -0.4782 -0.1019 -0.1232
18217TIP3    H176066   3.335   3.201   6.073  1.5068  0.1203 -0.2098
18217TIP3    H276067   3.419   3.085   6.122  0.2048 -1.4021 -1.4799
18218TIP3   OH276068   2.530   4.560  12.092  0.1184 -0.4038 -0.4382
18218TIP3    H176069   2.495   4.577  12.005 -1.4845  1.3979  0.4876
18218TIP3    H276070   2.615   4.603  12.094 -0.5385  0.9319 -0.6309
18219TIP3   OH276071   1.972   5.784   2.184  0.0074 -0.4203 -0.0533
18219TIP3    H176072   1.918   5.811   2.109 -0.6594 -0.3918  0.4302
18219TIP3    H276073   1.959   5.853   2.248  1.2345 -0.0229 -0.2120
18220TIP3   OH276074   6.560   4.884   2.245 -0.1112  0.4856  0.0272
18220TIP3    H176075   6.466   4.867   2.252 -0.5565  2.5925 -0.0885
18220TIP3    H276076   6.576   4.895   2.152  0.4345 -0.7180 -0.0282
18221TIP3   OH276077   6.508   5.018  11.412  0.4156  0.4345 -0.0263
18221TIP3    H176078   6.516   4.956  11.484 -1.1632 -0.2077 -0.3643
18221TIP3    H276079   6.549   4.974  11.337  1.2433  0.7301  0.2355
18222TIP3   OH276080   0.782   1.705  14.008  0.3117 -0.1004  0.2604
18222TIP3    H176081   0.864   1.754  13.994 -0.5449  1.2808 -0.0752
18222TIP3    H276082   0.724   1.735  13.939 -0.5689 -0.9025  0.6351
18223TIP3   OH276083   5.461   1.723  12.171  0.3088  0.8155  0.1107
18223TIP3    H176084   5.468   1.803  12.224  0.6355  0.3683  0.7490
18223TIP3    H276085   5.522   1.662  12.212 -2.0647 -0.8001  1.4676
18224TIP3   OH276086   1.477   4.406   4.895  0.0661  0.3661 -0.0939
18224TIP3    H176087   1.552   4.366   4.938 -0.4635 -0.8743 -0.2582
18224TIP3    H276088   1.418   4.429   4.966 -0.2584 -0.5245 -0.0552
18225TIP3   OH276089   6.112   3.756  10.349  0.5264 -0.3553  0.2203
18225TIP3    H176090   6.086   3.800  10.430  1.1882 -0.6131  0.5827
18225TIP3    H276091   6.204   3.733  10.363  0.0693 -2.3545  0.2702
18226TIP3   OH276092   2.960   3.242  11.611 -0.3794  0.6936 -0.6368
18226TIP3    H176093   2.914   3.210  11.687  0.1375  0.4838 -0.4057
18226TIP3    H276094   2.899   3.231  11.538 -0.2657 -0.6885 -0.5406
18227TIP3   OH276095   3.513   3.299  17.189  0.1113  0.0811  0.6336
18227TIP3    H176096   3.471   3.382  17.170  1.2861  0.2688 -1.5009
18227TIP3    H276097   3.449   3.250  17.240 -1.2260  1.6929  0.5692
18228TIP3   OH276098   3.656   2.912  14.218  0.2006  0.2575 -0.2662
18228TIP3    H176099   3.640   2.964  14.140 -1.7179 -0.7246 -0.5959
18228TIP3    H276100   3.609   2.957  14.288 -1.5081 -0.9445 -0.5612
18229TIP3   OH276101   4.232   5.861  12.399 -0.5831  0.0283 -0.2140
18229TIP3    H176102   4.270   5.847  12.485 -0.1992  0.9565 -0.2318
18229TIP3    H276103   4.276   5.796  12.343  1.5733  1.5516 -0.4040
18230TIP3   OH276104   5.668   5.427   0.146  0.3193  0.4985  0.2144
18230TIP3    H176105   5.591   5.478   0.122 -0.3492 -0.8474 -0.5815
18230TIP3    H276106   5.648   5.393   0.233  0.1739  0.4524  0.1631
18231TIP3   OH276107   1.417   0.025  13.478  0.0612 -0.4961  0.0237
18231TIP3    H176108   1.344   0.037  13.417 -0.2925  0.3321  0.5824
18231TIP3    H276109   1.476   0.097  13.458 -0.9417  0.9492  1.8466
18232TIP3   OH276110   2.763   3.208  11.327 -0.1621  0.4263  0.6074
18232TIP3    H176111   2.732   3.125  11.290  0.7723  0.8632 -1.2814
18232TIP3    H276112   2.717   3.275  11.277  1.6090  1.0397 -0.2816
18233TIP3   OH276113   3.923   0.246  10.636  0.0983 -0.4606 -0.3543
18233TIP3    H176114   4.005   0.218  10.677  1.2803  1.7233 -1.0436
18233TIP3    H276115   3.911   0.186  10.562  1.6210 -0.2239 -0.8197
18234TIP3   OH276116   5.450   2.220  12.245  0.2247 -0.0659  0.2164
18234TIP3    H176117   5.540   2.190  12.231 -0.0274 -1.5381  1.5089
18234TIP3    H276118   5.458   2.314  12.257  1.7884 -0.3477  1.6442
18235TIP3   OH276119   3.973   5.956   5.359 -0.2138  0.3983  0.5552
18235TIP3    H176120   4.036   5.896   5.320 -0.4420 -0.4463  1.4304
18235TIP3    H276121   3.888   5.925   5.327 -0.2510  0.9852  0.0793
18236TIP3   OH276122   3.963   6.083  17.210  0.1144 -0.1518  0.3861
18236TIP3    H176123   3.982   6.102  17.302  0.7526  0.3470  0.1611
18236TIP3    H276124   3.962   6.169  17.167  1.9750 -0.4881 -0.4547
18237TIP3   OH276125   5.812   0.796   6.302  0.0621  0.5114 -0.0166
18237TIP3    H176126   5.855   0.754   6.227  2.3317  0.5726  1.1731
18237TIP3    H276127   5.761   0.867   6.263  1.6861  0.9456 -1.4797
18238TIP3   OH276128   2.179   4.455   4.971  0.5636  0.1263 -0.3366
18238TIP3    H176129   2.241   4.423   5.037  0.1669  1.4982  0.7744
18238TIP3    H276130   2.129   4.523   5.017 -0.6980  0.1434 -1.6619
18239TIP3   OH276131   0.136   2.315   1.153  0.0799 -0.3843  0.1874
18239TIP3    H176132   0.044   2.295   1.137 -0.1349 -0.7152  1.6592
18239TIP3    H276133   0.184   2.269   1.085 -0.9249  1.4829 -1.9084
18240TIP3   OH276134   1.435   5.083  13.186  0.0938  0.1166  0.2046
18240TIP3    H176135   1.471   5.171  13.176  1.4410 -0.5265 -1.1357
18240TIP3    H276136   1.392   5.064  13.103  0.9172 -0.9182 -0.0219
18241TIP3   OH276137   3.178   0.524  11.994 -0.3260  0.5596 -0.2726
18241TIP3    H176138   3.177   0.502  12.087 -2.1930  1.5244 -0.0183
18241TIP3    H276139   3.228   0.605  11.989 -0.3224  0.5702 -0.0753
18242TIP3   OH276140   3.389   3.124  16.770 -0.0357  0.9749 -1.0143
18242TIP3    H176141   3.483   3.130  16.751  0.2541  1.9366  0.4897
18242TIP3    H276142   3.375   3.033  16.793  0.7118  0.9847 -0.4747
18243TIP3   OH276143   4.940   3.528  12.773  0.0320 -0.1492 -0.7772
18243TIP3    H176144   4.894   3.465  12.718  0.4840  0.1766 -1.5455
18243TIP3    H276145   4.873   3.591  12.798 -0.8241 -1.7902  1.3881
18244TIP3   OH276146   0.065   3.815  13.601  0.1045  0.3609  0.2048
18244TIP3    H176147  -0.019   3.769  13.599 -0.1434  0.7154  1.7211
18244TIP3    H276148   0.128   3.751  13.568 -0.7490  0.0955 -0.9710
18245TIP3   OH276149   5.570   0.924  14.786 -0.2509  0.1950 -0.1938
18245TIP3    H176150   5.631   0.871  14.735  1.0836  1.0167  0.5138
18245TIP3    H276151   5.558   0.875  14.868  1.3030  1.1289  0.6320
18246TIP3   OH276152   5.017   6.533  16.268 -0.4951 -0.5996 -0.6464
18246TIP3    H176153   4.944   6.474  16.285 -1.9056  1.0510 -0.6210
18246TIP3    H276154   4.982   6.597  16.206  0.2530  1.3956  0.8640
18247TIP3   OH276155   1.523   5.348  12.336  0.5404 -0.1183 -0.3945
18247TIP3    H176156   1.436   5.335  12.298  0.3192  0.8406 -0.2538
18247TIP3    H276157   1.554   5.260  12.358 -0.5534 -0.4346 -0.0824
18248TIP3   OH276158   6.784   4.852   1.198  0.2773 -0.1712  0.6230
18248TIP3    H176159   6.771   4.793   1.124  0.3083  2.7263 -1.9066
18248TIP3    H276160   6.697   4.889   1.214  0.4212 -0.2071  1.5545
18249TIP3   OH276161   6.720   3.068  13.538  0.6420  0.8956 -0.1954
18249TIP3    H176162   6.709   3.065  13.633  0.0944  0.9974 -0.2511
18249TIP3    H276163   6.699   2.979  13.509 -3.6471  1.8228 -0.6463
18250TIP3   OH276164   2.434   0.439  11.949  0.5741 -0.1141  0.0493
18250TIP3    H176165   2.469   0.363  11.902  1.2415 -0.5036  1.1389
18250TIP3    H276166   2.395   0.493  11.881  1.9386 -0.4224 -1.0238
18251TIP3   OH276167   2.242   5.649  10.738  0.6324  0.1083 -0.1796
18251TIP3    H176168   2.211   5.607  10.658  0.2394 -0.3684  0.2188
18251TIP3    H276169   2.178   5.625  10.804  1.0859  0.3016  0.3349
18252TIP3   OH276170   3.955   3.582   3.178 -0.4052  0.0957 -0.3449
18252TIP3    H176171   4.031   3.640   3.174  0.2228 -0.6733  0.0279
18252TIP3    H276172   3.938   3.572   3.272  0.2922 -1.2912 -0.3334
18253TIP3   OH276173   3.485   5.369   5.335  0.0476  0.2748  0.3010
18253TIP3    H176174   3.464   5.447   5.386  0.4659  1.1286 -0.8207
18253TIP3    H276175   3.549   5.322   5.389  1.4675  1.8150  0.0278
18254TIP3   OH276176   4.524   2.698   0.049 -0.7003 -0.0588  0.2888
18254TIP3    H176177   4.469   2.659   0.117 -1.8765 -0.1424 -0.6834
18254TIP3    H276178   4.588   2.750   0.097 -2.2594  0.8746  1.4384
18255TIP3   OH276179   0.348   5.757   4.992  0.2879  0.1152  0.4340
18255TIP3    H176180   0.271   5.703   5.013 -1.1185  1.9098  0.1809
18255TIP3    H276181   0.407   5.698   4.945 -0.7727 -1.4122  0.9385
18256TIP3   OH276182   6.316   2.988  13.266 -0.4151  0.1231 -0.4760
18256TIP3    H176183   6.383   3.048  13.231 -1.4089  0.9318 -1.0568
18256TIP3    H276184   6.320   3.002  13.361 -1.1485  1.7330 -0.6400
18257TIP3   OH276185   4.232   2.016  12.043  0.3439  0.0369 -0.1594
18257TIP3    H176186   4.318   2.054  12.025  0.1400 -0.0428 -1.3789
18257TIP3    H276187   4.180   2.090  12.073  0.9087  0.0248  0.9150
18258TIP3   OH276188   5.522   5.445   4.130 -0.3824 -0.1797 -0.1413
18258TIP3    H176189   5.572   5.369   4.160  0.9162  0.3257 -0.9516
18258TIP3    H276190   5.474   5.474   4.208 -1.0790 -1.9387  0.1199
18259TIP3   OH276191   2.094   3.079  10.377 -0.3329  0.0611 -0.3746
18259TIP3    H176192   2.130   2.991  10.374 -0.2911  0.0153  0.9384
18259TIP3    H276193   2.007   3.069  10.416 -0.3233  0.6028 -0.1974
18260TIP3   OH276194   2.037   0.026  11.710  0.3384 -0.0144 -0.0839
18260TIP3    H176195   2.043   0.110  11.756  0.6097  0.7879 -1.5315
18260TIP3    H276196   2.064   0.046  11.620 -1.6623 -1.1869 -1.0099
18261TIP3   OH276197   2.549   3.898  12.466 -0.1001  0.4154  0.2305
18261TIP3    H176198   2.608   3.843  12.518 -1.1751  0.1871  1.2627
18261TIP3    H276199   2.507   3.956  12.530 -0.8990  0.6434 -0.4810
18262TIP3   OH276200   4.067   0.076   2.930 -0.1075  0.0390 -0.4851
18262TIP3    H176201   4.033   0.153   2.977 -0.2808 -0.0878 -0.3987
18262TIP3    H276202   4.160   0.093   2.921 -0.2139  0.4568 -0.8404
18263TIP3   OH276203   5.369   3.920  10.869  0.6570 -0.1367 -0.0731
18263TIP3    H176204   5.375   3.991  10.933 -0.5671  0.1253 -0.2328
18263TIP3    H276205   5.286   3.934  10.824  0.2802 -1.7970  0.0311
18264TIP3   OH276206   1.855   6.178  15.976  0.0681  0.4002 -0.1681
18264TIP3    H176207   1.932   6.170  16.032  0.2015 -0.8955 -0.5044
18264TIP3    H276208   1.885   6.152  15.889 -0.8773 -0.8076 -0.1738
18265TIP3   OH276209   0.583   4.975   4.270  0.4423 -0.8521 -0.2751
18265TIP3    H176210   0.554   4.992   4.181 -0.4234 -3.1550 -0.5080
18265TIP3    H276211   0.570   4.881   4.282 -0.1174 -0.5200  2.4984
18266TIP3   OH276212   3.719   1.691   4.393  0.1706 -0.5879  0.1807
18266TIP3    H176213   3.725   1.768   4.337  0.4737  0.5550  1.7224
18266TIP3    H276214   3.717   1.617   4.332  0.8543  0.5663 -1.3091
18267TIP3   OH276215   3.562   4.832   4.125  0.0712  0.0300  0.1259
18267TIP3    H176216   3.551   4.926   4.140 -1.2714 -0.0224 -0.4418
18267TIP3    H276217   3.484   4.792   4.163  0.8500 -0.9269  0.7868
18268TIP3   OH276218   3.356   5.340   1.082  0.2691  0.1089 -0.1077
18268TIP3    H176219   3.366   5.418   1.137 -1.3569 -0.5024  1.1282
18268TIP3    H276220   3.304   5.369   1.008  0.1330  0.3227  0.0710
18269TIP3   OH276221   0.358   2.752   2.568 -0.5690 -0.7072  0.2897
18269TIP3    H176222   0.422   2.769   2.498 -0.7529 -1.1659  0.0037
18269TIP3    H276223   0.300   2.685   2.531 -0.9393 -0.6255  0.7182
18270TIP3   OH276224   4.255   5.752   4.256  0.0089  0.3208  0.0345
18270TIP3    H176225   4.311   5.758   4.179  0.0170 -1.1635 -0.0924
18270TIP3    H276226   4.167   5.771   4.223  0.0876  0.2273 -0.2249
18271TIP3   OH276227   6.402   4.913   6.360 -0.1472  0.2093 -0.1906
18271TIP3    H176228   6.484   4.914   6.408  0.3422 -0.3179 -0.9957
18271TIP3    H276229   6.334   4.913   6.427  0.4381  2.8069  0.5050
18272TIP3   OH276230   0.811   3.394   4.648  0.2030  0.1512 -0.0695
18272TIP3    H176231   0.719   3.369   4.654 -0.0226  0.8390 -0.5990
18272TIP3    H276232   0.854   3.318   4.607  0.0015 -0.4428  0.7921
18273TIP3   OH276233   2.533   2.210   2.075 -0.0418 -0.2929 -0.4686
18273TIP3    H176234   2.508   2.150   2.005  1.0381 -1.5100  0.1559
18273TIP3    H276235   2.547   2.294   2.031 -0.3050 -0.8079 -1.5566
18274TIP3   OH276236   5.124   4.862   2.195  0.1042  0.0003 -0.3532
18274TIP3    H176237   5.169   4.793   2.244  1.1048  0.2315 -0.9060
18274TIP3    H276238   5.173   4.941   2.216 -0.4815  0.3833 -0.4260
18275TIP3   OH276239   2.763   4.222   2.000  0.2671  0.4340  0.0246
18275TIP3    H176240   2.767   4.130   2.025 -1.0617 -0.5663 -2.9371
18275TIP3    H276241   2.730   4.267   2.078  0.3268 -1.6828  1.3471
18276TIP3   OH276242   2.139   6.778  12.493 -0.1904  0.0390 -0.3641
18276TIP3    H176243   2.128   6.869  12.521  0.2668  0.5758 -1.8393
18276TIP3    H276244   2.081   6.769  12.417 -0.0396 -0.8342 -0.3895
18277TIP3   OH276245   5.726   3.140   2.018  0.4338  0.4114 -0.7025
18277TIP3    H176246   5.721   3.212   1.956  0.5477  1.2131  0.2040
18277TIP3    H276247   5.693   3.064   1.969  1.4962  0.7875 -2.0648
18278TIP3   OH276248   6.189   5.794  11.641  0.5710 -0.2508 -0.6073
18278TIP3    H176249   6.244   5.723  11.609 -0.7694 -1.7164  0.1832
18278TIP3    H276250   6.249   5.852  11.687  1.5557 -1.4797 -0.2924
18279TIP3   OH276251   5.905   5.130  13.506  0.1480  0.2860 -0.2037
18279TIP3    H176252   5.923   5.153  13.597 -0.1051  1.9692 -0.5414
18279TIP3    H276253   5.970   5.063  13.484  1.4195  1.1924  0.6704
18280TIP3   OH276254   0.413   4.933  12.151 -0.1023 -1.0363 -0.4118
18280TIP3    H176255   0.481   4.989  12.114  0.9875 -0.4788  2.1715
18280TIP3    H276256   0.347   4.994  12.183  0.2673 -1.2764  0.8765
18281TIP3   OH276257   5.545   5.876  11.631  0.1936  0.1280 -0.2382
18281TIP3    H176258   5.553   5.892  11.537  0.3570 -0.4197 -0.3177
18281TIP3    H276259   5.523   5.962  11.667 -0.1377  0.2912 -0.8068
18282TIP3   OH276260   2.621   0.193   0.252 -0.8822 -0.3817  0.1395
18282TIP3    H176261   2.714   0.214   0.242 -0.7790 -0.2268  1.2703
18282TIP3    H276262   2.611   0.173   0.345 -1.7858 -1.4197 -0.1660
18283TIP3   OH276263   2.931   2.997   1.932  0.8487 -0.3363 -0.5792
18283TIP3    H176264   2.964   2.976   2.020  1.4480  0.4192 -0.6152
18283TIP3    H276265   2.870   3.069   1.946  0.3570 -0.7312 -0.6938
18284TIP3   OH276266   5.933   2.957  16.629  0.9997 -0.0641 -0.2377
18284TIP3    H176267   5.982   3.040  16.623 -0.5623  0.8030 -1.5800
18284TIP3    H276268   5.855   2.979  16.678 -0.0193 -0.4183 -1.6402
18285TIP3   OH276269   3.957   4.487  12.108  0.0072  0.2244 -0.5227
18285TIP3    H176270   3.880   4.434  12.127  0.2041 -0.5473 -1.7685
18285TIP3    H276271   4.017   4.469  12.180 -0.3926 -0.3416 -0.3257
18286TIP3   OH276272   3.735   1.836   6.414 -0.2664 -0.0114 -0.3392
18286TIP3    H176273   3.782   1.912   6.449  0.2193 -0.3350 -0.2745
18286TIP3    H276274   3.651   1.871   6.385 -0.5819  0.3225  0.8905
18287TIP3   OH276275   6.645   5.698   2.378 -0.0845  0.1538  0.0152
18287TIP3    H176276   6.637   5.645   2.457 -2.0116 -1.7129 -1.2831
18287TIP3    H276277   6.582   5.658   2.317  0.4952  2.2055 -2.0646
18288TIP3   OH276278   3.779   6.254  14.744  0.3619  0.0388 -0.2024
18288TIP3    H176279   3.743   6.240  14.656  1.3302  2.7086 -1.1305
18288TIP3    H276280   3.718   6.208  14.802 -0.7395 -1.1726 -2.1864
18289TIP3   OH276281   0.019   0.159  11.138  0.3822  0.1009  0.2995
18289TIP3    H176282   0.034   0.250  11.114 -2.5009  0.6931  0.4181
18289TIP3    H276283  -0.014   0.118  11.058 -0.8290 -0.1432  0.8986
18290TIP3   OH276284   5.797   3.009  12.462  0.1222 -0.0763  0.0648
18290TIP3    H176285   5.782   3.053  12.546 -1.3111  2.0853 -1.2131
18290TIP3    H276286   5.891   2.991  12.460 -0.0665 -1.9161  2.8596
18291TIP3   OH276287   1.169   0.657  14.941  0.1822 -0.0903 -0.1529
18291TIP3    H176288   1.230   0.634  14.871  0.2663  0.3709 -0.2354
18291TIP3    H276289   1.148   0.574  14.983 -0.2477 -0.4376 -1.0349
18292TIP3   OH276290   6.637   4.212   3.449 -0.2234 -0.5783 -0.2559
18292TIP3    H176291   6.661   4.275   3.517 -1.0461 -0.9252  0.3827
18292TIP3    H276292   6.679   4.244   3.369  0.2214  0.1965  0.2819
18293TIP3   OH276293   1.096   6.580  12.650  0.3220  0.1160  0.0120
18293TIP3    H176294   1.024   6.592  12.712  0.5650  0.8977  0.1529
18293TIP3    H276295   1.055   6.590  12.564 -0.0724 -1.2689  0.0142
18294TIP3   OH276296   1.696   3.566   4.158 -0.2895 -0.3562  0.6494
18294TIP3    H176297   1.628   3.567   4.225  0.2773 -0.4066  1.2260
18294TIP3    H276298   1.657   3.613   4.084 -1.4924 -1.6340  0.4398
18295TIP3   OH276299   4.212   0.761  12.022 -0.0175 -0.4204  0.3883
18295TIP3    H176300   4.287   0.742  11.965 -1.5701 -0.6306 -1.7257
18295TIP3    H276301   4.195   0.855  12.008 -0.2441 -0.4125  0.7209
18296TIP3   OH276302   4.909   4.023   5.222  0.0675  0.4393 -0.1593
18296TIP3    H176303   4.935   3.958   5.157 -0.1426 -0.7899  0.9386
18296TIP3    H276304   4.817   4.002   5.241 -0.2774  1.6258 -0.4102
18297TIP3   OH276305   2.819   4.046  11.199 -0.0317 -0.1859 -0.0735
18297TIP3    H176306   2.904   4.039  11.244 -0.8479  1.2641  1.8057
18297TIP3    H276307   2.807   4.140  11.185 -0.7036 -0.4732 -1.6814
18298TIP3   OH276308   2.781   0.531   2.425 -0.4275 -0.2128 -0.5431
18298TIP3    H176309   2.697   0.487   2.413  0.1168 -0.8581 -2.3063
18298TIP3    H276310   2.822   0.485   2.499 -0.8250 -1.1622 -0.9002
18299TIP3   OH276311   5.526   1.531  13.461  0.0670 -0.5445 -0.0687
18299TIP3    H176312   5.614   1.553  13.492 -1.0233 -0.3154  3.3088
18299TIP3    H276313   5.527   1.437  13.447  1.2375 -0.3229 -1.6394
18300TIP3   OH276314   0.711   1.122  13.482  0.0076  0.0846  0.9042
18300TIP3    H176315   0.804   1.141  13.467  0.3331 -2.1607 -0.3215
18300TIP3    H276316   0.673   1.121  13.394 -0.5821 -1.6315  1.1447
18301TIP3   OH276317   6.712   2.512  15.062 -0.3336 -0.0380  0.8288
18301TIP3    H176318   6.619   2.535  15.065 -0.0131  1.3934  0.5970
18301TIP3    H276319   6.753   2.586  15.019  0.7368 -1.3051 -0.4275
18302TIP3   OH276320   4.493   2.881  13.892 -0.1844 -0.0018 -0.2441
18302TIP3    H176321   4.489   2.968  13.933  0.1021  1.4361 -2.9846
18302TIP3    H276322   4.587   2.862  13.888 -0.2815 -0.8299  1.0251
18303TIP3   OH276323   2.649   2.025   4.603  0.3551 -0.4097  0.4775
18303TIP3    H176324   2.642   1.959   4.535 -0.0544 -1.0738  1.1477
18303TIP3    H276325   2.637   2.108   4.557 -0.4608 -0.8756 -0.1788
18304TIP3   OH276326   0.857   4.804  16.043 -0.1986  0.1996 -0.1502
18304TIP3    H176327   0.777   4.770  16.084  0.2862  0.9134  1.4725
18304TIP3    H276328   0.826   4.876  15.988 -0.6408  1.0098  1.0999
18305TIP3   OH276329   4.101   0.210   0.141 -0.6629  0.1154  0.1109
18305TIP3    H176330   4.068   0.300   0.151 -1.5541 -0.3345  1.4707
18305TIP3    H276331   4.061   0.162   0.213  1.9244 -0.7937  1.0506
18306TIP3   OH276332   5.879   2.029   2.744 -0.1032 -0.3574 -0.0055
18306TIP3    H176333   5.913   2.117   2.732  1.4131 -0.7442  1.2013
18306TIP3    H276334   5.945   1.972   2.703 -1.1571 -0.9584 -0.9534
18307TIP3   OH276335   2.059   6.740   5.043  0.3168  0.9457 -0.0909
18307TIP3    H176336   2.153   6.745   5.063  1.1237 -1.1893 -2.6998
18307TIP3    H276337   2.047   6.801   4.971  0.8978 -2.0532 -2.9741
18308TIP3   OH276338   5.320   0.222  12.548 -0.5223 -0.3903 -0.3472
18308TIP3    H176339   5.329   0.136  12.507 -1.6686 -2.0870  2.6479
18308TIP3    H276340   5.390   0.224  12.613 -0.8485  0.7543 -0.0158
18309TIP3   OH276341   4.457   3.379  15.770 -0.3564 -0.2912  0.6002
18309TIP3    H176342   4.396   3.404  15.839 -0.0141  2.0979  0.1113
18309TIP3    H276343   4.543   3.407  15.803  0.1435 -1.2680  0.1770
18310TIP3   OH276344   6.521   5.811  10.619  0.0538 -0.0388  0.1348
18310TIP3    H176345   6.490   5.764  10.542  0.7699  1.4581 -1.1102
18310TIP3    H276346   6.564   5.744  10.672 -1.0664 -1.2255 -0.3906
18311TIP3   OH276347   6.564   5.634  12.311  0.5062  0.0191 -0.0499
18311TIP3    H176348   6.498   5.604  12.249 -0.9476  1.6098  0.6402
18311TIP3    H276349   6.616   5.698  12.262  1.3046 -0.9198 -0.4664
18312TIP3   OH276350   5.751   3.521   0.595 -0.2318  0.2187 -0.4086
18312TIP3    H176351   5.701   3.550   0.518 -2.0260  1.0244  0.9877
18312TIP3    H276352   5.689   3.468   0.645  1.4177 -1.7147 -0.3001
18313TIP3   OH276353   0.336   0.197   0.621 -0.6872 -0.1772 -0.3853
18313TIP3    H176354   0.246   0.219   0.645 -0.5401 -1.3264  1.4064
18313TIP3    H276355   0.390   0.242   0.685 -0.1699 -1.7535  0.3447
18314TIP3   OH276356   4.412   3.071   4.896  0.1656  0.1208 -0.3208
18314TIP3    H176357   4.416   3.135   4.825  0.6229  0.5116  0.0532
18314TIP3    H276358   4.482   3.097   4.956 -0.6163  0.1654  0.5856
18315TIP3   OH276359   1.820   5.460   1.062 -0.3257 -0.0673  0.1993
18315TIP3    H176360   1.753   5.462   0.994 -2.9824  0.5232  2.6427
18315TIP3    H276361   1.880   5.532   1.040 -2.0788  1.1969 -0.6320
18316TIP3   OH276362   6.775   2.883   1.886  0.2627 -0.4253  0.5850
18316TIP3    H176363   6.725   2.888   1.805  1.3491  2.1885 -0.0147
18316TIP3    H276364   6.713   2.905   1.955 -0.1228 -0.3359  0.2108
18317TIP3   OH276365   3.499   4.857  15.356 -0.1017  0.6546  0.1117
18317TIP3    H176366   3.576   4.914  15.365 -0.0542  0.4611  1.0172
18317TIP3    H276367   3.536   4.769  15.353 -0.2863  0.5633  0.5231
18318TIP3   OH276368   1.190   4.349   5.696  0.3986 -0.5054 -0.3005
18318TIP3    H176369   1.229   4.414   5.754  1.3066 -1.1372 -0.1859
18318TIP3    H276370   1.264   4.312   5.648 -0.0281 -1.8034 -0.0006
18319TIP3   OH276371   0.508   1.077  16.812 -0.6514  0.1577  0.0000
18319TIP3    H176372   0.530   1.004  16.754 -1.2724  0.9824 -1.3377
18319TIP3    H276373   0.585   1.089  16.867  1.6042  1.7602 -3.2171
18320TIP3   OH276374   4.700   3.500  13.017  0.2186  0.1480 -0.3946
18320TIP3    H176375   4.640   3.519  12.944  0.1241 -0.8520 -0.5861
18320TIP3    H276376   4.648   3.444  13.075  0.5832  0.2419  0.0167
18321TIP3   OH276377   1.727   5.982   1.412  0.4541  0.4455 -0.2816
18321TIP3    H176378   1.715   6.070   1.376  1.6803  0.8660  0.2580
18321TIP3    H276379   1.667   5.978   1.486 -0.7328  0.2444 -1.2300
18322TIP3   OH276380   3.641   2.094   2.479 -0.1432  0.2636  0.0361
18322TIP3    H176381   3.604   2.179   2.502 -0.5347  0.6587 -1.9064
18322TIP3    H276382   3.568   2.033   2.484 -1.1918  0.9944 -3.5248
18323TIP3   OH276383   4.467   6.631  14.858  0.2916  0.5838 -0.1492
18323TIP3    H176384   4.562   6.641  14.857  0.2635  0.8126 -1.1799
18323TIP3    H276385   4.453   6.540  14.885  0.7914  0.6372  0.2972
18324TIP3   OH276386   2.182   1.727  16.242  0.0193  0.1368 -0.2375
18324TIP3    H176387   2.227   1.807  16.214  1.8576 -0.3981  1.0412
18324TIP3    H276388   2.252   1.667  16.265 -1.3342 -0.7059  1.9501
18325TIP3   OH276389   1.691   3.627  12.394  0.2797 -0.2364  0.4956
18325TIP3    H176390   1.704   3.532  12.385 -0.2027 -0.1370 -1.9507
18325TIP3    H276391   1.618   3.646  12.335 -0.8276  1.4295  2.3047
18326TIP3   OH276392   4.842   1.411   3.989 -0.9090 -0.1162  0.4831
18326TIP3    H176393   4.904   1.467   4.036 -0.8448 -0.1535  0.4438
18326TIP3    H276394   4.898   1.349   3.942 -0.9735 -2.1662  2.8782
18327TIP3   OH276395   3.279   4.906   1.717 -0.0653 -0.6584 -0.3662
18327TIP3    H176396   3.349   4.971   1.725  0.0091 -0.7186 -0.5308
18327TIP3    H276397   3.312   4.842   1.655  0.7197 -1.9897  1.3199
18328TIP3   OH276398   2.837   1.755   4.851 -0.3881 -0.0786  0.1394
18328TIP3    H176399   2.822   1.672   4.806  0.5679  0.0105 -0.3695
18328TIP3    H276400   2.931   1.771   4.843 -0.2974  0.2859  1.5898
18329TIP3   OH276401   6.051   1.015   4.382 -0.1131  0.1441  0.1527
18329TIP3    H176402   5.970   0.996   4.335 -0.4242  0.6445  0.4834
18329TIP3    H276403   6.022   1.049   4.467  0.4441  0.4309  0.2302
18330TIP3   OH276404   2.717   1.802  14.185 -0.3319  0.7976 -0.1876
18330TIP3    H176405   2.645   1.865  14.191 -0.1886  1.0268 -0.7491
18330TIP3    H276406   2.677   1.724  14.147 -0.6053  0.3867  0.9244
18331TIP3   OH276407   0.152   6.204   6.000 -0.0986  0.2581  0.2297
18331TIP3    H176408   0.242   6.224   6.024 -0.4906  0.6303  1.4222
18331TIP3    H276409   0.100   6.227   6.076 -1.1731 -0.3184 -0.2957
18332TIP3   OH276410   1.278   1.278   3.053 -0.1797 -0.6114 -0.0376
18332TIP3    H176411   1.269   1.196   3.102  2.0635 -0.4910  0.6784
18332TIP3    H276412   1.195   1.323   3.066 -1.1306 -2.3591  0.3015
18333TIP3   OH276413   5.943   1.558  12.645  0.2683 -0.4092 -0.0274
18333TIP3    H176414   5.946   1.606  12.562 -0.4578 -1.2384 -0.5426
18333TIP3    H276415   6.019   1.592  12.694 -1.1486  2.5327  0.3600
18334TIP3   OH276416   4.480   1.138   4.567 -0.1646  0.3490 -0.3821
18334TIP3    H176417   4.447   1.226   4.585 -0.2575  0.8311 -2.7002
18334TIP3    H276418   4.402   1.086   4.548  0.0666  0.3632 -1.3859
18335TIP3   OH276419   4.009   0.084   6.185 -0.5186 -0.6729  1.0889
18335TIP3    H176420   4.093   0.129   6.197 -1.4749  0.8005  2.7958
18335TIP3    H276421   3.948   0.134   6.240 -2.8248 -0.8297 -1.1715
18336TIP3   OH276422   3.211   5.798   1.752 -0.0148  0.6267 -0.1835
18336TIP3    H176423   3.226   5.717   1.704 -1.5775  0.2741 -0.1265
18336TIP3    H276424   3.117   5.815   1.743  0.2415  2.3443 -0.0456
18337TIP3   OH276425   0.150   2.315   3.615  0.6258  0.6245 -0.0121
18337TIP3    H176426   0.166   2.397   3.569  0.6789 -0.8937 -2.9561
18337TIP3    H276427   0.056   2.315   3.633  0.4602  0.9544 -0.8391
18338TIP3   OH276428   6.368   4.285   0.039  0.0342  0.3201  0.1298
18338TIP3    H176429   6.448   4.241   0.066  0.0289 -0.4095 -1.0164
18338TIP3    H276430   6.298   4.223   0.061 -0.2305  0.9059  1.0205
18339TIP3   OH276431   4.617   1.728  12.757  0.6117  0.0052 -0.0463
18339TIP3    H176432   4.653   1.684  12.834 -0.0626  0.3986  0.5142
18339TIP3    H276433   4.690   1.736  12.696  1.6548  1.4034  1.3319
18340TIP3   OH276434   6.756   5.416   4.673 -0.2227 -0.3854 -0.0547
18340TIP3    H176435   6.774   5.508   4.656  1.8154 -0.8962 -1.0499
18340TIP3    H276436   6.754   5.410   4.769 -0.5351  0.7169  0.0193
18341TIP3   OH276437   5.188   1.616   0.662  0.5550 -0.1288  0.0763
18341TIP3    H176438   5.186   1.703   0.623 -0.9645  0.1418  0.7090
18341TIP3    H276439   5.204   1.632   0.755 -0.0981 -0.4981  0.2552
18342TIP3   OH276440   5.736   1.644  14.457 -0.1706  0.7956 -0.5667
18342TIP3    H176441   5.670   1.603  14.513  0.7809 -1.0660 -0.7348
18342TIP3    H276442   5.690   1.661  14.375 -0.7845  0.7820 -0.2349
18343TIP3   OH276443   5.440   3.698   0.162 -0.0707  0.1159 -0.0347
18343TIP3    H176444   5.475   3.647   0.235  0.9528  1.1312  0.2095
18343TIP3    H276445   5.355   3.728   0.193 -0.0735 -0.2724  0.3497
18344TIP3   OH276446   3.982   3.613  13.585 -0.5625 -0.5293  0.4069
18344TIP3    H176447   3.985   3.585  13.493  0.3230 -2.8644  1.0704
18344TIP3    H276448   4.058   3.670  13.595 -1.1288  0.4161 -0.4731
18345TIP3   OH276449   5.445   4.952  15.781  0.3738  0.0318 -0.1299
18345TIP3    H176450   5.490   5.035  15.763 -0.2243  0.6538  1.1158
18345TIP3    H276451   5.355   4.968  15.754  0.3328 -0.3376 -0.2118
18346TIP3   OH276452   5.385   4.371  11.808 -0.5317 -0.4192 -0.0196
18346TIP3    H176453   5.382   4.413  11.722 -0.5299  0.1357  0.2451
18346TIP3    H276454   5.301   4.327  11.817 -1.0887  0.6798  0.2648
18347TIP3   OH276455   6.452   4.414   2.104  0.3374 -0.0731  0.2481
18347TIP3    H176456   6.509   4.414   2.027 -0.0565 -1.5816 -0.0673
18347TIP3    H276457   6.405   4.498   2.099  0.8919  0.1909 -0.7190
18348TIP3   OH276458   3.134   5.206   5.078 -0.5078 -0.4064  0.2371
18348TIP3    H176459   3.177   5.180   5.160 -1.0339  0.5592  0.8261
18348TIP3    H276460   3.145   5.301   5.074  2.8096 -0.7222 -2.6873
18349TIP3   OH276461   0.392   2.442   0.829 -0.4400 -0.1379  0.0793
18349TIP3    H176462   0.303   2.410   0.814 -1.1654  0.5767  2.4121
18349TIP3    H276463   0.391   2.473   0.920  1.7012  1.5063 -0.3835
18350TIP3   OH276464   2.714   2.849   6.772  0.4754 -0.0535  0.1333
18350TIP3    H176465   2.697   2.943   6.764 -0.6355 -0.2538 -0.0921
18350TIP3    H276466   2.790   2.834   6.717 -0.3705  0.4424 -1.2413
18351TIP3   OH276467   5.016   0.974  14.052 -0.2895  0.0408  0.1478
18351TIP3    H176468   4.951   1.035  14.018 -1.9156 -1.6912 -0.0451
18351TIP3    H276469   5.002   0.893  14.003  1.8707 -0.4906  0.2891
18352TIP3   OH276470   1.561   3.187   0.725 -0.5769  0.0482 -0.0849
18352TIP3    H176471   1.576   3.193   0.820  2.2932  0.0311 -0.4589
18352TIP3    H276472   1.521   3.101   0.713 -1.9117  0.4587  1.1734
18353TIP3   OH276473   3.509   5.557   1.466  0.2521  0.2431 -0.4025
18353TIP3    H176474   3.596   5.561   1.425 -0.0163  1.0047 -0.9209
18353TIP3    H276475   3.480   5.467   1.451  0.0565  0.5568 -2.1638
18354TIP3   OH276476   5.809   4.560  12.130 -0.0338 -0.4169 -0.3560
18354TIP3    H176477   5.748   4.493  12.097 -0.7140  0.4155 -0.8191
18354TIP3    H276478   5.753   4.622  12.176 -0.0744  2.0620 -3.4311
18355TIP3   OH276479   2.241   5.068  10.750 -0.5377  0.0581 -0.7010
18355TIP3    H176480   2.215   5.023  10.669  0.0973  1.9119 -1.9950
18355TIP3    H276481   2.291   5.144  10.720  0.4158  0.3558  1.4861
18356TIP3   OH276482   3.835   4.750  10.255  0.0357 -0.0974 -0.0717
18356TIP3    H176483   3.837   4.843  10.277 -1.0941  0.1722 -0.9839
18356TIP3    H276484   3.782   4.710  10.324 -0.1747  0.0846 -0.1265
18357TIP3   OH276485   6.593   3.140  15.496  0.2915 -0.7081 -0.1181
18357TIP3    H176486   6.629   3.215  15.450  0.1506  0.4504  1.6026
18357TIP3    H276487   6.608   3.158  15.589  0.5054 -2.9405  0.3347
18358TIP3   OH276488   0.307   6.005   0.300 -0.0099 -0.2235  0.2673
18358TIP3    H176489   0.268   6.057   0.371  1.3057  1.8827 -0.4384
18358TIP3    H276490   0.235   5.992   0.238 -0.6279 -0.1112  0.9468
18359TIP3   OH276491   4.335   0.034   2.069  0.3968  0.0227 -0.0999
18359TIP3    H176492   4.265   0.002   2.012  0.5165  0.5609 -0.5634
18359TIP3    H276493   4.382   0.099   2.015  1.0487 -0.0938  0.3141
18360TIP3   OH276494   6.046   1.811  15.291 -0.6051  0.5087 -0.6346
18360TIP3    H176495   6.014   1.893  15.327  0.4723  0.7181 -0.1052
18360TIP3    H276496   6.061   1.830  15.198 -1.7310  0.4756 -0.8350
18361TIP3   OH276497   5.390   3.167  11.396 -0.3630  0.1929 -0.4984
18361TIP3    H176498   5.456   3.099  11.379 -1.0671 -0.5795 -0.2316
18361TIP3    H276499   5.339   3.132  11.469 -1.4357  0.5047 -1.0807
18362TIP3   OH276500   5.554   6.459  17.179  0.0549 -0.3950  0.6258
18362TIP3    H176501   5.586   6.543  17.146 -2.4159  0.6271  0.6218
18362TIP3    H276502   5.607   6.442  17.256 -0.0569  1.7096  1.2280
18363TIP3   OH276503   5.239   1.689  16.268  0.1095  0.1743  0.4998
18363TIP3    H176504   5.305   1.737  16.316 -0.0867 -0.7104  1.6943
18363TIP3    H276505   5.158   1.701  16.318 -0.5076  0.6896 -0.5737
18364TIP3   OH276506   0.991   4.613  16.514  0.5175 -0.0027 -0.5795
18364TIP3    H176507   0.973   4.548  16.446  0.0389  0.2246 -0.6736
18364TIP3    H276508   0.906   4.628  16.556  0.5732  0.7301 -0.7097
18365TIP3   OH276509   5.547   4.423   1.565  0.0315  0.2432 -0.4317
18365TIP3    H176510   5.522   4.331   1.573 -0.2141  0.4520  1.7480
18365TIP3    H276511   5.567   4.450   1.654  3.4708  1.4262 -1.4308
18366TIP3   OH276512   3.727   2.489   4.426 -0.4229 -0.3598  0.3739
18366TIP3    H176513   3.819   2.475   4.447  0.1387  0.2537 -1.3890
18366TIP3    H276514   3.721   2.468   4.333 -1.9396  0.1424  0.3315
18367TIP3   OH276515   2.154   2.211  11.849  0.7014  0.0252 -0.3471
18367TIP3    H176516   2.147   2.190  11.756  0.2198  1.3341 -0.6231
18367TIP3    H276517   2.069   2.246  11.873  0.8248 -0.2857  0.5911
18368TIP3   OH276518   0.262   5.149   2.274 -0.1114  0.1927  0.5285
18368TIP3    H176519   0.192   5.084   2.274 -0.6482  0.7657  0.1799
18368TIP3    H276520   0.217   5.234   2.274  0.5696  0.5766 -0.3760
18369TIP3   OH276521   0.847   2.131   6.625 -0.1413 -0.3377 -0.6142
18369TIP3    H176522   0.914   2.182   6.670 -0.5299 -1.2049  0.9960
18369TIP3    H276523   0.882   2.042   6.621 -0.0102 -0.2535 -2.2915
18370TIP3   OH276524   0.832   4.421  13.446 -0.5868 -0.0093 -0.5030
18370TIP3    H176525   0.739   4.410  13.464 -0.7176  1.7516  0.0373
18370TIP3    H276526   0.839   4.508  13.406  0.9197  0.2352  0.2200
18371TIP3   OH276527   4.949   1.885   1.326  0.6842 -0.2318  0.2958
18371TIP3    H176528   5.006   1.886   1.403  0.2201 -0.7224  0.6540
18371TIP3    H276529   5.007   1.907   1.253  1.5221 -1.5568  0.5329
18372TIP3   OH276530   1.807   4.500  16.352  0.0307  0.2018 -0.3635
18372TIP3    H176531   1.807   4.420  16.299 -1.2037 -1.3276  1.7907
18372TIP3    H276532   1.719   4.506  16.387  0.6912  1.3313  1.2343
18373TIP3   OH276533   5.255   0.764   6.201 -0.2994 -0.3054 -0.2016
18373TIP3    H176534   5.242   0.722   6.286 -0.1633  0.7482  0.3555
18373TIP3    H276535   5.217   0.851   6.211  1.8344  0.7230 -0.4249
18374TIP3   OH276536   3.864   4.361   0.408  0.6303  0.3085  0.1824
18374TIP3    H176537   3.838   4.405   0.489 -0.0261  2.1770 -0.9816
18374TIP3    H276538   3.957   4.383   0.398  0.8898 -0.4769  0.7279
18375TIP3   OH276539   6.772   5.505   6.291  0.3392  0.7853  0.0267
18375TIP3    H176540   6.865   5.482   6.286  0.3190  0.9376 -1.7151
18375TIP3    H276541   6.727   5.421   6.300  0.5377  0.4527 -1.6869
18376TIP3   OH276542   4.837   4.935  14.888  0.0276 -0.5156  0.0726
18376TIP3    H176543   4.800   4.935  14.977 -2.3704  0.4041 -0.8292
18376TIP3    H276544   4.879   5.020  14.880 -1.4031  0.2013 -0.2342
18377TIP3   OH276545   0.052   2.969   0.118 -0.1688  0.4090  0.0946
18377TIP3    H176546   0.001   2.897   0.155 -2.6918  1.4761 -1.1105
18377TIP3    H276547   0.026   2.973   0.026  1.9123  1.2183 -0.5231
18378TIP3   OH276548   3.833   2.362  12.426  0.1062  0.5653 -0.5731
18378TIP3    H176549   3.746   2.350  12.388 -0.9953  0.9953  1.6376
18378TIP3    H276550   3.833   2.308  12.505  0.7410  2.7626  1.0305
18379TIP3   OH276551   1.353   0.922   3.305 -0.0872  0.0968 -0.5783
18379TIP3    H176552   1.389   0.839   3.338 -1.3946 -1.7266 -3.3456
18379TIP3    H276553   1.430   0.974   3.283  0.7830 -0.6191  0.6191
18380TIP3   OH276554   4.105   3.791   4.456  0.6144 -0.2140  0.4928
18380TIP3    H176555   4.052   3.797   4.535  1.8321  1.4036  1.2396
18380TIP3    H276556   4.075   3.864   4.401 -0.2191 -1.3163 -0.5793
18381TIP3   OH276557   3.756   3.634   1.138  0.2100  0.1504 -0.2378
18381TIP3    H176558   3.775   3.556   1.190  1.4614 -1.5650 -3.0057
18381TIP3    H276559   3.841   3.678   1.129 -0.3651  1.5785  0.7595
18382TIP3   OH276560   4.987   6.172  13.921 -0.3479 -0.2415  0.3067
18382TIP3    H176561   5.003   6.086  13.882  2.8765 -0.4051  1.7047
18382TIP3    H276562   4.941   6.152  14.003 -0.1360 -0.5956  0.3432
18383TIP3   OH276563   5.052   3.609   2.550  0.1183  0.0210 -0.0172
18383TIP3    H176564   5.122   3.659   2.593 -0.5368  1.0657 -0.1342
18383TIP3    H276565   4.978   3.668   2.548 -0.8174 -1.1037  0.1745
18384TIP3   OH276566   5.703   0.295  13.189 -0.5729 -1.2185  0.3674
18384TIP3    H176567   5.725   0.377  13.143 -1.2143 -0.4668  1.3536
18384TIP3    H276568   5.724   0.313  13.281 -0.8835 -2.1031  0.6193
18385TIP3   OH276569   2.230   4.909  15.303 -0.7057  0.2251  0.0750
18385TIP3    H176570   2.322   4.884  15.315 -0.8071 -0.7582 -1.0716
18385TIP3    H276571   2.189   4.892  15.388 -0.4499 -2.1586 -0.2333
18386TIP3   OH276572   4.531   0.612   5.433 -0.2619 -0.9405 -0.2692
18386TIP3    H176573   4.554   0.562   5.355  1.5274  0.1852 -0.5288
18386TIP3    H276574   4.543   0.703   5.408  1.6520 -0.5676  1.6316
18387TIP3   OH276575   0.049   6.138   4.908 -0.0663 -0.0202  0.2517
18387TIP3    H176576   0.006   6.219   4.936  0.8602  0.4545  0.3351
18387TIP3    H276577  -0.006   6.106   4.836 -0.9516  0.1892  0.8151
18388TIP3   OH276578   0.981   1.057   2.415 -0.1063  0.1147  0.3733
18388TIP3    H176579   0.992   1.129   2.354 -0.5621 -0.0608  0.0818
18388TIP3    H276580   1.035   1.081   2.490 -0.6297  0.9930  0.4828
18389TIP3   OH276581   0.324   6.035  15.252 -0.0693  0.4863  0.0168
18389TIP3    H176582   0.279   5.998  15.328 -0.2693 -1.8242 -1.1540
18389TIP3    H276583   0.254   6.077  15.202 -0.7892 -1.9386 -1.1235
18390TIP3   OH276584   2.819   5.968   1.194 -0.4863 -0.2744 -0.2072
18390TIP3    H176585   2.863   6.018   1.124 -0.2744 -1.3831 -0.8864
18390TIP3    H276586   2.772   5.899   1.148 -2.1517  0.2789  0.6007
18391TIP3   OH276587   5.442   5.159   0.246  0.0816  0.7224  0.1583
18391TIP3    H176588   5.523   5.116   0.273 -0.4563 -0.5928 -0.2165
18391TIP3    H276589   5.426   5.124   0.158 -1.8608 -0.5110  0.9491
18392TIP3   OH276590   3.041   4.343  11.568  0.5833  0.0048  0.3164
18392TIP3    H176591   3.098   4.412  11.602  0.3972  0.4245 -0.2189
18392TIP3    H276592   3.080   4.319  11.484  0.5864 -0.4684  0.4498
18393TIP3   OH276593   5.078   4.359  12.840  0.0814  0.1877 -0.0696
18393TIP3    H176594   5.144   4.302  12.880  0.3697  0.4887 -0.1133
18393TIP3    H276595   4.996   4.310  12.848 -0.2334  1.0009  2.6224
18394TIP3   OH276596   2.150   1.694   2.946  0.1287 -0.7450  0.3744
18394TIP3    H176597   2.103   1.777   2.947  0.2545 -0.6740  0.4303
18394TIP3    H276598   2.223   1.708   2.887  0.6021 -0.5652  0.9944
18395TIP3   OH276599   4.547   2.015  11.274  0.1384 -0.9720 -0.0612
18395TIP3    H176600   4.506   2.021  11.361 -0.7920 -3.2543 -0.2636
18395TIP3    H276601   4.483   2.055  11.215  1.5083  2.1471  0.4127
18396TIP3   OH276602   1.062   3.331   5.212 -0.2707 -0.8593 -0.0031
18396TIP3    H176603   0.974   3.332   5.174 -0.0065 -3.4289 -0.8782
18396TIP3    H276604   1.115   3.382   5.151 -0.8043 -0.8356 -0.4540
18397TIP3   OH276605   1.280   2.638   2.800 -0.2966 -0.2706  0.2652
18397TIP3    H176606   1.370   2.660   2.824 -0.2969 -1.0314  1.0129
18397TIP3    H276607   1.262   2.692   2.724  1.7838 -2.1738 -1.7443
18398TIP3   OH276608   1.091   6.442  12.166 -0.3145 -0.7370  0.3864
18398TIP3    H176609   1.007   6.426  12.210 -1.2799  0.8965 -0.7458
18398TIP3    H276610   1.074   6.420  12.074  0.9237 -1.7060  0.3707
18399TIP3   OH276611   0.395   0.690   3.737 -0.3547  0.1085 -0.8406
18399TIP3    H176612   0.409   0.596   3.722  1.3864  0.4984 -1.8441
18399TIP3    H276613   0.327   0.714   3.674 -1.2228 -0.5410 -0.2029
18400TIP3   OH276614   1.775   0.753   4.447 -0.7258 -0.0151 -0.6249
18400TIP3    H176615   1.783   0.770   4.354  1.7121 -1.0256 -0.6757
18400TIP3    H276616   1.748   0.837   4.485 -3.3201  0.0354 -2.3155
18401TIP3   OH276617   5.003   1.640   5.330  0.0200  0.1300  0.3497
18401TIP3    H176618   4.999   1.610   5.421 -0.0712 -2.0417 -0.2984
18401TIP3    H276619   5.090   1.680   5.322 -0.5593  1.7855  1.7440
18402TIP3   OH276620   5.079   4.630  11.960 -0.0406  0.1978  0.0060
18402TIP3    H176621   5.023   4.706  11.942 -1.6254 -0.8579  0.2679
18402TIP3    H276622   5.036   4.586  12.033 -0.6878 -2.3921 -1.7828
18403TIP3   OH276623   4.733   1.476  17.061  0.0021 -0.3038  0.2517
18403TIP3    H176624   4.766   1.396  17.021 -1.3207 -1.4047  1.2909
18403TIP3    H276625   4.787   1.488  17.140 -0.0657 -0.3856  0.3094
18404TIP3   OH276626   6.161   0.866  14.778  0.0231  0.3728 -0.5880
18404TIP3    H176627   6.120   0.918  14.709 -0.0779 -0.1584 -0.9278
18404TIP3    H276628   6.156   0.922  14.856 -0.7186  0.5897 -0.7856
18405TIP3   OH276629   2.564   6.128  15.496  0.4611 -0.0045  0.5708
18405TIP3    H176630   2.606   6.085  15.422 -0.1427  1.6785 -0.8122
18405TIP3    H276631   2.633   6.182  15.535 -0.1341  2.3625 -1.3914
18406TIP3   OH276632   3.319   3.229  14.278  0.3303 -0.6037  0.6147
18406TIP3    H176633   3.306   3.188  14.364 -0.9228 -0.0763  0.6968
18406TIP3    H276634   3.249   3.294  14.272  1.6232  0.7644  0.0318
18407TIP3   OH276635   2.333   2.428   2.693  0.4500  0.0189  0.1471
18407TIP3    H176636   2.308   2.377   2.770 -1.1924 -0.7939 -0.8718
18407TIP3    H276637   2.336   2.519   2.724 -2.4404  0.0071  0.7266
18408TIP3   OH276638   1.390   6.182   1.858  0.2406  0.2403  0.2899
18408TIP3    H176639   1.455   6.115   1.877  0.0422  0.1488  0.6703
18408TIP3    H276640   1.322   6.168   1.924  1.0837  2.0291  1.6284
18409TIP3   OH276641   5.431   2.977  16.876 -0.7407 -0.9678  0.1787
18409TIP3    H176642   5.351   3.023  16.850 -0.0978  0.3666  0.4507
18409TIP3    H276643   5.466   3.029  16.948  2.3586  0.8159 -2.3051
18410TIP3   OH276644   3.098   1.023   4.045  0.1883  0.0213 -0.1749
18410TIP3    H176645   3.045   0.950   4.014  0.1240  0.3539 -0.8542
18410TIP3    H276646   3.185   0.985   4.061  0.0043 -0.3185  0.0302
18411TIP3   OH276647   2.675   3.700  13.910 -0.3228  0.5166 -0.0697
18411TIP3    H176648   2.631   3.668  13.831 -0.3995  0.3318  0.0483
18411TIP3    H276649   2.686   3.794  13.894  0.8738  0.2643 -0.8934
18412TIP3   OH276650   3.897   3.794  12.080 -0.0689  0.2541  0.6998
18412TIP3    H176651   3.989   3.787  12.057  0.1750 -0.6911  1.8559
18412TIP3    H276652   3.857   3.839  12.006  1.3275  0.7675  0.2235
18413TIP3   OH276653   2.821   4.730  14.360 -0.1253  0.1838 -0.2421
18413TIP3    H176654   2.774   4.807  14.392 -2.4272 -1.9168  1.7555
18413TIP3    H276655   2.753   4.670  14.331  1.6340 -0.9658 -2.2186
18414TIP3   OH276656   5.845   5.811   0.578  0.4754 -0.3011  0.9203
18414TIP3    H176657   5.841   5.721   0.545 -3.0100 -0.4253  1.3420
18414TIP3    H276658   5.797   5.809   0.660 -0.6068  2.1015  0.4372
18415TIP3   OH276659   6.404   3.801   0.584  0.4881 -0.8002 -0.9861
18415TIP3    H176660   6.330   3.861   0.582  0.0931 -0.9517  2.5209
18415TIP3    H276661   6.365   3.714   0.590  0.7592 -0.8291  1.9147
18416TIP3   OH276662   3.537   6.044  13.796 -0.3188  0.2681 -0.6088
18416TIP3    H176663   3.449   6.042  13.833  0.1955  2.9621  1.0308
18416TIP3    H276664   3.590   5.989  13.854 -0.9287 -1.8532 -1.9390
18417TIP3   OH276665   1.015   1.736   2.349 -0.4399  0.3299  0.1748
18417TIP3    H176666   1.086   1.789   2.387  2.3392 -3.1904  0.4396
18417TIP3    H276667   1.031   1.737   2.255 -0.2101 -0.1802  0.2026
18418TIP3   OH276668   4.895   2.571  12.834 -0.0732 -0.0784  0.1851
18418TIP3    H176669   4.851   2.645  12.876 -1.2812  1.1269 -2.9426
18418TIP3    H276670   4.869   2.495  12.886 -1.6319  1.2435  1.4517
18419TIP3   OH276671   3.357   6.536  11.395  0.5152  0.1161  0.2093
18419TIP3    H176672   3.266   6.508  11.402  1.1049 -1.9157  0.2242
18419TIP3    H276673   3.401   6.465  11.349  2.1052  1.0709  0.1851
18420TIP3   OH276674   0.458   2.450   4.159 -0.1686 -0.2540  0.2448
18420TIP3    H176675   0.390   2.480   4.219 -0.1363  0.1397  0.0886
18420TIP3    H276676   0.419   2.376   4.113 -1.3166  1.3003 -1.4216
18421TIP3   OH276677   2.161   2.663  16.224 -0.3611 -0.0849  0.5260
18421TIP3    H176678   2.243   2.686  16.267 -0.7087  1.0876  0.6136
18421TIP3    H276679   2.185   2.648  16.133 -0.1167  0.7937  0.4385
18422TIP3   OH276680   0.764   3.826   5.742  0.4258  0.5830  0.3940
18422TIP3    H176681   0.856   3.830   5.718  0.0924  1.5062 -0.8157
18422TIP3    H276682   0.751   3.899   5.802  1.0450 -1.1618  2.8004
18423TIP3   OH276683   5.702   3.329  16.077  0.3881  0.0146 -0.1081
18423TIP3    H176684   5.699   3.251  16.022  0.0873  1.3491 -2.0965
18423TIP3    H276685   5.760   3.305  16.150  0.4165 -1.9916 -0.7387
18424TIP3   OH276686   4.147   0.574   2.507 -0.4479  0.6245  0.3946
18424TIP3    H176687   4.109   0.489   2.532  0.1891  0.2040 -0.0456
18424TIP3    H276688   4.199   0.555   2.429  0.9664  1.1184  1.1851
18425TIP3   OH276689   2.431   2.736   3.180  0.5868 -0.3595  0.3567
18425TIP3    H176690   2.418   2.642   3.169  0.8034 -0.4199  0.6000
18425TIP3    H276691   2.389   2.758   3.263 -0.8864  0.0650 -0.4595
18426TIP3   OH276692   0.154   1.778   1.720 -0.0462  0.4792  0.1965
18426TIP3    H176693   0.078   1.779   1.662 -0.5551 -1.0761  0.7820
18426TIP3    H276694   0.216   1.719   1.678  0.6141  1.2817  0.0155
18427TIP3   OH276695   3.201   4.319  15.626  0.3943 -0.2282  0.3790
18427TIP3    H176696   3.260   4.342  15.554  0.8259 -1.5474  0.2774
18427TIP3    H276697   3.117   4.355  15.600  1.0885  1.5209  0.4381
18428TIP3   OH276698   3.142   2.320   5.818 -0.7715  0.9342 -0.1276
18428TIP3    H176699   3.152   2.330   5.912 -0.0510 -0.6648 -0.0008
18428TIP3    H276700   3.110   2.231   5.806  0.9148  0.4432 -1.4589
18429TIP3   OH276701   4.139   2.051   1.774 -0.6212  0.0470  0.1536
18429TIP3    H176702   4.207   2.051   1.841 -0.5342  0.7832  0.0657
18429TIP3    H276703   4.107   2.141   1.771 -1.6260 -0.2944  0.2170
18430TIP3   OH276704   6.614   4.369  16.152 -0.4215 -0.0136 -0.3191
18430TIP3    H176705   6.660   4.355  16.235 -0.4514  2.8323  0.2824
18430TIP3    H276706   6.683   4.371  16.086 -0.3027 -1.2821 -0.2595
18431TIP3   OH276707   3.945   5.453   0.270  0.2149 -0.1192 -0.7121
18431TIP3    H176708   4.023   5.507   0.284 -0.4391  0.6909 -0.1010
18431TIP3    H276709   3.927   5.462   0.176  0.3186  0.4500 -0.6801
18432TIP3   OH276710   4.497   3.434  16.614  0.1721 -0.2308  0.1728
18432TIP3    H176711   4.467   3.517  16.652 -0.4218 -0.7116  0.7862
18432TIP3    H276712   4.419   3.399  16.569  0.0494 -1.0612  1.0062
18433TIP3   OH276713   1.594   5.048  13.533  0.2836  0.2626 -0.2402
18433TIP3    H176714   1.523   5.111  13.522  0.7210  1.0328  1.1227
18433TIP3    H276715   1.646   5.056  13.453  0.6998  2.1662  0.1732
18434TIP3   OH276716   3.057   0.913  14.305 -0.0122  0.4449 -0.0631
18434TIP3    H176717   3.128   0.967  14.340 -1.2988  2.4093 -0.3850
18434TIP3    H276718   3.060   0.928  14.210  0.0480 -0.6260 -0.2448
18435TIP3   OH276719   0.900   0.798   5.064 -0.3719 -0.0144  0.1341
18435TIP3    H176720   0.908   0.740   4.988  1.7273 -0.0279  0.3124
18435TIP3    H276721   0.934   0.882   5.034 -1.5363  0.6057  0.4732
18436TIP3   OH276722   5.174   6.452  12.186  0.1039  0.2836 -0.4099
18436TIP3    H176723   5.238   6.384  12.207  0.3890  0.5555 -0.3854
18436TIP3    H276724   5.178   6.461  12.091  0.5924  0.7684 -0.3502
18437TIP3   OH276725   3.701   3.622   4.000 -0.3534 -0.6215  0.3978
18437TIP3    H176726   3.607   3.636   4.007 -0.3030  0.7838 -1.0882
18437TIP3    H276727   3.712   3.527   4.006 -1.9885 -0.9050 -0.5905
18438TIP3   OH276728   3.335   3.191   1.541  0.3334 -0.2575  0.1177
18438TIP3    H176729   3.245   3.173   1.568 -0.1436 -0.7434 -1.7065
18438TIP3    H276730   3.388   3.136   1.598 -0.7609 -2.8796 -1.2150
18439TIP3   OH276731   0.582   3.329   1.684  1.0543  0.1083  0.7642
18439TIP3    H176732   0.634   3.355   1.608  0.3619  0.4354  0.3891
18439TIP3    H276733   0.506   3.387   1.681  0.8251 -0.1499  1.4792
18440TIP3   OH276734   5.465   0.333   2.810  0.5571  0.1116 -0.2155
18440TIP3    H176735   5.554   0.316   2.839  1.4276  2.4748 -1.2564
18440TIP3    H276736   5.426   0.384   2.882 -0.2773 -1.5845  0.5892
18441TIP3   OH276737   3.181   1.385  10.979  0.6643  0.4028  0.3765
18441TIP3    H176738   3.263   1.347  10.946  0.7672  0.7197  0.2620
18441TIP3    H276739   3.140   1.424  10.901  0.2379 -0.0542  0.3683
18442TIP3   OH276740   2.153   0.884  16.654  0.6164  0.4421  0.2797
18442TIP3    H176741   2.117   0.970  16.633 -1.0361 -0.1250  0.6612
18442TIP3    H276742   2.153   0.881  16.750  1.1170  0.1947  0.2728
18443TIP3   OH276743   4.290   5.851   0.770  0.2222 -0.0538  0.4688
18443TIP3    H176744   4.272   5.936   0.811  1.4505  0.1191  0.6945
18443TIP3    H276745   4.293   5.789   0.843 -0.4963 -0.2642  0.3227
18444TIP3   OH276746   4.430   3.769   0.745  0.1436  0.4070 -0.3139
18444TIP3    H176747   4.427   3.801   0.835 -0.9838  2.2625 -0.9380
18444TIP3    H276748   4.440   3.674   0.753  3.6451  0.7650  1.6936
18445TIP3   OH276749   3.514   2.132  10.959 -0.1057 -0.1055 -0.1180
18445TIP3    H176750   3.505   2.216  11.004 -0.4812  0.0671 -0.5164
18445TIP3    H276751   3.537   2.155  10.869 -0.0223 -0.4378 -0.1841
18446TIP3   OH276752   0.316   2.829  14.749  0.0428 -0.6283  0.4517
18446TIP3    H176753   0.371   2.784  14.813  0.4224 -0.1606  0.4569
18446TIP3    H276754   0.229   2.828  14.789  0.2598 -0.4156  0.9417
18447TIP3   OH276755   6.488   5.980  14.957  0.3219  0.1984  0.1821
18447TIP3    H176756   6.501   5.886  14.969 -0.9403 -0.1119 -0.6724
18447TIP3    H276757   6.565   6.009  14.908  0.3276 -0.5615 -0.2742
18448TIP3   OH276758   4.867   6.318   2.956 -0.1261  0.3345 -0.0970
18448TIP3    H176759   4.872   6.255   3.028 -0.3845 -0.7574 -1.0064
18448TIP3    H276760   4.786   6.296   2.910 -0.2863  1.4238 -0.3527
18449TIP3   OH276761   6.436   3.119   5.359 -0.1985 -0.1159 -0.8877
18449TIP3    H176762   6.377   3.096   5.430  1.4898 -1.1392  0.2455
18449TIP3    H276763   6.379   3.129   5.283 -1.8065 -1.1887  0.1127
18450TIP3   OH276764   3.452   5.587   0.460  0.3543 -0.0095 -0.3227
18450TIP3    H176765   3.499   5.630   0.531 -0.4234  2.2693 -1.0912
18450TIP3    H276766   3.360   5.605   0.477  0.1332  0.3058 -1.7209
18451TIP3   OH276767   2.826   5.049  15.391  0.1563 -0.3658 -0.0255
18451TIP3    H176768   2.914   5.086  15.399 -0.3383  0.7762  0.3608
18451TIP3    H276769   2.775   5.093  15.459 -0.9116 -0.4083 -0.7661
18452TIP3   OH276770   1.982   0.599   1.187  0.5179 -0.2409 -0.3319
18452TIP3    H176771   1.975   0.602   1.282  1.6447  0.3486 -0.2480
18452TIP3    H276772   1.897   0.629   1.155  0.5852  0.8598  0.4960
18453TIP3   OH276773   0.044   5.530   2.747 -0.2860 -0.4759  0.1435
18453TIP3    H176774  -0.034   5.522   2.692  0.9871 -1.0824 -1.6900
18453TIP3    H276775   0.070   5.622   2.739  0.6553 -0.8394 -1.4699
18454TIP3   OH276776   5.888   5.113   1.184 -0.5779  0.3422 -0.2355
18454TIP3    H176777   5.826   5.083   1.250 -0.8212 -0.4172 -0.7925
18454TIP3    H276778   5.939   5.035   1.162 -0.0847  0.7338 -0.4949
18455TIP3   OH276779   4.821   3.755   2.411 -0.0083  1.2636  0.1666
18455TIP3    H176780   4.877   3.725   2.340 -1.6911 -2.1324  0.0606
18455TIP3    H276781   4.801   3.846   2.389  2.1704  1.3461 -1.8797
18456TIP3   OH276782   3.997   1.850   4.485 -0.0083 -0.2934  0.4074
18456TIP3    H176783   3.956   1.782   4.431  1.4812 -0.3103 -0.7720
18456TIP3    H276784   4.085   1.816   4.503  0.6211  1.1466  0.1481
18457TIP3   OH276785   5.951   0.026   1.215 -0.0050 -0.0271 -0.6123
18457TIP3    H176786   6.015  -0.045   1.215 -1.3294 -1.2678  0.6673
18457TIP3    H276787   5.982   0.085   1.285  1.3953  1.0255 -2.0300
18458TIP3   OH276788   4.280   1.931  15.665 -0.2154  0.6580 -0.3613
18458TIP3    H176789   4.312   1.947  15.754 -1.7665 -2.6830  0.9795
18458TIP3    H276790   4.338   1.862  15.632 -2.3809 -1.4145 -0.0657
18459TIP3   OH276791   0.607   1.598   2.547  0.3715 -0.4011 -0.3311
18459TIP3    H176792   0.633   1.684   2.517 -1.0563 -0.2983 -1.3650
18459TIP3    H276793   0.645   1.537   2.484 -0.2140 -0.3796 -0.7161
18460TIP3   OH276794   2.874   0.270   0.258 -0.3250  0.4221  0.2684
18460TIP3    H176795   2.941   0.214   0.296  2.4725  2.6155 -1.0461
18460TIP3    H276796   2.867   0.344   0.319 -0.8478  0.6707 -0.0799
18461TIP3   OH276797   0.662   0.864  17.076  0.4356 -0.1355  0.0467
18461TIP3    H176798   0.682   0.938  17.018 -0.3547  1.1964  1.4084
18461TIP3    H276799   0.680   0.896  17.164 -1.0119 -1.1746  0.7667
18462TIP3   OH276800   0.829   1.284  16.253 -0.0231 -0.1988  0.3815
18462TIP3    H176801   0.920   1.252  16.253  0.5704  1.3765  0.6394
18462TIP3    H276802   0.818   1.325  16.168 -0.1530  0.4868  0.7208
18463TIP3   OH276803   4.736   1.086   3.751 -0.4676  0.1950 -0.8685
18463TIP3    H176804   4.774   1.088   3.664  2.6553  0.7772  0.3853
18463TIP3    H276805   4.694   1.171   3.761 -0.2805  0.3777 -1.5627
18464TIP3   OH276806   4.639   5.375  17.054 -0.3500  0.6858  0.3019
18464TIP3    H176807   4.665   5.284  17.039 -0.1735  0.5838  1.1743
18464TIP3    H276808   4.706   5.427  17.009  0.5927  0.4036  1.3284
18465TIP3   OH276809   4.217   1.323   1.092  0.6501  0.4146  0.1556
18465TIP3    H176810   4.130   1.288   1.110  0.3415  1.7307  1.4711
18465TIP3    H276811   4.246   1.359   1.176  3.1627 -1.3896  0.1558
18466TIP3   OH276812   5.531   4.873   2.791  0.4508  0.6467 -0.7051
18466TIP3    H176813   5.483   4.952   2.815 -0.8188  0.1987 -1.6742
18466TIP3    H276814   5.470   4.802   2.810  1.6379 -0.1386  0.3026
18467TIP3   OH276815   3.296   6.737  12.315  0.4823  0.3324 -0.2370
18467TIP3    H176816   3.346   6.747  12.396 -1.4935  1.0309  0.9596
18467TIP3    H276817   3.205   6.740  12.342 -0.2560  0.8667 -2.5343
18468TIP3   OH276818   5.912   5.214  16.225  0.6309  0.0956  0.8836
18468TIP3    H176819   5.817   5.206  16.235  0.5524  0.0911  0.1969
18468TIP3    H276820   5.934   5.149  16.158  1.1103  0.1333  1.0048
18469TIP3   OH276821   2.036   1.684   0.273 -0.1596 -0.6757  0.9730
18469TIP3    H176822   2.082   1.724   0.348  0.8199 -3.3667  1.9335
18469TIP3    H276823   2.055   1.591   0.281 -0.2636 -1.1047 -2.5384
18470TIP3   OH276824   1.271   2.910   0.184 -0.2897  0.2242 -0.5499
18470TIP3    H176825   1.219   2.925   0.263  0.6890  1.0614 -0.0469
18470TIP3    H276826   1.213   2.935   0.112 -1.1093 -0.3269 -0.0967
18471TIP3   OH276827   5.454   4.078   6.403  0.1494  0.1436  1.0141
18471TIP3    H176828   5.522   4.028   6.449  0.9011  0.0731 -0.1312
18471TIP3    H276829   5.469   4.168   6.431  1.5704  0.3212 -0.1795
18472TIP3   OH276830   4.202   1.723  11.908 -0.2125  0.1001  0.0058
18472TIP3    H176831   4.200   1.807  11.955 -3.1393  0.9111 -1.3382
18472TIP3    H276832   4.224   1.748  11.818 -4.0445 -0.0157 -1.1064
18473TIP3   OH276833   4.140   4.956  16.521  0.0476  0.4579  0.5230
18473TIP3    H176834   4.202   5.024  16.547  0.0811  0.5899  0.1126
18473TIP3    H276835   4.106   4.922  16.603 -0.8196  1.7417  0.7171
18474TIP3   OH276836   3.482   0.321   2.139  0.1797  0.2492 -0.1512
18474TIP3    H176837   3.456   0.404   2.179  0.2239  1.0380 -1.6780
18474TIP3    H276838   3.403   0.267   2.142 -0.3289  0.9418 -0.5509
18475TIP3   OH276839   1.714   5.741   5.894 -0.2080 -0.2267  0.1475
18475TIP3    H176840   1.789   5.722   5.838 -0.5480  0.1860 -0.4627
18475TIP3    H276841   1.674   5.656   5.911  0.4665 -0.4592  0.5751
18476TIP3   OH276842   3.001   4.254   1.576 -0.6437  0.1162 -0.5783
18476TIP3    H176843   2.961   4.333   1.540 -2.1085 -1.1331 -1.8326
18476TIP3    H276844   2.936   4.185   1.561  0.6864 -1.3838  0.2402
18477TIP3   OH276845   1.991   6.783  10.996 -0.1544  0.1165  0.1777
18477TIP3    H176846   2.008   6.835  11.075 -0.7222  1.1256 -0.3413
18477TIP3    H276847   2.037   6.700  11.011 -0.6525  0.0986  1.7704
18478TIP3   OH276848   6.266   1.760  16.118  0.1316  0.0968  0.1212
18478TIP3    H176849   6.199   1.767  16.186 -1.5500 -1.1994 -1.3123
18478TIP3    H276850   6.308   1.676  16.134 -1.6655 -1.2016 -1.5527
18479TIP3   OH276851   5.151   1.444  15.268 -0.1064  0.2460 -0.2377
18479TIP3    H176852   5.151   1.511  15.337  0.7322 -1.1118  1.1267
18479TIP3    H276853   5.219   1.473  15.207 -0.3489  1.0820 -0.1288
18480TIP3   OH276854   5.531   2.301   0.478 -0.1884 -0.7158 -0.5705
18480TIP3    H176855   5.491   2.337   0.398  1.2252 -0.2412 -1.0936
18480TIP3    H276856   5.542   2.208   0.459 -2.5770 -1.2272  0.2509
18481TIP3   OH276857   6.224   5.226   1.925  0.1083 -0.5250 -0.7562
18481TIP3    H176858   6.226   5.134   1.899 -0.9619 -1.1853  1.2608
18481TIP3    H276859   6.282   5.230   2.002 -0.4428  0.3080 -0.3648
18482TIP3   OH276860   5.243   0.360  15.350  0.2726 -0.6786  0.1377
18482TIP3    H176861   5.185   0.285  15.336  1.0777 -1.4868  0.9582
18482TIP3    H276862   5.183   0.432  15.372 -0.6246 -0.6245 -2.2483
18483TIP3   OH276863   5.763   3.106   4.569 -0.1390  0.0205 -0.1748
18483TIP3    H176864   5.704   3.179   4.546  1.8836  1.6174 -0.5897
18483TIP3    H276865   5.822   3.143   4.634  0.7815 -1.3580 -0.1916
18484TIP3   OH276866   4.706   6.647   3.609  0.7192  0.4016  0.4104
18484TIP3    H176867   4.739   6.662   3.698  0.1698  1.6670  0.4198
18484TIP3    H276868   4.764   6.580   3.573  1.3372  0.3261  1.5075
18485TIP3   OH276869   6.401   5.587   4.040  0.0323 -0.2878 -0.4921
18485TIP3    H176870   6.315   5.576   4.083 -0.4760  0.2983 -1.3439
18485TIP3    H276871   6.464   5.563   4.108 -0.7813 -0.0654  0.3671
18486TIP3   OH276872   1.017   3.737   0.562  1.2166 -0.4412 -0.3320
18486TIP3    H176873   1.066   3.706   0.486  3.8257  1.3451  0.4869
18486TIP3    H276874   1.042   3.678   0.633  1.6586  0.0448 -0.0739
18487TIP3   OH276875   6.771   2.575   1.991  0.2652  0.0278 -0.2743
18487TIP3    H176876   6.855   2.622   1.994 -0.6753  1.8598 -1.0448
18487TIP3    H276877   6.751   2.568   1.898 -1.2710  1.2298 -0.0646
18488TIP3   OH276878   5.570   1.179   4.914  0.2183 -0.2434  0.0001
18488TIP3    H176879   5.549   1.201   5.005 -1.2620 -0.1979 -0.3213
18488TIP3    H276880   5.648   1.231   4.894  0.4067 -0.0515  1.1502
18489TIP3   OH276881   4.525   6.571   6.286  0.4661 -0.4723 -0.1477
18489TIP3    H176882   4.601   6.553   6.341  0.1617 -0.8297  0.1575
18489TIP3    H276883   4.486   6.486   6.270 -1.3795 -0.0915  1.8837
18490TIP3   OH276884   5.545   6.595  12.762  0.0467  0.2193  0.3279
18490TIP3    H176885   5.632   6.609  12.799 -0.2206  0.1163  1.0174
18490TIP3    H276886   5.492   6.565  12.836 -0.5227  0.0659 -0.1299
18491TIP3   OH276887   5.828   0.460   6.707 -0.6620  0.0861 -0.1455
18491TIP3    H176888   5.892   0.521   6.745 -2.4280  1.6565  0.4560
18491TIP3    H276889   5.794   0.505   6.630 -0.3490 -1.1890 -1.0789
18492TIP3   OH276890   2.095   2.110   4.764  0.0839  0.1245 -0.2411
18492TIP3    H176891   2.184   2.100   4.799  0.3515  0.4906 -0.8061
18492TIP3    H276892   2.081   2.029   4.714 -0.4539 -0.5878  1.0058
18493TIP3   OH276893   0.303   1.074   6.746  0.1876  0.2172 -0.1534
18493TIP3    H176894   0.330   1.031   6.664  0.0233 -1.2206  0.5156
18493TIP3    H276895   0.262   1.004   6.797  2.9215  0.2824  2.4195
18494TIP3   OH276896   0.114   3.281   1.697 -0.0539  0.0813  0.9006
18494TIP3    H176897   0.095   3.189   1.713 -0.2700  0.1320  0.9363
18494TIP3    H276898   0.188   3.280   1.637 -0.3678 -0.1184  0.5135
18495TIP3   OH276899   5.993   4.621  15.196  0.5017  0.2747  0.0065
18495TIP3    H176900   5.927   4.566  15.154  0.1750  0.6345  0.0496
18495TIP3    H276901   6.066   4.623  15.133 -0.1939  1.2490 -0.8068
18496TIP3   OH276902   0.006   2.065   3.901  0.5277 -1.1339 -0.3295
18496TIP3    H176903  -0.018   2.145   3.854  1.6439  0.6007  1.8771
18496TIP3    H276904   0.096   2.046   3.872 -0.0207 -2.1538 -1.4817
18497TIP3   OH276905   3.535   3.301   5.304 -0.0223 -0.0205 -0.8776
18497TIP3    H176906   3.540   3.396   5.314 -1.3391 -0.1041  1.2543
18497TIP3    H276907   3.441   3.282   5.302  0.2209 -1.2592 -1.5857
18498TIP3   OH276908   3.857   2.878   5.972  0.5067 -0.4917  0.6110
18498TIP3    H176909   3.935   2.932   5.961  0.1303  0.0979  0.7886
18498TIP3    H276910   3.843   2.875   6.066  1.9773 -3.0197  0.8312
18499TIP3   OH276911   5.228   3.896   5.989  0.1405 -0.0108  0.1659
18499TIP3    H176912   5.283   3.946   5.928  1.9237 -2.3452 -0.2949
18499TIP3    H276913   5.191   3.962   6.047  1.6340  1.9172 -0.9349
18500TIP3   OH276914   2.637   5.709  14.765  0.0843 -0.0115  0.1101
18500TIP3    H176915   2.723   5.692  14.726  0.2230 -0.1709  0.4753
18500TIP3    H276916   2.657   5.740  14.854 -0.2507 -1.2133  0.6320
18501TIP3   OH276917   1.006   1.294   0.636 -0.1833 -0.6877 -0.4190
18501TIP3    H176918   0.971   1.308   0.724  0.2589  1.9842 -0.5882
18501TIP3    H276919   0.940   1.333   0.578  0.6947 -0.1613 -1.0862
18502TIP3   OH276920   5.088   2.478  14.454  0.2665  0.1387 -0.0366
18502TIP3    H176921   5.107   2.510  14.366  0.3143 -0.5760 -0.2885
18502TIP3    H276922   4.994   2.460  14.454  0.3075 -0.0741 -0.0086
18503TIP3   OH276923   2.127   2.909   4.220  0.1567 -0.0876  0.1279
18503TIP3    H176924   2.147   2.965   4.295 -0.7490 -0.5602  0.7454
18503TIP3    H276925   2.074   2.963   4.163  0.0696 -0.0181  0.2742
18504TIP3   OH276926   6.134   5.225   4.432  0.0817 -0.1335 -0.6041
18504TIP3    H176927   6.198   5.168   4.476 -1.9096 -0.2545  2.4051
18504TIP3    H276928   6.150   5.311   4.470  0.3777  0.4814 -2.0865
18505TIP3   OH276929   4.045   0.519  16.156 -0.2211  0.9914  0.2885
18505TIP3    H176930   4.129   0.560  16.135  0.6830 -1.3734 -1.1590
18505TIP3    H276931   4.016   0.480  16.074  0.1371 -3.0917  1.8750
18506TIP3   OH276932   0.650   4.389  16.178  0.1850 -0.3225 -0.3020
18506TIP3    H176933   0.556   4.396  16.193  0.4344 -0.1922  1.5321
18506TIP3    H276934   0.685   4.472  16.210  0.8302  0.1143 -2.0738
18507TIP3   OH276935   3.568   3.456  14.247  0.3813  0.3622  0.8920
18507TIP3    H176936   3.474   3.458  14.231  0.1537 -0.1095  2.0277
18507TIP3    H276937   3.598   3.544  14.225 -0.4123  0.6547  0.9520
18508TIP3   OH276938   5.938   6.393   0.572 -0.1952  0.0548 -0.2860
18508TIP3    H176939   6.007   6.456   0.552  0.0044 -0.5903 -1.6969
18508TIP3    H276940   5.971   6.345   0.648 -0.4912  1.8383  1.0178
18509TIP3   OH276941   6.525   2.146  13.943 -0.0037  0.7576 -0.1575
18509TIP3    H176942   6.444   2.151  13.995 -1.3045 -3.8409 -1.2796
18509TIP3    H276943   6.523   2.225  13.888 -1.7101  2.6602  2.3821
18510TIP3   OH276944   1.637   3.363  11.617 -0.0494  0.8292 -0.6356
18510TIP3    H176945   1.652   3.344  11.525 -0.9646  0.2312 -0.6786
18510TIP3    H276946   1.603   3.453  11.618  2.0507  1.6725 -0.6545
18511TIP3   OH276947   3.572   4.818   1.662 -0.1361 -0.3186  0.2803
18511TIP3    H176948   3.535   4.729   1.667  2.5995 -1.5019  1.1351
18511TIP3    H276949   3.642   4.811   1.597  0.9608  0.8633  1.2874
18512TIP3   OH276950   1.257   3.922   5.722 -0.5492 -0.2991 -0.1970
18512TIP3    H176951   1.321   3.861   5.759  1.3318 -0.2365 -3.0499
18512TIP3    H276952   1.309   3.980   5.666 -2.7985  1.5135 -0.5511
18513TIP3   OH276953   1.604   6.300  12.356 -0.0962 -0.3581 -0.3457
18513TIP3    H176954   1.509   6.299  12.339 -0.3497 -1.3190  0.9276
18513TIP3    H276955   1.641   6.249  12.284 -0.7387 -1.3484  0.0025
18514TIP3   OH276956   0.978   2.966  13.831  0.1487  0.2406  0.9030
18514TIP3    H176957   0.942   2.974  13.919  1.9538 -1.1960  1.8490
18514TIP3    H276958   1.072   2.977  13.843  0.4179  0.1062 -0.8670
18515TIP3   OH276959   4.619   4.192  14.351  0.3516 -0.0263 -0.0533
18515TIP3    H176960   4.559   4.125  14.385  1.2154  0.2516  2.2043
18515TIP3    H276961   4.590   4.273  14.394 -0.8453  1.2201 -2.9338
18516TIP3   OH276962   5.897   1.407  15.190 -0.2105  0.5767 -0.4364
18516TIP3    H176963   5.941   1.470  15.247 -0.5819  0.3504  0.1151
18516TIP3    H276964   5.874   1.334  15.248  0.3851 -0.1573 -1.1054
18517TIP3   OH276965   1.552   2.017   3.372  0.1821 -0.4881 -0.2959
18517TIP3    H176966   1.572   2.052   3.459 -0.3892 -1.8443  0.4005
18517TIP3    H276967   1.635   1.980   3.342  1.1835  2.5233 -1.6334
18518TIP3   OH276968   5.731   2.855   2.308 -0.0265  0.4077  0.1971
18518TIP3    H176969   5.806   2.818   2.261  0.4037 -0.9865  1.8437
18518TIP3    H276970   5.737   2.949   2.293  0.7011  0.1147 -1.5916
18519TIP3   OH276971   1.187   5.928   1.788 -0.3644 -0.3134 -0.5424
18519TIP3    H176972   1.116   5.957   1.732 -0.4077  1.2226  0.2469
18519TIP3    H276973   1.187   5.990   1.861  1.1696 -0.8444 -0.0398
18520TIP3   OH276974   0.647   5.343   2.555 -0.1948  0.2906  0.1601
18520TIP3    H176975   0.571   5.303   2.512  0.2911  1.0887 -1.5616
18520TIP3    H276976   0.696   5.383   2.483  2.9165 -1.8235  0.9068
18521TIP3   OH276977   4.112   5.946  13.202 -0.3907 -0.5445  0.5819
18521TIP3    H176978   4.197   5.966  13.163 -0.7954  0.1219  0.0316
18521TIP3    H276979   4.069   6.031  13.211 -1.0858 -0.9037  0.6639
18522TIP3   OH276980   1.477   5.994   0.061 -0.1708 -0.0352  0.1594
18522TIP3    H176981   1.484   6.082   0.022  1.2556 -0.2685 -0.1480
18522TIP3    H276982   1.545   5.943   0.017 -1.9397 -1.7220 -0.7262
18523TIP3   OH276983   5.537   1.685   5.214 -0.4190  0.1115  0.1382
18523TIP3    H176984   5.470   1.680   5.282  0.3259 -1.3571  0.8043
18523TIP3    H276985   5.490   1.718   5.137 -1.0273  3.0034  1.6201
18524TIP3   OH276986   4.348   0.014  11.407 -0.1352 -0.1896 -0.1781
18524TIP3    H176987   4.261   0.038  11.439  0.8428  0.9527  1.7946
18524TIP3    H276988   4.339   0.016  11.311 -1.8587  1.6486 -0.0571
18525TIP3   OH276989   4.640   6.325  17.250  0.7594 -0.0600  0.0665
18525TIP3    H176990   4.684   6.279  17.322  5.1280  1.2226 -1.4855
18525TIP3    H276991   4.618   6.256  17.187  1.7229 -0.6536  0.3618
18526TIP3   OH276992   0.787   1.917  13.796 -1.0202  0.0176 -0.1266
18526TIP3    H176993   0.797   2.011  13.809 -2.6295  0.2269 -0.1712
18526TIP3    H276994   0.876   1.882  13.802 -0.6105  1.2584  2.0724
18527TIP3   OH276995   4.689   2.664   2.823 -0.3194 -0.4807  0.1125
18527TIP3    H176996   4.642   2.720   2.885 -0.9542  0.2744 -1.0221
18527TIP3    H276997   4.758   2.623   2.876  0.6183  1.8983  0.8922
18528TIP3   OH276998   5.375   0.218  13.662 -0.4325  0.3949 -0.4876
18528TIP3    H176999   5.326   0.300  13.659  0.0106  0.6782 -3.1231
18528TIP3    H277000   5.461   0.243  13.695  0.7102  1.7437 -4.0129
18529TIP3   OH277001   2.202   6.662   4.483  0.3388  0.2726 -0.2160
18529TIP3    H177002   2.240   6.577   4.505  1.2042  0.6090 -0.3401
18529TIP3    H277003   2.224   6.675   4.391  1.1913  1.1086  0.0868
18530TIP3   OH277004   4.857   3.035   1.081  0.1378  0.2844  0.2089
18530TIP3    H177005   4.803   3.098   1.033 -0.5913 -1.5241 -1.4691
18530TIP3    H277006   4.938   3.082   1.100 -0.8885  2.1401  0.2316
18531TIP3   OH277007   1.033   2.085  12.608  0.0568  0.2792 -0.5389
18531TIP3    H177008   0.989   2.096  12.693 -0.6109 -1.8750 -0.5551
18531TIP3    H277009   1.086   2.006  12.619  0.3341  0.2492 -1.9861
18532TIP3   OH277010   4.135   0.014  13.012 -0.5892  0.0812  0.2366
18532TIP3    H177011   4.159  -0.007  13.103 -0.1089  0.9123  0.3125
18532TIP3    H277012   4.070   0.083  13.019 -1.5389 -0.7580 -0.0323
18533TIP3   OH277013   4.164   3.179   4.666  0.7763  0.6774 -0.9073
18533TIP3    H177014   4.089   3.228   4.698 -0.6125 -0.5209 -2.2056
18533TIP3    H277015   4.234   3.198   4.729 -0.7919  1.2584  0.7178
18534TIP3   OH277016   1.697   0.410   2.139 -0.8373  0.2186 -0.4705
18534TIP3    H177017   1.611   0.410   2.097 -0.9343 -1.1653 -0.2920
18534TIP3    H277018   1.739   0.489   2.106 -1.9813  0.6556 -0.9515
18535TIP3   OH277019   5.858   2.988   4.318 -0.0179 -0.3644  0.6198
18535TIP3    H177020   5.831   3.015   4.406  2.8508  0.6434  1.3172
18535TIP3    H277021   5.804   3.039   4.259  1.0893  2.5023  1.8971
18536TIP3   OH277022   5.058   0.850  15.366 -0.2987  0.4745 -0.2649
18536TIP3    H177023   5.082   0.885  15.452 -2.0205 -0.9068  0.8570
18536TIP3    H277024   5.047   0.928  15.311  0.9269  1.3910  0.7089
18537TIP3   OH277025   4.846   1.032  12.201  0.4224 -0.4035 -0.0259
18537TIP3    H177026   4.932   1.062  12.171  0.1174 -0.0645 -0.5717
18537TIP3    H277027   4.837   1.069  12.289 -0.5487  2.3770 -1.1874
18538TIP3   OH277028   4.924   6.454   4.013 -0.0339 -0.3332 -0.2054
18538TIP3    H177029   4.830   6.438   4.018 -0.2142  0.7372 -0.0367
18538TIP3    H277030   4.932   6.539   3.971  0.8080  0.2108  1.0070
18539TIP3   OH277031   2.197   0.119   2.845  0.2747 -0.0100  0.1705
18539TIP3    H177032   2.186   0.210   2.873 -0.3296  0.1456 -0.5251
18539TIP3    H277033   2.228   0.073   2.923  1.2097  0.9145  0.3620
18540TIP3   OH277034   6.768   0.908  14.691  0.1616  0.0506  0.0219
18540TIP3    H177035   6.795   0.920  14.782 -1.5540 -0.8531  0.7067
18540TIP3    H277036   6.685   0.956  14.684  0.3251  0.1975 -1.1104
18541TIP3   OH277037   2.789   1.805   3.005 -0.9040  0.0318 -0.4908
18541TIP3    H177038   2.753   1.769   3.086 -2.9830  0.7829 -1.0155
18541TIP3    H277039   2.884   1.792   3.013 -1.2401 -2.0023  1.0091
18542TIP3   OH277040   5.659   6.282  12.700 -0.0221 -0.1148 -0.3709
18542TIP3    H177041   5.639   6.287  12.606 -1.0509  2.0427 -0.1049
18542TIP3    H277042   5.720   6.354  12.714  1.2737 -1.3201  0.4033
18543TIP3   OH277043   0.121   1.024   3.088  0.6769 -0.4953 -0.0099
18543TIP3    H177044   0.098   1.110   3.055  2.5135  0.4875  1.1187
18543TIP3    H277045   0.215   1.018   3.075  0.7478 -1.8891  0.9195
18544TIP3   OH277046   2.176   6.004   5.962  0.7045  0.5164 -0.3762
18544TIP3    H177047   2.254   6.049   5.996  1.5460  0.8044 -2.4990
18544TIP3    H277048   2.195   5.911   5.973  1.2127  0.5942 -0.5579
18545TIP3   OH277049   4.362   5.630  14.576  0.0800 -0.2317  0.1635
18545TIP3    H177050   4.308   5.563  14.535  0.3140 -0.8816  0.8991
18545TIP3    H277051   4.317   5.651  14.657 -1.2283  2.1911 -1.0823
18546TIP3   OH277052   1.283   1.792  13.316 -0.2258 -0.3995  0.5129
18546TIP3    H177053   1.302   1.717  13.260  0.3906 -0.4225  0.7514
18546TIP3    H277054   1.187   1.796  13.318 -0.2642 -1.1291  0.4316
18547TIP3   OH277055   4.848   5.841  12.325  0.1657 -0.1701 -0.1042
18547TIP3    H177056   4.753   5.841  12.318  0.1985  0.3594 -0.6035
18547TIP3    H277057   4.878   5.894  12.250  0.9163 -1.7174 -0.9548
18548TIP3   OH277058   4.780   6.108  14.081  0.2957  0.2295 -0.2189
18548TIP3    H177059   4.724   6.152  14.018  0.2258 -1.1651 -1.1749
18548TIP3    H277060   4.733   6.028  14.105 -0.7438  1.7332  3.3786
18549TIP3   OH277061   0.692   3.388  15.195  0.4261  0.5158 -0.2473
18549TIP3    H177062   0.615   3.336  15.218  0.7119  0.3810  0.4318
18549TIP3    H277063   0.752   3.376  15.269  0.8655  1.0796 -0.5055
18550TIP3   OH277064   5.579   0.250   0.686  0.9591 -0.0729  0.0361
18550TIP3    H177065   5.517   0.184   0.719  2.1855 -0.5620  1.5149
18550TIP3    H277066   5.532   0.332   0.693 -0.2683 -0.6725 -0.9160
18551TIP3   OH277067   1.530   6.389   5.127 -0.2325  0.1231 -0.6094
18551TIP3    H177068   1.579   6.434   5.195  0.9552  1.7757 -2.4669
18551TIP3    H277069   1.449   6.440   5.118 -0.0561  0.3511 -0.9260
18552TIP3   OH277070   0.297   0.484   4.682  0.0980 -0.6348 -0.5029
18552TIP3    H177071   0.343   0.405   4.711  0.1780 -0.3523  0.1658
18552TIP3    H277072   0.205   0.468   4.701  0.1027 -0.6102 -0.4583
18553TIP3   OH277073   3.774   1.693  11.279  0.5201  0.1510  0.1150
18553TIP3    H177074   3.821   1.613  11.301 -0.3853 -0.6803 -0.8812
18553TIP3    H277075   3.764   1.690  11.184  0.0244  1.1955  0.1208
18554TIP3   OH277076   6.044   0.833   2.741 -0.5094  0.0466  0.5434
18554TIP3    H177077   6.099   0.862   2.814 -0.2616 -0.0554  0.3972
18554TIP3    H277078   6.082   0.874   2.664 -1.1120  0.6198  0.5353
18555TIP3   OH277079   5.420   1.108  10.992  0.0405 -0.1041 -0.0082
18555TIP3    H177080   5.395   1.197  11.015  0.1356 -0.3859  1.3007
18555TIP3    H277081   5.497   1.118  10.936  1.3569  0.6254  1.8274
18556TIP3   OH277082   3.349   0.292   3.272  0.9707  0.0882  0.3261
18556TIP3    H177083   3.392   0.206   3.268  1.1831  0.1789  0.6246
18556TIP3    H277084   3.407   0.350   3.223  2.1536  0.6060  2.2587
18557TIP3   OH277085   3.806   4.371   0.118  0.3194  0.1644  0.0554
18557TIP3    H177086   3.819   4.402   0.207 -1.1289  0.4114  0.2050
18557TIP3    H277087   3.826   4.278   0.121 -0.5954 -0.0267  0.8728
18558TIP3   OH277088   2.133   5.612  15.603  0.0673 -1.1904 -1.0942
18558TIP3    H177089   2.049   5.566  15.609 -0.3696 -0.7078 -2.9113
18558TIP3    H277090   2.112   5.703  15.620  0.3876 -1.2135 -0.5877
18559TIP3   OH277091   4.412   1.109   5.600 -0.1164 -0.5190 -0.3549
18559TIP3    H177092   4.323   1.121   5.567 -0.0568  0.4842 -0.1610
18559TIP3    H277093   4.466   1.106   5.521 -0.5009 -3.2829 -0.6403
18560TIP3   OH277094   0.650   4.718   4.347  0.1172  0.1900 -0.6463
18560TIP3    H177095   0.581   4.652   4.355 -0.8124  1.0975 -0.9684
18560TIP3    H277096   0.725   4.670   4.314  0.5489 -1.3832  2.2904
18561TIP3   OH277097   4.807   6.166  14.354 -0.2347  0.3683  0.6824
18561TIP3    H177098   4.791   6.158  14.260 -0.0472 -1.1758  0.7466
18561TIP3    H277099   4.804   6.076  14.386  2.8114  0.5220  1.6633
18562TIP3   OH277100   2.881   6.408  12.733 -0.6136  0.2405  0.6120
18562TIP3    H177101   2.873   6.411  12.638 -1.7067 -0.3315  0.6767
18562TIP3    H277102   2.970   6.440  12.750 -0.2725  0.0053 -0.6160
18563TIP3   OH277103   6.298   5.444   3.542  0.0388  0.0251  0.5682
18563TIP3    H177104   6.322   5.536   3.538  0.2005  0.0184  1.2579
18563TIP3    H277105   6.278   5.420   3.451  0.9152  0.4834  0.2507
18564TIP3   OH277106   3.478   6.722   4.569  0.4053  0.0154 -0.4032
18564TIP3    H177107   3.449   6.644   4.521 -0.8178  0.1583  0.0698
18564TIP3    H277108   3.400   6.752   4.616  1.1974  0.7461  0.4920
18565TIP3   OH277109   3.532   5.940  12.790  0.2888  0.3441 -0.1058
18565TIP3    H177110   3.588   5.966  12.717  0.0318 -0.6519 -0.6819
18565TIP3    H277111   3.515   6.021  12.837  1.4453  0.8075 -0.4563
18566TIP3   OH277112   6.238   6.716   5.636 -0.4445  0.0352  0.9044
18566TIP3    H177113   6.257   6.625   5.663 -0.0331  0.2959  1.5304
18566TIP3    H277114   6.324   6.753   5.616 -0.6657  0.1193  0.0629
18567TIP3   OH277115   3.906   1.640  12.266  0.5466  0.3309 -0.4716
18567TIP3    H177116   3.988   1.688  12.271  1.1987 -0.7119 -0.8807
18567TIP3    H277117   3.928   1.551  12.294 -0.3319 -0.0932 -1.0626
18568TIP3   OH277118   2.397   2.775  13.856  0.0556  0.0926  0.2883
18568TIP3    H177119   2.396   2.800  13.948  0.3193 -0.0341  0.3261
18568TIP3    H277120   2.343   2.696  13.851 -1.5913  1.1761  0.0173
18569TIP3   OH277121   6.313   2.860  12.410  0.1789 -0.6255 -0.1592
18569TIP3    H177122   6.385   2.916  12.437 -0.1800 -0.5513  0.6732
18569TIP3    H277123   6.335   2.835  12.320  0.7171  0.2271 -0.2786
18570TIP3   OH277124   0.308   0.110   1.274  0.0460  0.4205 -0.0610
18570TIP3    H177125   0.276   0.176   1.335 -1.1258  0.8988 -1.1366
18570TIP3    H277126   0.237   0.046   1.269 -0.2190  0.8037 -1.5009
18571TIP3   OH277127   4.243   2.495   1.612  0.0235  0.3593  0.3970
18571TIP3    H177128   4.288   2.478   1.695 -1.1968  0.5746  1.1245
18571TIP3    H277129   4.194   2.576   1.628 -0.8939 -0.0523 -0.2466
18572TIP3   OH277130   6.665   4.909   3.869  0.5327  0.8873  0.0789
18572TIP3    H177131   6.666   4.917   3.964  3.1116  2.5182  0.0008
18572TIP3    H277132   6.576   4.935   3.844  0.0877  1.3397  1.9667
18573TIP3   OH277133   4.832   3.295   4.952 -0.1696 -0.4161 -0.3056
18573TIP3    H177134   4.851   3.336   5.037  0.9704 -1.2893 -0.1065
18573TIP3    H277135   4.877   3.349   4.888 -0.7425  0.0460 -0.3247
18574TIP3   OH277136   2.431   3.616   3.469  0.0718 -0.3130 -0.4831
18574TIP3    H177137   2.409   3.695   3.420  1.1972  0.1896 -0.2080
18574TIP3    H277138   2.486   3.646   3.541 -0.0269 -1.2726  0.0137
18575TIP3   OH277139   2.377   0.006  12.646  0.1203 -0.5734  0.0387
18575TIP3    H177140   2.413   0.051  12.570  1.3297  0.3213  1.0977
18575TIP3    H277141   2.282   0.010  12.634  0.2821 -0.4157 -1.3773
18576TIP3   OH277142   2.216   2.343   2.247 -0.3361 -0.4820 -0.0037
18576TIP3    H177143   2.307   2.352   2.274 -0.4504 -1.6575  0.8269
18576TIP3    H277144   2.183   2.433   2.244  0.6847 -0.0858  0.2246
18577TIP3   OH277145   2.880   3.955  12.917  0.5685  0.3210  0.1029
18577TIP3    H177146   2.831   3.942  12.835 -0.4992  0.4470  0.7026
18577TIP3    H277147   2.972   3.956  12.890  0.2536 -0.0438 -1.0419
18578TIP3   OH277148   4.355   3.954  13.369  0.3843 -1.1962  0.4028
18578TIP3    H177149   4.328   3.895  13.298  1.6077 -1.2985 -0.0082
18578TIP3    H277150   4.395   3.896  13.434  1.0387 -0.9000  0.2756
18579TIP3   OH277151   5.613   4.745  15.433 -0.2906  0.2983  0.0808
18579TIP3    H177152   5.521   4.756  15.410  0.3826  0.2269 -3.1064
18579TIP3    H277153   5.632   4.653  15.413  0.7336  0.6205 -0.5189
18580TIP3   OH277154   5.236   4.747   0.617  0.3515  0.2273 -0.4419
18580TIP3    H177155   5.303   4.812   0.595  0.2898  0.2593 -0.5346
18580TIP3    H277156   5.155   4.782   0.579  0.1498  0.5163  0.2269
18581TIP3   OH277157   2.575   1.497  15.775  0.2917 -0.3967 -0.5438
18581TIP3    H177158   2.636   1.497  15.849  2.0751 -1.6820 -1.9225
18581TIP3    H277159   2.589   1.582  15.733 -0.6442  0.2906  0.4773
18582TIP3   OH277160   4.658   1.079   1.387  0.2556  0.0520 -0.1632
18582TIP3    H177161   4.690   1.169   1.398 -0.4125  0.3020 -0.1973
18582TIP3    H277162   4.577   1.089   1.337 -0.3155 -0.4771  0.6312
18583TIP3   OH277163   3.912   0.571  14.679  0.0575 -0.2747 -0.4532
18583TIP3    H177164   3.990   0.534  14.721  2.6496  4.8222 -0.0008
18583TIP3    H277165   3.927   0.558  14.585 -0.3799 -2.3097 -0.2844
18584TIP3   OH277166   4.986   5.437   4.784 -0.4087 -0.6401  0.0553
18584TIP3    H177167   5.009   5.401   4.869 -0.9147  1.1255  1.0020
18584TIP3    H277168   4.892   5.458   4.792 -0.8012 -1.6931 -1.4236
18585TIP3   OH277169   6.544   1.167  10.919 -0.1417  0.1862 -0.0561
18585TIP3    H177170   6.464   1.219  10.923 -0.1855  0.0868  0.3754
18585TIP3    H277171   6.589   1.186  11.001  0.2660  0.2196 -0.2825
18586TIP3   OH277172   5.951   3.324  17.220  0.1870  0.6759 -0.2395
18586TIP3    H177173   5.895   3.262  17.266  1.8018  0.6002  1.7619
18586TIP3    H277174   6.003   3.270  17.160  0.7277  0.2289  0.6136
18587TIP3   OH277175   1.151   6.687  10.976  0.4177  0.2797  0.0228
18587TIP3    H177176   1.057   6.666  10.973  0.0505  1.9510 -1.6333
18587TIP3    H277177   1.193   6.611  10.935 -0.3979  0.3240 -0.9471
18588TIP3   OH277178   4.198   4.908  14.278 -0.1425  0.6762 -0.0797
18588TIP3    H177179   4.253   4.986  14.269 -0.5431  1.3030  2.3316
18588TIP3    H277180   4.110   4.941  14.290 -0.5704 -0.2277 -0.6124
18589TIP3   OH277181   0.934   2.038  12.331 -0.0353  0.1366  0.6722
18589TIP3    H177182   0.977   2.053  12.415  1.7413 -0.6366 -0.0360
18589TIP3    H277183   0.934   1.943  12.320  0.8760  0.2500 -0.6884
18590TIP3   OH277184   0.006   6.434   3.206  0.2553  0.0026 -0.1665
18590TIP3    H177185  -0.065   6.497   3.215  0.5998  0.4671 -0.6815
18590TIP3    H277186   0.086   6.486   3.203  0.4985 -0.4043 -1.2538
18591TIP3   OH277187   1.993   1.239   2.975 -0.7113 -0.0131  0.2682
18591TIP3    H177188   2.029   1.169   3.028 -1.3040  0.2825  1.0923
18591TIP3    H277189   1.935   1.286   3.034 -0.0002  1.4379 -0.1341
18592TIP3   OH277190   2.308   3.007   0.582  0.2471 -0.3663 -0.3100
18592TIP3    H177191   2.244   2.949   0.539 -0.3942  0.4109 -0.4265
18592TIP3    H277192   2.387   2.998   0.528 -0.4485  0.3450 -1.4891
18593TIP3   OH277193   1.561   5.203   5.741 -0.0582  0.0934 -0.2621
18593TIP3    H177194   1.471   5.175   5.759  0.1756 -0.2595  0.4045
18593TIP3    H277195   1.606   5.122   5.717  0.0731  0.2771 -0.6352
18594TIP3   OH277196   4.414   1.216  13.609 -0.0896 -0.3596  0.4222
18594TIP3    H177197   4.435   1.265  13.529 -0.1984  0.8197  1.0877
18594TIP3    H277198   4.374   1.282  13.667 -0.3207 -1.2699  1.3209
18595TIP3   OH277199   3.367   6.327  11.763  0.2644  0.4474  0.4082
18595TIP3    H177200   3.317   6.314  11.682 -2.0174 -0.2666  1.8422
18595TIP3    H277201   3.456   6.345  11.733 -1.0501  3.4574 -2.3987
18596TIP3   OH277202   2.484   3.662  16.017  0.2297  0.2648  0.0738
18596TIP3    H177203   2.568   3.704  16.035  0.5291  0.1788 -1.0434
18596TIP3    H277204   2.480   3.588  16.078  1.8260 -0.8551 -1.1270
18597TIP3   OH277205   6.363   4.240  16.850 -0.1296  0.8353 -0.1418
18597TIP3    H177206   6.458   4.234  16.863 -0.3873 -1.1553  1.3548
18597TIP3    H277207   6.349   4.217  16.759  0.7284 -0.4595  0.0363
18598TIP3   OH277208   4.786   0.159  12.758  0.1766 -0.1078 -0.1141
18598TIP3    H177209   4.862   0.145  12.815  0.4554 -1.6008 -0.8016
18598TIP3    H277210   4.768   0.073  12.720 -3.3147 -0.3826  1.7598
18599TIP3   OH277211   3.161   3.851   0.423  0.5039  0.6486 -0.2287
18599TIP3    H177212   3.143   3.899   0.503  1.0179  2.0277 -0.9011
18599TIP3    H277213   3.096   3.781   0.421 -0.0783  1.1358  0.9381
18600TIP3   OH277214   4.792   3.222   1.969  0.3964 -0.0138  0.3044
18600TIP3    H177215   4.834   3.266   2.043  1.3917  0.3928 -0.4734
18600TIP3    H277216   4.698   3.237   1.982  0.6656  1.9207  0.3417
18601TIP3   OH277217   4.746   4.572   5.930  0.5510  0.0957  0.1798
18601TIP3    H177218   4.726   4.524   6.010  0.4073  1.3707  0.9448
18601TIP3    H277219   4.661   4.596   5.895  0.6301  0.4431  0.2231
18602TIP3   OH277220   6.724   2.173  12.980  0.3250  0.7674 -0.0299
18602TIP3    H177221   6.784   2.247  12.986 -1.4719  2.4198 -1.1969
18602TIP3    H277222   6.676   2.187  12.898 -0.6744 -1.2277  0.1497
18603TIP3   OH277223   5.289   1.246   1.101  0.1702  0.4061  0.5154
18603TIP3    H177224   5.288   1.218   1.009 -0.6894 -0.9129  0.8897
18603TIP3    H277225   5.211   1.301   1.110 -1.2182 -1.4865  0.9680
18604TIP3   OH277226   3.756   0.696   3.897 -0.3265 -0.3976 -0.6245
18604TIP3    H177227   3.843   0.720   3.927 -1.8121  1.5605  2.6683
18604TIP3    H277228   3.733   0.763   3.833  0.0525 -0.0716 -0.4199
18605TIP3   OH277229   2.061   2.720  15.755  0.2769 -0.1045 -0.9666
18605TIP3    H177230   2.019   2.682  15.678 -1.3689 -0.7309  0.1802
18605TIP3    H277231   2.032   2.811  15.756  0.7547  0.0586 -1.3700
18606TIP3   OH277232   6.310   3.928  12.606  0.5195  0.1880 -0.4521
18606TIP3    H177233   6.287   3.937  12.699  0.4935 -0.7388 -0.3542
18606TIP3    H277234   6.227   3.906  12.563  0.7759 -0.7672 -0.4733
18607TIP3   OH277235   3.080   5.888  16.381 -0.3640 -0.6684 -0.7300
18607TIP3    H177236   3.017   5.945  16.424  1.1827  1.4645 -1.1022
18607TIP3    H277237   3.027   5.834  16.322 -1.9296  0.2959 -0.2767
18608TIP3   OH277238   5.790   1.916   4.416  1.2179 -0.8903 -0.3465
18608TIP3    H177239   5.795   2.004   4.378 -0.7494 -1.0798 -1.1592
18608TIP3    H277240   5.815   1.928   4.508 -0.8857  0.9170  0.0837
18609TIP3   OH277241   6.676   3.682  12.642 -0.0816  0.0618 -0.3189
18609TIP3    H177242   6.751   3.718  12.597 -0.5396  0.1042 -1.0626
18609TIP3    H277243   6.651   3.605  12.590 -0.8927  0.3761 -0.4126
18610TIP3   OH277244   0.152   2.318   0.784  0.2662  0.4652  0.8852
18610TIP3    H177245   0.170   2.256   0.854 -0.1163  0.3504  0.8835
18610TIP3    H277246   0.121   2.264   0.711 -0.2440  0.6767  0.9461
18611TIP3   OH277247   6.034   4.705   2.915  0.1549 -0.4731 -0.1336
18611TIP3    H177248   5.977   4.782   2.917 -1.6103 -1.7324  0.7119
18611TIP3    H277249   6.079   4.712   2.830  1.7067  2.5465  0.7745
18612TIP3   OH277250   2.173   3.146  13.649 -0.0939  0.1788  1.0101
18612TIP3    H177251   2.125   3.109  13.575  0.6666  0.8156  0.1787
18612TIP3    H277252   2.166   3.080  13.718  0.9131 -1.3874 -0.3135
18613TIP3   OH277253   0.246   4.151  14.687 -0.0722  0.3143  0.8300
18613TIP3    H177254   0.306   4.206  14.737  0.2739  1.0231 -0.3194
18613TIP3    H277255   0.195   4.212  14.635 -1.2746 -0.3370  1.2095
18614TIP3   OH277256   1.501   5.485  12.581  0.5892  0.1779  0.3786
18614TIP3    H177257   1.522   5.570  12.541 -1.5306  0.5820 -0.0219
18614TIP3    H277258   1.530   5.421  12.517 -0.5882  0.7399 -0.7695
18615TIP3   OH277259   5.203   3.668  15.075 -0.2489 -0.2790  0.0264
18615TIP3    H177260   5.237   3.703  14.993  0.5605 -2.6942 -0.7679
18615TIP3    H277261   5.133   3.608  15.049 -1.7104  0.7938  1.3189
18616TIP3   OH277262   2.249   2.090  11.058  0.3458 -0.4100  0.6247
18616TIP3    H177263   2.329   2.042  11.038 -0.1739 -1.0143 -0.0798
18616TIP3    H277264   2.253   2.169  11.004  1.4942  0.7021  2.2438
18617TIP3   OH277265   0.087   3.747  10.631  0.0333 -0.1724 -0.4780
18617TIP3    H177266   0.011   3.713  10.679  2.3570 -2.2611  2.0141
18617TIP3    H277267   0.153   3.678  10.638  1.7880  0.9292 -3.7700
18618TIP3   OH277268   4.475   4.460  14.946  0.5609 -0.7801 -1.0046
18618TIP3    H177269   4.391   4.442  14.989  0.3022  1.7658 -0.2531
18618TIP3    H277270   4.493   4.381  14.894 -1.6648 -1.8975 -0.2279
18619TIP3   OH277271   2.736   0.163   2.463  0.3134 -0.1801 -0.0806
18619TIP3    H177272   2.697   0.177   2.377 -1.3538 -0.4565  0.5886
18619TIP3    H277273   2.792   0.240   2.477 -1.3947  1.1571 -0.3431
18620TIP3   OH277274   5.712   3.084   0.994 -0.3502 -0.5110  0.0273
18620TIP3    H177275   5.724   3.057   0.903  2.4009  0.7065 -0.0595
18620TIP3    H277276   5.787   3.046   1.040 -0.5705  0.6150  1.3723
18621TIP3   OH277277   4.189   6.348   0.168 -0.0913  0.1359  0.7090
18621TIP3    H177278   4.220   6.357   0.078 -0.6693 -0.7533  0.4077
18621TIP3    H277279   4.105   6.304   0.160 -0.8286  1.3328  1.5984
18622TIP3   OH277280   4.332   2.452   0.917 -0.0836  0.0037  0.1939
18622TIP3    H177281   4.257   2.503   0.885 -1.7741 -3.1716 -1.4278
18622TIP3    H277282   4.376   2.423   0.837  0.2272 -1.7974  0.9872
18623TIP3   OH277283   0.853   0.383  13.878  0.4527  0.5955  0.0868
18623TIP3    H177284   0.799   0.310  13.908  0.0664  0.1965 -1.5031
18623TIP3    H277285   0.936   0.372  13.925 -0.4259  0.6014  1.7374
18624TIP3   OH277286   5.941   5.312   0.622 -0.2050  0.0228 -0.1084
18624TIP3    H177287   5.911   5.390   0.669  1.0619  1.0983 -1.0114
18624TIP3    H277288   6.000   5.269   0.683 -0.0654  0.3723  0.0082
18625TIP3   OH277289   0.592   0.854  13.393  0.5252 -0.0639  0.6618
18625TIP3    H177290   0.623   0.916  13.459  0.3167  0.9023 -0.1369
18625TIP3    H277291   0.642   0.875  13.314  0.6081 -1.0585  0.4273
18626TIP3   OH277292   4.538   6.635   5.026 -0.6422 -0.1311 -0.4002
18626TIP3    H177293   4.567   6.554   5.069  3.0534  0.9777 -0.5241
18626TIP3    H277294   4.522   6.696   5.097  0.3989  0.1486 -0.3892
18627TIP3   OH277295   5.047   3.681  16.739 -0.2191  0.5405 -0.4597
18627TIP3    H177296   5.049   3.598  16.692  0.5880 -0.9245  1.9976
18627TIP3    H277297   5.100   3.741  16.686  2.3101 -1.5765 -0.5083
18628TIP3   OH277298   4.116   1.672   6.348 -0.0388  0.1372  0.3125
18628TIP3    H177299   4.156   1.620   6.418  1.3622  0.7656  0.0137
18628TIP3    H277300   4.108   1.612   6.274 -1.8392 -0.6268  1.0596
18629TIP3   OH277301   2.812   0.739   4.797 -0.0692 -0.2877  0.7423
18629TIP3    H177302   2.890   0.789   4.819 -0.2571 -0.3403  1.5483
18629TIP3    H277303   2.826   0.653   4.834 -0.7535 -0.1235  1.4243
18630TIP3   OH277304   3.388   1.959   1.639 -0.6565 -0.3267 -0.2386
18630TIP3    H177305   3.378   2.030   1.576  0.8680  1.7105  1.6557
18630TIP3    H277306   3.341   1.885   1.600 -0.0092  0.8618 -3.5953
18631TIP3   OH277307   6.307   0.420  13.196  0.1892  0.2705 -0.2029
18631TIP3    H177308   6.335   0.335  13.164 -0.1129  0.2673 -0.4677
18631TIP3    H277309   6.382   0.478  13.181  0.3219  0.0954 -0.2117
18632TIP3   OH277310   4.772   4.488  16.559 -0.4847 -0.0137  0.0963
18632TIP3    H177311   4.788   4.407  16.607  0.8334  0.0594 -0.1934
18632TIP3    H277312   4.841   4.491  16.493  0.2492  1.9493  0.8949
18633TIP3   OH277313   3.920   3.103   2.758  0.0895 -0.1240  0.0250
18633TIP3    H177314   3.852   3.165   2.728  0.2628 -0.7006 -1.6381
18633TIP3    H277315   3.998   3.157   2.769  0.5155 -0.1492 -2.4145
18634TIP3   OH277316   0.535   5.641  11.355  0.1800  0.2773  0.0936
18634TIP3    H177317   0.548   5.577  11.426  0.8700 -0.0875 -0.3495
18634TIP3    H277318   0.591   5.609  11.284 -2.0546 -0.5351 -1.3997
18635TIP3   OH277319   4.239   2.624   3.981 -0.1348 -0.1600  0.0581
18635TIP3    H177320   4.280   2.551   3.934  0.6470  0.0085  0.4649
18635TIP3    H277321   4.312   2.669   4.023 -0.3016  2.0913 -1.8441
18636TIP3   OH277322   3.528   1.134   3.697  0.0916  0.0892  0.6918
18636TIP3    H177323   3.490   1.214   3.734 -0.8432  0.2261 -0.4928
18636TIP3    H277324   3.465   1.065   3.719 -0.0630  0.0302  0.0848
18637TIP3   OH277325   2.051   1.509   3.587  0.2206 -0.0506 -0.0029
18637TIP3    H177326   2.129   1.563   3.578  0.7716 -1.0209 -1.4459
18637TIP3    H277327   2.069   1.432   3.534 -2.4978  0.5908 -2.1230
18638TIP3   OH277328   1.868   5.878   1.901  0.2316 -0.1885  0.3076
18638TIP3    H177329   1.932   5.839   1.842  0.4385 -0.7999  0.9263
18638TIP3    H277330   1.783   5.852   1.866  0.3492 -0.4532  0.2207
18639TIP3   OH277331   2.173   3.878   0.788 -0.3541  0.2192 -0.0515
18639TIP3    H177332   2.221   3.862   0.870 -1.9892  0.1541  0.9385
18639TIP3    H277333   2.178   3.795   0.741 -1.4547 -0.5576  1.1259
18640TIP3   OH277334   3.738   1.252   5.473  0.2048  0.5963  0.6871
18640TIP3    H177335   3.693   1.334   5.453 -1.7336 -0.5294  0.1966
18640TIP3    H277336   3.693   1.218   5.551 -0.3384 -0.9225 -0.2521
18641TIP3   OH277337   6.755   4.765  15.100  0.0211  0.5874 -0.3192
18641TIP3    H177338   6.711   4.825  15.040 -1.0886  0.4263  0.3094
18641TIP3    H277339   6.808   4.709  15.042 -2.1930 -0.5732 -1.3610
18642TIP3   OH277340   0.023   1.003  15.705 -0.7558 -0.1358  0.1090
18642TIP3    H177341   0.034   0.908  15.709  0.0814 -0.1271 -1.3084
18642TIP3    H277342  -0.051   1.021  15.763 -0.2006 -1.5153  1.3041
18643TIP3   OH277343   6.620   4.419   1.887 -0.3273 -0.5403  0.6375
18643TIP3    H177344   6.615   4.473   1.808  0.8503 -0.1173  0.8386
18643TIP3    H277345   6.599   4.331   1.857 -1.3087 -0.1584  0.1245
18644TIP3   OH277346   5.883   5.797  13.261  0.3196 -0.1059  0.2713
18644TIP3    H177347   5.848   5.865  13.319  1.6955 -0.2734  1.3521
18644TIP3    H277348   5.948   5.842  13.208  2.0178 -0.7160  1.7313
18645TIP3   OH277349   6.455   6.645  14.328  0.6265 -0.0547  0.3731
18645TIP3    H177350   6.497   6.603  14.253 -0.5271  0.6919 -0.7279
18645TIP3    H277351   6.526   6.659  14.390  1.6174 -0.6596 -0.5906
18646TIP3   OH277352   5.702   4.960  11.158 -0.3091  0.0266  0.1300
18646TIP3    H177353   5.767   4.954  11.088  0.1334  1.5303  0.3864
18646TIP3    H277354   5.618   4.952  11.112 -0.0101  0.3499 -0.4908
18647TIP3   OH277355   3.498   3.943  15.112 -0.4555  0.3202  0.2695
18647TIP3    H177356   3.579   3.979  15.149 -0.8023  1.4745 -0.0478
18647TIP3    H277357   3.527   3.894  15.035  0.0883 -0.6336  1.0644
18648TIP3   OH277358   4.771   3.895  14.646  0.0241  0.4221  0.4455
18648TIP3    H177359   4.754   3.881  14.739  0.4157 -1.3243  0.2864
18648TIP3    H277360   4.730   3.820  14.603  1.6852  0.0572 -0.5887
18649TIP3   OH277361   5.674   2.489   4.636 -0.0951 -0.3007 -0.2822
18649TIP3    H177362   5.697   2.573   4.677 -2.1884 -0.3303  1.1228
18649TIP3    H277363   5.601   2.511   4.577 -0.8386 -1.1348  0.3029
18650TIP3   OH277364   1.739   2.646   1.103 -0.0687 -0.1523  0.5725
18650TIP3    H177365   1.748   2.740   1.114  0.1540 -0.1536  0.3973
18650TIP3    H277366   1.648   2.633   1.077  0.3491  0.1739 -1.1451
18651TIP3   OH277367   4.442   4.753  12.852 -0.3583  0.3616  0.3115
18651TIP3    H177368   4.428   4.838  12.811 -0.8956  0.1641  0.0692
18651TIP3    H277369   4.446   4.771  12.946 -2.3476  0.4393  0.4138
18652TIP3   OH277370   5.896   6.682  14.216  0.7771 -0.3449  0.0881
18652TIP3    H177371   5.865   6.599  14.180 -0.5042 -0.1829  0.7553
18652TIP3    H277372   5.910   6.665  14.309 -2.2317  0.8059  0.8805
18653TIP3   OH277373   1.260   0.725   6.299 -0.0170  0.1359 -0.3770
18653TIP3    H177374   1.258   0.674   6.380  0.3731 -0.3366 -0.6524
18653TIP3    H277375   1.280   0.814   6.327 -0.1131  0.0208  0.0654
18654TIP3   OH277376   1.379   6.743  15.063  0.4704  0.3973  0.2187
18654TIP3    H177377   1.377   6.838  15.079 -0.0272  0.8568 -2.2491
18654TIP3    H277378   1.437   6.732  14.988  0.4524 -1.2776  0.4129
18655TIP3   OH277379   6.411   4.228  13.176 -0.4484  0.2277 -0.0408
18655TIP3    H177380   6.388   4.282  13.101  0.6669  0.9021  0.0881
18655TIP3    H277381   6.496   4.190  13.154 -1.3394 -1.7375 -0.2525
18656TIP3   OH277382   0.875   5.769  12.568  0.4995  0.0127 -0.2206
18656TIP3    H177383   0.954   5.747  12.617 -0.4669 -0.8110  1.0145
18656TIP3    H277384   0.831   5.834  12.622 -0.7925 -1.2184  0.2695
18657TIP3   OH277385   6.248   6.044   6.037  0.0627  0.0198  0.1666
18657TIP3    H177386   6.305   5.992   6.094 -0.8181 -1.5339 -0.3042
18657TIP3    H277387   6.168   5.993   6.030 -1.4075  2.1408  0.7670
18658TIP3   OH277388   6.788   0.581  14.923 -0.1938  0.0244 -0.1619
18658TIP3    H177389   6.810   0.663  14.879 -0.2992 -0.0406 -0.3368
18658TIP3    H277390   6.812   0.513  14.860  1.6566 -0.1741  0.6841
18659TIP3   OH277391   5.001   5.427   3.489  0.4813  0.5921  0.2490
18659TIP3    H177392   5.024   5.401   3.400  0.4531 -0.5246  0.5462
18659TIP3    H277393   5.079   5.407   3.541 -0.5808 -2.0644  1.0452
18660TIP3   OH277394   4.682   5.168   0.189  0.0479 -0.1976  0.2038
18660TIP3    H177395   4.763   5.121   0.171 -0.9452 -1.9328  0.1178
18660TIP3    H277396   4.612   5.110   0.159 -1.2509  1.3006  0.1612
18661TIP3   OH277397   0.486   6.731   1.098 -0.2769  0.0568 -0.2480
18661TIP3    H177398   0.525   6.818   1.105  0.1086 -0.1323 -0.0900
18661TIP3    H277399   0.444   6.716   1.183  2.3640 -1.2351  0.9185
18662TIP3   OH277400   1.259   3.838  11.977 -0.4499  0.4996 -0.4217
18662TIP3    H177401   1.193   3.885  12.028 -0.5507 -1.0341  0.9409
18662TIP3    H277402   1.236   3.855  11.886 -1.2273  1.9975  0.0108
18663TIP3   OH277403   2.133   2.786  10.363 -0.0115 -0.6693 -0.0388
18663TIP3    H177404   2.139   2.811  10.455  2.1112  0.9173 -0.5474
18663TIP3    H277405   2.188   2.708  10.355  2.8840  1.2716 -0.5447
18664TIP3   OH277406   6.716   3.708  12.199 -0.4062 -0.4625 -0.0417
18664TIP3    H177407   6.725   3.754  12.283 -0.4982 -0.2114 -0.1689
18664TIP3    H277408   6.718   3.777  12.133 -0.8139 -0.6148 -0.2160
18665TIP3   OH277409   4.972   0.610   2.592 -0.0650  0.3097  0.2628
18665TIP3    H177410   4.927   0.641   2.670  2.2473  0.6297  1.5639
18665TIP3    H277411   4.934   0.524   2.575 -0.3353  0.0501  2.0087
18666TIP3   OH277412   5.094   0.075   5.472 -0.0319  0.0096 -0.3103
18666TIP3    H177413   5.148  -0.002   5.487 -0.9962 -0.6751 -0.2968
18666TIP3    H277414   5.117   0.135   5.544  1.1487 -0.0057 -0.6585
18667TIP3   OH277415   6.162   1.508  15.912  0.2628  0.4622 -0.0180
18667TIP3    H177416   6.069   1.530  15.905  0.4212  1.0154 -0.5169
18667TIP3    H277417   6.200   1.539  15.830  1.2898  2.3645  1.0981
18668TIP3   OH277418   5.376   4.500   3.345  0.4425  0.2382  0.1910
18668TIP3    H177419   5.455   4.445   3.345  0.8035  0.7299 -0.5978
18668TIP3    H277420   5.400   4.575   3.399  0.0249 -0.2519  1.0864
18669TIP3   OH277421   5.019   3.730  16.384  0.0358 -0.0909 -0.2050
18669TIP3    H177422   5.009   3.651  16.438 -0.3676 -0.0433 -0.2071
18669TIP3    H277423   5.071   3.789  16.438  2.0800 -1.0785 -0.9639
18670TIP3   OH277424   2.298   5.317  14.147  0.0168  0.6736 -0.7433
18670TIP3    H177425   2.256   5.232  14.133  0.3065  0.4663 -0.3637
18670TIP3    H277426   2.310   5.351  14.058  0.9490 -0.2014 -0.9733
18671TIP3   OH277427   5.369   4.354   5.973  0.6824  0.1738  0.3417
18671TIP3    H177428   5.327   4.269   5.981  0.2033  0.3892  0.1760
18671TIP3    H277429   5.428   4.345   5.898 -1.6964  0.8853 -1.7748
18672TIP3   OH277430   2.719   2.719   2.093 -0.4525  0.4205  0.0523
18672TIP3    H177431   2.632   2.691   2.121 -0.8675  0.0934 -1.4862
18672TIP3    H277432   2.756   2.762   2.170 -1.1960 -1.1773  1.3401
18673TIP3   OH277433   5.405   1.101  15.391 -0.5130 -0.3280 -0.0361
18673TIP3    H177434   5.377   1.051  15.314  0.0260  0.6106 -0.8658
18673TIP3    H277435   5.334   1.164  15.404 -0.1754  0.1147 -0.3307
18674TIP3   OH277436   0.191   4.002   1.031 -0.3884 -0.0145 -0.0216
18674TIP3    H177437   0.228   3.914   1.037 -0.7283 -0.0838  2.5931
18674TIP3    H277438   0.223   4.038   0.949 -0.8104 -2.8180 -1.5056
18675TIP3   OH277439   5.653   2.468   1.917 -0.2996  0.0614 -0.2833
18675TIP3    H177440   5.637   2.503   2.005  0.8598 -1.3456  0.5324
18675TIP3    H277441   5.746   2.484   1.902 -0.0998 -1.2522 -0.5163
18676TIP3   OH277442   3.357   1.327   4.944 -0.2599 -0.0740  0.3949
18676TIP3    H177443   3.412   1.260   4.905 -1.9807 -0.8426 -0.8003
18676TIP3    H277444   3.384   1.408   4.900  0.5716 -0.2529  0.5452
18677TIP3   OH277445   0.219   3.170  15.066  0.0040 -0.4212  0.4407
18677TIP3    H177446   0.230   3.083  15.028 -0.2134 -0.6739  0.9380
18677TIP3    H277447   0.285   3.174  15.135  0.0302 -0.1870  0.4008
18678TIP3   OH277448   2.019   4.577   2.810 -0.4723  0.0603  0.0375
18678TIP3    H177449   2.038   4.649   2.750  1.7893  0.4046  1.0869
18678TIP3    H277450   2.004   4.619   2.895  0.5456 -0.6450  0.5936
18679TIP3   OH277451   5.718   3.663  15.173  0.7465  0.2108 -0.2763
18679TIP3    H177452   5.795   3.691  15.221 -0.0886  0.2066  1.1203
18679TIP3    H277453   5.644   3.700  15.221 -0.1153  0.8193 -1.9783
18680TIP3   OH277454   6.419   4.104  15.288 -0.0870  0.2150  0.1786
18680TIP3    H177455   6.508   4.121  15.258 -0.2475  0.7152 -0.0291
18680TIP3    H277456   6.368   4.178  15.255 -0.8515 -0.7722 -0.9092
18681TIP3   OH277457   4.408   4.897   4.881 -0.1382 -0.1421 -0.3747
18681TIP3    H177458   4.442   4.828   4.938 -2.8103 -0.5280  0.8714
18681TIP3    H277459   4.409   4.976   4.935 -1.0413 -0.1337 -0.3549
18682TIP3   OH277460   6.400   6.086  16.865 -0.0233  0.0209  0.4551
18682TIP3    H177461   6.391   5.994  16.839 -1.6107  0.7025 -1.6793
18682TIP3    H277462   6.438   6.128  16.788 -0.9922  1.4613  0.7386
18683TIP3   OH277463   3.980   2.244  13.487  0.0398  0.1708  0.2141
18683TIP3    H177464   4.014   2.331  13.508  2.0623 -1.0622  2.6802
18683TIP3    H277465   3.947   2.252  13.398  1.1782  3.1668 -0.0623
18684TIP3   OH277466   1.977   4.406  13.476 -0.0889 -0.2318 -0.4168
18684TIP3    H177467   2.009   4.316  13.467  1.8531  0.3040  0.5731
18684TIP3    H277468   1.916   4.403  13.550 -0.2120 -0.7574 -0.5345
18685TIP3   OH277469   6.430   6.632   4.504 -0.9158 -0.4331  0.0956
18685TIP3    H177470   6.519   6.639   4.470 -1.3887 -2.4924 -1.8010
18685TIP3    H277471   6.383   6.705   4.464 -0.2657  0.2085  0.4887
18686TIP3   OH277472   5.151   2.622  15.350  0.2838 -0.1157  0.4838
18686TIP3    H177473   5.107   2.692  15.399  0.6722  1.1252 -0.8674
18686TIP3    H277474   5.183   2.563  15.418  0.6365  1.4324  1.7453
18687TIP3   OH277475   4.468   1.548  12.609  0.2252 -0.0841 -0.1290
18687TIP3    H177476   4.489   1.634  12.646  1.2556 -0.4350  0.1234
18687TIP3    H277477   4.534   1.489  12.645 -1.2887 -1.2874  0.8162
18688TIP3   OH277478   0.996   1.220  14.443 -0.4003  0.5153  0.8044
18688TIP3    H177479   1.077   1.270  14.434  0.1787 -0.3629  0.9078
18688TIP3    H277480   0.976   1.189  14.355  1.1256 -1.8395  1.1809
18689TIP3   OH277481   3.897   0.364   2.197 -0.1396 -0.9344  0.1878
18689TIP3    H177482   3.845   0.444   2.182  1.5714  0.0354 -0.8375
18689TIP3    H277483   3.923   0.370   2.289 -0.4442 -0.5626  0.2553
18690TIP3   OH277484   6.626   3.904  12.011 -0.3013 -0.3855  0.3831
18690TIP3    H177485   6.622   3.947  11.925  0.4095  0.0522  0.5599
18690TIP3    H277486   6.553   3.843  12.011 -0.5295 -0.1198 -0.3938
18691TIP3   OH277487   2.130   4.069   0.976 -0.1764 -0.3111 -0.3087
18691TIP3    H177488   2.098   4.035   0.892 -2.5254 -0.7834  0.6754
18691TIP3    H277489   2.200   4.009   1.002  1.3785  0.5005 -2.3941
18692TIP3   OH277490   0.569   1.953  14.687  0.2432 -0.2381 -0.4201
18692TIP3    H177491   0.557   1.859  14.698  0.6129 -0.3484 -0.9329
18692TIP3    H277492   0.653   1.961  14.642  1.0165  0.4051  1.0588
18693TIP3   OH277493   4.443   1.317  13.316  0.0147  0.0686 -0.2178
18693TIP3    H177494   4.469   1.410  13.317  2.3107 -0.3747  3.6732
18693TIP3    H277495   4.508   1.275  13.260 -1.7674  0.8106 -3.0323
18694TIP3   OH277496   0.109   5.499   5.637  0.4932 -0.0553 -0.5132
18694TIP3    H177497   0.187   5.444   5.640 -0.9051 -2.1247 -0.4904
18694TIP3    H277498   0.110   5.536   5.548  2.7484  2.0130  0.2408
18695TIP3   OH277499   2.992   3.544  11.163 -0.5914 -0.8005 -0.5328
18695TIP3    H177500   2.920   3.599  11.195 -0.0134  0.2935 -1.0441
18695TIP3    H277501   2.994   3.470  11.223 -0.6644  0.3137  0.9091
18696TIP3   OH277502   0.287   4.077   4.904 -0.0347  0.4154 -0.8612
18696TIP3    H177503   0.245   4.006   4.953 -0.7409  0.7519 -0.9615
18696TIP3    H277504   0.350   4.114   4.965 -1.3032  1.2066  0.0270
18697TIP3   OH277505   4.734   1.908   5.228 -0.0463  0.0463 -0.3747
18697TIP3    H177506   4.702   1.933   5.315  1.3869 -0.2614  0.2564
18697TIP3    H277507   4.655   1.907   5.173 -0.8345  1.2091  0.6822
18698TIP3   OH277508   6.555   6.544   2.910 -0.2421  0.2496  0.1036
18698TIP3    H177509   6.547   6.482   2.837 -0.0882 -0.0105  0.3066
18698TIP3    H277510   6.642   6.583   2.897  0.7148 -1.3286  1.3286
18699TIP3   OH277511   2.586   5.485  11.951  1.2267 -0.2044 -0.6789
18699TIP3    H177512   2.519   5.417  11.942 -0.8377  1.7933 -1.1335
18699TIP3    H277513   2.666   5.442  11.920 -0.1056 -2.2381 -1.5960
18700TIP3   OH277514   5.352   2.924   0.064 -0.3472  0.1549  0.0760
18700TIP3    H177515   5.310   2.907  -0.021 -1.1561 -0.8004  0.6530
18700TIP3    H277516   5.286   2.901   0.129  0.2283  0.9866  0.9769
18701TIP3   OH277517   6.698   1.190  15.033  0.5112  0.0673  0.1169
18701TIP3    H177518   6.747   1.195  15.115 -0.9109  1.6816  0.9190
18701TIP3    H277519   6.614   1.151  15.058  0.5218 -0.5733 -0.8152
18702TIP3   OH277520   4.751   0.744  14.780  0.4412  0.2913  0.2189
18702TIP3    H177521   4.680   0.795  14.740  1.6981  2.6565  0.8267
18702TIP3    H277522   4.798   0.707  14.705  0.2328  1.0695 -0.3127
18703TIP3   OH277523   1.297   6.757   5.843 -0.8421 -0.5396  0.1879
18703TIP3    H177524   1.209   6.763   5.879 -0.6314  0.1776  0.6152
18703TIP3    H277525   1.285   6.736   5.751 -1.3785 -3.6431  0.8871
18704TIP3   OH277526   0.078   5.985  17.084  0.6274  0.4178  0.5453
18704TIP3    H177527   0.109   6.021  17.001 -2.0581  0.1479 -0.6634
18704TIP3    H277528  -0.010   6.022  17.095  0.3952 -0.6063  2.6039
18705TIP3   OH277529   3.147   1.727  11.979 -0.2000 -0.1921  0.4630
18705TIP3    H177530   3.100   1.709  12.060 -1.6778  0.7404 -0.1494
18705TIP3    H277531   3.226   1.773  12.008 -0.1190 -0.9108  1.4397
18706TIP3   OH277532   1.282   2.282   3.804  0.2957  0.0134 -0.3146
18706TIP3    H177533   1.375   2.266   3.791  0.1725 -0.5662 -0.5350
18706TIP3    H277534   1.258   2.227   3.878  0.5151  1.5934  0.9817
18707TIP3   OH277535   3.780   6.093  15.013  0.1977  0.4923  0.2786
18707TIP3    H177536   3.707   6.149  14.988  0.1905  0.3256 -0.0902
18707TIP3    H277537   3.853   6.123  14.958  0.4852  0.8419  0.8432
18708TIP3   OH277538   3.914   5.363   1.280 -0.5900 -0.6527 -0.6276
18708TIP3    H177539   3.914   5.436   1.341  1.2703 -1.2926  0.2271
18708TIP3    H277540   3.855   5.390   1.210 -1.7398  0.6668  0.7898
18709TIP3   OH277541   1.772   4.449   2.285 -0.8921 -0.0199  0.0149
18709TIP3    H177542   1.742   4.538   2.304 -1.1215  0.4906 -2.4487
18709TIP3    H277543   1.867   4.452   2.300 -0.9115  0.6214  0.0422
18710TIP3   OH277544   1.941   2.330  14.313  0.3166 -0.1294 -0.0356
18710TIP3    H177545   1.930   2.271  14.239  0.3730  0.9338 -0.9159
18710TIP3    H277546   2.027   2.370  14.300 -0.2611  1.1144 -0.1820
18711TIP3   OH277547   6.711   0.296   5.882  0.7781  0.2825  0.1411
18711TIP3    H177548   6.779   0.263   5.941  0.0930 -1.1811  0.1488
18711TIP3    H277549   6.725   0.250   5.800 -0.6869 -0.6850  0.3938
18712TIP3   OH277550   5.224   2.464  16.717 -0.9876  0.5230 -0.1073
18712TIP3    H177551   5.241   2.382  16.763 -3.5831 -0.3087 -0.4676
18712TIP3    H277552   5.270   2.530  16.768 -0.6093 -0.8620  1.4274
18713TIP3   OH277553   4.863   4.680  12.891  0.2871  0.5033 -0.2213
18713TIP3    H177554   4.826   4.603  12.934  3.2267 -0.5790  0.6769
18713TIP3    H277555   4.812   4.689  12.810 -0.2518 -2.3684 -0.3297
18714TIP3   OH277556   0.138   5.961  13.111 -0.6999  0.0651 -0.0283
18714TIP3    H177557   0.197   5.939  13.184 -1.2057  0.4379  0.4973
18714TIP3    H277558   0.078   6.027  13.147 -2.9320 -1.9481  0.1519
18715TIP3   OH277559   5.411   2.745   5.964 -0.0785  0.0152 -0.3569
18715TIP3    H177560   5.345   2.683   5.932 -0.9065  0.4760  0.4019
18715TIP3    H277561   5.439   2.707   6.048  0.6890 -0.2132 -0.7065
18716TIP3   OH277562   0.440   2.597   2.786  0.0214 -0.8767 -0.6051
18716TIP3    H177563   0.486   2.668   2.831 -0.0989 -1.4015  0.3838
18716TIP3    H277564   0.405   2.637   2.707 -0.1753  0.2029  0.0054
18717TIP3   OH277565   0.554   0.219   4.838  0.0162  0.5369  0.0027
18717TIP3    H177566   0.640   0.257   4.857  1.1827 -2.0408  0.3306
18717TIP3    H277567   0.574   0.135   4.797 -2.4012  0.5412 -1.3628
18718TIP3   OH277568   4.769   3.637  13.436  0.2377 -0.1020  0.0032
18718TIP3    H177569   4.712   3.694  13.384  0.9091 -0.1427 -0.7977
18718TIP3    H277570   4.709   3.581  13.486 -0.4206 -0.0439 -0.7143
18719TIP3   OH277571   1.282   6.633   6.578 -0.3378 -0.2207  0.1982
18719TIP3    H177572   1.368   6.671   6.596 -0.6254  0.4545  0.1726
18719TIP3    H277573   1.288   6.543   6.611  0.7499 -0.5516 -0.8366
18720TIP3   OH277574   6.315   1.762  13.066 -0.2588 -0.1445 -0.5140
18720TIP3    H177575   6.310   1.745  12.971 -3.3330 -0.7322 -0.3709
18720TIP3    H277576   6.282   1.851  13.076 -0.2495 -0.1978  0.0051
18721TIP3   OH277577   4.310   2.822  14.403 -0.3818 -0.2666  0.8406
18721TIP3    H177578   4.364   2.787  14.333 -0.0277 -0.8852  1.4132
18721TIP3    H277579   4.355   2.903  14.430 -1.4516  0.9327 -0.7928
18722TIP3   OH277580   2.601   0.642  11.290 -0.0336  0.0088 -0.5134
18722TIP3    H177581   2.553   0.719  11.318 -1.9244 -1.7065  1.3398
18722TIP3    H277582   2.546   0.603  11.222 -0.1386 -0.7784  0.0136
18723TIP3   OH277583   3.347   6.207   2.617 -0.5869 -0.0658 -0.1215
18723TIP3    H177584   3.282   6.277   2.613  0.0424  0.5027 -0.4009
18723TIP3    H277585   3.296   6.130   2.644 -1.6016  0.0967 -1.4668
18724TIP3   OH277586   0.411   5.143  13.372  0.3751  0.2812  0.1989
18724TIP3    H177587   0.503   5.155  13.347  0.3155 -1.0972 -0.7613
18724TIP3    H277588   0.371   5.099  13.297 -1.4757  2.2544 -0.0909
18725TIP3   OH277589   0.529   6.677   5.931  0.0974 -0.0084 -0.3684
18725TIP3    H177590   0.481   6.629   5.999  0.8827 -0.1657  0.0909
18725TIP3    H277591   0.571   6.609   5.879 -0.4673  0.1159 -0.9996
18726TIP3   OH277592   3.585   6.252   5.625 -0.2200 -0.1313  0.1094
18726TIP3    H177593   3.535   6.230   5.546  0.2647  0.7501 -0.4710
18726TIP3    H277594   3.632   6.172   5.648 -1.8148 -0.9452  0.6138
18727TIP3   OH277595   1.006   0.886   4.768  0.3112  0.5138  0.3851
18727TIP3    H177596   1.032   0.797   4.791  2.1336  0.9498  0.1170
18727TIP3    H277597   0.911   0.879   4.752  0.1101 -1.0212  1.9124
18728TIP3   OH277598   3.989   5.972  15.772 -0.0367  0.2944  0.6000
18728TIP3    H177599   4.045   6.019  15.710 -0.5608 -0.5746 -0.5708
18728TIP3    H277600   3.978   6.033  15.845  1.9385  0.7209  0.6028
18729TIP3   OH277601   0.496   4.447   4.446  0.4810  0.6878 -0.2134
18729TIP3    H177602   0.467   4.386   4.513 -1.5211  1.2889 -0.4840
18729TIP3    H277603   0.511   4.393   4.369  1.0486  0.2393  0.2039
18730TIP3   OH277604   3.172   4.816  11.852 -0.0029 -0.7444  0.0475
18730TIP3    H177605   3.193   4.910  11.847  0.0574 -0.6466  1.5027
18730TIP3    H277606   3.247   4.778  11.898 -0.3723 -1.3742  0.1320
18731TIP3   OH277607   6.448   4.556   4.993  0.2405  0.0762  0.0972
18731TIP3    H177608   6.370   4.606   4.971 -0.3076 -0.9743 -0.4190
18731TIP3    H277609   6.518   4.599   4.944  0.1375  1.4529  1.1161
18732TIP3   OH277610   3.992   0.707   5.550 -0.2086  0.3836  0.5733
18732TIP3    H177611   4.081   0.677   5.570 -0.5855 -0.4019  1.0930
18732TIP3    H277612   3.940   0.682   5.627 -0.8500  0.9989  0.3529
18733TIP3   OH277613   6.314   5.301  11.400 -0.2537  0.4440 -0.1007
18733TIP3    H177614   6.342   5.211  11.412 -0.2180  0.5923  1.0307
18733TIP3    H277615   6.246   5.315  11.466 -0.9053  0.9835 -0.8498
18734TIP3   OH277616   4.239   0.821   2.338 -0.1539  0.1462  0.2408
18734TIP3    H177617   4.314   0.778   2.379 -1.6115 -2.1911  0.6603
18734TIP3    H277618   4.195   0.752   2.289 -1.9610  1.4440 -0.0862
18735TIP3   OH277619   2.908   3.247  16.843  0.2073  0.4987 -0.2546
18735TIP3    H177620   2.860   3.328  16.827 -0.9969 -0.4636 -1.8788
18735TIP3    H277621   2.921   3.209  16.756  0.1212 -1.3734  0.4903
18736TIP3   OH277622   0.469   1.445   3.925  0.2311  0.1584 -0.7244
18736TIP3    H177623   0.523   1.447   4.004  0.6458 -0.2699 -0.9881
18736TIP3    H277624   0.531   1.425   3.855 -0.2966 -0.5112 -1.0100
18737TIP3   OH277625   5.513   3.182   0.526  0.5186  0.7129 -0.0353
18737TIP3    H177626   5.429   3.157   0.564  1.0520 -0.4364  0.4383
18737TIP3    H277627   5.503   3.165   0.432 -0.0908  1.4948 -0.1135
18738TIP3   OH277628   2.843   3.192   5.146 -0.2485  0.2115  0.4707
18738TIP3    H177629   2.852   3.279   5.108 -2.1933 -0.5954 -2.1779
18738TIP3    H277630   2.774   3.202   5.212 -1.3863  0.4688 -0.7280
18739TIP3   OH277631   2.060   4.642   5.127 -0.3040 -0.3120 -0.5193
18739TIP3    H177632   2.126   4.698   5.166 -0.2609 -0.2172 -0.7292
18739TIP3    H277633   1.997   4.703   5.089 -1.8598 -0.3033  1.8181
18740TIP3   OH277634   2.351   0.499  15.138 -0.7868 -0.7799  0.2839
18740TIP3    H177635   2.380   0.412  15.169 -0.0209 -0.6992 -0.1733
18740TIP3    H277636   2.281   0.480  15.076 -1.2573 -1.0202  0.8723
18741TIP3   OH277637   0.643   1.626   2.876  0.2577  0.4189  0.0643
18741TIP3    H177638   0.713   1.653   2.935  0.3372  2.6062 -0.9412
18741TIP3    H277639   0.687   1.599   2.796  0.0421 -0.2904  0.1807
18742TIP3   OH277640   2.727   4.346   0.383 -1.2222 -0.5523  0.4083
18742TIP3    H177641   2.794   4.409   0.358  0.5302 -2.5026 -0.0988
18742TIP3    H277642   2.651   4.369   0.329  0.9612 -1.8217 -3.6909
18743TIP3   OH277643   2.553   0.853   4.797 -0.0219 -0.2280  0.1727
18743TIP3    H177644   2.644   0.824   4.788  0.3450  0.4297  1.5839
18743TIP3    H277645   2.528   0.826   4.885 -1.5440 -1.2762 -0.5383
18744TIP3   OH277646   0.158   4.046   5.154  0.5687  0.4021  0.3121
18744TIP3    H177647   0.072   4.007   5.136  0.9157 -0.0978 -0.2667
18744TIP3    H277648   0.138   4.120   5.213  0.0822 -1.7411  3.0563
18745TIP3   OH277649   1.402   0.046  15.511 -0.0446  0.4005  0.0626
18745TIP3    H177650   1.416  -0.045  15.484 -0.3060  0.4268 -0.1589
18745TIP3    H277651   1.469   0.061  15.579 -0.1713 -0.0339  0.2854
18746TIP3   OH277652   0.014   1.652  12.703  0.2495 -0.3339  0.2792
18746TIP3    H177653   0.074   1.595  12.656 -1.9453 -0.9125 -2.0900
18746TIP3    H277654   0.063   1.733  12.716  0.9275  0.1703 -3.8192
18747TIP3   OH277655   3.017   5.113  12.174 -0.0417 -0.0163 -0.3407
18747TIP3    H177656   2.929   5.074  12.177  0.1952 -0.4930  1.6091
18747TIP3    H277657   3.025   5.145  12.084 -0.7580 -3.2434 -1.6983
18748TIP3   OH277658   1.139   6.750   1.736  0.2817 -0.0836 -0.5799
18748TIP3    H177659   1.159   6.745   1.642  0.7817 -0.6155 -0.4566
18748TIP3    H277660   1.136   6.844   1.755  0.3375  0.0272 -1.0976
18749TIP3   OH277661   2.054   1.654   6.573  0.5101 -0.9981  0.3097
18749TIP3    H177662   2.054   1.750   6.575  1.2350 -0.9986  1.2457
18749TIP3    H277663   2.135   1.632   6.528  0.7910 -1.1617  0.8821
18750TIP3   OH277664   5.761   2.950  16.207 -0.3651 -0.0593 -0.4229
18750TIP3    H177665   5.782   3.029  16.256  0.4014 -1.5381  1.8132
18750TIP3    H277666   5.672   2.964  16.174 -0.5134  1.4309  0.5467
18751TIP3   OH277667   3.892   0.917   6.458  0.4624  0.0363 -0.1396
18751TIP3    H177668   3.971   0.906   6.405  0.6203 -0.5363  0.2018
18751TIP3    H277669   3.893   0.842   6.518  0.0608  0.4369  0.3808
18752TIP3   OH277670   2.410   4.463   3.145  0.0845 -0.0879 -0.2629
18752TIP3    H177671   2.346   4.463   3.075 -0.0676 -0.1241 -0.1237
18752TIP3    H277672   2.479   4.522   3.114  0.7319 -1.2324 -1.0850
18753TIP3   OH277673   2.235   2.713   5.452 -0.2871  0.6207 -0.1313
18753TIP3    H177674   2.264   2.622   5.445  0.4436  0.8140  0.3553
18753TIP3    H277675   2.307   2.764   5.417 -0.0198  1.1020  1.0806
18754TIP3   OH277676   3.518   5.652  14.414  0.0247 -0.5849  0.2977
18754TIP3    H177677   3.424   5.649  14.429 -0.1123 -0.2033 -0.4303
18754TIP3    H277678   3.554   5.585  14.472 -0.5439  0.2137  1.6120
18755TIP3   OH277679   0.167   4.978   1.365  0.5314 -0.0432  0.2189
18755TIP3    H177680   0.122   4.979   1.449  0.4315  1.8618  0.1766
18755TIP3    H277681   0.104   4.939   1.304 -1.0177  2.3238  0.2148
18756TIP3   OH277682   6.134   2.572   6.218  0.8501  0.6308 -0.2968
18756TIP3    H177683   6.157   2.527   6.137  0.7648  0.4294 -0.2118
18756TIP3    H277684   6.208   2.630   6.236  2.0587 -1.1699  0.8250
18757TIP3   OH277685   4.637   0.732   2.057 -0.2520 -0.1806 -0.5992
18757TIP3    H177686   4.595   0.665   2.110  0.4952  0.7499  1.2428
18757TIP3    H277687   4.570   0.800   2.046 -0.3853 -0.3441 -0.8007
18758TIP3   OH277688   3.213   2.100   2.944 -0.3215  0.1120  0.2676
18758TIP3    H177689   3.208   2.163   2.871 -0.3294 -0.5293 -0.3006
18758TIP3    H277690   3.229   2.016   2.901 -0.5265 -0.3066  1.0028
18759TIP3   OH277691   0.721   2.266   1.689  0.4071 -0.6715  0.0868
18759TIP3    H177692   0.678   2.195   1.641 -0.0633 -0.3166 -0.0270
18759TIP3    H277693   0.815   2.246   1.682  0.4929  0.2434 -2.4117
18760TIP3   OH277694   3.207   1.350  11.920 -0.6677  0.4750  0.0008
18760TIP3    H177695   3.280   1.396  11.881 -0.2731 -0.1174  0.0250
18760TIP3    H277696   3.247   1.278  11.969 -1.1904  0.8441  0.9977
18761TIP3   OH277697   1.440   5.517   1.143  0.5908 -0.0129  0.9660
18761TIP3    H177698   1.352   5.496   1.176  0.6154  1.4125  1.9975
18761TIP3    H277699   1.431   5.511   1.048 -0.2780 -1.1315  1.0840
18762TIP3   OH277700   4.198   0.731   4.522 -0.4779  0.6206  0.5473
18762TIP3    H177701   4.282   0.774   4.506 -0.3007  0.2481  0.4695
18762TIP3    H277702   4.148   0.748   4.442 -1.4172  2.9871  1.5374
18763TIP3   OH277703   5.015   2.141  12.155  0.4655 -0.7342 -0.2089
18763TIP3    H177704   4.947   2.114  12.093  2.0645 -0.8724 -1.9985
18763TIP3    H277705   5.095   2.101  12.121  1.6121  0.1930  1.2956
18764TIP3   OH277706   4.995   0.634   4.565 -0.9548 -0.3758  0.0754
18764TIP3    H177707   4.997   0.661   4.473  0.8139  1.4975  0.6015
18764TIP3    H277708   4.901   0.633   4.587 -1.3934 -0.5152 -1.6272
18765TIP3   OH277709   6.384   1.708   4.796 -0.4782  0.0240 -0.3783
18765TIP3    H177710   6.476   1.735   4.802 -0.5091 -0.0944  1.1170
18765TIP3    H277711   6.386   1.628   4.744  0.2326  0.2000 -0.6306
18766TIP3   OH277712   0.567   2.084   1.177  0.3491  0.2447 -0.7026
18766TIP3    H177713   0.619   2.007   1.204  0.1353  0.6921  1.1352
18766TIP3    H277714   0.482   2.048   1.154  0.2015 -0.0772  0.2947
18767TIP3   OH277715   1.035   0.478  16.126 -0.0014  0.0813  0.2907
18767TIP3    H177716   1.013   0.493  16.217  0.7494 -0.7963  0.6302
18767TIP3    H277717   0.959   0.433  16.089  0.8794 -2.4125  1.3036
18768TIP3   OH277718   4.405   5.041   2.397  0.2843  0.1259  0.3598
18768TIP3    H177719   4.371   5.045   2.307  0.0918  2.4149  0.4697
18768TIP3    H277720   4.330   5.015   2.450  0.0515  0.0596  0.0027
18769TIP3   OH277721   2.984   1.849  12.375 -0.1908  0.5482 -0.0189
18769TIP3    H177722   3.044   1.790  12.329 -0.7385  0.0030 -0.0502
18769TIP3    H277723   2.901   1.801  12.378 -0.6005  1.2526  0.1055
18770TIP3   OH277724   6.515   0.586  14.972  0.0910 -0.3971 -0.0494
18770TIP3    H177725   6.608   0.596  14.951 -0.0509 -1.6060 -1.4059
18770TIP3    H277726   6.492   0.500  14.938 -1.3836 -0.4021  0.8627
18771TIP3   OH277727   3.494   2.199  11.508  0.1065  0.3130 -0.0938
18771TIP3    H177728   3.423   2.264  11.509 -1.3869 -1.2379  1.5502
18771TIP3    H277729   3.475   2.145  11.431 -0.1999  0.2159  0.0480
18772TIP3   OH277730   0.999   2.082  16.929  0.1458 -0.5420  0.0443
18772TIP3    H177731   0.968   1.999  16.966 -1.4357 -0.1659 -0.3368
18772TIP3    H277732   1.071   2.109  16.987  0.7961 -2.2332  0.0795
18773TIP3   OH277733   3.575   2.732   4.775  0.3331  0.9401 -0.1940
18773TIP3    H177734   3.537   2.819   4.763 -2.9844 -0.3424 -0.0760
18773TIP3    H277735   3.524   2.694   4.848 -0.0586 -1.9316 -1.8206
18774TIP3   OH277736   0.385   5.056  16.884  0.5707  0.3197 -0.0372
18774TIP3    H177737   0.439   4.977  16.887 -0.5144 -0.4760 -0.6524
18774TIP3    H277738   0.447   5.128  16.893  1.5362 -0.6063  1.0190
18775TIP3   OH277739   0.466   1.989   4.284  0.1081 -0.5792 -0.2019
18775TIP3    H177740   0.446   1.974   4.376 -0.2683 -1.2188 -0.3877
18775TIP3    H277741   0.388   2.033   4.249  0.2445 -0.3498 -0.2203
18776TIP3   OH277742   5.065   3.351  13.459 -0.5226 -0.1130  0.7155
18776TIP3    H177743   5.048   3.421  13.395  0.0885 -1.8853 -1.5070
18776TIP3    H277744   5.160   3.354  13.472 -0.6763  0.4672  1.9149
18777TIP3   OH277745   4.727   3.709  16.767  0.0663  0.0460 -0.2663
18777TIP3    H177746   4.810   3.756  16.771  0.8888 -1.2651 -1.0837
18777TIP3    H277747   4.719   3.683  16.675 -0.7004 -0.7847  0.0160
18778TIP3   OH277748   3.068   1.425   0.601  0.4644 -0.7659 -0.5545
18778TIP3    H177749   3.077   1.390   0.512  0.8991  0.2527 -0.9222
18778TIP3    H277750   3.042   1.517   0.588 -3.3151 -1.5068  0.3685
18779TIP3   OH277751   6.277   3.285   0.589 -0.2011 -0.0313 -0.1963
18779TIP3    H177752   6.250   3.376   0.604 -0.3789 -0.2245  0.7643
18779TIP3    H277753   6.327   3.262   0.668 -0.4283 -0.8664 -0.2878
18780TIP3   OH277754   6.065   0.004  17.113 -0.3713  0.2266 -0.0716
18780TIP3    H177755   6.042   0.058  17.190 -0.1600  2.4491 -1.4687
18780TIP3    H277756   5.983  -0.004  17.065 -0.4403 -0.9199  0.2214
18781TIP3   OH277757   6.371   1.853  15.884 -0.3470  0.9831 -0.1271
18781TIP3    H177758   6.330   1.827  15.967  3.9253 -0.4046  1.8000
18781TIP3    H277759   6.312   1.818  15.816 -2.2943 -0.8639  2.3218
18782TIP3   OH277760   0.244   4.156  11.680 -0.2967  0.2363 -0.1398
18782TIP3    H177761   0.339   4.143  11.680 -0.0868  0.5550  3.9732
18782TIP3    H277762   0.209   4.077  11.722 -1.6738  0.9040  0.0323
18783TIP3   OH277763   0.262   2.042   2.073  0.3418  0.0343  0.5601
18783TIP3    H177764   0.241   1.974   2.009  1.6243  0.2202 -0.1082
18783TIP3    H277765   0.356   2.059   2.059 -0.0024  2.1248  0.5244
18784TIP3   OH277766   0.620   5.180   1.290 -0.7000  0.3136  0.0785
18784TIP3    H177767   0.664   5.113   1.343 -3.0778 -2.5303 -1.2322
18784TIP3    H277768   0.692   5.229   1.250  1.2255 -1.4549  1.1515
18785TIP3   OH277769   4.536   3.783  13.799  0.1986  0.1324 -0.4765
18785TIP3    H177770   4.448   3.822  13.802  0.6393  1.2366 -1.2732
18785TIP3    H277771   4.563   3.780  13.891 -0.6605 -0.1934 -0.2216
18786TIP3   OH277772   5.717   0.990   2.561 -0.5104 -0.2810 -0.3338
18786TIP3    H177773   5.715   0.965   2.654 -0.8393  0.3681 -0.1531
18786TIP3    H277774   5.798   1.041   2.552  0.5890 -2.0636 -0.8913
18787TIP3   OH277775   1.763   1.755  16.842  0.4264 -0.2199 -0.1608
18787TIP3    H177776   1.815   1.819  16.891 -0.0589  1.2491 -1.4558
18787TIP3    H277777   1.691   1.807  16.806  0.6641 -1.2571 -2.2301
18788TIP3   OH277778   6.061   4.837   3.419 -0.0452 -0.0041  0.1786
18788TIP3    H177779   6.095   4.883   3.342  2.3247 -3.6433 -1.1973
18788TIP3    H277780   6.138   4.818   3.472 -1.3305  0.2195  2.2320
18789TIP3   OH277781   4.262   0.456   3.081 -0.1964  0.6471 -0.2782
18789TIP3    H177782   4.284   0.549   3.083 -3.7911  1.6620  1.3912
18789TIP3    H277783   4.270   0.428   3.172 -0.9010 -0.1289 -0.4414
18790TIP3   OH277784   5.216   4.624  13.572 -0.2364  0.1740 -0.2426
18790TIP3    H177785   5.200   4.656  13.483  0.4743 -2.5299 -1.4473
18790TIP3    H277786   5.128   4.606  13.607 -0.5313  1.4655 -0.2865
18791TIP3   OH277787   4.535   6.238   3.107  0.2054  0.6756  0.0260
18791TIP3    H177788   4.489   6.158   3.079 -2.6873  2.2075 -0.0239
18791TIP3    H277789   4.552   6.224   3.200 -1.2685  0.3859  0.2767
18792TIP3   OH277790   3.025   3.112  14.202  0.1555 -0.4066  0.1410
18792TIP3    H177791   2.951   3.155  14.160  0.6557  0.1649 -0.1862
18792TIP3    H277792   3.005   3.115  14.295 -0.9436 -1.6415 -0.0267
18793TIP3   OH277793   5.464   4.120   4.378  0.1931  0.1459  0.0631
18793TIP3    H177794   5.452   4.209   4.345  1.2395  0.5288  0.6772
18793TIP3    H277795   5.388   4.072   4.344 -1.5763  1.7497  1.4990
18794TIP3   OH277796   0.436   5.744   0.228  0.0134  0.0541 -0.1419
18794TIP3    H177797   0.418   5.830   0.265  0.7352  0.2069 -0.1151
18794TIP3    H277798   0.350   5.705   0.212 -0.3313  0.1764  1.2510
18795TIP3   OH277799   5.732   1.391   3.051 -0.2296 -0.1946  1.2377
18795TIP3    H177800   5.744   1.351   2.965 -0.0363  0.2014  1.0799
18795TIP3    H277801   5.725   1.316   3.111  0.0214 -0.4685  0.9298
18796TIP3   OH277802   1.449   2.721  12.062  0.2264 -0.2759 -0.4899
18796TIP3    H177803   1.370   2.774  12.076 -1.5563 -2.5004 -1.3561
18796TIP3    H277804   1.520   2.773  12.098 -1.3141  2.7927 -1.5534
18797TIP3   OH277805   5.377   3.482  14.570 -0.1428  0.1711 -0.2680
18797TIP3    H177806   5.457   3.452  14.525 -0.9228  0.1213 -1.6741
18797TIP3    H277807   5.321   3.513  14.500 -0.5714  2.1467  0.8733
18798TIP3   OH277808   2.674   6.296  13.943 -0.2950  0.6954 -0.1646
18798TIP3    H177809   2.654   6.334  13.858 -1.2333 -0.0484 -0.2974
18798TIP3    H277810   2.596   6.246  13.966 -0.1404  1.0499  1.2380
18799TIP3   OH277811   0.271   0.431   6.010 -0.0442  0.4484 -0.2335
18799TIP3    H177812   0.279   0.511   5.958 -0.9168 -0.0224 -1.1216
18799TIP3    H277813   0.202   0.451   6.074  0.6187  0.8236  0.3843
18800TIP3   OH277814   5.809   1.940   3.687 -0.7935  1.1936 -0.0785
18800TIP3    H177815   5.774   1.854   3.663  0.4188  0.2935  1.2216
18800TIP3    H277816   5.777   1.999   3.618 -2.5564 -0.0614 -0.4132
18801TIP3   OH277817   2.275   4.312   6.019  0.3485  0.1465  0.1366
18801TIP3    H177818   2.344   4.369   6.053 -0.4507  0.7005  0.8512
18801TIP3    H277819   2.197   4.367   6.016  0.3519  0.1738 -2.7176
18802TIP3   OH277820   3.565   4.861   0.582  0.4375  0.6575 -0.1244
18802TIP3    H177821   3.495   4.800   0.605  2.9885 -3.5978 -2.3800
18802TIP3    H277822   3.562   4.866   0.486  1.5442  2.6659 -0.1104
18803TIP3   OH277823   4.431   1.905   3.202 -0.1764  0.0328  0.7876
18803TIP3    H177824   4.395   1.993   3.213 -1.1251 -0.2217 -0.1100
18803TIP3    H277825   4.358   1.854   3.166  0.7966 -0.7551 -0.1203
18804TIP3   OH277826   5.383   5.904   5.726  0.2838  0.2096 -0.3541
18804TIP3    H177827   5.417   5.836   5.666  1.6006  0.9575 -0.5022
18804TIP3    H277828   5.461   5.937   5.770 -0.5956  0.0899  1.3805
18805TIP3   OH277829   6.421   3.363  11.004  0.3495  0.1407 -0.2644
18805TIP3    H177830   6.380   3.377  10.918 -1.9292  2.0394  0.9910
18805TIP3    H277831   6.504   3.409  10.999  0.3688  0.0027 -1.5219
18806TIP3   OH277832   3.657   5.080   2.334 -0.3961 -0.3840 -0.5924
18806TIP3    H177833   3.583   5.047   2.283 -0.6861 -0.2070 -0.2879
18806TIP3    H277834   3.676   5.166   2.296 -0.2555 -0.4896 -0.7616
18807TIP3   OH277835   6.483   4.180   5.552  0.1989 -0.0300 -0.3710
18807TIP3    H177836   6.572   4.214   5.553  0.2162 -0.0137 -1.3236
18807TIP3    H277837   6.492   4.087   5.573  0.0592  0.6353  3.2726
18808TIP3   OH277838   0.165   4.319  14.493  0.0706  0.3776  0.1033
18808TIP3    H177839   0.222   4.394  14.511  0.1342  0.3378  0.0677
18808TIP3    H277840   0.091   4.357  14.446  1.2504  0.1077 -2.1463
18809TIP3   OH277841   4.143   2.005  13.242 -0.1130 -0.3091 -0.4638
18809TIP3    H177842   4.062   1.978  13.286 -1.1257  2.2604 -0.5771
18809TIP3    H277843   4.161   1.934  13.180 -2.7013 -0.6330 -0.9818
18810TIP3   OH277844   2.366   3.149  13.074  0.2165  0.0127 -0.4995
18810TIP3    H177845   2.300   3.214  13.050 -0.5932 -0.9639 -1.0022
18810TIP3    H277846   2.384   3.166  13.167  0.1679  1.0658 -0.6712
18811TIP3   OH277847   3.699   1.552  16.146  0.3860  0.2229  0.1117
18811TIP3    H177848   3.632   1.514  16.089 -1.0427  2.4164  0.1757
18811TIP3    H277849   3.777   1.557  16.091  0.4122 -1.9679 -0.1177
18812TIP3   OH277850   1.547   5.890   0.571 -0.2656 -0.3804  0.0799
18812TIP3    H177851   1.601   5.936   0.636 -0.5063  0.4398 -0.2989
18812TIP3    H277852   1.596   5.898   0.489 -0.9625  0.3864 -0.2719
18813TIP3   OH277853   3.233   3.921  15.007  0.4550 -0.2380  0.5338
18813TIP3    H177854   3.233   3.907  14.912 -1.9951 -0.8883  0.5607
18813TIP3    H277855   3.323   3.946  15.028  1.2840 -1.0148 -1.8137
18814TIP3   OH277856   1.728   5.717  15.795  0.1789  0.8100 -0.4601
18814TIP3    H177857   1.748   5.624  15.807  0.8112  0.7103 -1.9350
18814TIP3    H277858   1.813   5.756  15.772 -0.2608  1.5553 -0.8352
18815TIP3   OH277859   2.467   0.318   1.950 -0.1339 -0.4416 -0.4277
18815TIP3    H177860   2.558   0.291   1.939 -0.3061 -0.1422 -3.3899
18815TIP3    H277861   2.419   0.236   1.960  0.2553 -0.7584 -1.0288
18816TIP3   OH277862   6.325   6.679  16.946  0.2182  0.1130 -1.1079
18816TIP3    H177863   6.362   6.604  16.992 -1.5446 -0.7521 -0.9915
18816TIP3    H277864   6.308   6.743  17.015 -0.3002 -0.2773 -0.8601
18817TIP3   OH277865   4.406   0.675  11.847 -0.3542  0.3191 -0.1777
18817TIP3    H177866   4.427   0.603  11.787 -0.8337  0.2180 -0.2245
18817TIP3    H277867   4.462   0.747  11.817 -0.6051  0.2773 -0.7589
18818TIP3   OH277868   5.382   6.286  12.244  0.8939 -0.0235 -0.1280
18818TIP3    H177869   5.468   6.264  12.209  0.8908  0.8926 -0.7262
18818TIP3    H277870   5.401   6.342  12.320  0.8452 -0.4570  0.2068
18819TIP3   OH277871   3.064   4.712   5.967 -0.4341 -0.1475 -0.6253
18819TIP3    H177872   3.061   4.717   6.063  1.7128  1.2060 -0.5659
18819TIP3    H277873   3.088   4.621   5.949 -1.2778 -0.5273  0.0910
18820TIP3   OH277874   4.777   1.296  13.516  0.9948  0.3462 -0.3828
18820TIP3    H177875   4.787   1.376  13.568  0.1233  0.4851 -0.4153
18820TIP3    H277876   4.772   1.328  13.425 -1.0997  0.4274 -0.2757
18821TIP3   OH277877   3.499   1.249  10.999  0.0775 -0.0144 -0.3605
18821TIP3    H177878   3.462   1.187  11.061 -0.5129  0.3710 -0.3229
18821TIP3    H277879   3.480   1.211  10.913  0.3932 -0.2622 -0.3241
18822TIP3   OH277880   6.563   2.711  16.573  0.4731  0.2858 -0.1335
18822TIP3    H177881   6.479   2.666  16.561  1.2368 -0.6271 -2.7795
18822TIP3    H277882   6.605   2.705  16.487  2.4052  2.4725  0.5698
18823TIP3   OH277883   6.635   0.829   1.762 -0.0196 -0.1266 -0.3940
18823TIP3    H177884   6.681   0.854   1.681  0.9649 -1.1180 -0.1629
18823TIP3    H277885   6.673   0.745   1.786 -0.0702  0.2989  1.2805
18824TIP3   OH277886   4.415   2.337   2.765  0.8659 -0.1187 -0.1797
18824TIP3    H177887   4.331   2.293   2.779  0.8993  0.1135  0.8519
18824TIP3    H277888   4.480   2.274   2.796  0.9893  0.1702  0.1506
18825TIP3   OH277889   3.099   4.143   4.535  0.4073  0.0152 -0.0605
18825TIP3    H177890   3.032   4.162   4.600  0.4002 -0.3010  0.0268
18825TIP3    H277891   3.069   4.185   4.455  0.1050 -0.1280 -0.0218
18826TIP3   OH277892   4.563   3.840  13.522 -0.3090 -0.2322  0.1576
18826TIP3    H177893   4.654   3.850  13.496  0.1292  2.3088  2.2036
18826TIP3    H277894   4.567   3.796  13.607 -1.0167 -0.5093  0.0547
18827TIP3   OH277895   5.326   4.669   4.781 -0.0469 -0.3212 -0.4359
18827TIP3    H177896   5.240   4.711   4.780 -0.3351 -0.6859  2.0892
18827TIP3    H277897   5.386   4.736   4.749 -0.8203  1.2608  1.2334
18828TIP3   OH277898   6.219   3.433   2.943 -0.4518 -0.0191  0.2514
18828TIP3    H177899   6.226   3.396   2.855 -0.1992 -0.6224  0.5229
18828TIP3    H277900   6.259   3.368   3.000 -2.6910 -0.7276  1.1202
18829TIP3   OH277901   4.470   6.594   5.333  0.8369 -0.0007 -0.1873
18829TIP3    H177902   4.515   6.612   5.415  0.3006  1.1790 -0.1234
18829TIP3    H277903   4.427   6.677   5.310 -0.8400 -0.9087 -0.5298
18830TIP3   OH277904   4.087   0.262  11.180 -0.0112 -0.2210  0.0096
18830TIP3    H177905   4.145   0.193  11.148  0.7043 -0.5559  1.8883
18830TIP3    H277906   4.146   0.324  11.224 -0.7300  1.1941 -0.9498
18831TIP3   OH277907   2.528   4.182   5.303  0.4377 -0.3723 -0.1976
18831TIP3    H177908   2.611   4.135   5.295  0.5579  0.0468 -1.6729
18831TIP3    H277909   2.554   4.270   5.333  0.9258  0.7295 -3.4293
18832TIP3   OH277910   2.001   4.685  16.638  0.2827 -0.3063  0.3527
18832TIP3    H177911   2.048   4.655  16.716  0.4601  0.5714  0.5983
18832TIP3    H277912   1.967   4.605  16.598  1.7413 -0.9437  0.3281
18833TIP3   OH277913   5.874   2.605   3.789  0.2770  0.1820  0.8150
18833TIP3    H177914   5.812   2.535   3.768  1.5430 -0.9183  0.5880
18833TIP3    H277915   5.884   2.602   3.884  0.7650 -0.3618  0.7552
18834TIP3   OH277916   0.909   6.591   3.133 -0.4135 -0.1301 -0.0241
18834TIP3    H177917   0.961   6.525   3.179 -0.6097 -0.2467  0.0370
18834TIP3    H277918   0.890   6.551   3.048 -0.0091  0.1071 -0.2232
18835TIP3   OH277919   0.137   5.974   0.979  0.6852 -0.2200 -0.0140
18835TIP3    H177920   0.113   5.931   0.897  1.4804  1.7335 -1.3489
18835TIP3    H277921   0.055   5.977   1.029 -0.4435  0.7783 -1.8202
18836TIP3   OH277922   3.161   3.380   1.170 -0.8398 -0.8474  0.3717
18836TIP3    H177923   3.223   3.435   1.123 -0.3726 -0.7253  1.1109
18836TIP3    H277924   3.211   3.302   1.193 -1.6716 -1.9170 -1.2346
18837TIP3   OH277925   4.100   1.580   4.378 -0.0347 -0.4662  0.5678
18837TIP3    H177926   4.033   1.564   4.311  1.0180  1.9613 -1.2082
18837TIP3    H277927   4.182   1.559   4.335  0.8363  2.9971  0.3063
18838TIP3   OH277928   3.136   6.013   4.132 -0.0306  0.2091 -0.1212
18838TIP3    H177929   3.086   6.032   4.052  2.1806  0.9677 -1.4074
18838TIP3    H277930   3.093   5.936   4.169 -2.3999  1.0802 -0.8866
18839TIP3   OH277931   5.961   5.537  13.353 -0.0735  0.2314 -0.0080
18839TIP3    H177932   5.951   5.626  13.320 -1.5301  0.3701  0.7388
18839TIP3    H277933   6.045   5.537  13.400  0.5592  0.8345 -1.0962
18840TIP3   OH277934   3.740   5.039   0.686 -0.2667 -0.3393  0.8053
18840TIP3    H177935   3.778   5.008   0.768 -2.7883 -0.3088  2.0922
18840TIP3    H277936   3.678   4.970   0.661 -0.2767  0.1217 -0.5332
18841TIP3   OH277937   1.374   3.342   5.341  0.1511 -0.0934  0.6447
18841TIP3    H177938   1.469   3.336   5.353 -0.1205  0.0039  3.4884
18841TIP3    H277939   1.363   3.410   5.274  2.0777  2.8707  3.0849
18842TIP3   OH277940   3.372   5.550   4.788 -0.3463  0.3764 -0.0168
18842TIP3    H177941   3.349   5.563   4.880  0.3111  1.6659 -0.0133
18842TIP3    H277942   3.322   5.473   4.762 -2.2989  1.2817  0.8079
18843TIP3   OH277943   4.680   5.885   0.156  0.3337 -0.3599  0.9548
18843TIP3    H177944   4.691   5.909   0.248  0.6789 -2.9313  1.6617
18843TIP3    H277945   4.596   5.839   0.153  0.5760 -0.7607  0.0984
18844TIP3   OH277946   4.340   0.839  16.909 -0.5016 -0.9079  0.1153
18844TIP3    H177947   4.339   0.758  16.960  1.4962 -1.4995 -0.6766
18844TIP3    H277948   4.248   0.863  16.900 -1.0958 -2.6368  1.0791
18845TIP3   OH277949   1.839   0.507  11.298  0.3679 -0.0120 -0.4865
18845TIP3    H177950   1.817   0.457  11.219  1.1043  0.0785 -0.7499
18845TIP3    H277951   1.756   0.512  11.346 -0.4716  1.2923 -1.9998
18846TIP3   OH277952   5.242   2.623   4.310 -0.3180  0.3180 -0.4276
18846TIP3    H177953   5.313   2.676   4.273 -0.5302  0.1227 -1.1275
18846TIP3    H277954   5.190   2.597   4.234 -1.2746  0.6548  0.0943
18847TIP3   OH277955   2.113   2.103   3.866  0.0902  0.0978 -0.4541
18847TIP3    H177956   2.147   2.035   3.923 -0.4328  0.6951  0.6055
18847TIP3    H277957   2.052   2.058   3.808  1.2270 -0.6508 -1.1083
18848TIP3   OH277958   2.046   5.922  11.983  0.1663  0.5295 -0.0241
18848TIP3    H177959   2.118   5.980  11.959  0.1444  0.6845  0.2724
18848TIP3    H277960   2.061   5.842  11.933  2.3433 -0.6792  2.2964
18849TIP3   OH277961   4.795   5.638   2.603 -0.0803  0.4877 -0.1711
18849TIP3    H177962   4.792   5.635   2.698 -0.7184  2.2778 -0.1017
18849TIP3    H277963   4.738   5.567   2.575 -1.3887  1.1046  0.8195
18850TIP3   OH277964   1.862   0.458  14.607 -0.6559 -0.3361 -0.3770
18850TIP3    H177965   1.855   0.442  14.513 -0.3551 -2.0025 -0.1451
18850TIP3    H277966   1.825   0.545  14.619 -0.4454  0.0171 -2.0701
18851TIP3   OH277967   0.388   2.587  11.578 -0.0809  0.3939 -0.4518
18851TIP3    H177968   0.432   2.518  11.529  2.1834  2.0468 -0.8824
18851TIP3    H277969   0.443   2.602  11.654  0.7924  3.2498 -1.5412
18852TIP3   OH277970   6.195   4.076  11.381  0.0772 -0.5501 -0.3177
18852TIP3    H177971   6.220   3.984  11.391 -0.8054 -0.8839 -1.0629
18852TIP3    H277972   6.139   4.093  11.457 -0.3142 -0.8311 -0.5396
18853TIP3   OH277973   1.398   3.352  11.883 -0.2789 -0.0100  0.2077
18853TIP3    H177974   1.394   3.352  11.787 -2.6679 -0.9852  0.2498
18853TIP3    H277975   1.427   3.264  11.906  0.7237  0.3580  0.4059
18854TIP3   OH277976   1.608   6.103  16.782 -0.0562  0.5569 -0.1252
18854TIP3    H177977   1.590   6.019  16.823 -1.2330  0.7367 -0.2290
18854TIP3    H277978   1.598   6.167  16.853  0.8307  0.6117 -0.0459
18855TIP3   OH277979   4.544   3.644   1.664  0.1915 -0.2489 -0.0392
18855TIP3    H177980   4.500   3.654   1.749  1.1359 -0.8040  0.5316
18855TIP3    H277981   4.477   3.606   1.607 -0.1962 -0.7190  0.7086
18856TIP3   OH277982   0.375   2.250  13.467  0.6926  0.5990  0.1750
18856TIP3    H177983   0.448   2.231  13.526  1.1466  2.1348  0.1424
18856TIP3    H277984   0.372   2.346  13.462 -0.2977  0.5297 -1.1134
18857TIP3   OH277985   1.603   1.672   2.950 -0.3160 -0.2913 -0.4570
18857TIP3    H177986   1.527   1.659   3.006 -2.2510  0.6816 -2.6772
18857TIP3    H277987   1.652   1.744   2.991 -2.7900  1.8337 -0.9590
18858TIP3   OH277988   5.718   1.974  14.627 -0.0682  0.2256 -0.8929
18858TIP3    H177989   5.654   1.992  14.559  0.1626  0.5320 -1.0344
18858TIP3    H277990   5.693   1.889  14.662 -1.3177  0.9010 -0.0758
18859TIP3   OH277991   5.429   5.078   2.968  0.0543 -0.4921 -0.2912
18859TIP3    H177992   5.429   5.020   3.044 -0.8533  0.3102  0.3378
18859TIP3    H277993   5.341   5.115   2.966  1.0767  2.2103  0.3798
18860TIP3   OH277994   1.557   0.344  17.082  0.6974 -0.0103  0.2233
18860TIP3    H177995   1.531   0.394  17.159 -1.5670  0.9730 -1.0670
18860TIP3    H277996   1.485   0.357  17.020  2.0685 -1.3797 -1.7793
18861TIP3   OH277997   4.262   5.729  13.721  0.3503 -0.0019 -0.3488
18861TIP3    H177998   4.235   5.725  13.813  0.2869 -1.1442 -0.4076
18861TIP3    H277999   4.196   5.677  13.674  1.7992 -1.6119 -0.6901
18862TIP3   OH278000   6.680   4.455   0.767 -0.4325 -0.4737  0.2261
18862TIP3    H178001   6.604   4.398   0.761  0.6786 -1.9004 -1.2758
18862TIP3    H278002   6.732   4.417   0.839 -0.5180 -0.2929  0.3836
18863TIP3   OH278003   1.858   0.319  16.987  0.2553  0.3104 -0.1114
18863TIP3    H178004   1.813   0.280  16.912  0.8055  1.0536 -0.8439
18863TIP3    H278005   1.950   0.321  16.962  0.5585 -0.1582  0.9156
18864TIP3   OH278006   1.512   6.703   4.985 -0.3492  0.3080  0.2051
18864TIP3    H178007   1.605   6.720   4.973 -0.2531  0.2872  0.8942
18864TIP3    H278008   1.477   6.783   5.024 -0.1095 -0.5973  2.4045
18865TIP3   OH278009   5.516   0.410   1.522 -0.0614  0.3047 -0.1259
18865TIP3    H178010   5.475   0.408   1.435  0.3669  0.3341 -0.3317
18865TIP3    H278011   5.442   0.415   1.583 -0.6912 -4.1596 -0.2172
18866TIP3   OH278012   5.657   2.807  15.231  0.4679 -0.5972  0.2492
18866TIP3    H178013   5.616   2.883  15.273  1.3374 -1.9875  4.0503
18866TIP3    H278014   5.586   2.764  15.184 -1.0469  0.3112  1.5990
18867TIP3   OH278015   4.183   6.682   2.234 -0.7592  0.0275 -0.0358
18867TIP3    H178016   4.258   6.730   2.199 -0.4214  0.4576  1.2202
18867TIP3    H278017   4.108   6.711   2.182 -0.1401 -0.0419 -0.9854
18868TIP3   OH278018   0.047   0.930  14.940  0.5762  0.0585 -0.0181
18868TIP3    H178019   0.023   1.022  14.949  1.1042  0.2661 -0.6172
18868TIP3    H278020   0.098   0.911  15.018  1.0890  0.4950 -0.2318
18869TIP3   OH278021   2.941   0.384  14.554 -0.6119  0.1797  0.7916
18869TIP3    H178022   2.951   0.478  14.569 -0.7548  0.3469 -0.1385
18869TIP3    H278023   2.921   0.348  14.641 -1.7885  1.1741  0.9578
18870TIP3   OH278024   5.569   6.265  16.665 -0.2830  0.4383  0.1730
18870TIP3    H178025   5.618   6.302  16.739 -1.3139  1.5787  0.3188
18870TIP3    H278026   5.585   6.326  16.594 -0.7292  0.3085 -0.0420
18871TIP3   OH278027   1.660   5.964  15.532 -0.5619  0.5563 -0.2839
18871TIP3    H178028   1.660   6.025  15.605 -0.6424  0.0962  0.1070
18871TIP3    H278029   1.568   5.954  15.508 -0.7587 -0.8371  0.8819
18872TIP3   OH278030   2.546   5.029   3.125  0.9625 -0.2426  0.2615
18872TIP3    H178031   2.591   5.077   3.055 -0.1500  0.5384  0.0627
18872TIP3    H278032   2.573   5.073   3.205  1.5677 -0.6025  0.2613
18873TIP3   OH278033   2.103   1.419   0.325 -0.3182 -0.5356 -0.0543
18873TIP3    H178034   2.064   1.339   0.360  0.2006 -0.3475  1.0050
18873TIP3    H278035   2.185   1.390   0.285 -1.7830 -1.0439 -2.9462
18874TIP3   OH278036   2.968   6.165  15.910  0.2569 -0.1600  0.2525
18874TIP3    H178037   3.031   6.094  15.892  1.5743  0.7286  1.1850
18874TIP3    H278038   2.883   6.121  15.914  1.0573 -1.7352  0.9911
18875TIP3   OH278039   1.256   4.836   1.232  0.2809  0.1997  0.1031
18875TIP3    H178040   1.200   4.808   1.304  0.4161  1.4553  0.7194
18875TIP3    H278041   1.330   4.775   1.233  0.1624  0.0660  0.8900
18876TIP3   OH278042   1.978   5.884   1.385  0.0627  0.2747 -0.0541
18876TIP3    H178043   1.890   5.921   1.394  0.5161  1.5790 -0.7297
18876TIP3    H278044   2.015   5.888   1.473  0.0207  1.2561 -0.0740
18877TIP3   OH278045   3.289   3.154  14.531 -0.2633  0.5659 -0.6769
18877TIP3    H178046   3.338   3.077  14.560 -1.6261 -0.3589 -0.7301
18877TIP3    H278047   3.290   3.213  14.606  0.2218  0.2122 -0.3977
18878TIP3   OH278048   3.941   4.065   1.656  0.3231 -0.1403 -0.6320
18878TIP3    H178049   3.984   4.001   1.599 -2.4115 -0.8824 -2.0097
18878TIP3    H278050   3.849   4.038   1.657 -0.5885  2.7013  0.2634
18879TIP3   OH278051   4.159   2.149   6.085 -0.2321 -0.2677 -0.2248
18879TIP3    H178052   4.128   2.132   6.174 -0.6724 -0.8556 -0.4819
18879TIP3    H278053   4.215   2.226   6.093 -0.4702 -0.1664  0.5185
18880TIP3   OH278054   6.325   2.758   3.486 -0.4113  0.3054 -0.3111
18880TIP3    H178055   6.276   2.710   3.420 -1.7384  0.0653  0.7928
18880TIP3    H278056   6.278   2.741   3.568  1.8565 -0.4244  0.9418
18881TIP3   OH278057   4.589   3.465  17.079 -0.0775  0.3719 -0.2084
18881TIP3    H178058   4.663   3.491  17.134  0.3285  0.8084 -0.9459
18881TIP3    H278059   4.589   3.370  17.083  1.1613  0.3167 -1.0004
18882TIP3   OH278060   0.691   0.210  11.868  0.0492  0.8205  0.2758
18882TIP3    H178061   0.678   0.278  11.934 -0.1062  1.4924 -0.4293
18882TIP3    H278062   0.651   0.246  11.789  0.2743  0.0472 -0.2001
18883TIP3   OH278063   6.136   1.617  12.801  0.4590 -0.0275  0.5864
18883TIP3    H178064   6.104   1.660  12.880  1.6227 -1.2645  1.7664
18883TIP3    H278065   6.177   1.688  12.751  0.2345  0.6675  1.3649
18884TIP3   OH278066   4.768   4.545  13.636 -0.2729 -0.0178  0.8146
18884TIP3    H178067   4.749   4.494  13.557  1.5745  0.2928  0.1103
18884TIP3    H278068   4.692   4.532  13.692 -0.4465 -2.4897  0.1274
18885TIP3   OH278069   1.705   0.308  13.876  0.2929  0.1222 -0.0426
18885TIP3    H178070   1.783   0.337  13.829  0.8335 -0.1094  0.6928
18885TIP3    H278071   1.685   0.379  13.937  0.6389 -0.3166  0.5985
18886TIP3   OH278072   2.772   6.699  13.865  0.1265  0.3755  0.2522
18886TIP3    H178073   2.716   6.655  13.928 -0.2683 -0.1062 -0.4238
18886TIP3    H278074   2.794   6.783  13.906  0.8044 -0.3961  1.5164
18887TIP3   OH278075   1.043   1.185   4.677 -0.1740 -0.3414 -0.0466
18887TIP3    H178076   0.975   1.252   4.683  1.7184  1.5846  2.8231
18887TIP3    H278077   1.083   1.198   4.591 -0.7516  1.3171 -0.0898
18888TIP3   OH278078   1.636   4.474   1.340 -0.6169  0.3615  0.1019
18888TIP3    H178079   1.585   4.393   1.339 -1.5568  0.8071  3.1536
18888TIP3    H278080   1.694   4.466   1.264 -1.5520 -2.5580 -0.4520
18889TIP3   OH278081   5.034   3.823  11.202  0.2236  0.2142  0.4559
18889TIP3    H178082   5.063   3.906  11.165 -1.1334  0.1126 -0.9189
18889TIP3    H278083   4.951   3.804  11.158  1.1034 -2.5163 -0.2816
18890TIP3   OH278084   2.189   6.354  12.884 -0.0511 -0.2857  0.3322
18890TIP3    H178085   2.136   6.357  12.805  0.7883  0.3253 -0.2186
18890TIP3    H278086   2.158   6.427  12.937 -0.4105 -0.5151  0.4408
18891TIP3   OH278087   6.276   2.997  14.636 -0.5603 -0.4398  0.4035
18891TIP3    H178088   6.181   3.006  14.646 -0.8646 -1.6164 -0.9912
18891TIP3    H278089   6.290   2.996  14.541  1.0672  1.4557  0.5658
18892TIP3   OH278090   5.672   2.590   2.733  0.0109  0.3753 -0.2338
18892TIP3    H178091   5.717   2.588   2.817  1.7065 -1.4328 -1.1287
18892TIP3    H278092   5.586   2.550   2.751  0.8394 -1.2024  0.4168
18893TIP3   OH278093   2.214   0.137   6.348 -0.6924  0.3051 -0.4199
18893TIP3    H178094   2.235   0.085   6.425 -2.9419  0.8812  0.6766
18893TIP3    H278095   2.289   0.196   6.337 -0.7796  0.9815  2.0331
18894TIP3   OH278096   6.513   3.809  15.036  0.6675 -0.3922 -0.1923
18894TIP3    H178097   6.425   3.799  15.000  1.1666  0.5291 -1.7785
18894TIP3    H278098   6.527   3.730  15.087 -1.7531  0.2282  1.6384
18895TIP3   OH278099   4.022   5.739   1.745  0.4115 -0.7842  0.0227
18895TIP3    H178100   4.109   5.699   1.750  2.1075  2.6316  1.3688
18895TIP3    H278101   3.975   5.703   1.820  1.1884 -1.6338  0.1252
18896TIP3   OH278102   1.981   2.289   2.807  0.2955 -0.0838 -0.7478
18896TIP3    H178103   1.906   2.232   2.825  0.9842 -1.4618 -2.0164
18896TIP3    H278104   1.956   2.338   2.728 -0.2375  1.3368  0.2562
18897TIP3   OH278105   0.633   2.231  16.559  0.4269 -0.6289  0.2764
18897TIP3    H178106   0.585   2.164  16.608  2.5772 -2.7573 -0.2705
18897TIP3    H278107   0.724   2.219  16.587  0.9279  2.1216  0.1098
18898TIP3   OH278108   1.683   1.585  15.818  0.1604 -0.2037  0.1377
18898TIP3    H178109   1.744   1.536  15.762 -0.5217  2.2781 -3.0689
18898TIP3    H278110   1.734   1.661  15.848 -0.4820  0.3428 -0.1273
18899TIP3   OH278111   0.929   3.495  11.357 -0.0535 -0.0815  0.1031
18899TIP3    H178112   0.982   3.458  11.427  1.4186 -1.6430 -1.7058
18899TIP3    H278113   0.949   3.440  11.281 -1.5435  1.5396 -1.5585
18900TIP3   OH278114   4.829   4.365  17.105  0.1147 -0.5097  0.3059
18900TIP3    H178115   4.810   4.313  17.028 -3.1962  0.4095  0.3867
18900TIP3    H278116   4.816   4.305  17.179 -2.1001 -0.0535  0.3273
18901TIP3   OH278117   4.868   0.199   5.414 -0.5108  0.5552  0.5502
18901TIP3    H178118   4.940   0.139   5.430  0.2065  1.0229 -0.7236
18901TIP3    H278119   4.889   0.239   5.329 -1.0517  2.4353  1.2351
18902TIP3   OH278120   4.003   5.538  16.269  0.8463  0.1705  0.3467
18902TIP3    H178121   3.918   5.557  16.230  0.2794  1.3059  2.0387
18902TIP3    H278122   4.026   5.452  16.233 -0.4278  0.3576 -1.0675
18903TIP3   OH278123   2.017   5.544   5.522  0.1820 -0.0067  0.2626
18903TIP3    H178124   2.067   5.621   5.495  0.7761 -0.2754  0.5891
18903TIP3    H278125   1.937   5.579   5.561  0.8266  0.4695  1.1702
18904TIP3   OH278126   1.276   3.437  12.107 -0.0863 -0.1390  0.3281
18904TIP3    H178127   1.276   3.531  12.088  1.8116 -0.0915  0.3261
18904TIP3    H278128   1.320   3.398  12.031  1.2693 -0.7411  1.3789
18905TIP3   OH278129   1.600   0.327  14.410 -0.1741 -1.0088  0.0579
18905TIP3    H178130   1.621   0.250  14.463  1.0745 -0.5737  0.2305
18905TIP3    H278131   1.683   0.352  14.370 -0.5872  0.1576 -0.1112
18906TIP3   OH278132   1.702   5.661  12.766 -0.2720  0.6404 -0.1617
18906TIP3    H178133   1.784   5.614  12.747 -0.2883 -0.1045  1.4587
18906TIP3    H278134   1.727   5.754  12.763  0.5290  0.4354 -0.1238
18907TIP3   OH278135   5.910   5.264  13.017 -0.1977 -0.0058  0.0625
18907TIP3    H178136   5.953   5.183  13.044 -0.8103 -0.2774  0.2393
18907TIP3    H278137   5.827   5.236  12.977 -1.4301  0.6093  2.0430
18908TIP3   OH278138   3.578   6.756  17.257  0.2433  0.4129  0.0573
18908TIP3    H178139   3.652   6.803  17.296  0.6792  1.8460 -2.3407
18908TIP3    H278140   3.504   6.776  17.315  1.3300  0.3854  1.5272
18909TIP3   OH278141   0.556   0.334   0.802 -0.5227  0.3475  0.4412
18909TIP3    H178142   0.539   0.421   0.765 -0.6600  0.1642  0.0653
18909TIP3    H278143   0.500   0.329   0.879  1.8038  1.8162  2.3442
18910TIP3   OH278144   2.410   4.808   3.007 -0.1269 -0.1721 -0.4131
18910TIP3    H178145   2.466   4.743   3.048 -0.9577 -0.0510  0.9969
18910TIP3    H278146   2.444   4.892   3.038 -2.2799 -0.1359  2.2884
18911TIP3   OH278147   3.004   6.377   4.929 -0.2453 -0.6062  0.1016
18911TIP3    H178148   2.972   6.445   4.989 -1.5275 -0.8090 -0.3128
18911TIP3    H278149   3.075   6.418   4.880  0.7659 -0.4031  1.6614
18912TIP3   OH278150   1.200   4.001   6.201 -0.3400 -0.0909 -0.1142
18912TIP3    H178151   1.272   3.955   6.243  0.5003  0.3973 -0.9956
18912TIP3    H278152   1.164   3.939   6.138 -2.0384 -1.0716  1.7155
18913TIP3   OH278153   3.740   2.520  13.955 -0.7573  0.1479 -0.4757
18913TIP3    H178154   3.809   2.570  13.998  0.2109  0.4144 -2.2065
18913TIP3    H278155   3.780   2.435  13.936 -1.2681 -0.0840 -0.5354
18914TIP3   OH278156   2.034   3.967   5.588 -0.3332 -0.2556 -0.8797
18914TIP3    H178157   2.080   4.033   5.537 -0.9244  0.6259 -0.3141
18914TIP3    H278158   2.057   3.988   5.679 -0.7106 -0.6927 -0.6822
18915TIP3   OH278159   6.428   3.923   2.652  0.2897  0.2249  0.0537
18915TIP3    H178160   6.392   3.845   2.694 -0.7648 -0.9295 -2.7488
18915TIP3    H278161   6.496   3.889   2.594  0.3842  1.4970 -0.5988
18916TIP3   OH278162   4.919   2.573   2.950 -0.3394 -0.4875  0.0697
18916TIP3    H178163   4.975   2.607   3.020 -1.4328  3.3967 -0.6715
18916TIP3    H278164   4.969   2.500   2.913  2.6611  0.5893  1.5978
18917TIP3   OH278165   3.829   6.747  14.946 -0.0782  0.1927  0.4838
18917TIP3    H178166   3.852   6.694  14.870 -0.8409 -1.2750  1.2186
18917TIP3    H278167   3.800   6.831  14.909  2.7632  0.7939 -0.6303
18918TIP3   OH278168   5.516   1.049   4.103  0.1210 -0.1851  0.1213
18918TIP3    H178169   5.461   0.986   4.057 -0.5469 -0.9826  1.8990
18918TIP3    H278170   5.560   0.997   4.171  2.0029  0.7050 -0.3636
18919TIP3   OH278171   2.739   5.475   2.500  0.3351 -0.0065 -0.4125
18919TIP3    H178172   2.834   5.484   2.512  0.0675  1.3985  1.0850
18919TIP3    H278173   2.707   5.449   2.587 -0.8454  1.7263 -0.2889
18920TIP3   OH278174   5.994   5.591  16.028 -0.3242  0.5122 -0.2263
18920TIP3    H178175   5.957   5.568  15.943  0.6021  1.2375 -0.8480
18920TIP3    H278176   5.927   5.646  16.069 -0.4797  0.7631 -0.8026
18921TIP3   OH278177   4.788   5.642   3.844 -0.1754 -0.5616  0.3247
18921TIP3    H178178   4.827   5.716   3.798 -1.1624  0.5009  1.1371
18921TIP3    H278179   4.697   5.640   3.815 -0.6495 -0.2656  1.6963
18922TIP3   OH278180   0.877   0.423   1.642  0.0360 -0.0649  0.7583
18922TIP3    H178181   0.943   0.461   1.701  0.3386 -0.8459  0.9306
18922TIP3    H278182   0.838   0.499   1.599 -0.4290  0.5600  2.2070
18923TIP3   OH278183   5.387   6.412  10.721  0.2629  0.2101  0.2101
18923TIP3    H178184   5.307   6.359  10.721  0.6644 -0.4206  0.8095
18923TIP3    H278185   5.357   6.501  10.703 -0.6262  0.0562  0.8504
18924TIP3   OH278186   0.313   5.513  16.839  0.2741  0.0464 -0.8353
18924TIP3    H178187   0.263   5.432  16.844 -1.8105  0.9913 -3.7693
18924TIP3    H278188   0.259   5.572  16.786  3.5720  1.8999 -2.4538
18925TIP3   OH278189   2.580   5.874   3.667  0.2506 -0.5753  0.5564
18925TIP3    H178190   2.567   5.807   3.600  2.6330 -1.1146  0.5368
18925TIP3    H278191   2.663   5.916   3.643  1.1506 -0.7271  3.0599
18926TIP3   OH278192   4.217   1.904  15.108 -0.5135  0.1002  0.0060
18926TIP3    H178193   4.223   1.958  15.187  1.0800 -1.2985  0.9185
18926TIP3    H278194   4.124   1.881  15.101 -1.1343  2.4541 -0.1118
18927TIP3   OH278195   4.221   1.634  15.926  0.1497  0.1473  0.1626
18927TIP3    H178196   4.272   1.616  15.847 -0.3270  0.0819 -0.1308
18927TIP3    H278197   4.287   1.655  15.992  0.6661 -1.6440  0.2510
18928TIP3   OH278198   1.170   1.953  14.430 -0.1297  0.6147 -0.1171
18928TIP3    H178199   1.209   1.866  14.440  1.2692  0.9297 -2.1698
18928TIP3    H278200   1.080   1.936  14.402 -0.0256 -0.1624 -0.0108
18929TIP3   OH278201   3.958   3.187   0.775  0.3343 -0.4535  0.1427
18929TIP3    H178202   3.955   3.197   0.680 -0.6034  0.1463  0.2306
18929TIP3    H278203   3.878   3.229   0.807  1.4861  0.9516  1.3400
18930TIP3   OH278204   2.316   5.809   1.185  0.6400  0.2009 -0.3392
18930TIP3    H178205   2.329   5.744   1.253 -0.2806  1.3524  1.0055
18930TIP3    H278206   2.347   5.767   1.105 -0.5303 -2.1303  0.3347
18931TIP3   OH278207   2.790   3.772  16.368 -0.3666 -0.0859 -0.7347
18931TIP3    H178208   2.877   3.757  16.405 -1.0271 -1.0658  0.4673
18931TIP3    H278209   2.744   3.825  16.433 -0.4622  1.0430 -1.6877
18932TIP3   OH278210   5.574   2.313   1.719  0.5621 -0.3539  0.2252
18932TIP3    H178211   5.489   2.293   1.757  1.4609 -2.8640  1.1451
18932TIP3    H278212   5.611   2.381   1.776 -0.1579 -0.4245  0.7882
18933TIP3   OH278213   4.985   6.097  14.601 -0.0793 -0.5283  0.1283
18933TIP3    H178214   5.041   6.034  14.647 -1.5357 -1.2976  0.9495
18933TIP3    H278215   4.900   6.052  14.594 -0.2246  0.0060 -2.3941
18934TIP3   OH278216   6.403   6.353   3.689 -0.3919  0.3229  0.3205
18934TIP3    H178217   6.443   6.362   3.603 -1.8901 -1.5689 -0.6527
18934TIP3    H278218   6.437   6.271   3.723  1.6529  1.9187  2.4548
18935TIP3   OH278219   4.494   1.999   3.720 -0.1799  0.5405  0.8631
18935TIP3    H178220   4.521   1.920   3.766 -1.7964 -0.1161  0.7467
18935TIP3    H278221   4.490   1.973   3.628  0.5685  1.1459  0.6478
18936TIP3   OH278222   3.806   3.729  15.492 -0.5366  0.1163  0.2531
18936TIP3    H178223   3.725   3.780  15.496 -0.5604  0.1757 -0.8194
18936TIP3    H278224   3.863   3.778  15.432  0.0587 -0.2528  0.5111
18937TIP3   OH278225   6.124   5.223   6.650 -0.4667  1.2474 -0.4655
18937TIP3    H178226   6.197   5.176   6.691 -0.9299  0.4825 -0.4945
18937TIP3    H278227   6.053   5.159   6.648 -0.6552  1.4710 -1.8739
18938TIP3   OH278228   1.297   0.040  16.060  0.6036 -0.4543 -0.4816
18938TIP3    H178229   1.371  -0.007  16.021  0.3800 -0.9073 -0.3639
18938TIP3    H278230   1.308   0.028  16.154  1.3963  1.0165 -0.3500
18939TIP3   OH278231   5.008   4.604  13.749 -0.3454  0.2054  0.3579
18939TIP3    H178232   4.980   4.688  13.787 -0.7456 -0.1723  0.9248
18939TIP3    H278233   4.928   4.566  13.713 -0.4226 -0.5016  1.2362
18940TIP3   OH278234   5.900   2.856  12.868 -0.3186 -0.0103  0.1098
18940TIP3    H178235   5.953   2.860  12.948  1.1073 -1.4506 -0.6985
18940TIP3    H278236   5.870   2.946  12.854  0.5137  0.5174  1.5165
18941TIP3   OH278237   3.630   3.117   5.511 -0.0547  0.1171  0.6083
18941TIP3    H178238   3.593   3.172   5.442  0.3539  0.3996  0.6154
18941TIP3    H278239   3.687   3.175   5.561  0.0574 -0.2115  0.8683
18942TIP3   OH278240   2.017   5.846  15.753 -0.0416  0.2042 -0.3986
18942TIP3    H178241   2.003   5.868  15.845 -0.7813 -0.1869 -0.4104
18942TIP3    H278242   2.083   5.909  15.724 -0.5744  1.0321  0.1216
18943TIP3   OH278243   0.675   1.746  11.866  0.3713  0.4736  0.7234
18943TIP3    H178244   0.756   1.784  11.899  0.6351 -0.4638  1.1905
18943TIP3    H278245   0.612   1.756  11.937  0.6925 -0.7449  1.2012
18944TIP3   OH278246   0.982   5.624  10.622 -0.1014 -0.4122  0.2521
18944TIP3    H178247   1.065   5.614  10.669 -0.0871 -0.6555  0.1713
18944TIP3    H278248   0.949   5.535  10.611 -0.9025 -0.2527  1.2315
18945TIP3   OH278249   6.376   4.296  14.132  0.2479  0.3210  0.2951
18945TIP3    H178250   6.291   4.260  14.105  0.6544  0.4252 -1.2071
18945TIP3    H278251   6.439   4.253  14.075  0.9857  1.7204  0.0056
18946TIP3   OH278252   5.646   0.596  15.435 -0.0448 -0.1993  0.1142
18946TIP3    H178253   5.643   0.683  15.397 -1.2102 -0.1355  0.2912
18946TIP3    H278254   5.707   0.547  15.380 -1.0911  0.1007 -1.3673
18947TIP3   OH278255   2.619   2.997   2.748 -0.2684 -0.3864 -0.4556
18947TIP3    H178256   2.606   2.992   2.843  0.1247  1.4773 -0.2473
18947TIP3    H278257   2.557   3.065   2.719 -0.0556 -0.6021 -1.4569
18948TIP3   OH278258   6.451   1.167   4.764  0.9055  0.0612  0.0995
18948TIP3    H178259   6.516   1.130   4.824  1.0426 -0.5976 -0.4296
18948TIP3    H278260   6.368   1.128   4.792  0.3818  2.2683  1.9106
18949TIP3   OH278261   1.674   2.986   1.230 -0.2578  0.3315  0.1676
18949TIP3    H178262   1.768   2.971   1.228 -0.1007  1.0011  1.1972
18949TIP3    H278263   1.648   2.962   1.319 -0.5615  2.6449  0.7859
18950TIP3   OH278264   2.029   3.245  17.020  0.6751  0.0089  0.1413
18950TIP3    H178265   1.936   3.261  17.030  0.4871 -0.4503 -0.7118
18950TIP3    H278266   2.069   3.332  17.015  0.6576  0.2874  3.1597
18951TIP3   OH278267   0.401   0.386  11.203  0.2308  0.0515 -0.1360
18951TIP3    H178268   0.417   0.420  11.115  0.6683 -0.3157 -0.1987
18951TIP3    H278269   0.381   0.293  11.190 -0.8103  0.2303  0.0480
18952TIP3   OH278270   2.684   0.124   2.171 -0.2112 -0.1196  0.3851
18952TIP3    H178271   2.679   0.034   2.203 -0.4008 -0.1917  0.1518
18952TIP3    H278272   2.748   0.120   2.100 -0.5691 -0.1632  0.0618
18953TIP3   OH278273   2.365   2.879  15.300 -0.3385  0.2217 -0.0503
18953TIP3    H178274   2.393   2.963  15.337  0.0211 -0.0958  0.4118
18953TIP3    H278275   2.424   2.863  15.227 -0.2429  0.2480  0.0217
18954TIP3   OH278276   5.900   1.522   2.669 -0.2308 -0.1460 -1.1185
18954TIP3    H178277   5.908   1.440   2.619 -1.0396 -0.9700  0.0470
18954TIP3    H278278   5.893   1.590   2.603  1.1011 -0.9321 -2.1291
18955TIP3   OH278279   2.407   3.846   2.776  0.2230 -0.0169  0.3371
18955TIP3    H178280   2.445   3.932   2.794 -0.3425 -0.0892  1.9540
18955TIP3    H278281   2.315   3.863   2.760 -0.1585 -0.4278  1.9318
18956TIP3   OH278282   0.838   6.163   1.344 -0.4760  0.2682  0.3002
18956TIP3    H178283   0.762   6.116   1.378  1.8658 -3.7231  0.6950
18956TIP3    H278284   0.874   6.208   1.420 -0.8942 -0.1695  0.7664
18957TIP3   OH278285   0.448   6.335  11.255 -0.1805 -0.0567 -0.2576
18957TIP3    H178286   0.374   6.274  11.251  0.9554 -1.7948  2.5001
18957TIP3    H278287   0.408   6.422  11.258 -2.0949 -0.9176  0.3681
18958TIP3   OH278288   0.699   0.695   3.138 -0.2938  0.2136 -0.0623
18958TIP3    H178289   0.737   0.745   3.210  0.3514 -0.1007 -0.1742
18958TIP3    H278290   0.611   0.672   3.168  0.4309 -1.0731  1.2145
18959TIP3   OH278291   0.004   4.603   0.240 -0.4122  0.3964 -0.3314
18959TIP3    H178292  -0.017   4.660   0.313  1.0136  2.2239 -1.2659
18959TIP3    H278293  -0.007   4.514   0.274  1.1714  1.1552  2.4472
18960TIP3   OH278294   3.072   3.586  14.933  0.5983 -0.1461  0.1114
18960TIP3    H178295   3.095   3.523  14.864  0.9639 -0.8143  0.8249
18960TIP3    H278296   3.027   3.657  14.887  0.0050 -1.0215 -0.6785
18961TIP3   OH278297   0.248   2.300  16.762  0.5469  0.6150 -0.0450
18961TIP3    H178298   0.295   2.226  16.801 -0.3858 -0.2772 -0.5828
18961TIP3    H278299   0.216   2.267  16.679  0.0594  1.6175 -0.2719
18962TIP3   OH278300   4.304   1.171  12.959 -0.7586 -0.0367 -0.2110
18962TIP3    H178301   4.267   1.157  13.047  1.0537 -3.3831  0.2058
18962TIP3    H278302   4.372   1.237  12.972 -0.9903  0.0368  0.7482
18963TIP3   OH278303   1.664   0.784  16.419 -0.3529 -0.1617 -0.1195
18963TIP3    H178304   1.617   0.753  16.341 -0.8692  0.6209 -0.1301
18963TIP3    H278305   1.756   0.772  16.397 -0.5292 -1.6288 -0.1391
18964TIP3   OH278306   1.751   2.655   6.327 -0.6382  0.0844  0.2637
18964TIP3    H178307   1.764   2.745   6.357  2.5002 -0.3923  0.6850
18964TIP3    H278308   1.710   2.610   6.401 -1.2505  0.8878  0.4329
18965TIP3   OH278309   5.028   1.544  16.885 -0.1014  0.4890 -0.0630
18965TIP3    H178310   5.031   1.550  16.790  1.1837  0.2094 -0.0631
18965TIP3    H278311   4.972   1.469  16.904 -0.0498  0.3105 -0.6151
18966TIP3   OH278312   2.898   2.571  16.743 -0.1512 -0.9549  0.2646
18966TIP3    H178313   2.992   2.553  16.737 -0.1193 -0.7094 -0.0066
18966TIP3    H278314   2.873   2.537  16.829  0.6660  1.0623  1.3723
18967TIP3   OH278315   2.179   0.697   1.360  0.0475 -0.1506  0.4028
18967TIP3    H178316   2.250   0.759   1.347  0.3381 -0.7223 -0.7999
18967TIP3    H278317   2.101   0.752   1.369  0.6592  0.5085  2.2269
18968TIP3   OH278318   2.561   0.148   5.025 -0.1557 -0.0854 -0.3031
18968TIP3    H178319   2.534   0.231   4.985 -1.5673 -0.4859 -0.2285
18968TIP3    H278320   2.657   0.150   5.022 -0.1710  1.4591 -0.4679
18969TIP3   OH278321   0.723   6.466   3.394  0.5879 -0.4000 -0.1528
18969TIP3    H178322   0.678   6.466   3.309 -1.3453  0.3058  0.8031
18969TIP3    H278323   0.810   6.432   3.375  1.4658  2.9339 -3.0143
18970TIP3   OH278324   1.932   0.284   3.552  0.1253  0.2246 -0.4222
18970TIP3    H178325   1.863   0.238   3.600  0.0476 -0.2436 -0.9786
18970TIP3    H278326   1.899   0.374   3.544 -1.5656 -0.5172 -2.7733
18971TIP3   OH278327   4.936   5.825  15.087  0.4336 -0.2331  0.6760
18971TIP3    H178328   4.960   5.900  15.141  2.9341 -0.0436 -0.5770
18971TIP3    H278329   4.942   5.750  15.147  2.5667  0.0360  0.8799
18972TIP3   OH278330   0.296   4.790   3.000 -0.2319  0.0888  0.0953
18972TIP3    H178331   0.255   4.709   3.029  1.1880 -0.3157  1.1017
18972TIP3    H278332   0.339   4.766   2.917  0.8409 -0.4291  0.7804
18973TIP3   OH278333   0.921   5.355  12.421  0.7283  0.2140 -0.2993
18973TIP3    H178334   0.900   5.273  12.465 -1.3865  1.4856  1.3138
18973TIP3    H278335   0.995   5.391  12.470  0.0947  0.3772  0.5566
18974TIP3   OH278336   0.956   1.033   4.459 -0.5918 -0.5094  0.5313
18974TIP3    H178337   0.982   1.019   4.550 -1.1774 -1.4481  0.5639
18974TIP3    H278338   0.868   0.996   4.453 -0.4161 -0.7919 -0.5027
18975TIP3   OH278339   5.251   0.504   5.691 -0.0257 -0.0572  0.2551
18975TIP3    H178340   5.293   0.567   5.750  1.5401 -0.3004 -0.5580
18975TIP3    H278341   5.174   0.550   5.657  1.3079  1.6073 -0.6401
18976TIP3   OH278342   3.230   5.176   2.595 -0.2565 -0.0522 -0.1227
18976TIP3    H178343   3.227   5.254   2.539  0.4754 -0.4211 -0.6916
18976TIP3    H278344   3.140   5.164   2.624 -0.3539  1.0754  0.0628
18977TIP3   OH278345   1.127   2.199   6.500  0.1799 -0.1974 -0.2483
18977TIP3    H178346   1.114   2.239   6.586  0.7257  0.2466 -0.3613
18977TIP3    H278347   1.207   2.149   6.508 -0.5450 -1.3587 -0.0904
18978TIP3   OH278348   0.949   2.421  15.021  0.1492 -0.4060 -0.2043
18978TIP3    H178349   1.001   2.457  15.094  1.6947 -0.4253 -1.2431
18978TIP3    H278350   0.971   2.328  15.020 -0.6360 -0.6001 -0.1051
18979TIP3   OH278351   4.736   4.019   2.448 -0.0335  0.2435  0.0218
18979TIP3    H178352   4.754   4.059   2.362 -2.3043 -3.6660 -2.5931
18979TIP3    H278353   4.663   4.070   2.483  0.2904  1.3195 -0.7825
18980TIP3   OH278354   1.338   1.033   4.685  0.1529 -0.1144  0.3920
18980TIP3    H178355   1.378   1.119   4.699  1.2587 -0.5914  0.2884
18980TIP3    H278356   1.409   0.980   4.648 -0.8364 -0.7434 -0.6669
18981TIP3   OH278357   2.485   6.082   2.529  0.1329  0.1848 -0.0704
18981TIP3    H178358   2.451   5.993   2.525 -2.0058  0.8360  1.5509
18981TIP3    H278359   2.543   6.082   2.605 -1.2228  0.5229  1.0110
18982TIP3   OH278360   4.526   4.764   1.716  0.3474 -0.3039  0.3387
18982TIP3    H178361   4.589   4.722   1.774  0.6546 -1.3350 -0.7078
18982TIP3    H278362   4.548   4.732   1.629  0.2027  1.5955 -0.4350
18983TIP3   OH278363   4.939   1.157   3.881  0.2498 -0.5452  0.5898
18983TIP3    H178364   5.018   1.104   3.881  1.7273  1.4650 -1.3280
18983TIP3    H278365   4.871   1.099   3.847  1.9236 -1.1495 -2.0473
18984TIP3   OH278366   3.878   1.307  14.722  0.3166 -0.2391  0.9188
18984TIP3    H178367   3.917   1.220  14.718  0.8697  0.0244  0.2427
18984TIP3    H278368   3.797   1.300  14.671  1.1246 -0.0032 -0.4794
18985TIP3   OH278369   5.502   2.942   1.250  0.2881  0.0478 -0.1411
18985TIP3    H178370   5.477   2.850   1.264 -0.4246  0.4750  1.5937
18985TIP3    H278371   5.527   2.973   1.337 -1.0276  1.9328 -0.3801
18986TIP3   OH278372   5.794   0.310  11.024  0.0953  0.0106 -0.0130
18986TIP3    H178373   5.740   0.365  10.968 -0.0890 -0.0193  0.1350
18986TIP3    H278374   5.741   0.232  11.040  1.5588 -1.7408 -2.8828
18987TIP3   OH278375   5.019   3.729   2.236 -0.2407  0.1352  0.1334
18987TIP3    H178376   5.030   3.634   2.235 -0.4081  0.0408  2.2188
18987TIP3    H278377   5.085   3.760   2.299 -1.3349  1.1977  0.7979
18988TIP3   OH278378   5.327   5.196   1.147 -0.0972  0.6247  0.5024
18988TIP3    H178379   5.232   5.205   1.141 -0.0439  0.9567  0.0419
18988TIP3    H278380   5.341   5.135   1.219 -0.7078 -0.6014 -0.3750
18989TIP3   OH278381   3.203   5.497  16.635  0.2656  0.3338  0.3302
18989TIP3    H178382   3.125   5.525  16.683  0.1409  0.7261 -0.0955
18989TIP3    H278383   3.196   5.402  16.631  1.3197  0.0737  2.8735
18990TIP3   OH278384   0.754   4.994   1.476 -0.5912 -0.1555  0.4598
18990TIP3    H178385   0.843   5.009   1.446 -0.6956 -2.5357 -1.3401
18990TIP3    H278386   0.736   4.902   1.455 -3.1054 -0.0599  1.7345
18991TIP3   OH278387   5.904   5.712   2.356  0.3478  0.0131  0.6587
18991TIP3    H178388   5.850   5.785   2.385  1.4097  1.5670 -1.0844
18991TIP3    H278389   5.961   5.749   2.289  0.5470 -2.5380 -0.7053
18992TIP3   OH278390   0.686   2.717   0.386 -0.2338  0.0293 -0.3442
18992TIP3    H178391   0.639   2.759   0.459  0.6903  1.8143 -0.7268
18992TIP3    H278392   0.653   2.627   0.386 -1.8285  0.5492  0.9303
18993TIP3   OH278393   3.396   4.770  13.663 -0.0409  0.3545  0.2720
18993TIP3    H178394   3.462   4.795  13.598  2.0462 -0.9205  1.7887
18993TIP3    H278395   3.405   4.835  13.732 -3.0571  2.4102 -1.0561
18994TIP3   OH278396   2.976   2.918  17.064  0.0878  0.4666  0.0664
18994TIP3    H178397   3.030   2.997  17.066 -0.0984  0.6277 -0.8045
18994TIP3    H278398   3.024   2.855  17.117  2.0968  0.0255 -2.0762
18995TIP3   OH278399   5.941   5.364  12.479 -0.0512 -0.2942 -0.1536
18995TIP3    H178400   5.862   5.341  12.429  0.0597 -1.1891  0.0763
18995TIP3    H278401   5.921   5.338  12.569 -0.5690  2.0488  0.4761
18996TIP3   OH278402   3.211   0.610   5.886 -0.3346 -0.2227 -0.0204
18996TIP3    H178403   3.237   0.627   5.976  1.0872  0.1706 -0.4960
18996TIP3    H278404   3.237   0.519   5.871  1.6039  0.4146 -0.7532
18997TIP3   OH278405   4.570   4.408   2.126  0.7496  0.8120 -0.3008
18997TIP3    H178406   4.476   4.422   2.110  1.2280  2.6523 -1.9349
18997TIP3    H278407   4.596   4.344   2.060  0.7699  0.8857 -0.3656
18998TIP3   OH278408   5.568   2.690  11.646 -0.5093 -0.5625  0.0388
18998TIP3    H178409   5.640   2.716  11.589 -1.9630  2.3228 -0.6811
18998TIP3    H278410   5.601   2.705  11.735  0.1317 -0.3218 -0.2360
18999TIP3   OH278411   0.266   3.680  13.289  0.8969 -0.4920  0.5897
18999TIP3    H178412   0.319   3.703  13.213  0.0139 -1.6458 -0.4277
18999TIP3    H278413   0.321   3.701  13.364  3.2209 -2.4821 -0.4151
19000TIP3   OH278414   1.039   6.327   5.546 -0.2099  0.3139 -0.2700
19000TIP3    H178415   1.094   6.288   5.478 -0.8287 -1.7823  0.3485
19000TIP3    H278416   1.098   6.383   5.597  0.3291  1.7137 -2.2887
19001TIP3   OH278417   3.198   6.405  13.492  0.4758  0.0655  0.2068
19001TIP3    H178418   3.215   6.327  13.545  0.9077  1.0795  1.6193
19001TIP3    H278419   3.266   6.467  13.518  0.5379  0.6990 -1.3762
19002TIP3   OH278420   5.048   1.614   4.085 -0.0438  0.3510 -0.2427
19002TIP3    H178421   5.138   1.640   4.065 -0.2373  1.8081  0.6781
19002TIP3    H278422   4.994   1.666   4.025 -0.3664  1.0764  0.6563
19003TIP3   OH278423   5.183   4.000  14.498 -0.1885 -0.3898 -0.5116
19003TIP3    H178424   5.145   4.035  14.417 -1.0986 -0.1149  0.0163
19003TIP3    H278425   5.140   3.915  14.509 -0.4426 -0.2035 -0.0578
19004TIP3   OH278426   1.817   0.269   2.380  1.0481  0.3801  0.2248
19004TIP3    H178427   1.845   0.180   2.357  0.5077  0.2647 -0.0022
19004TIP3    H278428   1.778   0.303   2.299  0.6888  0.5981  0.4865
19005TIP3   OH278429   1.666   3.089   2.570  0.5274  0.0847 -0.2513
19005TIP3    H178430   1.670   3.086   2.665  2.1563  3.0588 -0.0889
19005TIP3    H278431   1.595   3.150   2.550 -0.1470 -0.9132 -0.9824
19006TIP3   OH278432   5.803   4.803  14.454 -0.9434 -0.2251 -0.1219
19006TIP3    H178433   5.757   4.820  14.537 -0.2484 -2.2257  0.7168
19006TIP3    H278434   5.747   4.741  14.408 -1.1412  0.5969 -1.0193
19007TIP3   OH278435   5.347   5.616  12.689  0.1798  0.1005  0.0563
19007TIP3    H178436   5.398   5.606  12.769  0.2720  0.6805  0.0718
19007TIP3    H278437   5.356   5.708  12.666  0.8434 -0.2324 -1.0858
19008TIP3   OH278438   1.342   4.991   0.328  0.0673  0.1008 -0.2364
19008TIP3    H178439   1.426   5.037   0.318 -1.2550  2.8201  0.1224
19008TIP3    H278440   1.343   4.959   0.418  1.4441 -1.6302 -0.8085
19009TIP3   OH278441   0.649   0.670  14.609 -0.0633 -0.4216 -0.5261
19009TIP3    H178442   0.732   0.687  14.654 -0.4735 -1.1664  0.5532
19009TIP3    H278443   0.662   0.584  14.568 -0.9865 -1.5975  1.4656
19010TIP3   OH278444   1.249   4.927  15.381 -0.0293 -0.5210  0.2263
19010TIP3    H178445   1.251   5.023  15.382 -0.3239 -0.5163  0.5268
19010TIP3    H278446   1.157   4.905  15.392 -0.1739 -0.8293 -1.3305
19011TIP3   OH278447   1.606   2.850  15.356 -0.6558  0.2118 -0.1898
19011TIP3    H178448   1.582   2.797  15.432 -1.8224  0.2651 -0.5141
19011TIP3    H278449   1.649   2.789  15.296  0.0411  0.1166  0.3816
19012TIP3   OH278450   6.009   1.250   3.340 -0.2521 -0.1388  0.1364
19012TIP3    H178451   6.046   1.165   3.364  0.6312 -0.0995 -1.0128
19012TIP3    H278452   6.042   1.310   3.407 -0.4592 -0.6016  0.6599
19013TIP3   OH278453   2.380   4.963  16.141 -0.0028  0.0977  0.2528
19013TIP3    H178454   2.470   4.941  16.117  0.1758 -1.3449  2.0328
19013TIP3    H278455   2.388   5.030  16.209 -0.2762  0.1247  0.2592
19014TIP3   OH278456   1.016   5.319   0.160 -0.7240 -0.2779  0.4779
19014TIP3    H178457   1.099   5.275   0.146  0.2904  0.6804  2.8586
19014TIP3    H278458   0.958   5.251   0.193 -1.0095 -0.9996 -1.4029
19015TIP3   OH278459   2.312   3.557  10.848  0.2886 -0.1939 -0.2013
19015TIP3    H178460   2.392   3.506  10.840  1.4531  1.0580  2.3785
19015TIP3    H278461   2.342   3.648  10.853 -1.4279  0.4370 -0.7248
19016TIP3   OH278462   5.780   5.349  14.396 -0.0872 -0.2665  0.3988
19016TIP3    H178463   5.708   5.405  14.365  0.5175  0.4239  0.2097
19016TIP3    H278464   5.838   5.409  14.443  1.7041 -0.2601 -1.6796
19017TIP3   OH278465   4.454   0.050   5.174 -0.1657  0.5162  0.3052
19017TIP3    H178466   4.364   0.056   5.206 -0.2582 -2.1420  0.7881
19017TIP3    H278467   4.462   0.121   5.110 -3.0686  0.0050 -0.7736
19018TIP3   OH278468   6.109   4.474   1.213 -0.0273 -0.2849 -0.0206
19018TIP3    H178469   6.154   4.481   1.297  0.0920  1.6779 -0.2112
19018TIP3    H278470   6.041   4.542   1.215  0.3221  0.1699 -1.7106
19019TIP3   OH278471   5.703   0.933  11.965  0.0630  0.2340  0.5007
19019TIP3    H178472   5.737   0.984  11.891  0.2742 -0.3999  0.1536
19019TIP3    H278473   5.724   0.986  12.042 -1.7358  1.7898  0.0156
19020TIP3   OH278474   1.942   3.133   3.154  0.0870  0.1063  0.1961
19020TIP3    H178475   1.871   3.118   3.217  0.2344  0.9652  0.5869
19020TIP3    H278476   1.918   3.080   3.078 -1.7829  1.5027 -0.2842
19021TIP3   OH278477   2.664   2.044   6.478 -1.0795  0.8452  0.2708
19021TIP3    H178478   2.569   2.046   6.469 -0.8851  0.3861 -3.3456
19021TIP3    H278479   2.689   2.136   6.484 -1.6651  1.2731 -2.3088
19022TIP3   OH278480   2.818   5.757   5.421 -0.0868 -0.4686  0.1511
19022TIP3    H178481   2.810   5.852   5.431  0.3883 -0.4277  0.1271
19022TIP3    H278482   2.740   5.733   5.371  0.6669  0.1493 -1.4029
19023TIP3   OH278483   1.162   1.826   1.474  0.0011  0.0329 -0.8686
19023TIP3    H178484   1.168   1.736   1.441 -1.2443 -0.2470 -0.3964
19023TIP3    H278485   1.236   1.835   1.533 -0.2265 -0.9206 -0.4178
19024TIP3   OH278486   2.070   1.817  13.035  0.0837  0.6110  0.4110
19024TIP3    H178487   2.053   1.809  12.941 -0.4563 -0.0434  0.5487
19024TIP3    H278488   2.113   1.735  13.059 -2.8500 -0.8346  1.3287
19025TIP3   OH278489   1.126   5.162   3.540 -0.3116 -0.2082 -0.1609
19025TIP3    H178490   1.089   5.138   3.626  1.2157  0.5956  0.7632
19025TIP3    H278491   1.060   5.132   3.477 -2.2135  0.5477  1.3556
19026TIP3   OH278492   1.243   3.278   0.240  0.0765  0.3046 -0.0449
19026TIP3    H178493   1.209   3.196   0.204  0.8714 -0.2485  0.4409
19026TIP3    H278494   1.216   3.345   0.178 -0.8483 -0.2822 -0.2932
19027TIP3   OH278495   5.265   0.990   2.243  0.2953  0.4682  0.2833
19027TIP3    H178496   5.310   1.031   2.317  1.0912  1.1072 -0.5215
19027TIP3    H278497   5.197   0.936   2.283 -0.3168  2.0000  1.4298
19028TIP3   OH278498   4.349   0.518  13.543  0.1953 -0.7415  0.0214
19028TIP3    H178499   4.266   0.564  13.558  1.1338  1.1263 -0.1698
19028TIP3    H278500   4.345   0.441  13.599 -0.9751  0.2206  1.3255
19029TIP3   OH278501   0.303   6.379   3.350  0.7288 -0.2168 -0.6585
19029TIP3    H178502   0.356   6.457   3.366  1.4452 -1.0810  1.3932
19029TIP3    H278503   0.214   6.414   3.337  1.1168  0.9735 -0.2967
19030TIP3   OH278504   3.790   5.090  13.439  0.1542  0.8644 -0.1925
19030TIP3    H178505   3.803   5.003  13.476 -1.6827  0.8864  0.6070
19030TIP3    H278506   3.814   5.081  13.347 -1.2699 -0.8650 -0.4606
19031TIP3   OH278507   1.336   5.100  16.305 -0.0225 -0.5542  0.1130
19031TIP3    H178508   1.302   5.063  16.387  1.4876 -2.2147  0.0559
19031TIP3    H278509   1.265   5.085  16.242 -0.4962 -0.9210  0.7129
19032TIP3   OH278510   3.468   2.611  17.164  0.1833 -0.1485 -0.0650
19032TIP3    H178511   3.472   2.697  17.207  0.7073  0.4667 -1.2884
19032TIP3    H278512   3.499   2.628  17.075  1.1554 -1.7825 -0.0735
19033TIP3   OH278513   2.367   5.298  10.682  0.6320  0.3460  0.0997
19033TIP3    H178514   2.455   5.327  10.660  0.3656  1.8764  0.9604
19033TIP3    H278515   2.309   5.364  10.644 -0.1420 -0.4069 -0.0801
19034TIP3   OH278516   5.774   1.589  13.731  0.2071  0.6032 -0.0100
19034TIP3    H178517   5.743   1.500  13.717 -0.5641  0.7323  0.8113
19034TIP3    H278518   5.851   1.579  13.787  0.2531  0.4362 -0.1034
19035TIP3   OH278519   1.092   0.334   1.999  0.0173 -0.2010 -0.2566
19035TIP3    H178520   1.136   0.257   2.035  0.8097  0.2990 -0.1183
19035TIP3    H278521   1.114   0.404   2.060 -2.3903 -0.2570  0.7729
19036TIP3   OH278522   1.063   5.367  16.478 -0.3212 -0.2189 -0.1292
19036TIP3    H178523   1.086   5.446  16.428 -1.0572 -0.0979 -0.2760
19036TIP3    H278524   1.037   5.400  16.564  3.5723 -0.5470  1.4221
19037TIP3   OH278525   2.078   4.807  12.006 -0.3737 -0.3952  0.0604
19037TIP3    H178526   2.058   4.810  11.912  1.9205 -1.8249 -0.5551
19037TIP3    H278527   2.105   4.717  12.022  0.1209  0.0354  1.9099
19038TIP3   OH278528   2.646   1.479   5.653  0.0860  0.3433 -0.0386
19038TIP3    H178529   2.551   1.478   5.666  0.1902  0.2604  0.7306
19038TIP3    H278530   2.659   1.427   5.573 -0.6668  2.0851 -1.3755
19039TIP3   OH278531   5.371   2.156   5.719 -0.1024 -0.5797  0.4576
19039TIP3    H178532   5.293   2.104   5.699 -0.4359 -0.8417  2.2570
19039TIP3    H278533   5.356   2.239   5.675 -0.7363 -1.1293 -0.3990
19040TIP3   OH278534   6.052   0.440   1.230 -0.2560  0.4376  0.4072
19040TIP3    H178535   6.080   0.529   1.210 -1.6892  0.9960  0.7736
19040TIP3    H278536   5.968   0.451   1.273 -0.6919 -1.1262 -0.0045
19041TIP3   OH278537   5.787   0.470  15.231  0.3002 -0.1647  0.1023
19041TIP3    H178538   5.703   0.491  15.189 -0.0971  1.0943  1.4505
19041TIP3    H278539   5.853   0.502  15.170 -0.2585  1.1096  0.1364
19042TIP3   OH278540   4.689   2.033  13.000 -0.3519  0.2555  0.0213
19042TIP3    H178541   4.731   2.070  12.922 -0.6628 -1.1805 -0.8674
19042TIP3    H278542   4.595   2.036  12.980 -0.5134  0.9271  0.8381
19043TIP3   OH278543   5.319   5.886   2.766  0.0148 -0.3272 -0.7212
19043TIP3    H178544   5.253   5.879   2.834  0.4842 -2.6853 -0.4231
19043TIP3    H278545   5.395   5.924   2.810 -0.4662  0.4731 -0.5653
19044TIP3   OH278546   3.690   4.342   4.966  0.3726 -0.0582  0.2765
19044TIP3    H178547   3.620   4.405   4.947 -0.1541  0.5730  3.7090
19044TIP3    H278548   3.757   4.394   5.011  1.7463 -1.2397 -0.3539
19045TIP3   OH278549   1.872   3.548   2.089  0.2136 -0.0741 -0.3379
19045TIP3    H178550   1.837   3.550   2.178  1.7617 -0.4732  0.3117
19045TIP3    H278551   1.804   3.505   2.037 -1.2428  1.2524  0.3817
19046TIP3   OH278552   1.851   1.843   2.385 -0.0665 -0.2075  0.2281
19046TIP3    H178553   1.815   1.758   2.409  1.2620 -0.2111  2.5586
19046TIP3    H278554   1.852   1.892   2.468  0.5446  1.5473 -0.7693
19047TIP3   OH278555   3.594   1.438  13.121  0.6849 -0.3335  0.2931
19047TIP3    H178556   3.666   1.474  13.070  1.1261  0.1389  1.2263
19047TIP3    H278557   3.518   1.489  13.095  0.3605 -1.6971 -1.6883
19048TIP3   OH278558   2.664   6.618  11.260  0.6493  0.1008 -0.0039
19048TIP3    H178559   2.710   6.682  11.205  2.2512 -0.8346  0.1866
19048TIP3    H278560   2.642   6.547  11.200  1.4975 -0.4672  0.3402
19049TIP3   OH278561   1.504   5.711  12.199  0.3629 -0.2646 -0.0927
19049TIP3    H178562   1.560   5.729  12.274  2.3970  2.2281 -2.0206
19049TIP3    H278563   1.452   5.791  12.188 -0.0135 -0.6469 -1.2410
19050TIP3   OH278564   1.243   1.062  12.072  0.1944 -0.9007  0.6112
19050TIP3    H178565   1.274   1.038  11.984 -0.5460 -3.0080  0.8706
19050TIP3    H278566   1.268   1.153  12.082 -1.4019  0.0307 -2.5586
19051TIP3   OH278567   4.188   0.996   1.763 -0.7856  0.3383 -0.0454
19051TIP3    H178568   4.186   1.031   1.852 -0.8228  0.5556 -0.1321
19051TIP3    H278569   4.221   0.907   1.773  1.2957  1.0696 -0.0461
19052TIP3   OH278570   4.994   4.350   3.281 -0.6252  0.3168  0.0261
19052TIP3    H178571   4.915   4.398   3.255 -0.7962  0.6141  1.0478
19052TIP3    H278572   5.039   4.409   3.341 -1.2201 -1.0455  1.9189
19053TIP3   OH278573   4.859   1.942   0.156  0.3097 -0.3116 -0.3570
19053TIP3    H178574   4.872   2.031   0.189 -0.8332  0.0288 -0.7821
19053TIP3    H278575   4.913   1.938   0.076  0.6651 -0.1406 -0.1297
19054TIP3   OH278576   4.972   0.045   0.303 -0.1667  0.7148  0.3163
19054TIP3    H178577   4.886   0.009   0.323 -0.1533  0.3892 -0.2019
19054TIP3    H278578   5.018  -0.025   0.258  0.1137  1.1314 -0.0586
19055TIP3   OH278579   6.564   2.316   4.537  0.4672  0.4715 -0.3019
19055TIP3    H178580   6.560   2.344   4.629  0.2665 -2.4753  0.6919
19055TIP3    H278581   6.654   2.288   4.525  0.2468 -0.0685 -0.6990
19056TIP3   OH278582   6.104   2.241   6.583 -0.3992 -0.0157 -0.4014
19056TIP3    H178583   6.185   2.194   6.602  0.5942  1.7260 -0.1423
19056TIP3    H278584   6.108   2.260   6.490  0.7017  2.1472  0.0301
19057TIP3   OH278585   4.807   5.996   5.888  0.3942  0.0932  0.3442
19057TIP3    H178586   4.714   5.976   5.895  0.0115  1.7612  0.5472
19057TIP3    H278587   4.811   6.073   5.832  1.3015  2.1202  2.9765
19058TIP3   OH278588   1.679   5.808  11.704 -0.3736  0.2622 -0.0952
19058TIP3    H178589   1.630   5.832  11.625 -0.0480  1.5424  0.0774
19058TIP3    H278590   1.614   5.765  11.760 -1.6348  2.8493  0.5736
19059TIP3   OH278591   6.126   3.164   4.439  0.1260 -0.4550  0.0052
19059TIP3    H178592   6.114   3.212   4.357 -1.3908 -0.7288  0.0329
19059TIP3    H278593   6.169   3.226   4.497  0.1789  0.1319 -0.6456
19060TIP3   OH278594   6.115   5.030   0.318 -0.2950  0.5624  0.2872
19060TIP3    H178595   6.136   4.962   0.382 -0.5554 -0.6181 -0.8408
19060TIP3    H278596   6.201   5.058   0.284 -0.2554 -1.2182 -1.2340
19061TIP3   OH278597   5.626   1.697   3.678 -0.2946  0.4768 -0.4655
19061TIP3    H178598   5.621   1.705   3.773  0.0260  1.3721 -0.5095
19061TIP3    H278599   5.573   1.620   3.657 -2.3357  1.6201  0.2452
19062TIP3   OH278600   2.050   3.955  13.367  0.1291 -0.0589 -0.4018
19062TIP3    H178601   2.018   3.877  13.412  3.2672 -0.9336  0.5374
19062TIP3    H278602   1.999   4.027  13.405 -2.0089 -1.4640 -0.4409
19063TIP3   OH278603   5.869   5.817   5.732 -0.4505 -0.3263  0.4190
19063TIP3    H178604   5.961   5.839   5.727 -0.2145 -1.2561  0.3753
19063TIP3    H278605   5.832   5.881   5.793 -0.1135  1.0161 -0.7383
19064TIP3   OH278606   5.242   5.284   5.090  0.2458 -0.3802 -0.3340
19064TIP3    H178607   5.193   5.288   5.172 -0.5552 -0.6878 -0.7839
19064TIP3    H278608   5.307   5.354   5.097 -1.4484  1.3051 -0.4598
19065TIP3   OH278609   2.750   1.518  11.980  0.1234 -0.2732  0.2056
19065TIP3    H178610   2.837   1.478  11.984  0.1388 -0.4028 -1.0031
19065TIP3    H278611   2.767   1.612  11.975  0.1209 -0.1604  1.8558
19066TIP3   OH278612   0.542   4.889  16.641 -0.3578 -0.3343 -0.2497
19066TIP3    H178613   0.484   4.822  16.678 -0.3319  0.4509  1.3244
19066TIP3    H278614   0.485   4.945  16.590 -0.7716 -0.3037  0.2397
19067TIP3   OH278615   0.584   2.232   6.646  0.4108  0.3256 -0.0859
19067TIP3    H178616   0.670   2.195   6.662 -0.8991 -2.4716  1.1351
19067TIP3    H278617   0.594   2.282   6.565  3.5700  1.7233  1.0054
19068TIP3   OH278618   0.582   0.354   3.010  0.1719 -0.0934 -0.1348
19068TIP3    H178619   0.589   0.390   2.922 -0.7333 -1.3992 -0.7638
19068TIP3    H278620   0.545   0.266   2.998 -0.3579 -0.1452  1.5710
19069TIP3   OH278621   1.965   3.851   1.224  0.5749 -0.2183 -0.0850
19069TIP3    H178622   1.965   3.884   1.134 -3.3819  1.2722  0.2567
19069TIP3    H278623   1.939   3.759   1.216 -1.3559  0.3236 -0.4682
19070TIP3   OH278624   3.711   0.787   3.448 -0.5106 -0.3748  0.5207
19070TIP3    H178625   3.652   0.757   3.517 -0.6622 -1.7320 -0.1661
19070TIP3    H278626   3.793   0.806   3.493 -0.5778 -1.3364  1.0806
19071TIP3   OH278627   0.684   0.706   4.058 -0.6825 -0.3508  0.0539
19071TIP3    H178628   0.635   0.692   4.139 -1.8499 -1.2259 -0.7893
19071TIP3    H278629   0.768   0.741   4.088 -0.8209 -1.3098  1.6904
19072TIP3   OH278630   1.157   0.874  16.404 -0.8897  0.1214 -0.3180
19072TIP3    H178631   1.190   0.786  16.426 -1.9262  0.4003  2.8297
19072TIP3    H278632   1.064   0.860  16.386 -1.0607  0.5834  0.2173
19073TIP3   OH278633   4.784   6.387  12.531 -0.3582  0.1392 -0.2600
19073TIP3    H178634   4.765   6.317  12.468 -0.1105 -1.9862  1.8634
19073TIP3    H278635   4.879   6.396  12.528  0.0412 -2.2354  1.9033
19074TIP3   OH278636   0.732   5.563  14.096 -0.3435  0.0830  0.8358
19074TIP3    H178637   0.810   5.515  14.125 -0.6920 -0.7037  0.4995
19074TIP3    H278638   0.764   5.621  14.027  0.0023 -0.0156  0.9113
19075TIP3   OH278639   6.431   0.534   5.260 -0.2660  0.5801  0.1305
19075TIP3    H178640   6.401   0.458   5.311 -3.1864  1.9568  0.7280
19075TIP3    H278641   6.449   0.500   5.173  2.5422 -1.4320  1.3470
19076TIP3   OH278642   0.565   5.321   3.306 -0.0968 -0.3515  0.6059
19076TIP3    H178643   0.555   5.226   3.308  0.9748 -0.4673  1.7323
19076TIP3    H278644   0.535   5.346   3.219 -1.6993 -1.5566  0.7712
19077TIP3   OH278645   4.472   3.247   4.701  0.1634  0.0850 -0.1540
19077TIP3    H178646   4.494   3.166   4.655 -1.7197  0.1003 -1.1831
19077TIP3    H278647   4.551   3.302   4.691  0.5015 -0.6222 -1.7679
19078TIP3   OH278648   5.585   1.640  12.872 -0.8012  0.4273  0.2335
19078TIP3    H178649   5.627   1.576  12.815 -1.0323  1.7087 -1.4748
19078TIP3    H278650   5.491   1.619  12.866 -0.8913  0.9895 -0.4483
19079TIP3   OH278651   0.150   0.677  15.973  0.1184 -0.4372  0.0419
19079TIP3    H178652   0.063   0.638  15.983  0.6238 -2.4408 -2.2835
19079TIP3    H278653   0.185   0.637  15.893  2.5871  1.4588  0.0429
19080TIP3   OH278654   2.722   0.908   3.567 -0.3073  0.0918 -0.7893
19080TIP3    H178655   2.697   0.868   3.649  0.0420 -0.3805 -0.9111
19080TIP3    H278656   2.673   0.991   3.564 -0.4089  0.0525 -0.1692
19081TIP3   OH278657   6.606   2.714  16.302 -0.2172 -0.5537 -0.1988
19081TIP3    H178658   6.557   2.633  16.292  1.1419 -1.4001 -0.1254
19081TIP3    H278659   6.620   2.746  16.213 -0.9853 -0.2306 -0.2160
19082TIP3   OH278660   1.547   6.142  12.101 -0.2351  0.1502 -0.1333
19082TIP3    H178661   1.625   6.094  12.072 -1.1663 -1.7866  0.4300
19082TIP3    H278662   1.474   6.085  12.078 -1.3247  0.8363  1.4551
19083TIP3   OH278663   0.923   3.323  11.144 -0.3821  0.2880  0.0839
19083TIP3    H178664   0.837   3.333  11.104  0.4692  1.5070 -1.5403
19083TIP3    H278665   0.932   3.228  11.157 -1.4124  0.0222 -0.9834
19084TIP3   OH278666   0.252   2.121  11.128 -0.2342  0.9647  0.0065
19084TIP3    H178667   0.237   2.200  11.076  0.4824  0.8481 -0.3995
19084TIP3    H278668   0.205   2.052  11.081  1.5090  0.5827 -1.3057
19085TIP3   OH278669   0.319   1.574  13.216 -0.3772 -0.4756  0.2206
19085TIP3    H178670   0.234   1.611  13.239  0.5903  0.3911  2.6663
19085TIP3    H278671   0.369   1.649  13.184 -0.5347 -1.0225 -1.4258
19086TIP3   OH278672   2.813   2.833   5.273  0.2154  0.0277 -0.4067
19086TIP3    H178673   2.860   2.901   5.224 -0.4962 -0.8594 -2.4412
19086TIP3    H278674   2.844   2.751   5.236  0.4732 -0.7629  1.4693
19087TIP3   OH278675   3.244   3.847  17.075 -0.5354  0.1451  0.3399
19087TIP3    H178676   3.213   3.882  17.158  0.3220 -0.4556  0.9315
19087TIP3    H278677   3.336   3.824  17.091 -0.6796 -1.0510 -0.4207
19088TIP3   OH278678   0.117   3.482  11.288  0.1137  0.2256  0.1459
19088TIP3    H178679   0.157   3.563  11.257  0.9717 -0.6495 -1.1158
19088TIP3    H278680   0.027   3.506  11.307  0.0798  1.2509 -1.1798
19089TIP3   OH278681   1.995   2.571   5.625 -0.4881 -0.0582 -0.0746
19089TIP3    H178682   1.963   2.563   5.535 -1.1088  1.9678 -0.0902
19089TIP3    H278683   1.949   2.647   5.660  0.8276  0.0768  1.4912
19090TIP3   OH278684   3.865   1.173   2.396  0.3473  0.1825  0.9401
19090TIP3    H178685   3.860   1.086   2.356  0.7378  0.0910  1.0888
19090TIP3    H278686   3.821   1.163   2.480 -2.7610  0.9663 -0.4131
19091TIP3   OH278687   6.362   5.324  16.316  0.1153 -0.2317 -0.0434
19091TIP3    H178688   6.295   5.359  16.257  1.8170  0.9795 -1.3629
19091TIP3    H278689   6.320   5.326  16.402 -1.7813 -0.2034 -0.8990
19092TIP3   OH278690   0.846   0.187   2.027 -0.2756 -0.4758  0.1780
19092TIP3    H178691   0.891   0.119   1.978  0.6317 -1.6846  2.5151
19092TIP3    H278692   0.900   0.265   2.015 -0.5879 -0.4761 -1.4280
19093TIP3   OH278693   4.307   2.537  15.695  0.1946  0.1735  0.0919
19093TIP3    H178694   4.281   2.450  15.665 -2.2368  0.2879  1.5801
19093TIP3    H278695   4.330   2.524  15.787  2.2526  0.7448 -0.2816
19094TIP3   OH278696   4.366   5.713  15.337 -0.1205 -0.4608 -0.1427
19094TIP3    H178697   4.383   5.635  15.284 -0.0436  0.8809 -2.1535
19094TIP3    H278698   4.451   5.756  15.345 -0.1110 -0.6579  1.1920
19095TIP3   OH278699   5.475   3.759   5.027 -0.0300  0.0368 -0.1511
19095TIP3    H178700   5.380   3.744   5.028  0.0234 -0.3130 -0.1987
19095TIP3    H278701   5.513   3.671   5.026  0.3123  0.1420  1.3470
19096TIP3   OH278702   3.686   5.280  11.552  0.1256  0.8079 -0.5950
19096TIP3    H178703   3.689   5.341  11.625  2.3032 -0.7060  0.7039
19096TIP3    H278704   3.724   5.328  11.478 -0.9444  1.9432 -0.4322
19097TIP3   OH278705   2.278   1.072  11.319  0.2420  0.3921  0.4366
19097TIP3    H178706   2.331   1.006  11.273  0.0452  0.1768  0.5149
19097TIP3    H278707   2.271   1.145  11.258  0.8391  0.5245  0.5211
19098TIP3   OH278708   3.338   6.027   1.863 -0.3498  0.0264  0.1035
19098TIP3    H178709   3.262   6.054   1.914 -0.0208  0.9283  0.1466
19098TIP3    H278710   3.316   5.940   1.830 -1.5328  0.4100 -0.1629
19099TIP3   OH278711   4.558   6.037   2.326  0.6295  0.0221  0.4211
19099TIP3    H178712   4.466   6.011   2.325  0.9454 -1.1807 -0.8925
19099TIP3    H278713   4.604   5.958   2.357  1.2923  0.2836  0.1201
19100TIP3   OH278714   5.015   4.505  15.761  0.4849  0.6657  0.7744
19100TIP3    H178715   4.982   4.490  15.850 -2.0621  0.7389 -0.0630
19100TIP3    H278716   5.090   4.563  15.773  0.2035  0.6917  2.8843
19101TIP3   OH278717   2.446   2.300  12.980  0.1175  0.1705 -0.7576
19101TIP3    H178718   2.460   2.343  12.895  0.8007  0.4212 -0.5217
19101TIP3    H278719   2.453   2.370  13.044 -0.4226 -0.0146 -0.4910
19102TIP3   OH278720   6.784   0.311   4.408  0.1876 -0.1660  0.3541
19102TIP3    H178721   6.718   0.297   4.475  0.7348 -1.2418  0.6843
19102TIP3    H278722   6.734   0.337   4.330 -0.6037 -0.8095  0.6389
19103TIP3   OH278723   2.346   0.525   3.621 -0.1190 -0.3594  0.5979
19103TIP3    H178724   2.356   0.578   3.700  2.8460  0.1956 -0.0398
19103TIP3    H278725   2.270   0.564   3.577 -0.6378  0.5707  2.2169
19104TIP3   OH278726   0.981   6.624  14.901 -0.0984  0.5171  0.2809
19104TIP3    H178727   0.912   6.594  14.842 -1.5153  0.7784  1.7387
19104TIP3    H278728   0.971   6.569  14.979  1.6357  0.2803  0.3830
19105TIP3   OH278729   0.091   0.568  15.333 -0.3686  0.4750 -0.0741
19105TIP3    H178730   0.123   0.530  15.251 -0.5716  0.7913 -0.3017
19105TIP3    H278731   0.168   0.611  15.370 -0.0603 -0.4007  0.3351
19106TIP3   OH278732   5.017   1.460   1.027 -0.3386  0.1844 -0.4160
19106TIP3    H178733   4.967   1.411   0.962  0.3592 -0.3166 -0.5822
19106TIP3    H278734   4.950   1.504   1.080 -0.9944 -1.0955 -0.1318
19107TIP3   OH278735   0.930   6.199  14.778  0.3742  0.3534  0.1455
19107TIP3    H178736   0.853   6.193  14.722  1.1003 -0.9049 -0.7724
19107TIP3    H278737   0.898   6.173  14.865  0.1926 -2.6760 -0.7021
19108TIP3   OH278738   5.892   4.938  12.423  0.4360  0.3842  0.3052
19108TIP3    H178739   5.943   4.871  12.470  0.5423 -0.6849 -1.2597
19108TIP3    H278740   5.957   5.004  12.399  0.4492  0.7488  1.2724
19109TIP3   OH278741   6.147   4.651   2.302  0.3540 -0.0084  0.1924
19109TIP3    H178742   6.133   4.576   2.360 -0.6904 -1.5057 -1.8794
19109TIP3    H278743   6.066   4.658   2.251  0.6848  2.1348 -0.1251
19110TIP3   OH278744   0.699   1.996  12.899  0.1929  0.2161  0.0316
19110TIP3    H178745   0.712   2.029  12.810  2.0726 -1.8897 -0.5716
19110TIP3    H278746   0.696   1.901  12.888  1.7104 -0.1595  2.3157
19111TIP3   OH278747   1.581   4.331   1.021 -0.0011  0.0125 -0.0495
19111TIP3    H178748   1.522   4.258   1.006 -0.6045  0.0826  1.7969
19111TIP3    H278749   1.529   4.395   1.071  1.3796  0.4080  0.9395
19112TIP3   OH278750   3.963   3.336   0.192  0.4331  0.4877  0.1803
19112TIP3    H178751   3.983   3.430   0.197  0.7093  0.4099  0.5936
19112TIP3    H278752   3.908   3.327   0.114  0.1483  1.0369  0.3176
19113TIP3   OH278753   4.446   0.161  16.389 -0.2287  0.4091 -0.1178
19113TIP3    H178754   4.512   0.153  16.320  0.2443 -0.2022  0.3952
19113TIP3    H278755   4.417   0.071  16.405 -1.3924  0.6957 -0.5246
19114TIP3   OH278756   2.990   4.386  17.199 -0.3646  0.8870  0.0608
19114TIP3    H178757   3.065   4.385  17.140 -0.7510  0.4982 -0.4426
19114TIP3    H278758   2.981   4.477  17.226  0.7819  0.8039  0.7930
19115TIP3   OH278759   4.118   4.953   5.405  0.8668 -0.5469  0.8946
19115TIP3    H178760   4.155   5.031   5.447  0.5686  1.5800 -2.4111
19115TIP3    H278761   4.193   4.896   5.391  1.9895  1.2043 -0.6421
19116TIP3   OH278762   1.478   4.160   5.913  0.5995 -0.3612  0.3009
19116TIP3    H178763   1.431   4.160   5.996 -0.0718  0.6381 -0.0591
19116TIP3    H278764   1.465   4.072   5.877 -0.0244 -0.4476  0.7350
19117TIP3   OH278765   0.129   6.270  15.265  0.2461  0.1143  0.0538
19117TIP3    H178766   0.190   6.343  15.272 -0.8398  1.0463 -0.0125
19117TIP3    H278767   0.153   6.211  15.337  2.6078 -0.6310 -1.2403
19118TIP3   OH278768   5.612   2.291  11.320  0.7341  0.5549 -0.0197
19118TIP3    H178769   5.613   2.382  11.292  0.3332  0.5842  0.0459
19118TIP3    H278770   5.541   2.287  11.385 -1.7989 -0.5244 -2.6013
19119TIP3   OH278771   1.945   3.218  16.475 -0.2081 -0.1787  0.2169
19119TIP3    H178772   2.018   3.164  16.447  1.2268  0.6084  2.1956
19119TIP3    H278773   1.891   3.160  16.529 -2.8657 -1.6376 -3.5199
19120TIP3   OH278774   2.744   3.794  17.202  0.1969 -0.2864  0.5354
19120TIP3    H178775   2.685   3.724  17.174 -1.1852  0.6538  1.0067
19120TIP3    H278776   2.756   3.847  17.123  0.2612 -0.3754  0.4850
19121TIP3   OH278777   4.179   2.002  11.323 -0.3608 -0.0013  0.3127
19121TIP3    H178778   4.204   2.052  11.246  0.4618 -1.1626 -0.2015
19121TIP3    H278779   4.084   1.988  11.313 -0.3227  0.1697 -0.2917
19122TIP3   OH278780   2.490   3.399   2.852  0.1280  0.0959  0.0146
19122TIP3    H178781   2.564   3.458   2.865  0.5423 -0.6088  0.9422
19122TIP3    H278782   2.475   3.400   2.758 -0.0943  1.9403  0.0248
19123TIP3   OH278783   5.169   0.125  11.311 -0.6337  0.1179  0.0531
19123TIP3    H178784   5.161   0.134  11.406 -2.4227  2.6910 -0.2511
19123TIP3    H278785   5.155   0.032  11.294  1.3450 -0.7024  2.3884
19124TIP3   OH278786   5.455   6.757   4.749  0.3042 -0.4709  0.6158
19124TIP3    H178787   5.543   6.794   4.759  0.1843 -0.1799  0.6105
19124TIP3    H278788   5.467   6.663   4.764  0.8988 -0.6829 -0.9566
19125TIP3   OH278789   6.694   0.558   1.775 -0.0393  0.0037 -0.0607
19125TIP3    H178790   6.707   0.527   1.685 -1.4927 -0.3489 -0.1661
19125TIP3    H278791   6.599   0.562   1.786  0.0197 -2.3216  2.2631
19126TIP3   OH278792   1.412   6.351   4.345 -0.5788  0.6688  0.4279
19126TIP3    H178793   1.443   6.303   4.421 -1.7088 -0.4888  0.1929
19126TIP3    H278794   1.407   6.285   4.275 -2.9300  0.8972  0.3009
19127TIP3   OH278795   1.502   3.623   4.361  0.0462 -0.0349  0.1594
19127TIP3    H178796   1.439   3.618   4.433 -0.8228 -0.2850 -0.6049
19127TIP3    H278797   1.448   3.624   4.282  1.0158 -0.5811 -0.5240
19128TIP3   OH278798   5.182   3.076  15.860  0.3402 -0.1676  0.3263
19128TIP3    H178799   5.124   3.143  15.896 -1.3539 -0.2682 -1.9935
19128TIP3    H278800   5.249   3.125  15.813 -0.3509 -0.0480 -0.5646
19129TIP3   OH278801   3.854   3.588  17.201  0.0965  0.3233 -0.3645
19129TIP3    H178802   3.894   3.508  17.169  2.4661  1.2504  0.0544
19129TIP3    H278803   3.791   3.613  17.134  0.1660 -1.2610 -1.0449
19130TIP3   OH278804   1.602   3.016  11.600  0.2063  0.0152 -0.5074
19130TIP3    H178805   1.637   3.105  11.600  0.5971 -0.0957  1.7418
19130TIP3    H278806   1.525   3.021  11.543 -0.9383  2.3151  1.1001
19131TIP3   OH278807   6.000   3.983   2.436 -0.3391 -0.8091 -0.5168
19131TIP3    H178808   6.062   4.027   2.494 -0.4278 -2.1843  0.7087
19131TIP3    H278809   5.927   3.959   2.494 -1.4653 -0.2805 -1.6782
19132TIP3   OH278810   5.197   6.269  12.936  0.0294 -1.2559 -0.0707
19132TIP3    H178811   5.209   6.364  12.939  0.5830 -1.3344  0.2306
19132TIP3    H278812   5.259   6.240  12.868 -0.1984 -1.3941 -0.2209
19133TIP3   OH278813   3.668   5.588  13.948  0.1263 -0.5684  0.3889
19133TIP3    H178814   3.676   5.560  14.039  0.2263  1.7295  1.1592
19133TIP3    H278815   3.756   5.615  13.924 -0.1491  0.0514  0.0568
19134TIP3   OH278816   3.901   4.958  14.819  0.7069 -0.0247  0.6044
19134TIP3    H178817   3.863   4.876  14.852  0.2781 -0.0503  0.0587
19134TIP3    H278818   3.995   4.939  14.811  0.3596 -1.1231 -1.3791
19135TIP3   OH278819   4.145   0.486  12.236 -0.3503 -0.2828  0.0611
19135TIP3    H178820   4.148   0.571  12.279 -2.0479 -0.6503  1.0001
19135TIP3    H278821   4.225   0.483  12.183  1.0840  0.8210  2.0131
19136TIP3   OH278822   2.825   5.189  15.793  0.5713  0.5939  0.5873
19136TIP3    H178823   2.763   5.187  15.866  0.6811  0.7694  0.6874
19136TIP3    H278824   2.884   5.262  15.815 -1.3251  2.8354 -1.2521
19137TIP3   OH278825   6.169   2.138   2.413 -0.4405  0.3003  0.0332
19137TIP3    H178826   6.260   2.159   2.435 -0.6706  0.9118  0.4163
19137TIP3    H278827   6.135   2.095   2.492 -0.8553  1.2294  0.3710
19138TIP3   OH278828   4.384   6.079  15.687  0.0815 -0.1942 -0.1217
19138TIP3    H178829   4.441   6.004  15.671  2.0249  1.4370 -1.3390
19138TIP3    H278830   4.345   6.099  15.602  1.8489  1.8401 -0.5461
19139TIP3   OH278831   3.023   5.562   2.512  0.2628 -0.0445  0.0322
19139TIP3    H178832   3.036   5.654   2.488 -3.8541  1.0731  1.2803
19139TIP3    H278833   3.056   5.513   2.436  0.9033  2.5366 -1.4865
19140TIP3   OH278834   3.268   5.447  16.120 -0.0970 -0.3566  0.0055
19140TIP3    H178835   3.213   5.494  16.183  1.7492  0.3622  1.1571
19140TIP3    H278836   3.313   5.380  16.172  0.1549 -0.9200 -0.9030
19141TIP3   OH278837   2.420   0.998   3.111 -0.3269 -0.2193 -0.0545
19141TIP3    H178838   2.416   0.935   3.039 -0.2546 -0.3421  0.0477
19141TIP3    H278839   2.508   1.035   3.106 -0.5695  0.3107 -0.4803
19142TIP3   OH278840   3.215   4.010   0.650 -0.6648  0.1703 -0.5903
19142TIP3    H178841   3.265   4.087   0.678 -1.1066  0.0682  0.5262
19142TIP3    H278842   3.131   4.018   0.695 -0.5074 -1.2478  0.0241
19143TIP3   OH278843   0.236   1.680  10.695  0.0387  0.4298 -0.3358
19143TIP3    H178844   0.209   1.676  10.787 -0.5445 -0.2151 -0.5243
19143TIP3    H278845   0.175   1.741  10.655 -0.3572 -0.0568 -0.4943
19144TIP3   OH278846   0.647   4.632   0.337 -0.2554  0.4177 -0.4043
19144TIP3    H178847   0.700   4.635   0.257  2.2165  0.7264  1.1643
19144TIP3    H278848   0.645   4.540   0.361 -0.3304  0.4255 -0.3806
19145TIP3   OH278849   3.316   1.395  15.118  0.3486 -0.1943  0.4936
19145TIP3    H178850   3.229   1.413  15.154  0.0912  0.3545 -0.3810
19145TIP3    H278851   3.312   1.427  15.028  1.6348  0.3828  0.6148
19146TIP3   OH278852   0.410   3.477  11.036 -0.0131 -0.2664 -0.1205
19146TIP3    H178853   0.454   3.481  11.121  1.8824 -0.0002 -1.0570
19146TIP3    H278854   0.423   3.564  10.998 -2.4911  0.2639  0.0254
19147TIP3   OH278855   6.071   0.061  15.499  0.5291 -0.5556  0.1772
19147TIP3    H178856   6.076   0.034  15.591 -2.5798  0.5563  0.7720
19147TIP3    H278857   6.068   0.157  15.502 -2.3221 -0.5153 -0.7662
19148TIP3   OH278858   1.654   4.192  10.699 -0.0968 -0.4309  0.7909
19148TIP3    H178859   1.572   4.144  10.696 -0.6689  0.5503  0.1826
19148TIP3    H278860   1.628   4.284  10.703  0.9513 -0.0136 -0.8887
19149TIP3   OH278861   1.091   1.773   0.769  0.3431 -0.3291  0.1891
19149TIP3    H178862   1.108   1.856   0.814  1.2328 -0.0765 -0.5789
19149TIP3    H278863   1.031   1.727   0.826 -0.8675  1.2096  0.2333
19150TIP3   OH278864   4.976   6.678  13.809 -0.4093  0.8646 -0.0296
19150TIP3    H178865   5.069   6.655  13.812 -0.6904 -0.3622 -0.1548
19150TIP3    H278866   4.938   6.633  13.885 -1.2579 -0.4082 -1.1672
19151TIP3   OH278867   2.762   1.026   1.204 -0.3348 -0.2597  0.1186
19151TIP3    H178868   2.709   1.013   1.282  1.9511  0.4168  1.8976
19151TIP3    H278869   2.784   0.938   1.174 -0.6368 -0.5280  0.6728
19152TIP3   OH278870   0.230   2.433   4.836 -0.1810 -0.2682 -0.5221
19152TIP3    H178871   0.252   2.522   4.811  0.6629 -0.8001 -1.7510
19152TIP3    H278872   0.179   2.443   4.916  1.0445  1.2462  0.1289
19153TIP3   OH278873   0.266   0.150  16.849  0.0842  0.2722  0.1760
19153TIP3    H178874   0.292   0.073  16.900  0.0202 -0.0746 -0.3056
19153TIP3    H278875   0.288   0.224  16.905  0.2905 -0.0902  0.5844
19154TIP3   OH278876   4.169   2.045   5.754 -0.3308 -0.2928  0.8985
19154TIP3    H178877   4.239   2.041   5.819  0.6406 -0.4194 -0.1494
19154TIP3    H278878   4.188   2.124   5.703 -1.4883  0.2035  1.1880
19155TIP3   OH278879   3.528   6.519   1.321 -0.5654  0.2678  0.3270
19155TIP3    H178880   3.528   6.615   1.325  0.5129  0.2656  0.8162
19155TIP3    H278881   3.548   6.499   1.229  1.5335  0.5559  0.6645
19156TIP3   OH278882   0.395   1.844   3.671 -0.3813 -0.8502  0.0492
19156TIP3    H178883   0.401   1.909   3.601  0.7208 -0.2391  0.6768
19156TIP3    H278884   0.459   1.777   3.647  0.5576 -0.2607  0.8183
19157TIP3   OH278885   6.360   2.573  14.044  0.1230  0.5247  0.6872
19157TIP3    H178886   6.444   2.532  14.027 -0.4338 -0.2624 -0.2655
19157TIP3    H278887   6.303   2.502  14.072 -0.8480  0.5862 -0.9718
19158TIP3   OH278888   1.819   4.729   1.042  0.5069  0.0600 -0.1944
19158TIP3    H178889   1.891   4.765   0.990  1.6591 -1.1940  0.4718
19158TIP3    H278890   1.835   4.634   1.042 -0.3249 -0.0986  1.1762
19159TIP3   OH278891   1.850   0.956  13.370  0.2401  0.1298  0.5121
19159TIP3    H178892   1.827   0.924  13.457  0.0671  0.4590  0.5899
19159TIP3    H278893   1.941   0.985  13.378  1.3918 -2.8689 -0.2635
19160TIP3   OH278894   6.299   0.695  13.278  0.1838 -0.5418  0.5740
19160TIP3    H178895   6.289   0.776  13.228  0.8199 -0.5938  0.3567
19160TIP3    H278896   6.245   0.631  13.231  1.0820 -0.6888 -0.2737
19161TIP3   OH278897   5.144   5.983   2.989 -0.0192 -0.1606 -0.3116
19161TIP3    H178898   5.188   6.059   2.952 -0.2842 -0.0403 -0.3801
19161TIP3    H278899   5.194   5.962   3.068  2.5145 -2.2820 -2.2514
19162TIP3   OH278900   6.241   5.896   4.358 -0.5830 -0.7594  0.5007
19162TIP3    H178901   6.303   5.824   4.372 -1.3740 -1.6509 -0.3959
19162TIP3    H278902   6.161   5.852   4.329 -1.0744  0.4931 -0.0786
19163TIP3   OH278903   1.056   3.917   4.536  0.5777 -0.2364  0.2363
19163TIP3    H178904   1.053   4.013   4.542  3.1497  0.0149 -0.9112
19163TIP3    H278905   1.056   3.887   4.627 -0.4992  0.8117  0.6070
19164TIP3   OH278906   1.831   4.818   3.019  0.5287  0.2351  0.0107
19164TIP3    H178907   1.919   4.791   2.993  0.4362 -1.5714  1.4094
19164TIP3    H278908   1.833   4.820   3.114 -0.9580  0.0547  0.0683
19165TIP3   OH278909   6.063   1.011  14.554 -0.5008  0.3407 -0.1262
19165TIP3    H178910   6.058   1.075  14.483 -0.4376  2.8255  1.9510
19165TIP3    H278911   5.984   1.027  14.606  0.3514 -0.0875  1.3543
19166TIP3   OH278912   0.371   6.163   1.446 -0.2337  0.1980 -0.0653
19166TIP3    H178913   0.331   6.241   1.407  0.6824  1.0098  0.5831
19166TIP3    H278914   0.331   6.156   1.533  0.2700  0.4185  0.1873
19167TIP3   OH278915   5.942   4.131   4.241 -0.3648  0.6065  0.3536
19167TIP3    H178916   5.863   4.132   4.187  0.8877 -1.7021 -1.7275
19167TIP3    H278917   5.924   4.066   4.309  0.2854 -1.2063 -1.1450
19168TIP3   OH278918   1.632   6.735   5.311 -0.1835  0.4064  0.3512
19168TIP3    H178919   1.687   6.667   5.272  0.5174  0.5635  1.0591
19168TIP3    H278920   1.683   6.815   5.304 -0.9890  0.8781 -0.4322
19169TIP3   OH278921   0.768   0.703   2.222 -0.2965  0.4869  0.2491
19169TIP3    H178922   0.842   0.653   2.256 -0.1329 -0.4758 -1.4209
19169TIP3    H278923   0.763   0.780   2.279  3.4371  1.8130 -0.8934
19170TIP3   OH278924   2.148   1.901   0.975 -0.0563 -0.7321  0.2958
19170TIP3    H178925   2.061   1.939   0.966  0.3109  0.0362 -0.1469
19170TIP3    H278926   2.199   1.969   1.020  0.6585 -0.5943 -0.6827
19171TIP3   OH278927   5.499   5.866   1.803 -0.2024  0.3470 -0.2466
19171TIP3    H178928   5.507   5.801   1.733 -0.1058  2.7830 -2.6284
19171TIP3    H278929   5.577   5.853   1.857  0.9296 -0.1257 -1.9337
19172TIP3   OH278930   3.932   3.501  11.837 -0.4106 -0.1634  0.0015
19172TIP3    H178931   3.971   3.483  11.752  1.5321  1.5087  0.4647
19172TIP3    H278932   3.856   3.557  11.818  0.6164  1.0726 -0.6035
19173TIP3   OH278933   4.722   5.864  16.236  0.5776 -0.1910  0.2140
19173TIP3    H178934   4.650   5.925  16.251  1.6157  1.2562 -0.3759
19173TIP3    H278935   4.797   5.906  16.279  1.4795 -0.6838 -0.8378
19174TIP3   OH278936   3.955   1.445  15.264 -0.1043 -0.0319 -0.0231
19174TIP3    H178937   3.906   1.389  15.325  0.0848 -0.4845 -0.2820
19174TIP3    H278938   3.993   1.512  15.320  0.2735 -0.5863  0.4004
19175TIP3   OH278939   3.333   0.351  16.287  0.2503 -0.2254  0.4771
19175TIP3    H178940   3.302   0.430  16.244  0.4616 -1.5636 -2.3381
19175TIP3    H278941   3.428   0.362  16.293  0.2295 -0.0804  0.5544
19176TIP3   OH278942   0.074   4.492   4.286 -0.7866  0.3704 -0.8395
19176TIP3    H178943   0.095   4.414   4.338 -1.9698  1.1954  0.9984
19176TIP3    H278944  -0.004   4.467   4.236 -0.7420  0.1542 -0.8041
19177TIP3   OH278945   6.216   6.320   6.069 -0.0128 -0.5026 -0.6939
19177TIP3    H178946   6.246   6.230   6.057  1.6347 -0.3002  1.2439
19177TIP3    H278947   6.187   6.324   6.160 -1.2658  0.6331 -1.1071
19178TIP3   OH278948   6.399   1.418   3.804  0.0956 -0.6115 -0.4153
19178TIP3    H178949   6.451   1.468   3.741 -0.5319 -1.2349 -1.4606
19178TIP3    H278950   6.412   1.327   3.779  0.4349 -0.9237  0.8484
19179TIP3   OH278951   6.133   3.401  12.864 -0.1450  0.0802 -0.3351
19179TIP3    H178952   6.155   3.426  12.774  0.0197  0.2807 -0.2385
19179TIP3    H278953   6.085   3.477  12.899 -0.6134 -0.1799 -0.4034
19180TIP3   OH278954   4.897   1.362   0.797 -0.0879 -0.2210  0.3814
19180TIP3    H178955   4.817   1.317   0.824 -1.1007  1.1090 -0.3009
19180TIP3    H278956   4.868   1.426   0.732  1.8078 -1.1001 -1.4501
19181TIP3   OH278957   3.827   1.785  10.462  0.0163  0.0356  0.8677
19181TIP3    H178958   3.895   1.762  10.398  1.3799 -0.7222  2.5060
19181TIP3    H278959   3.782   1.702  10.479  0.1669  0.0743  1.4513
19182TIP3   OH278960   5.611   2.184   4.786  0.1454 -0.4216  0.0670
19182TIP3    H178961   5.619   2.225   4.700 -1.1846 -0.1363  0.0564
19182TIP3    H278962   5.696   2.198   4.827  0.5627  0.0576 -0.9294
19183TIP3   OH278963   4.563   4.515  11.865  0.3699 -0.3790  0.2625
19183TIP3    H178964   4.537   4.482  11.779  0.4560  0.0352  0.0769
19183TIP3    H278965   4.492   4.489  11.924  0.0821 -0.2420 -0.0242
19184TIP3   OH278966   4.841   1.945  14.743  0.0146 -0.2686  0.1052
19184TIP3    H178967   4.824   2.036  14.720  0.5833 -0.4455 -1.0418
19184TIP3    H278968   4.803   1.894  14.672  1.1517 -0.8513 -0.1072
19185TIP3   OH278969   5.622   0.923   3.677 -0.1823 -0.1442  0.1015
19185TIP3    H178970   5.717   0.908   3.674  0.1787  1.9017 -0.4022
19185TIP3    H278971   5.590   0.860   3.741  1.4104 -1.3734 -0.2409
19186TIP3   OH278972   1.037   3.998  14.897 -0.4275 -0.5614 -0.5079
19186TIP3    H178973   0.988   3.973  14.975 -0.8607 -2.0288 -1.2306
19186TIP3    H278974   0.988   3.961  14.824  0.4386  0.0482 -1.4312
19187TIP3   OH278975   5.821   3.520   5.184 -0.2660  0.3876 -0.3225
19187TIP3    H178976   5.790   3.609   5.197 -1.2490  0.0166 -0.0390
19187TIP3    H278977   5.742   3.468   5.172  0.0472 -0.9146  2.4705
19188TIP3   OH278978   3.321   5.493  14.654 -0.3234  0.0174  0.3632
19188TIP3    H178979   3.371   5.418  14.685 -1.4926 -1.1588 -0.4629
19188TIP3    H278980   3.304   5.546  14.732 -0.6355 -1.3003  1.2141
19189TIP3   OH278981   5.223   2.586   1.009 -0.2971  0.1591 -0.3902
19189TIP3    H178982   5.318   2.598   1.016  0.2069 -3.5490  1.3069
19189TIP3    H278983   5.187   2.642   1.078  0.9068 -0.1654  0.5425
19190TIP3   OH278984   4.827   5.769  14.042  0.3415 -0.5157 -0.0638
19190TIP3    H178985   4.831   5.673  14.046 -0.8125 -0.6047 -0.6285
19190TIP3    H278986   4.742   5.788  14.003 -0.0088  0.7751  1.2279
19191TIP3   OH278987   0.046   6.317  11.469  0.7271 -0.6154 -0.1502
19191TIP3    H178988  -0.022   6.256  11.441 -0.2248 -0.8050  2.2940
19191TIP3    H278989   0.038   6.391  11.408 -2.5111 -0.1109  0.6940
19192TIP3   OH278990   6.345   0.341   5.468 -0.1101  0.4124 -0.4393
19192TIP3    H178991   6.332   0.379   5.555  0.7553  1.4417 -0.7360
19192TIP3    H278992   6.263   0.358   5.421  0.2830  2.0617 -0.5972
19193TIP3   OH278993   3.286   6.014  11.499  0.2333  0.3350  0.4101
19193TIP3    H178994   3.240   6.069  11.436 -0.9201 -0.4686  0.5241
19193TIP3    H278995   3.226   6.006  11.573  1.9700  2.1474  2.1705
19194TIP3   OH278996   5.317   2.756  15.657  0.0896  0.2776 -0.2667
19194TIP3    H178997   5.333   2.835  15.604 -1.2147  0.2114 -0.8001
19194TIP3    H278998   5.236   2.776  15.704  0.1674 -0.4549  0.1852
19195TIP3   OH278999   4.011   1.456  14.137  0.4867  0.2467  0.1765
19195TIP3    H179000   3.970   1.389  14.192 -2.0159  0.2809 -1.4644
19195TIP3    H279001   4.003   1.537  14.188  0.9998 -0.2108  1.0067
19196TIP3   OH279002   6.163   6.077  15.904 -0.0760 -0.5110 -0.2532
19196TIP3    H179003   6.157   5.982  15.914 -1.6182 -0.5382 -1.1447
19196TIP3    H279004   6.099   6.098  15.836 -0.3936  1.2691  0.5421
19197TIP3   OH279005   4.673   5.507  13.708 -0.3846  0.1987 -0.0780
19197TIP3    H179006   4.609   5.438  13.690 -0.3943  0.2729 -0.3380
19197TIP3    H279007   4.756   5.460  13.721 -0.8822 -0.1037  2.5662
19198TIP3   OH279008   5.231   4.303   5.196  0.4167  0.6148 -0.4651
19198TIP3    H179009   5.249   4.352   5.117  0.2470  1.2562 -0.1109
19198TIP3    H279010   5.191   4.366   5.256  0.5537  0.1494  0.1373
19199TIP3   OH279011   3.370   0.751  17.025  0.0269 -0.9533  0.4064
19199TIP3    H179012   3.329   0.794  17.100  0.8597 -0.2065  0.4525
19199TIP3    H279013   3.307   0.685  16.998 -0.8182 -0.4195  1.0161
19200TIP3   OH279014   2.974   0.035  16.047 -0.0937  0.0235  0.5151
19200TIP3    H179015   2.880   0.044  16.031 -0.1282 -0.2178  0.5753
19200TIP3    H279016   2.981   0.016  16.140 -0.0593 -1.0195  0.3098
19201TIP3   OH279017   2.777   3.228  14.194  0.0572  0.2334  0.3089
19201TIP3    H179018   2.756   3.224  14.100  0.2129 -2.8699  0.3003
19201TIP3    H279019   2.710   3.174  14.235  0.8386  0.3840  1.8487
19202TIP3   OH279020   0.575   1.978  15.231 -0.1463 -0.3851  0.4577
19202TIP3    H179021   0.574   1.883  15.245 -0.2753 -0.6802 -1.2766
19202TIP3    H279022   0.517   1.991  15.156  0.2218  1.0135  0.3978
19203TIP3   OH279023   2.545   5.844  16.885 -0.5669  0.7838 -0.2340
19203TIP3    H179024   2.638   5.851  16.859 -0.0695  0.3831  1.3435
19203TIP3    H279025   2.539   5.896  16.965 -1.3499 -0.4968  0.5568
19204TIP3   OH279026   6.427   5.054   3.896  0.6514 -0.4563  0.5197
19204TIP3    H179027   6.406   5.012   3.979  1.4433 -2.1345 -0.1014
19204TIP3    H279028   6.365   5.016   3.833 -0.0095  0.8709  0.3125
19205TIP3   OH279029   2.045   4.159  10.975 -0.0169  0.1173  0.8810
19205TIP3    H179030   2.051   4.247  10.938 -0.8871 -0.2415 -0.1700
19205TIP3    H279031   2.119   4.112  10.937 -1.4833 -0.5444 -1.3433
19206TIP3   OH279032   4.118   2.726   6.199  1.0953  0.3858  0.2654
19206TIP3    H179033   4.097   2.779   6.276  1.3054 -0.3706  0.8547
19206TIP3    H279034   4.109   2.786   6.125  3.0090  1.7091  1.0412
19207TIP3   OH279035   0.434   6.780  17.039 -0.8049  0.0013  0.4140
19207TIP3    H179036   0.528   6.795  17.054 -0.9462  0.9532  0.4336
19207TIP3    H279037   0.393   6.805  17.122 -1.0841 -0.3577  0.3845
19208TIP3   OH279038   6.426   1.177   5.408 -0.3402 -0.4034  0.4937
19208TIP3    H179039   6.432   1.179   5.313 -1.6102  0.5949  0.4045
19208TIP3    H279040   6.345   1.130   5.426 -0.3914 -0.1085  1.0602
19209TIP3   OH279041   2.996   6.395   4.109 -0.2757 -0.1710  0.1320
19209TIP3    H179042   3.064   6.453   4.078 -1.0215  0.3956 -0.4820
19209TIP3    H279043   2.915   6.444   4.097 -0.7529 -0.6101  1.3525
19210TIP3   OH279044   6.598   0.641  13.265 -0.3460  0.0708  0.3706
19210TIP3    H179045   6.506   0.651  13.290 -0.3933  0.6980 -0.0499
19210TIP3    H279046   6.637   0.727  13.278  0.2533 -0.2518  0.7958
19211TIP3   OH279047   3.385   4.073   6.031 -0.4866  0.1457  0.3794
19211TIP3    H179048   3.479   4.077   6.047 -0.8940  0.9286  3.2059
19211TIP3    H279049   3.364   4.155   5.988  0.0809  0.1394  0.0921
19212TIP3   OH279050   5.464   4.128  17.189  0.0164  0.0522  0.3119
19212TIP3    H179051   5.418   4.165  17.264  0.3163  1.2424 -0.0788
19212TIP3    H279052   5.428   4.040  17.180  0.6737 -0.4972  2.4719
19213TIP3   OH279053   5.158   5.514  15.405  0.0295 -0.3743  0.2879
19213TIP3    H179054   5.194   5.561  15.480 -1.2236  2.3236 -0.6497
19213TIP3    H279055   5.233   5.501  15.347  0.4956  0.1230  0.7678
19214TIP3   OH279056   5.287   3.784  11.834  0.4374 -0.1414 -0.4068
19214TIP3    H179057   5.379   3.783  11.808  1.3453 -2.8461  2.3034
19214TIP3    H279058   5.240   3.753  11.756  1.7637  1.2032 -1.8147
19215TIP3   OH279059   3.306   1.229  13.186  0.0773  0.1289 -0.0392
19215TIP3    H179060   3.212   1.222  13.202 -0.1237  1.9130 -0.2935
19215TIP3    H279061   3.342   1.147  13.220 -1.7107 -1.2067 -1.1769
19216TIP3   OH279062   1.821   6.025  12.229  0.1066 -0.6885 -0.1109
19216TIP3    H179063   1.887   5.957  12.215  0.2845 -0.5581  0.0746
19216TIP3    H279064   1.860   6.104  12.191 -0.3149 -0.8001 -0.7763
19217TIP3   OH279065   0.730   4.604   5.841  0.6484  0.6488 -0.2766
19217TIP3    H179066   0.643   4.563   5.842  0.5952  0.7728  0.8659
19217TIP3    H279067   0.782   4.549   5.782 -0.3124  0.8067 -1.2974
19218TIP3   OH279068   1.550   6.254   3.037  0.4112 -0.0993  0.4237
19218TIP3    H179069   1.602   6.301   3.101 -0.3851  1.6986 -0.1875
19218TIP3    H279070   1.596   6.267   2.954 -0.6807  1.0664 -0.0292
19219TIP3   OH279071   0.801   6.572   1.628  0.3167 -0.2363  0.3460
19219TIP3    H179072   0.888   6.552   1.594  0.1074  1.0173 -1.0101
19219TIP3    H279073   0.754   6.613   1.555 -1.4310 -0.8847  1.0289
19220TIP3   OH279074   6.614   1.809   0.266 -0.0918  0.1440 -0.4858
19220TIP3    H179075   6.633   1.898   0.236  0.7026  0.3908  0.6609
19220TIP3    H279076   6.530   1.787   0.225 -0.9726  1.9202  0.2443
19221TIP3   OH279077   0.698   0.963   2.720 -0.2930  0.3793 -0.5118
19221TIP3    H179078   0.732   1.025   2.784 -1.0333  0.2131  0.0639
19221TIP3    H279079   0.631   1.012   2.673 -0.4446  0.2074 -0.4760
19222TIP3   OH279080   3.096   3.935  14.399 -0.4752 -0.0078  0.1365
19222TIP3    H179081   3.141   3.882  14.334 -0.1671 -2.5086  2.2568
19222TIP3    H279082   3.003   3.932  14.373 -0.1052  1.0961 -1.4815
19223TIP3   OH279083   3.098   2.265  14.349  0.4569  0.3306  0.2851
19223TIP3    H179084   3.052   2.193  14.393  0.2637  0.6102  0.5452
19223TIP3    H279085   3.177   2.224  14.314 -0.2853 -0.2881 -0.7156
19224TIP3   OH279086   4.104   2.276   6.324 -0.8365 -0.2649 -0.1263
19224TIP3    H179087   4.076   2.332   6.396  0.4344 -1.1978  1.1716
19224TIP3    H279088   4.130   2.336   6.255  2.9047  1.0365  2.1042
19225TIP3   OH279089   1.228   0.793  12.055 -0.0082  0.0054 -0.3969
19225TIP3    H179090   1.223   0.883  12.087  2.4331  0.1799 -0.2577
19225TIP3    H279091   1.164   0.788  11.984 -1.3639  1.3371  0.6805
19226TIP3   OH279092   3.096   0.245   1.724  0.7088  0.7820 -0.6042
19226TIP3    H179093   3.172   0.284   1.682  2.3812 -1.2956  0.2970
19226TIP3    H279094   3.021   0.288   1.683  2.3278  2.3694 -2.0738
19227TIP3   OH279095   5.595   2.929   1.841  0.3837  0.3726 -0.1476
19227TIP3    H179096   5.553   2.948   1.757  0.1094  0.1928 -0.0502
19227TIP3    H279097   5.677   2.886   1.817  0.6223  0.9337 -0.3453
19228TIP3   OH279098   1.725   6.730   5.613  0.0509  0.0708  0.3196
19228TIP3    H179099   1.660   6.717   5.544  1.6836 -0.9743 -1.0918
19228TIP3    H279100   1.784   6.796   5.578  0.9631 -0.5499  0.6675
19229TIP3   OH279101   0.277   5.714   2.437 -0.5063 -0.4627 -0.4976
19229TIP3    H179102   0.289   5.624   2.407 -0.1282 -0.6123  0.0878
19229TIP3    H279103   0.214   5.751   2.376 -0.4946 -1.0573 -0.8799
19230TIP3   OH279104   4.611   3.174  17.005  0.5619 -0.8698  0.0772
19230TIP3    H179105   4.683   3.120  17.038  0.7133  0.2475  1.6662
19230TIP3    H279106   4.647   3.216  16.927  2.1362  0.6960  1.5733
19231TIP3   OH279107   3.866   3.884  14.116  0.1840  0.0285 -0.2014
19231TIP3    H179108   3.911   3.894  14.031 -0.3451  0.2898 -0.4546
19231TIP3    H279109   3.857   3.789  14.126  0.6446 -0.0224 -0.2255
19232TIP3   OH279110   3.778   5.355   0.052  0.2471  0.1390  0.1514
19232TIP3    H179111   3.796   5.298   0.127  1.2461  0.3749  0.1025
19232TIP3    H279112   3.687   5.336   0.029  0.3461 -0.9335  0.5679
19233TIP3   OH279113   6.520   5.965   0.074 -0.9582  0.6256 -0.3703
19233TIP3    H179114   6.539   5.871   0.078  0.1433  0.8188 -0.6765
19233TIP3    H279115   6.431   5.973   0.109 -0.7037 -0.4198  0.5749
19234TIP3   OH279116   4.081   5.746   2.688 -0.0784  0.7306  0.2089
19234TIP3    H179117   4.086   5.834   2.726  1.7895  0.0071  1.8566
19234TIP3    H279118   4.170   5.711   2.697 -0.8461 -1.4645 -0.0416
19235TIP3   OH279119   2.233   4.635  12.214  0.2558  0.0668  0.4397
19235TIP3    H179120   2.328   4.639  12.222  0.3347  0.0277 -0.3974
19235TIP3    H279121   2.203   4.615  12.303  0.8470  2.6354  1.2940
19236TIP3   OH279122   0.966   3.099  14.750  0.6844 -0.0233 -0.3741
19236TIP3    H179123   0.940   3.160  14.819  2.1435  1.0429 -0.7052
19236TIP3    H279124   0.958   3.012  14.790 -0.1064  0.4614  0.5703
19237TIP3   OH279125   1.700   1.161  15.550  0.6329  0.0170 -0.1741
19237TIP3    H179126   1.662   1.081  15.585 -2.1401  0.3745 -2.0300
19237TIP3    H279127   1.646   1.231  15.587  0.2882  0.6714 -1.8124
19238TIP3   OH279128   2.308   3.731  12.720  0.6173 -0.2243 -0.8053
19238TIP3    H179129   2.306   3.689  12.806 -1.6849  1.5534  0.1259
19238TIP3    H279130   2.257   3.672  12.663 -1.8184  0.7194  0.2621
19239TIP3   OH279131   2.218   1.087  15.090 -0.4235 -0.2834 -0.6122
19239TIP3    H179132   2.182   1.097  15.179  2.8618 -0.6686  0.9235
19239TIP3    H279133   2.195   1.168  15.046 -1.2634  0.3855  0.9575
19240TIP3   OH279134   6.280   5.021  14.679  0.0448  0.4098  0.6057
19240TIP3    H179135   6.344   5.040  14.749 -0.2689  1.7110  0.5751
19240TIP3    H279136   6.333   4.987  14.607  0.2649 -1.8521  1.7658
19241TIP3   OH279137   4.193   5.290   1.366 -0.0457 -0.2845  0.4437
19241TIP3    H179138   4.204   5.297   1.461 -0.4903  0.1830  0.4647
19241TIP3    H279139   4.100   5.270   1.354 -0.1438  0.3877  0.0752
19242TIP3   OH279140   2.253   1.047  15.666  0.4918 -0.0538  0.7780
19242TIP3    H179141   2.249   1.040  15.762 -0.3428 -0.0413  0.7505
19242TIP3    H279142   2.322   0.984  15.641 -0.2538 -1.1024  1.2855
19243TIP3   OH279143   5.456   0.920   2.536  0.4223  0.0306  0.4035
19243TIP3    H179144   5.550   0.906   2.543  0.3877 -0.8780 -0.6249
19243TIP3    H279145   5.422   0.837   2.503 -0.5347  0.8372 -0.7276
19244TIP3   OH279146   2.927   4.126  17.088 -0.2322  0.1653 -0.0734
19244TIP3    H179147   2.963   4.108  17.175 -0.0139  1.5384  0.1478
19244TIP3    H279148   2.911   4.221  17.088  2.3554  0.7465 -2.4255
19245TIP3   OH279149   6.791   2.785  13.690  0.4711  0.1822 -0.1004
19245TIP3    H179150   6.874   2.759  13.730 -0.1257  0.9054  1.6912
19245TIP3    H279151   6.724   2.738  13.740 -0.3731  1.9687  0.5453
19246TIP3   OH279152   2.344   3.777  11.434 -0.3487 -0.4064 -0.3708
19246TIP3    H179153   2.298   3.759  11.516 -1.9164 -0.8010 -1.2885
19246TIP3    H279154   2.291   3.845  11.392 -0.8642 -1.7548 -2.0322
19247TIP3   OH279155   0.670   1.129  11.456  0.3940 -0.3382 -0.1184
19247TIP3    H179156   0.637   1.102  11.541 -1.3683 -0.7247 -0.8824
19247TIP3    H279157   0.645   1.059  11.396  1.8313 -0.1984 -0.9290
19248TIP3   OH279158   4.871   1.390   4.426  0.1614 -0.0929 -0.3165
19248TIP3    H179159   4.950   1.382   4.371 -0.7886 -0.5748 -1.6690
19248TIP3    H279160   4.852   1.484   4.427  0.4796 -0.0257 -0.3931
19249TIP3   OH279161   0.253   6.014   5.830  0.2248 -0.5093  0.4863
19249TIP3    H179162   0.253   6.078   5.759  2.1668  0.1476  1.0220
19249TIP3    H279163   0.229   6.065   5.908 -2.4405 -1.3325  0.2864
19250TIP3   OH279164   3.058   3.569   4.413 -0.0007 -0.6628  0.8194
19250TIP3    H179165   3.044   3.653   4.457  1.2142 -0.6665  1.2829
19250TIP3    H279166   3.001   3.508   4.460  0.9547 -0.5745  2.1535
19251TIP3   OH279167   4.077   5.545   3.531 -0.2454 -0.6262 -0.4165
19251TIP3    H179168   4.012   5.554   3.600  0.1358 -0.8209 -0.0267
19251TIP3    H279169   4.160   5.531   3.577  0.1516  0.0694 -0.8984
19252TIP3   OH279170   0.649   4.084  12.485  0.0416 -0.6372  0.4474
19252TIP3    H179171   0.610   4.094  12.398 -0.4625 -2.6943  0.3814
19252TIP3    H279172   0.738   4.119  12.476 -0.8965  1.7598 -0.0961
19253TIP3   OH279173   0.843   5.576  11.440 -0.8466 -0.1418  0.0639
19253TIP3    H179174   0.755   5.551  11.466 -0.6752  0.4587  1.2662
19253TIP3    H279175   0.835   5.601  11.348 -1.9115 -0.1417  0.1492
19254TIP3   OH279176   0.263   2.835   0.873 -0.3216  0.5792 -0.0957
19254TIP3    H179177   0.245   2.924   0.843  2.2591  0.8639 -1.0510
19254TIP3    H279178   0.302   2.847   0.960 -1.3932  0.2300  0.4535
19255TIP3   OH279179   4.458   3.998   5.776 -0.2747  0.1496 -0.1653
19255TIP3    H179180   4.446   3.903   5.770  0.9282 -0.0072 -0.3530
19255TIP3    H279181   4.471   4.014   5.869  2.0436 -0.2292 -0.3801
19256TIP3   OH279182   1.906   2.367  15.955  0.6673  0.8575 -0.1216
19256TIP3    H179183   1.919   2.406  16.041 -0.2825  0.9990 -0.0384
19256TIP3    H279184   1.990   2.381  15.910  1.7928 -0.7458  1.3506
19257TIP3   OH279185   5.031   3.873  14.753  0.0121 -0.2798 -0.5207
19257TIP3    H179186   5.045   3.953  14.803 -0.0470 -1.7563  2.0644
19257TIP3    H279187   4.942   3.882  14.718 -0.2214  0.5203  0.2450
19258TIP3   OH279188   2.294   1.411  15.787 -0.6321  0.2363 -0.0916
19258TIP3    H179189   2.252   1.496  15.805 -0.2174  0.3032  0.6094
19258TIP3    H279190   2.382   1.434  15.757 -0.7311  0.0666 -0.5195
19259TIP3   OH279191   5.880   1.233   4.928 -1.1076  0.7652 -0.0225
19259TIP3    H179192   5.849   1.313   4.887 -1.7844  2.0051  2.6726
19259TIP3    H279193   5.972   1.251   4.950  0.1150 -0.8844 -3.1333
19260TIP3   OH279194   0.953   3.454   3.880 -0.4496  0.2151  0.7154
19260TIP3    H179195   0.873   3.482   3.926 -1.6632 -1.9313  0.0649
19260TIP3    H279196   0.922   3.426   3.794  1.2781  0.8329 -0.1581
19261TIP3   OH279197   2.426   3.366  11.384 -0.7637 -0.0876  0.0994
19261TIP3    H179198   2.401   3.298  11.321 -1.3093  0.0638  0.1515
19261TIP3    H279199   2.419   3.448  11.335 -2.2145  0.1418  0.6274
19262TIP3   OH279200   0.852   3.239  12.898 -0.2291 -0.0394 -0.0844
19262TIP3    H179201   0.897   3.324  12.895  1.0452 -0.6952 -0.8673
19262TIP3    H279202   0.905   3.183  12.841 -2.3209 -0.7678 -1.3942
19263TIP3   OH279203   5.661   0.925   3.386  0.2953  0.7484  0.3160
19263TIP3    H179204   5.609   0.849   3.413  1.4924 -1.1512 -2.2214
19263TIP3    H279205   5.682   0.970   3.468 -0.0354 -1.9964  2.0585
19264TIP3   OH279206   0.304   6.598   0.319  0.6515  0.0039 -0.0908
19264TIP3    H179207   0.223   6.612   0.369 -0.0504  0.2424 -1.2399
19264TIP3    H279208   0.277   6.611   0.228  2.3574  1.8305 -0.3911
19265TIP3   OH279209   4.887   5.307  15.247 -0.1491 -0.0936  0.5155
19265TIP3    H179210   4.862   5.324  15.337  0.3700 -0.8874  0.8218
19265TIP3    H279211   4.918   5.391  15.213 -0.3111  0.1954  1.0809
19266TIP3   OH279212   4.929   2.050  13.545  0.1988 -0.1833 -0.1473
19266TIP3    H179213   4.943   1.986  13.475 -1.6686  0.2938 -1.0135
19266TIP3    H279214   4.889   2.000  13.616  1.2910 -0.4930  0.2691
19267TIP3   OH279215   1.937   5.067  11.540  0.3711 -0.2748 -0.1845
19267TIP3    H179216   2.014   5.124  11.535 -0.0324  0.3692  0.7568
19267TIP3    H279217   1.897   5.074  11.453  1.8801 -1.3858 -1.0257
19268TIP3   OH279218   2.258   6.100   1.157 -0.0000 -0.7731 -0.1959
19268TIP3    H179219   2.282   6.149   1.236  0.3753  0.6165 -1.1429
19268TIP3    H279220   2.295   6.013   1.171  0.8180 -0.2926  0.7761
19269TIP3   OH279221   5.091   5.821  14.629 -0.2328 -0.1471  0.0687
19269TIP3    H179222   5.158   5.882  14.599  0.0981 -0.2652  0.5596
19269TIP3    H279223   5.071   5.767  14.552 -1.2434  1.2129 -0.6538
19270TIP3   OH279224   6.724   4.593   3.547 -0.2120  0.1167  0.6860
19270TIP3    H179225   6.790   4.524   3.557 -0.4196 -0.0353  1.0419
19270TIP3    H279226   6.740   4.652   3.620 -0.0678  0.4249  0.4101
19271TIP3   OH279227   0.319   3.058   0.706  0.0296  0.4549  0.0613
19271TIP3    H179228   0.330   3.062   0.611 -0.5058  0.4913 -0.0008
19271TIP3    H279229   0.408   3.069   0.741  0.3854 -0.6660 -0.4519
19272TIP3   OH279230   0.022   4.341  10.620 -0.2011  0.5979  0.0163
19272TIP3    H179231  -0.049   4.371  10.676 -0.8330  1.2171 -1.0634
19272TIP3    H279232   0.053   4.420  10.576 -0.0853  0.0738 -0.8808
19273TIP3   OH279233   0.747   4.364   0.105 -0.0712 -0.3298 -0.4969
19273TIP3    H179234   0.818   4.363   0.170 -0.4325 -0.7626 -0.1069
19273TIP3    H279235   0.776   4.304   0.036  0.8867  1.0660 -1.3720
19274TIP3   OH279236   3.222   4.738   1.230  0.2796  0.6486 -0.6624
19274TIP3    H179237   3.172   4.657   1.220  1.6256 -0.0634 -1.9391
19274TIP3    H279238   3.172   4.803   1.181  0.2098  0.1157 -1.3098
19275TIP3   OH279239   0.996   0.667   2.486 -0.2310 -0.1970 -0.4173
19275TIP3    H179240   0.988   0.660   2.581 -0.4837 -1.6759 -0.5218
19275TIP3    H279241   1.053   0.742   2.473 -0.6458  0.3848  0.8794
19276TIP3   OH279242   6.739   5.541   3.938  0.1480 -0.0551  0.6639
19276TIP3    H179243   6.720   5.553   4.032  0.7777 -0.5725  0.8650
19276TIP3    H279244   6.730   5.447   3.924 -1.8988  0.2102 -0.2565
19277TIP3   OH279245   2.267   2.281  13.584 -0.3987 -0.1330  0.6650
19277TIP3    H179246   2.226   2.303  13.668  1.1090 -1.4604  1.8078
19277TIP3    H279247   2.317   2.359  13.561 -0.1800 -0.0414  1.4153
19278TIP3   OH279248   0.286   5.081   5.856  0.0543  0.3044  0.2247
19278TIP3    H179249   0.217   5.044   5.802  1.2680 -2.3650  0.3428
19278TIP3    H279250   0.367   5.047   5.817  1.0827  0.3441  2.2202
19279TIP3   OH279251   3.311   0.837   3.925  0.5128 -0.5919 -0.1129
19279TIP3    H179252   3.275   0.890   3.854  0.8636  0.2106  0.2836
19279TIP3    H279253   3.276   0.749   3.911  1.4800 -0.7246 -1.9213
19280TIP3   OH279254   1.528   6.552  12.424 -0.6171  0.1177  0.1077
19280TIP3    H179255   1.441   6.513  12.430  0.0080 -1.6148 -1.2152
19280TIP3    H279256   1.588   6.478  12.430  0.7355  1.1379 -0.1907
19281TIP3   OH279257   1.179   2.916   5.282  0.2066 -0.0958 -0.6250
19281TIP3    H179258   1.126   2.889   5.357  2.5753  0.3583  1.3866
19281TIP3    H279259   1.163   3.010   5.274  0.3199 -0.0444 -0.3060
19282TIP3   OH279260   3.224   4.607  15.515 -0.4319  0.1618  0.4039
19282TIP3    H179261   3.159   4.580  15.580 -1.3044 -0.4567 -0.6866
19282TIP3    H279262   3.303   4.557  15.537 -1.4508 -1.9189 -0.4409
19283TIP3   OH279263   4.321   4.468   3.200  0.2585 -0.0756 -0.2042
19283TIP3    H179264   4.352   4.389   3.156 -1.5400 -1.8842  1.5819
19283TIP3    H279265   4.336   4.538   3.136 -1.5974 -2.4025 -3.5044
19284TIP3   OH279266   3.090   3.355   6.420  0.0765 -0.2692  0.3500
19284TIP3    H179267   3.059   3.265   6.432 -0.0580 -0.2749 -0.0160
19284TIP3    H279268   3.180   3.346   6.389 -0.0138 -0.2845  0.0893
19285TIP3   OH279269   1.433   5.313   1.486  0.4274  0.1963 -0.2444
19285TIP3    H179270   1.399   5.251   1.422 -0.0435  0.2969 -0.0962
19285TIP3    H279271   1.514   5.347   1.447  0.0644  0.3771 -0.8538
19286TIP3   OH279272   6.779   0.231  11.795  0.2309 -0.5529  0.2353
19286TIP3    H179273   6.847   0.234  11.727  0.1583  2.0756  0.1814
19286TIP3    H279274   6.801   0.153  11.847  3.2505  0.0942  0.1519
19287TIP3   OH279275   2.280   6.137  12.555  0.0326 -0.1413  0.3819
19287TIP3    H179276   2.224   6.078  12.605  0.6537 -1.6519 -0.6371
19287TIP3    H279277   2.336   6.079  12.503  1.2873  1.3390 -0.0023
19288TIP3   OH279278   4.357   6.706  12.345 -0.2802 -0.5787 -0.1506
19288TIP3    H179279   4.449   6.713  12.322 -0.3495  0.3969 -0.1634
19288TIP3    H279280   4.310   6.724  12.264 -0.4876  0.4582  0.1797
19289TIP3   OH279281   0.395   5.794   3.625 -0.0379 -0.2825 -0.3445
19289TIP3    H179282   0.330   5.801   3.556  0.0819 -1.2913 -0.5832
19289TIP3    H279283   0.348   5.819   3.705 -0.7331 -1.0258 -0.5086
19290TIP3   OH279284   4.063   0.847   0.903 -0.3704 -0.2438  0.1984
19290TIP3    H179285   4.105   0.761   0.894 -0.7730 -0.3668 -0.5759
19290TIP3    H279286   3.990   0.845   0.841 -3.4698 -1.1839  3.4682
19291TIP3   OH279287   2.403   4.962  12.176  0.0839 -0.7743 -0.0954
19291TIP3    H179288   2.311   4.956  12.202 -0.2303  0.7707 -0.7376
19291TIP3    H279289   2.406   4.917  12.091  0.4585 -2.9568  0.9975
19292TIP3   OH279290   6.275   3.762   1.411 -0.0319  0.0467 -0.5062
19292TIP3    H179291   6.187   3.766   1.373  0.0033  2.0157 -0.4383
19292TIP3    H279292   6.260   3.748   1.504 -0.2647  0.1123 -0.5334
19293TIP3   OH279293   3.232   3.315   3.075 -0.3781 -0.7623  0.5033
19293TIP3    H179294   3.154   3.337   3.126 -0.9490  0.0500 -0.6631
19293TIP3    H279295   3.257   3.228   3.105 -1.8800 -1.1347  0.7448
19294TIP3   OH279296   6.490   2.557  15.530 -0.2198  0.0497 -0.0101
19294TIP3    H179297   6.444   2.634  15.563 -1.1950  0.0828 -1.3494
19294TIP3    H279298   6.420   2.503  15.491  0.6356 -0.8166 -0.3752
19295TIP3   OH279299   1.661   6.066  14.472  0.0139  0.0170  0.1856
19295TIP3    H179300   1.587   6.100  14.522  0.3564  2.2769 -0.7279
19295TIP3    H279301   1.621   6.004  14.411 -1.0358  0.6005  0.2479
19296TIP3   OH279302   2.574   2.962  12.618  0.6605  0.3665 -0.1518
19296TIP3    H179303   2.557   3.040  12.670  0.9818  1.6386 -1.8364
19296TIP3    H279304   2.532   2.981  12.533  1.1099 -1.1153 -0.7319
19297TIP3   OH279305   3.710   4.564  16.008 -0.1040 -0.0184 -0.6774
19297TIP3    H179306   3.760   4.578  16.089 -0.7733  0.1359 -0.2827
19297TIP3    H279307   3.717   4.647  15.961  1.5708 -0.5893 -1.5218
19298TIP3   OH279308   2.344   6.307   4.917  0.2474 -0.6794 -0.2747
19298TIP3    H179309   2.259   6.315   4.960 -0.1127  0.4020 -1.1495
19298TIP3    H279310   2.404   6.279   4.986 -0.7407 -1.1178  0.4292
19299TIP3   OH279311   0.174   1.721  11.332  0.9005 -0.4272  0.1324
19299TIP3    H179312   0.230   1.692  11.261  0.3320  0.0931 -0.5412
19299TIP3    H279313   0.128   1.642  11.360 -0.8394 -0.2218 -1.8698
19300TIP3   OH279314   1.564   0.419  14.944  0.1757 -0.3329  0.2981
19300TIP3    H179315   1.573   0.498  14.998 -0.5035 -0.4898  0.6515
19300TIP3    H279316   1.511   0.360  14.997 -1.2949 -0.1401 -0.9115
19301TIP3   OH279317   3.059   0.600   2.527 -0.1538  0.1950  0.1274
19301TIP3    H179318   3.092   0.677   2.574  1.1333 -0.9145  1.1137
19301TIP3    H279319   3.081   0.526   2.583  1.3592 -1.1869 -2.1113
19302TIP3   OH279320   1.298   0.973  14.450 -0.1263 -0.5334 -0.7351
19302TIP3    H179321   1.264   1.062  14.461  2.8419  0.6469 -0.2708
19302TIP3    H279322   1.361   0.962  14.521  0.3488 -2.6400 -1.4137
19303TIP3   OH279323   0.191   3.242   0.125  0.2750 -0.2569 -0.2490
19303TIP3    H179324   0.185   3.207   0.213  2.7715 -1.4687 -0.4561
19303TIP3    H279325   0.184   3.165   0.068 -0.5727  0.4134 -1.0816
19304TIP3   OH279326   3.488   2.435  14.522 -0.2409  0.4323 -0.2985
19304TIP3    H179327   3.543   2.411  14.596 -0.2892 -0.7740 -0.6239
19304TIP3    H279328   3.523   2.518  14.491  0.4866  0.3900  0.3803
19305TIP3   OH279329   0.325   1.101  15.742  0.0847 -0.0389  0.1114
19305TIP3    H179330   0.304   1.025  15.797 -0.3306  0.4624  0.6572
19305TIP3    H279331   0.420   1.108  15.745  0.1322 -0.5742 -0.0005
19306TIP3   OH279332   5.345   0.765   2.996 -0.3920  0.2296 -0.5834
19306TIP3    H179333   5.325   0.809   2.913 -0.8024  1.3234  0.0721
19306TIP3    H279334   5.357   0.836   3.058  3.0699 -0.4370 -0.3215
19307TIP3   OH279335   1.707   2.650  11.642 -0.7083 -0.0326 -0.3076
19307TIP3    H179336   1.702   2.590  11.568  0.1581 -0.0503 -0.3664
19307TIP3    H279337   1.632   2.628  11.697 -1.6493  0.3230 -1.4276
19308TIP3   OH279338   2.820   4.031  14.461  0.2308 -0.5538  0.5264
19308TIP3    H179339   2.826   4.003  14.552 -2.1947  1.3569  1.3620
19308TIP3    H279340   2.755   3.972  14.422 -2.1455  1.3930  1.3265
19309TIP3   OH279341   4.594   5.669  12.563 -0.2783  0.4713  0.2579
19309TIP3    H179342   4.550   5.661  12.648 -0.9973  1.1508 -0.0304
19309TIP3    H279343   4.687   5.654  12.582 -0.4372  0.5734  1.1572
19310TIP3   OH279344   3.907   1.850   4.964 -0.4878 -0.2410 -0.0739
19310TIP3    H179345   3.907   1.855   5.060  1.7578  2.1109 -0.0863
19310TIP3    H279346   3.970   1.781   4.943 -1.7913 -1.5337  0.0731
19311TIP3   OH279347   3.588   6.255   4.286 -0.3787 -0.6185 -0.6971
19311TIP3    H179348   3.606   6.259   4.380  0.5515 -1.4154 -0.8199
19311TIP3    H279349   3.493   6.248   4.279 -0.7718  2.6098  0.0523
19312TIP3   OH279350   3.551   1.620  11.408 -0.0179  0.0991  0.4359
19312TIP3    H179351   3.522   1.559  11.341 -0.7677  0.8059  0.0863
19312TIP3    H279352   3.630   1.660  11.373  0.1847 -0.2903  0.4432
19313TIP3   OH279353   4.417   0.875   4.480  0.2822 -0.3655  0.1665
19313TIP3    H179354   4.465   0.793   4.465  1.0092  0.1823 -0.6158
19313TIP3    H279355   4.450   0.935   4.413 -0.7135  0.3755  0.3135
19314TIP3   OH279356   5.730   2.090   2.412 -0.5285 -0.2289 -0.7133
19314TIP3    H179357   5.775   2.163   2.454 -0.3979  0.0945 -1.4019
19314TIP3    H279358   5.795   2.020   2.410 -1.0430 -0.8140  1.0909
19315TIP3   OH279359   6.317   5.154   4.637 -0.0734 -0.4580 -0.6854
19315TIP3    H179360   6.392   5.098   4.616  0.8065  0.9866 -1.6066
19315TIP3    H279361   6.248   5.094   4.664  1.8839 -1.7528  1.7425
19316TIP3   OH279362   1.204   6.687  14.745  0.0740  0.5376  0.2477
19316TIP3    H179363   1.157   6.677  14.828 -1.9741  0.3570 -0.8666
19316TIP3    H279364   1.166   6.620  14.688  1.8226  0.2982 -0.7084
19317TIP3   OH279365   1.583   5.970   6.605 -0.0370  0.6333  0.2195
19317TIP3    H179366   1.492   5.948   6.586 -0.1445 -0.4794  1.7976
19317TIP3    H279367   1.634   5.908   6.553 -0.1964  0.7424 -0.0703
19318TIP3   OH279368   4.411   4.287  14.496 -0.0707 -0.3537  0.8770
19318TIP3    H179369   4.429   4.366  14.547 -0.5218 -0.0809  0.6098
19318TIP3    H279370   4.317   4.289  14.480 -0.0723 -0.9034  0.7980
19319TIP3   OH279371   0.813   4.122  15.408  0.0446  0.1807 -0.3260
19319TIP3    H179372   0.758   4.159  15.340 -0.6300  0.7958  0.5269
19319TIP3    H279373   0.777   4.035  15.424 -0.9099  0.6948  0.4427
19320TIP3   OH279374   6.275   5.025   4.213  0.4050 -0.2557 -0.4517
19320TIP3    H179375   6.209   5.013   4.282  1.0247 -1.3470 -0.0042
19320TIP3    H279376   6.356   4.990   4.252  1.3958  1.5515 -0.7810
19321TIP3   OH279377   0.045   2.245   3.060 -0.0688 -0.4359  0.0446
19321TIP3    H179378  -0.021   2.314   3.062 -1.5228 -1.7546 -0.8482
19321TIP3    H279379   0.110   2.276   2.997  0.9280  1.4658  1.8710
19322TIP3   OH279380   3.603   2.691  12.330 -0.1558  0.1374 -0.1543
19322TIP3    H179381   3.607   2.657  12.241  1.3858 -0.6491  0.1852
19322TIP3    H279382   3.538   2.636  12.374 -2.0557  1.4973 -1.1472
19323TIP3   OH279383   0.706   6.228  14.450 -0.0448  0.2622  0.1809
19323TIP3    H179384   0.611   6.228  14.439  0.2548  1.4228 -3.3397
19323TIP3    H279385   0.724   6.147  14.499 -2.5811 -2.0992 -2.4307
19324TIP3   OH279386   4.206   2.977   1.282  0.0854 -0.0283  0.0817
19324TIP3    H179387   4.275   2.915   1.261  0.2180 -0.4283  1.6137
19324TIP3    H279388   4.184   3.018   1.198 -0.1340 -2.2506 -1.0186
19325TIP3   OH279389   5.863   5.408  15.332 -0.1514 -0.6692 -0.7248
19325TIP3    H179390   5.804   5.344  15.373 -0.7006 -0.2828 -0.9044
19325TIP3    H279391   5.895   5.365  15.253 -0.1580 -0.9002 -0.6012
19326TIP3   OH279392   5.843   1.402  14.695 -0.2588 -0.5348  0.4395
19326TIP3    H179393   5.755   1.404  14.733 -0.7898 -0.1214 -0.7520
19326TIP3    H279394   5.831   1.359  14.610  0.9713 -1.8742  0.9048
19327TIP3   OH279395   0.884   4.426   1.719 -0.5690 -0.0282 -0.3778
19327TIP3    H179396   0.930   4.366   1.779 -1.8400 -1.0888 -0.3998
19327TIP3    H279397   0.837   4.486   1.777 -1.0205 -0.4373 -0.3142
19328TIP3   OH279398   2.167   3.056  11.388 -0.2931 -0.5651 -0.2782
19328TIP3    H179399   2.141   2.964  11.393 -0.8987 -0.6183 -3.0736
19328TIP3    H279400   2.106   3.102  11.446  0.4751 -1.9192  1.7423
19329TIP3   OH279401   6.631   5.448  16.366  0.0136  0.1816 -0.4172
19329TIP3    H179402   6.686   5.373  16.388 -0.0958  0.4100  0.7052
19329TIP3    H279403   6.542   5.413  16.366 -0.1219  0.4423  0.9258
19330TIP3   OH279404   1.233   0.310   1.540  0.1349 -0.4816  0.4409
19330TIP3    H179405   1.170   0.279   1.606  0.3731 -1.3512  0.2770
19330TIP3    H279406   1.318   0.303   1.583  0.1515  0.4665  0.5798
19331TIP3   OH279407   0.935   2.433   2.953 -0.3857  0.2851  0.3444
19331TIP3    H179408   0.998   2.436   3.024  0.5754  0.7740 -0.4971
19331TIP3    H279409   0.922   2.525   2.928  0.2256  0.0534 -0.8928
19332TIP3   OH279410   2.912   4.762   3.190 -0.4892  0.9272 -0.3181
19332TIP3    H179411   2.843   4.768   3.256 -1.5324 -0.9058 -1.1346
19332TIP3    H279412   2.975   4.700   3.227 -0.8557  0.2380 -0.8156
19333TIP3   OH279413   5.538   4.102  15.300  0.2692  0.2305 -0.2953
19333TIP3    H179414   5.630   4.090  15.279  0.6360  0.5089  1.0515
19333TIP3    H279415   5.500   4.142  15.221  0.5481 -2.8718 -2.1547
19334TIP3   OH279416   2.108   0.563  13.998 -0.2755  0.7591  0.1112
19334TIP3    H179417   2.161   0.547  13.920 -0.1142  0.4301  0.2849
19334TIP3    H279418   2.047   0.632  13.972 -1.4728 -0.6219 -0.8894
19335TIP3   OH279419   2.718   1.209  15.376 -0.0813  0.0525 -0.6544
19335TIP3    H179420   2.674   1.216  15.291 -0.3338  0.2648 -0.5073
19335TIP3    H279421   2.741   1.116  15.382  1.4695  0.3418 -1.7064
19336TIP3   OH279422   0.351   4.156  16.535  0.3055 -0.5103 -0.0072
19336TIP3    H179423   0.446   4.165  16.534  0.4376 -1.3505  1.9250
19336TIP3    H279424   0.319   4.232  16.583  0.0725 -0.6746  0.1029
19337TIP3   OH279425   1.494   0.967  16.568  0.2770 -0.3527  0.3582
19337TIP3    H179426   1.561   0.921  16.517  1.7137  0.9741  0.9471
19337TIP3    H279427   1.495   1.056  16.533 -2.1205 -0.5864 -0.4521
19338TIP3   OH279428   2.789   5.630  13.627 -0.2129 -0.3959 -0.0871
19338TIP3    H179429   2.749   5.546  13.605  0.0914 -0.3380 -0.9233
19338TIP3    H279430   2.776   5.684  13.549  1.9065 -0.5394 -0.6213
19339TIP3   OH279431   6.551   2.769  16.031 -0.1169  0.6015  0.1790
19339TIP3    H179432   6.486   2.837  16.017  0.4351  0.9744 -0.6268
19339TIP3    H279433   6.500   2.692  16.056 -0.7028  1.4485  1.7367
19340TIP3   OH279434   6.525   1.597   3.243 -0.4902  0.2414 -0.4224
19340TIP3    H179435   6.517   1.687   3.275 -0.5819 -0.4181  1.5599
19340TIP3    H279436   6.466   1.546   3.298 -0.3392 -1.0680 -1.4092
19341TIP3   OH279437   6.086   4.896   5.529 -0.8457  0.3029  0.2150
19341TIP3    H179438   6.006   4.867   5.574 -1.8166  1.1518 -0.9080
19341TIP3    H279439   6.144   4.820   5.534 -0.8323  0.3865  2.9751
19342TIP3   OH279440   0.789   5.611   5.343  0.3896  0.1203  0.0022
19342TIP3    H179441   0.708   5.588   5.297  0.1361  1.6393 -0.3748
19342TIP3    H279442   0.762   5.624   5.434  0.3428 -0.0602  0.0138
19343TIP3   OH279443   6.014   1.353   3.050  0.1094 -0.1178  0.0008
19343TIP3    H179444   6.058   1.403   3.119  0.0402  0.2511 -0.2186
19343TIP3    H279445   5.921   1.356   3.074 -0.2620  2.1690 -1.4127
19344TIP3   OH279446   5.968   5.393   0.087 -0.1692  0.0781  0.4842
19344TIP3    H179447   5.884   5.409   0.043 -0.4415  0.3350  1.0985
19344TIP3    H279448   5.945   5.341   0.164  0.2559  0.0275  0.5769
19345TIP3   OH279449   1.598   6.419  12.692  0.2524  0.3419  0.5175
19345TIP3    H179450   1.687   6.422  12.656  0.4083  1.9181  0.9296
19345TIP3    H279451   1.610   6.394  12.783  0.5125  2.2442  1.0655
19346TIP3   OH279452   5.693   0.716  12.342  0.5571  0.5608 -0.1030
19346TIP3    H179453   5.733   0.630  12.356 -1.8857 -0.8518 -1.1832
19346TIP3    H279454   5.706   0.762  12.425  1.4477 -1.0416  0.7031
19347TIP3   OH279455   1.406   3.548   0.434 -0.4575  0.4337  0.0707
19347TIP3    H179456   1.495   3.583   0.431 -0.0061 -0.7543 -1.8944
19347TIP3    H279457   1.417   3.458   0.463 -0.8145 -0.2304 -1.7798
19348TIP3   OH279458   2.967   4.252   2.776  0.1744  0.1055 -0.2517
19348TIP3    H179459   2.895   4.224   2.833  0.4958 -1.9107 -0.7560
19348TIP3    H279460   3.033   4.287   2.836  0.5133 -1.9974  0.6985
19349TIP3   OH279461   0.915   4.392   5.372 -0.4648  0.1122 -0.0882
19349TIP3    H179462   0.912   4.433   5.286 -0.0337  1.4580  0.4999
19349TIP3    H279463   0.996   4.342   5.372  0.6351  1.7791  0.1952
19350TIP3   OH279464   1.311   3.026  12.251  0.8855  0.1867 -0.0209
19350TIP3    H179465   1.325   2.996  12.340  3.6798 -0.0674 -0.4521
19350TIP3    H279466   1.273   2.951  12.206  2.1608 -0.6970  0.3246
19351TIP3   OH279467   6.626   0.371  11.385 -0.3007 -0.5906 -0.3558
19351TIP3    H179468   6.686   0.403  11.318 -0.8301  0.3643 -0.3857
19351TIP3    H279469   6.549   0.342  11.337 -0.2221 -0.9845 -0.2480
19352TIP3   OH279470   0.494   1.771   3.062  0.2822 -0.2149 -0.0431
19352TIP3    H179471   0.401   1.751   3.069  0.5910 -1.8791 -0.2239
19352TIP3    H279472   0.526   1.710   2.995  1.5900 -0.0029  0.3670
19353TIP3   OH279473   3.335   2.267  11.850  0.1035  0.1993  0.1451
19353TIP3    H179474   3.383   2.257  11.932  1.2335  0.2166 -0.4961
19353TIP3    H279475   3.345   2.182  11.806 -1.4425 -0.2002  0.4938
19354TIP3   OH279476   0.910   6.293   1.069  0.2734  0.4035  0.1523
19354TIP3    H179477   0.915   6.209   1.114 -0.0033  1.6352  2.7159
19354TIP3    H279478   0.954   6.279   0.985 -0.1746 -2.3733  0.2815
19355TIP3   OH279479   6.778   1.512   1.654 -0.2459 -0.1095 -0.4048
19355TIP3    H179480   6.809   1.543   1.569 -0.4694  0.3602 -0.3194
19355TIP3    H279481   6.845   1.450   1.683 -0.2788 -0.4422 -1.0226
19356TIP3   OH279482   3.881   2.761   1.099  0.1029 -0.1683  0.3703
19356TIP3    H179483   3.840   2.675   1.093 -0.2204 -0.0891  1.3103
19356TIP3    H279484   3.947   2.751   1.169  0.3503  0.2329  0.1977
19357TIP3   OH279485   5.997   0.274   3.443  0.0706  0.3872 -0.2392
19357TIP3    H179486   6.012   0.253   3.535  0.1538 -0.3880 -0.4199
19357TIP3    H279487   6.085   0.283   3.406  0.2167 -2.8190 -1.0001
19358TIP3   OH279488   4.990   3.107   3.185  0.0789  0.4777 -0.1112
19358TIP3    H179489   4.960   3.074   3.100 -1.2664  2.2778 -0.4038
19358TIP3    H279490   5.005   3.200   3.170  1.0709  0.5777  1.3256
19359TIP3   OH279491   2.686   5.789   1.901  0.5441 -0.2760  0.0827
19359TIP3    H179492   2.689   5.694   1.888  0.6165 -0.3963  0.9389
19359TIP3    H279493   2.595   5.813   1.883  0.1241 -0.7588  1.4376
19360TIP3   OH279494   4.885   4.294   0.490 -0.4344  0.1139  0.0677
19360TIP3    H179495   4.922   4.365   0.542  0.1819  1.3150 -1.9006
19360TIP3    H279496   4.837   4.338   0.420 -1.8933 -1.4402  0.0130
19361TIP3   OH279497   4.213   2.681   4.392 -0.0146 -0.6279  0.4001
19361TIP3    H179498   4.176   2.723   4.314 -0.4040  1.1299  1.4758
19361TIP3    H279499   4.209   2.748   4.460  1.2397 -1.7833  1.6935
19362TIP3   OH279500   1.450   1.265  13.144  0.2053 -0.1286 -0.3805
19362TIP3    H179501   1.430   1.171  13.138 -1.7744  0.2366 -0.2902
19362TIP3    H279502   1.516   1.279  13.076  0.2110 -1.4971 -0.6999
19363TIP3   OH279503   0.396   3.786  16.808  0.0548 -0.4547  0.2363
19363TIP3    H179504   0.454   3.762  16.735 -0.0442  0.5471 -0.1885
19363TIP3    H279505   0.318   3.733  16.794 -0.5517  0.7457 -1.2358
19364TIP3   OH279506   5.741   2.273   5.449 -0.1152  1.1609 -0.1697
19364TIP3    H179507   5.654   2.306   5.424  0.0962  1.4353 -0.5565
19364TIP3    H279508   5.769   2.331   5.520 -1.4741 -0.6943  2.0324
19365TIP3   OH279509   2.496   1.003   0.584 -0.7355 -0.5961  0.0625
19365TIP3    H179510   2.540   1.087   0.600 -2.0156  0.1282 -0.1254
19365TIP3    H279511   2.467   0.975   0.671 -0.8288 -0.5542  0.0445
19366TIP3   OH279512   1.257   0.857   4.974 -0.0974  0.2939 -0.2505
19366TIP3    H179513   1.282   0.787   4.914 -1.1274 -0.0421 -0.3102
19366TIP3    H279514   1.333   0.869   5.031 -0.0378 -1.1230 -0.0033
19367TIP3   OH279515   3.895   1.269   2.940 -0.7752 -0.1319  0.0356
19367TIP3    H179516   3.819   1.309   2.983 -2.0893 -2.0697 -0.3735
19367TIP3    H279517   3.970   1.307   2.986 -2.0505 -1.6651  3.8041
19368TIP3   OH279518   3.939   2.585  14.844  0.2640 -0.3276  0.1369
19368TIP3    H179519   4.032   2.579  14.867  0.2158 -0.4704  0.2974
19368TIP3    H279520   3.907   2.495  14.852  0.3572 -0.4676 -0.9752
19369TIP3   OH279521   5.835   4.381   4.687  0.2348 -0.1804 -0.4512
19369TIP3    H179522   5.895   4.326   4.738 -0.0155  1.6811  2.0696
19369TIP3    H279523   5.749   4.362   4.724 -0.0905  0.5843 -0.8068
19370TIP3   OH279524   1.670   2.009  15.890  0.0510 -0.1252  0.3833
19370TIP3    H179525   1.694   2.077  15.952 -2.8700 -0.1684  1.7142
19370TIP3    H279526   1.602   1.959  15.934 -0.6858 -1.4659 -2.0714
19371TIP3   OH279527   6.106   4.640  11.232  0.4963 -0.1641  0.5507
19371TIP3    H179528   6.113   4.548  11.257  0.6829 -0.1524  0.5449
19371TIP3    H279529   6.122   4.689  11.313 -2.6421 -0.1536  1.2687
19372TIP3   OH279530   1.703   1.415  14.180  0.0666  0.1751  0.3288
19372TIP3    H179531   1.786   1.416  14.131  0.0635 -1.2691  0.2721
19372TIP3    H279532   1.715   1.347  14.245 -1.2237 -0.3099  0.0777
19373TIP3   OH279533   3.235   4.506   5.281  0.2168 -0.2661 -0.5037
19373TIP3    H179534   3.313   4.474   5.325 -0.5046 -0.2762  0.8340
19373TIP3    H279535   3.259   4.593   5.248  1.0011 -0.5715 -0.7363
19374TIP3   OH279536   6.620   0.520  17.273  0.0839 -0.2090  0.0889
19374TIP3    H179537   6.668   0.571  17.207  0.0045 -0.6759 -0.3375
19374TIP3    H279538   6.666   0.437  17.276 -0.7661 -0.7147 -0.4157
19375TIP3   OH279539   5.471   0.778  14.991  0.1935 -0.5286 -0.8492
19375TIP3    H179540   5.388   0.782  15.038  0.7839 -2.3130  0.4802
19375TIP3    H279541   5.511   0.696  15.020  1.2972 -0.9855 -3.3871
19376TIP3   OH279542   2.029   2.085  15.183 -0.3572  0.6307  0.0143
19376TIP3    H179543   1.953   2.089  15.125  0.8404 -1.3655 -1.8151
19376TIP3    H279544   2.097   2.133  15.137  0.0358  0.8527  0.8017
19377TIP3   OH279545   6.084   2.988  12.482 -0.3485 -0.1586 -0.1633
19377TIP3    H179546   6.168   2.943  12.472 -0.0630  0.6657 -1.8612
19377TIP3    H279547   6.106   3.070  12.526 -0.7567 -1.2385  2.2052
19378TIP3   OH279548   4.422   2.465   5.607  0.1124  0.1023 -0.2586
19378TIP3    H179549   4.460   2.513   5.533 -1.4045  1.2468 -0.3362
19378TIP3    H279550   4.482   2.392   5.621  1.0287  0.4842 -1.9058
19379TIP3   OH279551   1.075   0.598   6.117  0.3428 -0.0595 -0.3245
19379TIP3    H179552   1.141   0.661   6.148 -0.1884  1.4418 -2.0896
19379TIP3    H279553   1.017   0.586   6.192  0.9878  0.8341  0.3518
19380TIP3   OH279554   3.339   4.116   5.148 -0.1478 -0.6450 -0.4201
19380TIP3    H179555   3.373   4.066   5.223 -2.3007 -1.4893  0.0832
19380TIP3    H279556   3.378   4.074   5.071  0.2357 -1.3189  0.1285
19381TIP3   OH279557   1.522   3.173   2.074 -0.3066 -0.1363 -0.4251
19381TIP3    H179558   1.487   3.119   2.145 -0.0402  0.5676  0.2558
19381TIP3    H279559   1.473   3.255   2.080  1.3811  0.8636  0.5427
19382TIP3   OH279560   5.802   5.224  15.746 -0.8782 -0.3362  0.3806
19382TIP3    H179561   5.812   5.211  15.652 -1.3470 -0.7385  0.3857
19382TIP3    H279562   5.873   5.284  15.769 -0.5978 -0.4429 -0.1814
19383TIP3   OH279563   3.398   0.637  12.497  0.2827  0.2521 -0.5960
19383TIP3    H179564   3.320   0.606  12.544  1.3663 -0.6576  0.6602
19383TIP3    H279565   3.419   0.721  12.537  1.2667 -0.5707  0.6852
19384TIP3   OH279566   4.131   4.446  14.323 -0.3211 -0.0914  0.5467
19384TIP3    H179567   4.097   4.529  14.357 -0.6138 -0.9543  2.4821
19384TIP3    H279568   4.202   4.472  14.264 -0.6998  1.5432  0.7587
19385TIP3   OH279569   1.767   2.570  16.890 -0.0532 -0.7108  0.3244
19385TIP3    H179570   1.855   2.591  16.859 -0.0310  0.2717  1.0081
19385TIP3    H279571   1.750   2.633  16.959 -1.1475 -1.1425  0.4751
19386TIP3   OH279572   0.297   6.181   3.884  0.3319 -0.0042  0.1138
19386TIP3    H179573   0.371   6.188   3.945  1.1275 -0.6453 -0.7475
19386TIP3    H279574   0.266   6.271   3.874 -0.5066  0.0034  2.2529
19387TIP3   OH279575   5.110   0.336   1.445  0.1093 -0.0187 -0.0369
19387TIP3    H179576   5.137   0.426   1.424  1.7638 -0.5691 -0.4531
19387TIP3    H279577   5.192   0.286   1.442 -0.9759 -1.8061 -1.1421
19388TIP3   OH279578   3.541   5.982  12.012  0.2709 -0.5596 -0.3009
19388TIP3    H179579   3.610   6.048  12.012  1.0524 -1.3637  0.5653
19388TIP3    H279580   3.464   6.029  11.980  0.3312  1.3065  2.0113
19389TIP3   OH279581   2.372   0.254   3.542 -0.1755  0.2556  0.5316
19389TIP3    H179582   2.365   0.341   3.581 -1.7162  1.3060 -1.8732
19389TIP3    H279583   2.449   0.216   3.583 -0.4124  2.0819  2.8773
19390TIP3   OH279584   4.100   3.019   5.951  0.1388 -0.4517  0.7833
19390TIP3    H179585   4.147   3.067   6.019  0.6576 -1.3461  1.0765
19390TIP3    H279586   4.144   3.045   5.870  1.7780 -1.9229  1.1311
19391TIP3   OH279587   1.963   4.594  14.248 -0.4738  0.1915 -0.1507
19391TIP3    H179588   2.045   4.626  14.209 -0.2120 -0.3210 -0.0243
19391TIP3    H279589   1.963   4.500  14.229 -1.1853  0.2462 -0.4213
19392TIP3   OH279590   6.515   5.901   0.697 -0.1076 -0.0214  0.4629
19392TIP3    H179591   6.487   5.852   0.620  0.9511  0.6383 -0.3629
19392TIP3    H279592   6.498   5.842   0.770 -0.7856 -0.8003 -0.2974
19393TIP3   OH279593   3.961   0.909   3.550  0.3883  0.2097  0.5426
19393TIP3    H179594   4.040   0.877   3.593  1.0892 -1.7014 -1.9681
19393TIP3    H279595   3.993   0.965   3.480 -0.3606 -1.1831 -0.9763
19394TIP3   OH279596   2.729   1.189   4.540  0.1403 -0.4275 -0.6094
19394TIP3    H179597   2.738   1.095   4.556 -0.5085 -0.6969 -1.7402
19394TIP3    H279598   2.649   1.197   4.489 -1.2765  1.0163  1.6758
19395TIP3   OH279599   1.693   5.395  16.954 -0.0365 -0.3419 -0.4303
19395TIP3    H179600   1.746   5.464  16.992 -0.4005 -0.3462  0.0842
19395TIP3    H279601   1.751   5.319  16.950 -0.6508 -1.0308  2.2962
19396TIP3   OH279602   1.162   3.162   5.402 -0.5818  0.5560 -0.2105
19396TIP3    H179603   1.252   3.185   5.379  0.1059 -0.6242  1.1543
19396TIP3    H279604   1.108   3.213   5.341  1.0373 -0.4126 -2.6064
19397TIP3   OH279605   4.691   1.982   5.796 -0.2720  0.6310 -0.0976
19397TIP3    H179606   4.615   1.927   5.772 -0.8658  1.7453 -0.8769
19397TIP3    H279607   4.747   1.924   5.847 -2.2925  0.1260  1.7177
19398TIP3   OH279608   0.750   5.489  16.387 -0.6654  0.4392 -0.1833
19398TIP3    H179609   0.796   5.564  16.350  2.3432 -0.9755  0.3587
19398TIP3    H279610   0.786   5.414  16.341 -1.4535 -0.8722  1.2505
19399TIP3   OH279611   4.758   1.088  10.936 -0.1986  0.0583 -0.1843
19399TIP3    H179612   4.807   1.166  10.909  0.8025 -1.6216 -3.9175
19399TIP3    H279613   4.671   1.100  10.898 -0.5474  0.0237  0.5854
19400TIP3   OH279614   4.043   6.419  11.057 -0.0785 -0.2382  0.3938
19400TIP3    H179615   4.104   6.366  11.108 -0.0025  0.3477  0.9259
19400TIP3    H279616   4.080   6.420  10.969  0.3351 -0.4224  0.5615
19401TIP3   OH279617   4.368   0.957   1.106  0.5074  0.0543  0.0572
19401TIP3    H179618   4.293   0.900   1.121  0.2058  0.4184 -0.0502
19401TIP3    H279619   4.363   1.021   1.177  0.6751  0.1216  0.0082
19402TIP3   OH279620   4.674   0.476  13.373  0.1053 -0.0836  0.1588
19402TIP3    H179621   4.716   0.391  13.363 -0.5274 -0.3816 -0.0349
19402TIP3    H279622   4.690   0.501  13.464 -1.0942 -1.1814  0.7172
19403TIP3   OH279623   3.427   5.291   1.415 -0.5684  0.0360 -0.1007
19403TIP3    H179624   3.428   5.200   1.446  2.7276 -0.2304 -0.5594
19403TIP3    H279625   3.384   5.286   1.330  0.5253 -1.3697 -0.6256
19404TIP3   OH279626   3.006   3.204  14.752 -0.0149  0.2633 -0.0864
19404TIP3    H179627   3.059   3.222  14.829 -1.0677  0.9369  0.5034
19404TIP3    H279628   2.938   3.143  14.783  1.6203 -2.3848 -1.3211
19405TIP3   OH279629   2.201   6.497   0.226  0.1429 -0.0313 -0.2718
19405TIP3    H179630   2.167   6.468   0.311 -1.8685 -0.7165 -1.2349
19405TIP3    H279631   2.145   6.571   0.202  1.1243  0.5868 -0.7241
19406TIP3   OH279632   6.733   2.156   5.128 -0.4684 -0.5886 -0.3599
19406TIP3    H179633   6.717   2.121   5.040  0.0143  1.2964 -1.2434
19406TIP3    H279634   6.789   2.090   5.170  0.5501 -0.8385 -2.0027
19407TIP3   OH279635   2.981   0.748  11.240 -0.6527 -0.0813  0.4331
19407TIP3    H179636   2.958   0.692  11.314 -0.8671  0.6649  0.9472
19407TIP3    H279637   2.901   0.797  11.220  0.0055  1.3713  1.2032
19408TIP3   OH279638   3.323   5.409  12.554  0.2523  0.1372 -0.4983
19408TIP3    H179639   3.395   5.406  12.617 -0.4219  0.1346  0.2856
19408TIP3    H279640   3.327   5.323  12.511  1.3866  0.5403 -1.2431
19409TIP3   OH279641   1.574   1.024  14.936  0.3377  0.3473  0.0555
19409TIP3    H179642   1.588   1.099  14.879 -0.7617 -0.3801 -1.2462
19409TIP3    H279643   1.638   1.034  15.006  2.0789  1.0369 -1.5465
19410TIP3   OH279644   4.411   3.401  15.100 -0.1885  0.2680  0.1960
19410TIP3    H179645   4.388   3.324  15.151  1.2411 -0.5574 -0.3416
19410TIP3    H279646   4.378   3.475  15.151  0.6441 -0.5566  2.0175
19411TIP3   OH279647   4.453   4.575   5.045 -0.6373  0.9566  0.3830
19411TIP3    H179648   4.430   4.483   5.043 -0.4484  0.9250 -0.5224
19411TIP3    H279649   4.369   4.621   5.044 -0.7107  0.8099 -0.4508
19412TIP3   OH279650   0.394   4.600  11.109 -0.3640 -0.0837  0.4166
19412TIP3    H179651   0.420   4.690  11.128  0.0295 -0.4409  1.6689
19412TIP3    H279652   0.450   4.573  11.037 -0.0301  0.4627  0.4652
19413TIP3   OH279653   5.731   3.386   1.847 -0.0065 -0.0474 -0.1231
19413TIP3    H179654   5.747   3.429   1.763 -0.0738  1.8039  0.7638
19413TIP3    H279655   5.645   3.344   1.836 -1.3898  2.5735 -0.1242
19414TIP3   OH279656   2.212   4.301  12.834 -0.1414 -0.0563  0.5138
19414TIP3    H179657   2.194   4.233  12.769 -1.1650 -0.7780  1.5259
19414TIP3    H279658   2.130   4.312  12.881  0.4031  0.9179  1.2648
19415TIP3   OH279659   1.061   3.988  15.738 -0.4935 -0.1523 -0.5958
19415TIP3    H179660   1.068   3.892  15.740 -0.4952 -0.1722  1.7990
19415TIP3    H279661   0.967   4.005  15.736 -0.6170 -0.2921  1.4570
19416TIP3   OH279662   2.359   3.543  16.867 -0.4629  0.3192 -0.0747
19416TIP3    H179663   2.401   3.613  16.917 -1.2150  0.3370  0.5600
19416TIP3    H279664   2.269   3.574  16.854 -0.8831 -0.6354  0.4493
19417TIP3   OH279665   2.956   0.011   2.500  0.1453  0.7566 -0.0082
19417TIP3    H179666   3.024   0.052   2.446  0.6123 -1.4558 -1.2246
19417TIP3    H279667   2.874   0.047   2.468  0.6264  2.1260  0.2553
19418TIP3   OH279668   2.018   0.288  12.342 -0.2260  0.6375  0.2176
19418TIP3    H179669   1.951   0.242  12.393  0.0924 -0.5389 -0.3712
19418TIP3    H279670   2.100   0.270  12.389 -0.1440  0.9143  0.1819
19419TIP3   OH279671   2.216   6.664  13.875 -0.1386  0.1371  0.0870
19419TIP3    H179672   2.153   6.732  13.898 -0.7278 -0.0861 -0.8021
19419TIP3    H279673   2.167   6.605  13.817  1.4463  1.1377 -2.4376
19420TIP3   OH279674   0.977   1.151  13.353  0.3128  0.0782  0.3746
19420TIP3    H179675   0.912   1.181  13.290 -1.4965 -0.3108  1.9553
19420TIP3    H279676   1.051   1.210  13.342  0.3874 -0.4397 -2.5719
19421TIP3   OH279677   4.460   5.340   0.998 -0.0391  0.2372  0.7599
19421TIP3    H179678   4.424   5.256   1.025  1.2065 -0.4941  0.2096
19421TIP3    H279679   4.398   5.374   0.934  0.4693 -1.2652 -0.6022
19422TIP3   OH279680   3.396   2.685  13.039 -0.3696  0.6553 -0.4796
19422TIP3    H179681   3.474   2.635  13.013 -0.5629  0.5664 -0.8963
19422TIP3    H279682   3.373   2.735  12.961  0.2148  1.9235  0.1301
19423TIP3   OH279683   6.437   3.541   1.859 -0.1961  0.1985 -0.0034
19423TIP3    H179684   6.425   3.497   1.943 -0.9523 -0.4954 -0.4460
19423TIP3    H279685   6.502   3.609   1.875 -0.4033  0.1370  1.1584
19424TIP3   OH279686   6.355   2.405   5.077 -0.0068  0.6015  0.2673
19424TIP3    H179687   6.435   2.418   5.026  2.2033  1.7731  3.6852
19424TIP3    H279688   6.340   2.311   5.076  0.9431  0.4460 -1.1107
19425TIP3   OH279689   0.357   5.110  15.399 -0.0502  0.2830 -0.0593
19425TIP3    H179690   0.265   5.090  15.378  0.6428 -0.3148 -2.9099
19425TIP3    H279691   0.385   5.168  15.329  2.2880 -1.1181 -0.3870
19426TIP3   OH279692   6.708   6.606   4.385  0.1339  0.4979  0.1128
19426TIP3    H179693   6.797   6.607   4.419  0.1358 -0.1670  0.1359
19426TIP3    H279694   6.691   6.697   4.360  0.1862  0.9858  1.7426
19427TIP3   OH279695   1.371   4.398  13.244 -0.4599 -0.0788 -0.2658
19427TIP3    H179696   1.388   4.443  13.161 -1.0357  0.9613  0.1613
19427TIP3    H279697   1.394   4.462  13.311 -1.8101 -0.2080  0.3506
19428TIP3   OH279698   0.953   6.312  13.201  0.3778 -0.7649 -0.3816
19428TIP3    H179699   0.933   6.401  13.231  0.8783  0.2371 -2.7734
19428TIP3    H279700   1.046   6.300  13.220  0.2549 -0.8761  0.1553
19429TIP3   OH279701   2.998   2.041  14.559  0.5716  0.3452 -0.3454
19429TIP3    H179702   2.987   1.985  14.636  0.0227  0.5882 -0.2466
19429TIP3    H279703   2.928   2.106  14.565  1.9990  1.8887  0.2577
19430TIP3   OH279704   4.725   6.338   4.316  0.2190 -0.2187 -0.0552
19430TIP3    H179705   4.768   6.419   4.342 -0.7376  0.1338  0.4607
19430TIP3    H279706   4.788   6.269   4.339  0.0651  0.1994  1.7904
19431TIP3   OH279707   2.029   4.265   5.614  0.6065 -0.4640  0.1233
19431TIP3    H179708   2.025   4.258   5.518 -0.2208  3.2043 -0.2509
19431TIP3    H279709   2.123   4.266   5.634  0.7995 -2.2615 -0.4513
19432TIP3   OH279710   2.326   5.413  14.999 -0.4764 -0.4934 -0.5690
19432TIP3    H179711   2.411   5.433  15.039 -1.7238 -0.3113  2.2294
19432TIP3    H279712   2.327   5.318  14.987 -0.1267 -0.5983  0.1933
19433TIP3   OH279713   5.510   4.932   5.413 -0.3496  0.4762  0.2525
19433TIP3    H179714   5.474   4.910   5.327  1.2052 -1.9949  0.1253
19433TIP3    H279715   5.585   4.989   5.394 -0.6392  0.8036  0.0736
19434TIP3   OH279716   0.613   6.367  13.388  0.2596  0.0248 -0.4451
19434TIP3    H179717   0.524   6.379  13.355  0.0827  0.7164  0.2505
19434TIP3    H279718   0.666   6.354  13.309 -0.8466 -3.5260 -0.7621
19435TIP3   OH279719   0.779   5.172   5.322 -0.1034  0.4588  0.7875
19435TIP3    H179720   0.855   5.163   5.379 -0.1149  1.7524  1.0223
19435TIP3    H279721   0.812   5.217   5.244 -0.0076 -1.5798 -0.4421
19436TIP3   OH279722   1.223   5.036   6.326  0.5788  0.1229  0.1741
19436TIP3    H179723   1.288   5.104   6.312 -0.1888  0.7401 -0.5829
19436TIP3    H279724   1.271   4.962   6.362  1.4781  0.9715  0.7383
19437TIP3   OH279725   6.164   2.707   3.744  0.3594  0.0569  0.0387
19437TIP3    H179726   6.178   2.762   3.822 -0.3257  2.2086 -1.2548
19437TIP3    H279727   6.075   2.674   3.754  0.6988 -0.6669  0.7306
19438TIP3   OH279728   6.702   4.231   0.504  0.6797 -0.3533  0.1318
19438TIP3    H179729   6.755   4.175   0.560  1.4532  0.2812  0.0541
19438TIP3    H279730   6.619   4.240   0.551  0.9801 -0.5892  0.7172
19439TIP3   OH279731   3.574   5.956  11.509  0.0077  0.7687 -0.2296
19439TIP3    H179732   3.485   5.990  11.509 -0.3699 -0.1683  0.4106
19439TIP3    H279733   3.578   5.897  11.434  0.1308  0.9316 -0.3497
19440TIP3   OH279734   4.771   5.623   6.124  0.4236  0.8883  0.7673
19440TIP3    H179735   4.755   5.556   6.189 -1.4090  0.6790  0.1742
19440TIP3    H279736   4.776   5.576   6.041 -0.7020  1.4337  0.3652
19441TIP3   OH279737   4.434   3.574   3.367 -0.2363  0.6241  0.0399
19441TIP3    H179738   4.475   3.487   3.361 -3.4768 -1.0302 -0.3652
19441TIP3    H279739   4.432   3.593   3.460  1.2946  0.7434  0.0793
19442TIP3   OH279740   4.847   4.344  13.469  0.2655 -0.1846  0.7309
19442TIP3    H179741   4.897   4.266  13.492  1.6076  0.4904  0.2256
19442TIP3    H279742   4.913   4.413  13.460 -0.5568  0.4154 -1.4553
19443TIP3   OH279743   2.487   5.685   4.313  0.2849 -0.3781 -0.0618
19443TIP3    H179744   2.423   5.639   4.366 -0.0670  0.7575  0.5298
19443TIP3    H279745   2.478   5.647   4.226  0.4226 -1.8123  0.5207
19444TIP3   OH279746   0.472   5.637   4.788  0.0565 -0.4016 -0.3365
19444TIP3    H179747   0.567   5.626   4.792  0.2187  0.5053 -1.3111
19444TIP3    H279748   0.459   5.714   4.732 -1.2425 -0.3366  0.0274
19445TIP3   OH279749   2.836   0.683  14.686  0.3212 -0.3619  0.6501
19445TIP3    H179750   2.865   0.692  14.596 -0.5945  0.0738  0.3808
19445TIP3    H279751   2.747   0.719  14.686  0.2577 -0.4840  1.6933
19446TIP3   OH279752   5.902   0.561   3.311 -0.6386 -0.6121  0.9573
19446TIP3    H179753   5.955   0.635   3.282 -1.7140  0.6064  1.9334
19446TIP3    H279754   5.965   0.493   3.332  0.3502 -0.1837 -0.5025
19447TIP3   OH279755   1.940   0.285  16.084 -0.2973 -0.3715  0.2558
19447TIP3    H179756   1.861   0.299  16.032  0.7054  2.8640 -0.6247
19447TIP3    H279757   1.976   0.372  16.099  0.9922 -1.3498  4.1520
19448TIP3   OH279758   3.191   5.546  15.480 -0.1454 -0.1818  0.3420
19448TIP3    H179759   3.254   5.581  15.543 -0.6339  1.5741 -0.0766
19448TIP3    H279760   3.236   5.549  15.396 -0.3639 -0.0809  0.2274
19449TIP3   OH279761   1.536   5.916   3.641  0.0378 -0.7172  0.3296
19449TIP3    H179762   1.552   5.924   3.547 -0.4189 -0.8953  0.2334
19449TIP3    H279763   1.562   6.001   3.676  0.4802 -0.7472  0.0835
19450TIP3   OH279764   3.276   3.238  12.226  0.2235  0.0093  0.1566
19450TIP3    H179765   3.249   3.326  12.254 -1.3476 -0.4852  0.2871
19450TIP3    H279766   3.194   3.192  12.209  1.0515 -0.9539 -1.4682
19451TIP3   OH279767   1.252   0.234  15.344  0.4535 -0.4853 -0.9091
19451TIP3    H179768   1.156   0.240  15.342  0.4153 -1.1500 -1.2133
19451TIP3    H279769   1.271   0.171  15.414  0.6987  0.1145 -0.4241
19452TIP3   OH279770   1.728   0.101  11.030  0.2181 -0.5522 -0.1960
19452TIP3    H179771   1.675   0.088  10.951  2.3132  0.9989 -1.9884
19452TIP3    H279772   1.791   0.029  11.028 -1.7276 -2.4237  1.9535
19453TIP3   OH279773   1.151   5.993   0.723 -0.3324 -0.4991  0.0025
19453TIP3    H179774   1.198   5.909   0.721  0.4148 -0.0905  0.1762
19453TIP3    H279775   1.118   6.003   0.633 -3.2451 -2.5178  0.7036
19454TIP3   OH279776   4.294   4.445  15.484 -0.5565 -0.2815  0.1244
19454TIP3    H179777   4.247   4.521  15.518 -1.2426  0.0466 -1.4831
19454TIP3    H279778   4.269   4.373  15.542  0.1981  0.6924  1.7536
19455TIP3   OH279779   2.904   3.669  12.020  0.5243  0.1375 -0.4064
19455TIP3    H179780   2.903   3.574  12.013 -1.0826  0.1183 -0.2995
19455TIP3    H279781   2.943   3.686  12.106 -0.5158 -0.4986  0.2104
19456TIP3   OH279782   6.252   1.254   4.014 -0.5317 -0.1076  0.0839
19456TIP3    H179783   6.275   1.319   4.080 -0.9613 -1.3428  1.4874
19456TIP3    H279784   6.323   1.259   3.950 -1.1177  2.5048 -0.4658
19457TIP3   OH279785   0.745   0.761   1.721  0.4623 -0.3519 -0.5244
19457TIP3    H179786   0.839   0.766   1.700  0.2187 -0.7885 -1.8183
19457TIP3    H279787   0.705   0.727   1.641 -0.6819 -1.1440  0.3630
19458TIP3   OH279788   2.265   6.345  16.445  0.2663  0.2175 -0.5269
19458TIP3    H179789   2.213   6.370  16.522 -0.6699  1.3630 -1.4912
19458TIP3    H279790   2.280   6.427  16.399  1.1739 -0.4033 -1.3674
19459TIP3   OH279791   0.465   2.408  15.509 -0.1850 -0.1410  0.3626
19459TIP3    H179792   0.517   2.333  15.480  1.7333  0.6261  1.6474
19459TIP3    H279793   0.472   2.470  15.436 -0.1557 -0.4265  0.1161
19460TIP3   OH279794   2.249   0.641  15.775 -0.3765 -0.0860  0.4595
19460TIP3    H179795   2.172   0.687  15.743 -1.1072 -2.1985 -1.0705
19460TIP3    H279796   2.288   0.601  15.697  1.6543  0.0198  1.3478
19461TIP3   OH279797   1.658   0.151  12.201 -0.4367  0.6238  0.1474
19461TIP3    H179798   1.607   0.073  12.223  1.9798 -1.5660 -1.2526
19461TIP3    H279799   1.692   0.182  12.284 -2.7407  1.2358  0.9189
19462TIP3   OH279800   5.726   4.031  14.976 -0.1576  0.0618 -0.7711
19462TIP3    H179801   5.679   3.960  14.933  0.6486 -1.7320  1.1172
19462TIP3    H279802   5.810   4.035  14.931  0.4050 -1.3133  0.0809
19463TIP3   OH279803   6.360   5.678   6.380 -0.2517 -0.0583 -0.2061
19463TIP3    H179804   6.302   5.610   6.347 -1.4073  0.4460  0.7319
19463TIP3    H279805   6.369   5.660   6.473  2.5052 -1.1145 -0.5638
19464TIP3   OH279806   0.477   6.249  12.153 -0.1752 -0.1992 -0.7917
19464TIP3    H179807   0.539   6.322  12.143  1.6338 -1.7558 -1.7110
19464TIP3    H279808   0.412   6.264  12.084 -0.3647  1.0166 -0.3709
19465TIP3   OH279809   5.407   2.890   0.961  0.2799  0.2985  0.2115
19465TIP3    H179810   5.336   2.876   0.898 -0.4515 -0.1473  1.1180
19465TIP3    H279811   5.459   2.810   0.956  0.3615  0.3632  0.0056
19466TIP3   OH279812   0.236   0.649   3.192 -0.3921  0.7131  0.2779
19466TIP3    H179813   0.153   0.645   3.240  0.3500  1.2704  1.6539
19466TIP3    H279814   0.296   0.691   3.252  1.1910 -0.6659 -0.2628
19467TIP3   OH279815   6.358   0.844   6.629  0.1921  0.0454  0.0756
19467TIP3    H179816   6.349   0.917   6.567 -1.8566  0.4102  0.7073
19467TIP3    H279817   6.424   0.874   6.691  0.7264  0.5718 -0.7236
19468TIP3   OH279818   3.031   4.981  15.105  0.6383  0.1411  0.4101
19468TIP3    H179819   3.111   4.929  15.106 -0.5452 -1.7704  1.0200
19468TIP3    H279820   2.962   4.919  15.079 -0.7804  1.4948  0.7832
19469TIP3   OH279821   2.944   3.759  15.810 -0.3766  0.3948 -0.4193
19469TIP3    H179822   2.932   3.836  15.865 -2.3424 -0.8711  1.0748
19469TIP3    H279823   2.980   3.693  15.869 -0.8108 -0.4746 -1.1024
19470TIP3   OH279824   3.266   0.882  15.214  0.3317  0.2705  0.0242
19470TIP3    H179825   3.321   0.911  15.142  2.2014 -0.7738  0.9813
19470TIP3    H279826   3.314   0.908  15.293 -1.1375  0.4060  0.9143
19471TIP3   OH279827   3.029   2.674  11.696 -0.4047 -0.0694  0.4966
19471TIP3    H179828   2.939   2.707  11.693  0.2587  1.7834 -0.8446
19471TIP3    H279829   3.037   2.620  11.617  0.3271  1.8129 -0.7894
19472TIP3   OH279830   6.709   0.058  12.166 -0.3918  0.5227 -0.1650
19472TIP3    H179831   6.636  -0.001  12.187  0.4885 -0.5200  0.0206
19472TIP3    H279832   6.780   0.030  12.223  1.1575 -0.4990 -2.4782
19473TIP3   OH279833   5.474   5.890  17.221  0.1248 -0.4563  0.1517
19473TIP3    H179834   5.497   5.947  17.147  0.5635 -1.4824 -0.5250
19473TIP3    H279835   5.381   5.906  17.235 -0.1400 -0.7783 -1.1068
19474TIP3   OH279836   6.733   5.953   3.936  0.6344  0.4485 -0.0526
19474TIP3    H179837   6.741   5.884   3.870 -1.2001 -0.6830  0.8490
19474TIP3    H279838   6.799   5.931   4.002  0.9616  0.3346 -0.4106
19475TIP3   OH279839   5.543   5.112   3.754  0.1827  0.0568 -0.1332
19475TIP3    H179840   5.450   5.097   3.741 -0.2033  1.1178  1.1176
19475TIP3    H279841   5.586   5.050   3.696 -1.2922 -0.9771 -0.1773
19476TIP3   OH279842   5.117   0.609   1.358  0.0589 -0.0997 -0.1196
19476TIP3    H179843   5.201   0.624   1.313 -0.0707  1.3663  0.0576
19476TIP3    H279844   5.051   0.633   1.293 -0.2375 -1.3750 -0.3009
19477TIP3   OH279845   4.394   1.425   5.598 -0.2735  0.7463  0.3049
19477TIP3    H179846   4.348   1.365   5.540  0.6886  0.0994  0.1897
19477TIP3    H279847   4.424   1.496   5.541  1.6944 -0.4719 -0.2556
19478TIP3   OH279848   5.425   0.555   5.169  0.1534  0.1842 -0.2030
19478TIP3    H179849   5.469   0.471   5.159  0.4148  0.2880  0.0572
19478TIP3    H279850   5.394   0.556   5.260 -1.3183 -0.3314 -0.6687
19479TIP3   OH279851   4.041   1.931   6.303 -0.5690 -0.3930  0.2414
19479TIP3    H179852   4.080   1.845   6.317  1.8676  0.4222 -1.0226
19479TIP3    H279853   3.961   1.913   6.253 -0.3908 -1.9254  0.4556
19480TIP3   OH279854   4.859   4.726   2.411  0.3278  0.0857 -0.0110
19480TIP3    H179855   4.789   4.677   2.368 -0.5708  0.6895  0.7502
19480TIP3    H279856   4.873   4.803   2.355 -0.7120  0.7749  0.6622
19481TIP3   OH279857   2.983   1.800  13.242 -0.4553 -0.0352  0.2175
19481TIP3    H179858   2.957   1.835  13.157 -0.2348 -0.3439  0.0187
19481TIP3    H279859   3.045   1.865  13.277 -1.5119  0.7282  0.7176
19482TIP3   OH279860   6.432   4.035   3.401 -0.3761 -0.2947 -0.2554
19482TIP3    H179861   6.510   4.084   3.426 -0.8703  0.4853 -0.2023
19482TIP3    H279862   6.363   4.101   3.397 -1.5549 -1.2777  1.9696
19483TIP3   OH279863   1.755   0.021  15.969  0.4073  0.0460  0.2181
19483TIP3    H179864   1.697  -0.027  16.029  0.7890  0.6988  1.1179
19483TIP3    H279865   1.786  -0.046  15.908  1.1224 -0.9171  1.6013
19484TIP3   OH279866   1.830   2.046   5.684 -0.4274 -0.2458 -0.4015
19484TIP3    H179867   1.888   1.997   5.742 -0.6148 -1.2003 -0.9842
19484TIP3    H279868   1.786   1.978   5.632 -0.2298  0.5785 -1.6833
19485TIP3   OH279869   1.231   3.705   6.376 -0.2278  0.2381 -0.1159
19485TIP3    H179870   1.262   3.653   6.450 -1.2140  0.2044  0.2849
19485TIP3    H279871   1.311   3.744   6.340  0.0588  2.9032  2.9368
19486TIP3   OH279872   6.503   2.913   5.960  0.0285  0.3385 -0.1525
19486TIP3    H179873   6.531   2.971   6.030  0.4464 -0.2475  0.1706
19486TIP3    H279874   6.582   2.895   5.910  0.2252 -1.1615  0.6441
19487TIP3   OH279875   3.852   0.401   2.485  0.1579 -0.2560  0.2043
19487TIP3    H179876   3.920   0.378   2.549  1.2461  0.1341 -0.7878
19487TIP3    H279877   3.769   0.381   2.530  0.9381 -1.6413  1.0791
19488TIP3   OH279878   4.770   5.075  16.256 -0.3411  0.0200 -0.1672
19488TIP3    H179879   4.754   5.140  16.325 -0.4918 -0.6118  0.3992
19488TIP3    H279880   4.785   5.128  16.177  0.0859  0.7597  0.3962
19489TIP3   OH279881   5.009   0.253  12.903  0.4837  0.1852  0.2036
19489TIP3    H179882   5.018   0.240  12.809 -2.0874  1.1329 -0.2589
19489TIP3    H279883   5.087   0.302  12.929  0.7680  0.7305 -1.6094
19490TIP3   OH279884   1.847   4.863   3.876  0.0166  0.0425  0.5323
19490TIP3    H179885   1.760   4.840   3.841 -0.1156 -0.5111  1.2061
19490TIP3    H279886   1.838   4.854   3.971  1.3225 -1.8757  0.5221
19491TIP3   OH279887   3.026   6.477   2.772  0.4933  0.0363 -0.1926
19491TIP3    H179888   3.095   6.543   2.765 -0.0443  0.6880  0.4826
19491TIP3    H279889   2.958   6.519   2.824 -0.8487 -0.2494 -1.6430
19492TIP3   OH279890   2.972   3.028   4.328 -0.6184 -0.0873 -0.2247
19492TIP3    H179891   3.029   3.014   4.253  0.6888  0.1734  0.6848
19492TIP3    H279892   3.029   3.066   4.395 -1.6705 -0.5704  0.9976
19493TIP3   OH279893   0.699   0.466   4.474  0.3137 -0.0564 -0.3822
19493TIP3    H179894   0.741   0.458   4.388  2.3933 -2.6952  0.7272
19493TIP3    H279895   0.653   0.384   4.486 -1.7829  1.1335  0.2270
19494TIP3   OH279896   5.193   1.019   0.662  0.4111  0.5091 -0.5353
19494TIP3    H179897   5.210   0.943   0.606  3.6700  1.3114 -0.8049
19494TIP3    H279898   5.098   1.031   0.658  0.0195 -2.3687 -1.9956
19495TIP3   OH279899   3.216   5.134  12.654 -0.2700 -0.3337  0.5557
19495TIP3    H179900   3.273   5.101  12.723  1.4189  0.5553 -0.3464
19495TIP3    H279901   3.261   5.112  12.573 -0.5084  1.5719 -0.1576
19496TIP3   OH279902   1.492   1.587  12.189  0.4612 -0.1482  0.1485
19496TIP3    H179903   1.551   1.595  12.114 -0.2807 -1.1970 -0.5626
19496TIP3    H279904   1.537   1.527  12.249  0.5256 -0.2252  0.0232
19497TIP3   OH279905   6.779   3.563  14.334  0.2389 -0.1008  0.3134
19497TIP3    H179906   6.719   3.495  14.302 -0.0766  1.1854 -2.1032
19497TIP3    H279907   6.726   3.614  14.395 -0.4329 -0.3289 -0.0620
19498TIP3   OH279908   0.313   0.415   3.552 -0.2998  0.4359  0.2375
19498TIP3    H179909   0.385   0.376   3.602 -0.6039 -1.1821 -0.5064
19498TIP3    H279910   0.239   0.356   3.567 -0.6904  0.5205 -1.2316
19499TIP3   OH279911   4.113   5.467  12.172  0.3914  0.0926  0.0592
19499TIP3    H179912   4.150   5.550  12.200 -0.1551  0.6741 -0.9108
19499TIP3    H279913   4.026   5.464  12.212  0.4583 -0.0697  0.1952
19500TIP3   OH279914   2.325   1.033  13.231  0.4171  0.4434 -0.4816
19500TIP3    H179915   2.416   1.062  13.224  0.1778  1.3556  0.0763
19500TIP3    H279916   2.282   1.071  13.155 -0.0617  2.2381  0.6441
19501TIP3   OH279917   5.983   0.751   5.086  0.2849  0.1853 -0.0192
19501TIP3    H179918   6.002   0.688   5.016 -1.4840 -1.1124  0.5831
19501TIP3    H279919   5.941   0.824   5.042  4.1978  2.0699 -1.0392
19502TIP3   OH279920   4.201   5.308   5.046  0.0695 -0.1847 -0.1530
19502TIP3    H179921   4.160   5.277   5.127  0.4548 -0.6073 -0.1128
19502TIP3    H279922   4.160   5.393   5.029  0.2767  0.0979  0.7068
19503TIP3   OH279923   1.877   5.641  12.034 -0.1708 -0.5825  0.3949
19503TIP3    H179924   1.822   5.587  12.090  0.4089 -0.7549  0.8014
19503TIP3    H279925   1.904   5.715  12.089  1.1835 -1.2450  0.6665
19504TIP3   OH279926   2.954   4.806   0.707 -0.6934 -0.0110 -0.0887
19504TIP3    H179927   2.993   4.739   0.763  1.6564  0.3874 -1.1409
19504TIP3    H279928   2.944   4.763   0.622 -0.6301  0.5058 -0.3641
19505TIP3   OH279929   1.759   1.347   5.078 -0.2150  0.2014  0.7678
19505TIP3    H179930   1.854   1.358   5.084 -0.2170  0.6143  0.1422
19505TIP3    H279931   1.724   1.431   5.107 -0.3311  0.6832 -0.6798
19506TIP3   OH279932   3.001   3.871  15.152  0.6576  0.1486  0.0491
19506TIP3    H179933   3.027   3.876  15.244  0.7038  0.4306  0.0199
19506TIP3    H279934   3.083   3.863  15.104  0.9657  3.7890 -0.2708
19507TIP3   OH279935   4.203   0.614  12.893 -0.3567 -0.2061 -0.9624
19507TIP3    H179936   4.281   0.560  12.898 -0.3989 -0.1939 -0.0406
19507TIP3    H279937   4.163   0.607  12.979 -0.7719  0.6782 -1.0697
19508TIP3   OH279938   5.468   3.758  12.293  0.3558 -0.3836  0.0284
19508TIP3    H179939   5.505   3.841  12.264  1.9076 -1.0838 -0.0908
19508TIP3    H279940   5.382   3.755  12.252  0.9182  0.4408 -1.2845
19509TIP3   OH279941   3.708   0.643   4.425 -0.2408  0.4262 -0.1265
19509TIP3    H179942   3.727   0.717   4.483  3.0546 -1.2250  1.2028
19509TIP3    H279943   3.623   0.610   4.455 -0.0536  1.4768  1.7564
19510TIP3   OH279944   5.401   2.019  17.119 -0.2586 -0.0451 -0.0271
19510TIP3    H179945   5.350   2.020  17.200  0.5936  1.2707  0.5229
19510TIP3    H279946   5.370   2.094  17.069 -0.4831 -0.6035 -0.7597
19511TIP3   OH279947   2.265   6.292  15.403 -0.3417 -0.2255 -0.0068
19511TIP3    H179948   2.219   6.368  15.439 -2.1560 -0.9121 -0.7445
19511TIP3    H279949   2.261   6.226  15.473  3.9322  1.1914  1.8772
19512TIP3   OH279950   6.004   0.395  12.951 -0.0006  0.2750 -0.2157
19512TIP3    H179951   6.068   0.466  12.943 -1.9036  2.1774  0.3855
19512TIP3    H279952   6.043   0.322  12.904  1.6904  1.9817 -1.6352
19513TIP3   OH279953   1.632   2.427  15.909 -0.4375  0.3897 -0.0671
19513TIP3    H179954   1.721   2.439  15.876 -0.5281 -0.5931 -0.7083
19513TIP3    H279955   1.641   2.374  15.988 -0.3890  1.0500  0.3786
19514TIP3   OH279956   6.605   2.274  14.616  0.0052  0.7787  0.0307
19514TIP3    H179957   6.675   2.280  14.552 -1.3686  0.7492 -1.5512
19514TIP3    H279958   6.595   2.180  14.632 -0.3930  0.7102 -0.5928
19515TIP3   OH279959   1.378   2.881   1.450 -0.4962 -0.2837 -0.5679
19515TIP3    H179960   1.464   2.839   1.452  0.7338  2.0509  1.6230
19515TIP3    H279961   1.396   2.973   1.430 -2.3055  0.5139  1.0490
19516TIP3   OH279962   5.071   5.123  14.597 -0.0604  0.1589 -0.2332
19516TIP3    H179963   5.031   5.133  14.511  2.2528 -2.0899 -1.7169
19516TIP3    H279964   5.159   5.089  14.579  0.4973 -0.4730  3.0355
19517TIP3   OH279965   3.530   6.581  10.052  0.1245 -0.4346  0.4667
19517TIP3    H179966   3.589   6.632   9.995 -0.2394  1.2670  1.5475
19517TIP3    H279967   3.567   6.592  10.140 -1.5258  0.3016  1.1017
19518TIP3   OH279968   0.507   2.277  11.765  0.5795 -0.3825 -0.8072
19518TIP3    H179969   0.517   2.325  11.847  0.6334 -0.0408 -1.0089
19518TIP3    H279970   0.549   2.334  11.699 -0.8674  0.1116 -1.3485
19519TIP3   OH279971   2.946   5.424  13.324  0.0646 -1.0654  0.3731
19519TIP3    H179972   2.880   5.436  13.393  0.0473  0.5752  0.1000
19519TIP3    H279973   2.917   5.345  13.278 -2.0399 -0.1314 -0.0530
19520TIP3   OH279974   3.294   6.275  13.896  0.6928  0.8317 -0.2171
19520TIP3    H179975   3.245   6.277  13.979  0.9887  0.4356 -0.0292
19520TIP3    H279976   3.367   6.334  13.911  0.4780  1.1357 -0.3666
19521TIP3   OH279977   0.342   1.955   1.815  0.4981 -0.7336 -0.0383
19521TIP3    H179978   0.285   1.891   1.773 -1.0516  0.2527  0.4560
19521TIP3    H279979   0.335   2.033   1.760  1.2304 -0.5311  0.1450
19522TIP3   OH279980   3.821   5.706   0.086  0.5137 -0.2354 -0.4044
19522TIP3    H179981   3.761   5.632   0.097  1.2517 -0.9243 -0.9204
19522TIP3    H279982   3.855   5.697  -0.003  0.0797  1.1440 -0.7405
19523TIP3   OH279983   4.980   6.438  17.223 -0.5771 -0.1522  0.3431
19523TIP3    H179984   4.929   6.467  17.298 -1.0236  0.0689 -0.0397
19523TIP3    H279985   5.006   6.348  17.244 -0.8559 -0.1541  0.6772
19524TIP3   OH279986   0.615   0.184   1.091 -0.3415 -0.4081  0.5522
19524TIP3    H179987   0.694   0.218   1.049  0.1326 -3.0656 -0.9765
19524TIP3    H279988   0.631   0.192   1.185  0.3285  1.9944  0.2954
19525TIP3   OH279989   5.019   5.574   2.955  0.0488  0.1815 -0.3630
19525TIP3    H179990   5.012   5.668   2.941  0.7922  0.7354  2.3848
19525TIP3    H279991   4.942   5.537   2.913  0.2551  1.8749 -2.3357
19526TIP3   OH279992   1.509   1.777   0.635  0.0213 -0.1020 -0.5637
19526TIP3    H179993   1.513   1.683   0.615 -1.1114 -0.2019 -0.4075
19526TIP3    H279994   1.480   1.781   0.726  2.5804  0.3968  0.3263
19527TIP3   OH279995   4.626   1.870  13.847 -0.1043  0.0416 -0.1922
19527TIP3    H179996   4.579   1.800  13.802 -0.5165  0.3747 -0.2920
19527TIP3    H279997   4.603   1.949  13.798 -1.4964  0.6019  1.2457
19528TIP3   OH279998   5.350   6.367  11.238  0.4834 -0.1643 -0.1899
19528TIP3    H179999   5.428   6.335  11.283  0.2870 -0.5976 -0.1554
19528TIP3    H280000   5.295   6.403  11.307  0.6750  0.1836 -0.2200
19529TIP3   OH280001   3.549   1.862  13.867  0.0934  0.8809  0.3985
19529TIP3    H180002   3.612   1.904  13.808 -0.2781  1.1673  0.2072
19529TIP3    H280003   3.550   1.769  13.841  0.3171  0.9128  0.2905
19530TIP3   OH280004   0.398   0.586  14.705  0.4999  0.3975 -0.4591
19530TIP3    H180005   0.490   0.593  14.683  0.3773 -0.2461 -1.2254
19530TIP3    H280006   0.367   0.676  14.712  1.4337  0.6401  0.9354
19531TIP3   OH280007   5.134   0.662  11.481 -0.3355 -0.2254 -0.3385
19531TIP3    H180008   5.140   0.678  11.575 -0.5831  0.5942 -0.4481
19531TIP3    H280009   5.121   0.568  11.473  0.8510 -0.4615  0.3860
19532TIP3   OH280010   0.068   3.244   2.186  0.2004 -0.1647 -0.1828
19532TIP3    H180011   0.158   3.211   2.197  0.1022 -0.2024  0.5538
19532TIP3    H280012   0.020   3.170   2.147  0.6227  0.0648 -1.1841
19533TIP3   OH280013   1.122   3.316   0.501  0.0821  0.1399  0.3011
19533TIP3    H180014   1.138   3.276   0.415 -0.9961 -1.5693  0.8265
19533TIP3    H280015   1.195   3.286   0.555 -0.3220 -0.5257  0.4937
19534TIP3   OH280016   0.365   4.876  10.450 -0.1371  0.8296  0.1136
19534TIP3    H180017   0.281   4.870  10.495 -0.4143  1.3598 -0.3268
19534TIP3    H280018   0.392   4.785  10.438 -0.0482  0.6753  1.3535
19535TIP3   OH280019   0.450   0.717  16.570  0.1715  0.3055  0.1778
19535TIP3    H180020   0.481   0.636  16.530 -0.6414  0.3987 -0.6697
19535TIP3    H280021   0.373   0.691  16.620 -2.5160  1.0490 -3.1988
19536TIP3   OH280022   2.262   0.844  14.544  0.5384 -0.4995  0.4025
19536TIP3    H180023   2.318   0.900  14.489  0.9334 -0.5790  0.7198
19536TIP3    H280024   2.196   0.811  14.483 -0.6098  1.4715  0.4857
19537TIP3   OH280025   1.561   2.045   1.411 -0.1494  0.5184 -0.1484
19537TIP3    H180026   1.502   2.101   1.360  1.7340  1.0631 -1.8955
19537TIP3    H280027   1.616   2.106   1.460  1.7509  0.3013 -1.8699
19538TIP3   OH280028   6.680   0.126  12.474  0.4097 -0.5947 -0.2322
19538TIP3    H180029   6.720   0.041  12.453  2.6022  0.1702  0.5531
19538TIP3    H280030   6.589   0.106  12.493  0.7456 -2.6933 -0.6217
19539TIP3   OH280031   5.658   2.685   4.032 -0.3029  0.4590 -0.4490
19539TIP3    H180032   5.711   2.718   4.105 -1.2723  1.7525 -0.2890
19539TIP3    H280033   5.612   2.610   4.068 -0.7477  1.0696  0.2795
19540TIP3   OH280034   3.223   0.309   2.465  0.4816  0.6181  0.0867
19540TIP3    H180035   3.199   0.350   2.548 -1.0101  0.2492 -0.1355
19540TIP3    H280036   3.280   0.236   2.490 -2.0546 -1.1574  1.0813
19541TIP3   OH280037   6.178   1.284   1.731  0.0795  0.2333 -0.0372
19541TIP3    H180038   6.083   1.272   1.730  0.2581 -1.6270 -1.1238
19541TIP3    H280039   6.199   1.305   1.822 -1.0951 -2.4938  0.9803
19542TIP3   OH280040   3.522   3.813   6.611 -0.2303 -0.0834 -1.0015
19542TIP3    H180041   3.613   3.820   6.582 -0.0108 -1.1289 -0.5954
19542TIP3    H280042   3.497   3.722   6.591 -0.8522 -0.1123 -0.1617
19543TIP3   OH280043   4.246   3.018   2.947  0.7266  0.1876  0.2856
19543TIP3    H180044   4.276   2.988   3.033  0.3318  2.5554  1.3364
19543TIP3    H280045   4.153   2.993   2.945  0.6234  0.5006  0.7695
19544TIP3   OH280046   0.005   5.672   4.629 -0.2182  0.1986 -0.2556
19544TIP3    H180047   0.017   5.735   4.700  0.4358 -0.9672  0.7047
19544TIP3    H280048   0.073   5.696   4.565  0.6845 -0.1063  0.5526
19545TIP3   OH280049   5.922   6.689   0.594 -0.1380 -0.1139  0.1824
19545TIP3    H180050   5.841   6.674   0.641 -0.1776 -0.8329 -0.1037
19545TIP3    H280051   5.962   6.764   0.638 -1.3798  0.8208 -0.2355
19546TIP3   OH280052   5.470   1.950  15.506  0.2943  0.1215  0.0978
19546TIP3    H180053   5.436   2.038  15.493  2.0868  0.7883 -0.3256
19546TIP3    H280054   5.420   1.895  15.446 -0.0173  1.0607 -0.5098
19547TIP3   OH280055   2.412   5.397  13.250 -0.6378 -0.0955 -0.0365
19547TIP3    H180056   2.336   5.403  13.193 -2.4192 -0.9598  2.1165
19547TIP3    H280057   2.382   5.432  13.334  1.8177  0.9608  0.4823
19548TIP3   OH280058   5.486   5.289  14.964  0.0693 -0.1030 -0.2911
19548TIP3    H180059   5.521   5.379  14.962 -2.4428  0.9899  0.5568
19548TIP3    H280060   5.517   5.250  14.883  0.7084  1.7547 -1.0159
19549TIP3   OH280061   3.679   2.531   5.248  0.2643  0.0142  0.5072
19549TIP3    H180062   3.687   2.442   5.212  0.6707 -0.1253  0.9444
19549TIP3    H280063   3.697   2.588   5.173  1.0687 -0.2763  0.4712
19550TIP3   OH280064   2.770   0.375  13.199  0.5861  0.4303 -0.1041
19550TIP3    H180065   2.748   0.317  13.273 -2.8139  1.3467 -0.2390
19550TIP3    H280066   2.733   0.331  13.123 -2.6123  2.8584 -0.1401
19551TIP3   OH280067   2.148   3.829   0.260 -0.3662 -0.3752 -0.1664
19551TIP3    H180068   2.113   3.742   0.238  0.4280 -0.5165 -0.9295
19551TIP3    H280069   2.074   3.875   0.300 -0.9594 -1.2107 -0.2698
19552TIP3   OH280070   4.545   5.155  15.682 -0.1932  0.4633  0.4286
19552TIP3    H180071   4.564   5.135  15.591 -0.8011 -2.0839  0.7760
19552TIP3    H280072   4.517   5.246  15.682 -2.1322 -0.0078 -2.2609
19553TIP3   OH280073   2.025   4.738   4.569  0.2485  0.4362 -0.1215
19553TIP3    H180074   1.954   4.710   4.626  0.6611  1.9993  1.2399
19553TIP3    H280075   2.087   4.665   4.570  0.3409  0.4944  1.6591
19554TIP3   OH280076   5.268   0.956  16.293 -0.0040 -0.4905  0.2804
19554TIP3    H180077   5.249   0.896  16.221 -1.8003  1.0647 -0.6488
19554TIP3    H280078   5.198   0.939  16.356  1.5792 -1.8710  1.7528
19555TIP3   OH280079   1.175   4.166   2.546 -0.8910  0.4752 -0.2099
19555TIP3    H180080   1.216   4.175   2.460  0.0102 -0.1284  0.1501
19555TIP3    H280081   1.203   4.081   2.578 -0.4822  1.0555  1.0599
19556TIP3   OH280082   5.850   3.202   0.183 -0.3441  0.6220  0.0507
19556TIP3    H180083   5.883   3.133   0.242 -0.8654 -0.4312 -0.8519
19556TIP3    H280084   5.823   3.272   0.242  0.0435 -0.0057  1.0137
19557TIP3   OH280085   0.437   0.678   6.676  0.7280 -0.6672 -0.0753
19557TIP3    H180086   0.459   0.768   6.652  1.1371 -0.9659 -0.8602
19557TIP3    H280087   0.385   0.687   6.756  0.5654  0.2762 -0.2685
19558TIP3   OH280088   0.196   0.534  17.130 -0.1073 -0.0244  0.1960
19558TIP3    H180089   0.217   0.615  17.178  1.0837  1.1299 -2.0949
19558TIP3    H280090   0.261   0.471  17.161 -2.1326 -0.7897  3.3249
19559TIP3   OH280091   3.013   1.587   2.490  0.5089  0.0571 -0.2177
19559TIP3    H180092   3.018   1.491   2.492  1.2853  0.0672 -1.0972
19559TIP3    H280093   2.923   1.607   2.464  0.2506 -0.4246  0.2949
19560TIP3   OH280094   0.497   1.480   5.208  0.5259 -0.1515  0.1139
19560TIP3    H180095   0.460   1.393   5.223  2.3602 -0.9460  0.2222
19560TIP3    H280096   0.553   1.470   5.132  0.7967  0.9391  0.1473
19561TIP3   OH280097   5.655   3.555  14.915 -0.1522  0.1541 -0.0248
19561TIP3    H180098   5.666   3.596  15.001 -0.5767 -1.2067  0.7191
19561TIP3    H280099   5.708   3.608  14.856 -1.1916  2.1387  0.7301
19562TIP3   OH280100   4.568   0.391   5.273 -0.4627  0.1835  0.0900
19562TIP3    H180101   4.538   0.309   5.311  2.3376 -0.4459  1.1511
19562TIP3    H280102   4.625   0.365   5.201  0.8432  1.1722  0.7359
19563TIP3   OH280103   0.591   3.352  14.745 -0.4937  0.0200 -0.4739
19563TIP3    H180104   0.591   3.297  14.667 -1.1311 -1.2599  0.4045
19563TIP3    H280105   0.500   3.355  14.773 -0.5029  1.6737 -0.5720
19564TIP3   OH280106   5.121   1.212  14.244 -0.1696 -0.0269 -0.1843
19564TIP3    H180107   5.099   1.133  14.193 -0.6010  0.8280 -1.3602
19564TIP3    H280108   5.127   1.181  14.334 -0.4335 -1.3926 -0.6062
19565TIP3   OH280109   6.370   1.002   2.360  0.1127  0.5938  0.4307
19565TIP3    H180110   6.357   1.074   2.299 -0.5414  1.2125  1.2840
19565TIP3    H280111   6.437   0.947   2.318 -0.9308  0.5383 -1.2295
19566TIP3   OH280112   6.188   4.028  11.111  0.3380  0.2805  0.0593
19566TIP3    H180113   6.105   3.997  11.075  0.5162  0.1083 -0.2095
19566TIP3    H280114   6.168   4.052  11.201 -0.1678  0.9544 -0.2316
19567TIP3   OH280115   1.347   3.054  16.881  0.2619  0.1219  0.1364
19567TIP3    H180116   1.367   2.970  16.839  1.2749  0.4993 -0.1807
19567TIP3    H280117   1.390   3.119  16.825 -0.5780  0.8563  0.3392
19568TIP3   OH280118   5.546   2.144  11.626 -0.8784 -0.2376  0.2703
19568TIP3    H180119   5.625   2.143  11.679  0.7705  1.2466 -1.9772
19568TIP3    H280120   5.502   2.226  11.648  0.2889  0.8366 -1.1983
19569TIP3   OH280121   3.651   2.614  11.745 -0.0853  0.4656 -0.4036
19569TIP3    H180122   3.565   2.576  11.764  0.1604  0.1978  0.2268
19569TIP3    H280123   3.714   2.547  11.774  0.3367  0.7010 -0.7577
19570TIP3   OH280124   1.833   5.602  14.133 -0.3789 -0.1981  0.0550
19570TIP3    H180125   1.817   5.687  14.174 -2.3506 -0.4376 -0.0867
19570TIP3    H280126   1.925   5.584  14.149 -0.2521  1.3208  1.3044
19571TIP3   OH280127   0.739   3.048   2.630  0.5787 -0.2397  0.4562
19571TIP3    H180128   0.795   2.977   2.662  2.8286  0.2875 -2.0114
19571TIP3    H280129   0.761   3.123   2.686 -0.6586 -0.9992  2.0463
19572TIP3   OH280130   6.582   1.950   2.779 -0.6236  0.2075  0.3074
19572TIP3    H180131   6.675   1.966   2.760 -0.2517 -0.5739  1.3503
19572TIP3    H280132   6.576   1.959   2.874 -1.6049  0.1533  0.2520
19573TIP3   OH280133   1.793   1.781   0.564  0.1204  0.5317  0.1860
19573TIP3    H180134   1.867   1.733   0.602  1.1067  1.4398 -0.4945
19573TIP3    H280135   1.716   1.746   0.608  0.9471 -0.5332  0.8398
19574TIP3   OH280136   3.194   3.249   3.520 -0.1489  0.0550  0.1885
19574TIP3    H180137   3.207   3.197   3.599  0.5242  1.2285  0.8751
19574TIP3    H280138   3.219   3.191   3.448  0.7496 -0.5235  0.9461
19575TIP3   OH280139   0.111   4.380   4.725  0.7926 -0.1681 -0.1580
19575TIP3    H180140   0.085   4.305   4.779 -0.3557 -0.5004 -1.1542
19575TIP3    H280141   0.096   4.456   4.781  2.4313 -0.6500  1.0516
19576TIP3   OH280142   6.612   2.712  14.869  0.6973  0.3546  0.5989
19576TIP3    H180143   6.566   2.752  14.795  0.4537 -3.5981 -1.6497
19576TIP3    H280144   6.554   2.726  14.944 -1.3150  0.6162 -0.9224
19577TIP3   OH280145   4.647   6.738  16.543 -0.3043 -0.4854 -0.8667
19577TIP3    H180146   4.595   6.815  16.568  1.1002 -0.2616  1.7343
19577TIP3    H280147   4.715   6.773  16.485 -0.0665  0.1601 -0.2231
19578TIP3   OH280148   6.453   6.103  11.201 -0.0212 -0.7465  0.1505
19578TIP3    H180149   6.460   6.196  11.178  0.0161 -1.1586 -1.7029
19578TIP3    H280150   6.411   6.063  11.125  3.2743 -2.8503 -0.7801
19579TIP3   OH280151   2.232   0.869  16.924  0.1387 -0.2993  0.2791
19579TIP3    H180152   2.191   0.882  17.010 -0.1218 -0.6439  0.2084
19579TIP3    H280153   2.240   0.774  16.916 -0.6676 -0.3142 -0.4687
19580TIP3   OH280154   5.208   0.612   4.742 -0.1165  0.2060  0.1558
19580TIP3    H180155   5.141   0.600   4.809 -0.9007  2.8953 -0.0299
19580TIP3    H280156   5.160   0.619   4.660  0.6252 -0.3833 -0.3515
19581TIP3   OH280157   4.910   4.771  12.460  0.4039 -0.1287  0.1640
19581TIP3    H180158   4.845   4.791  12.527  0.5216  2.9318 -0.4601
19581TIP3    H280159   4.973   4.713  12.504 -1.4319 -1.2234  1.4938
19582TIP3   OH280160   0.312   3.213   3.320  0.1970 -0.1729 -0.4394
19582TIP3    H180161   0.248   3.255   3.262  0.5147  2.3809  0.9177
19582TIP3    H280162   0.262   3.145   3.364 -1.2732  0.8603 -0.4213
19583TIP3   OH280163   5.830   5.606   2.790 -0.6315  0.4936  0.1373
19583TIP3    H180164   5.789   5.568   2.713 -0.7101  1.5162 -0.3368
19583TIP3    H280165   5.890   5.672   2.756  1.0772 -0.6299  0.8451
19584TIP3   OH280166   5.363   5.666  11.680  0.0540 -0.3363 -0.6311
19584TIP3    H180167   5.423   5.737  11.703 -2.6904  1.9504 -0.1107
19584TIP3    H280168   5.355   5.671  11.585  0.7944 -0.8013 -0.7293
19585TIP3   OH280169   6.370   5.043   3.088 -0.2530 -0.1573 -0.1941
19585TIP3    H180170   6.451   4.994   3.076 -0.9881 -1.9333  1.5299
19585TIP3    H280171   6.323   5.034   3.005  1.2764  0.9452 -1.2320
19586TIP3   OH280172   3.890   6.692   4.201  0.3151 -0.7034 -0.0356
19586TIP3    H180173   3.937   6.751   4.260 -1.6847  1.3821 -0.3799
19586TIP3    H280174   3.798   6.717   4.211 -0.5956 -3.4893 -0.5893
19587TIP3   OH280175   0.526   1.025  11.994  0.1578  0.3458 -0.0862
19587TIP3    H180176   0.530   1.120  11.978  1.5166  0.0201 -2.0602
19587TIP3    H280177   0.484   1.017  12.079  1.0601  2.7903  0.6818
19588TIP3   OH280178   1.608   6.294   2.098 -0.2723 -0.0023 -0.0637
19588TIP3    H180179   1.692   6.259   2.067 -1.0992 -0.3013 -2.1151
19588TIP3    H280180   1.625   6.387   2.113 -0.2443  0.6992 -3.5750
19589TIP3   OH280181   5.716   4.902   0.854  0.2630  0.4858  0.0131
19589TIP3    H180182   5.795   4.899   0.799 -0.5300 -0.7798 -1.1149
19589TIP3    H280183   5.728   4.831   0.917 -0.3301 -0.2939 -0.7208
19590TIP3   OH280184   3.893   4.774   5.904  0.1347  0.3639 -0.0558
19590TIP3    H180185   3.825   4.762   5.838  1.6374 -1.3471 -1.3928
19590TIP3    H280186   3.964   4.718   5.876  0.6730 -0.9058  3.3287
19591TIP3   OH280187   4.989   2.991   0.759  0.1164 -0.7593 -0.0233
19591TIP3    H180188   5.059   2.943   0.715  0.8547 -0.7766  1.1396
19591TIP3    H280189   4.911   2.938   0.742  0.2493 -0.4698 -1.7619
19592TIP3   OH280190   1.737   0.367  11.092 -0.6681  0.5219 -0.4553
19592TIP3    H180191   1.741   0.276  11.061  1.2281  0.5332 -0.3973
19592TIP3    H280192   1.646   0.392  11.082 -1.4329 -1.6990  0.4101
19593TIP3   OH280193   4.906   6.195  16.471 -0.5784 -0.2313  0.3024
19593TIP3    H180194   4.880   6.285  16.487  0.5560  0.2487 -0.4527
19593TIP3    H280195   4.918   6.189  16.376 -0.5043 -1.1360  0.3570
19594TIP3   OH280196   5.529   1.694  15.032  0.1954  0.2563 -0.3085
19594TIP3    H180197   5.468   1.751  15.079 -0.0205  0.2566 -0.5872
19594TIP3    H280198   5.613   1.708  15.075 -0.0026  0.2472  0.0880
19595TIP3   OH280199   4.961   2.110   2.133 -0.2062 -0.4767  0.3984
19595TIP3    H180200   4.970   2.205   2.121  1.2196 -0.7123 -0.6206
19595TIP3    H280201   5.009   2.092   2.214  1.5219 -0.5862 -0.5917
19596TIP3   OH280202   0.928   2.508  13.205  0.6025 -0.2349 -0.6718
19596TIP3    H180203   0.851   2.509  13.149 -0.3851  0.9479  0.6058
19596TIP3    H280204   0.980   2.584  13.177  0.5274 -0.1365 -0.5488
19597TIP3   OH280205   4.226   6.000  11.123 -0.1555 -0.2410 -0.6641
19597TIP3    H180206   4.300   5.951  11.089 -0.6818  0.1997 -2.5862
19597TIP3    H280207   4.239   6.001  11.218  2.0738 -0.4902 -0.9153
19598TIP3   OH280208   2.598   1.764  14.599 -0.0709 -0.1617  0.0788
19598TIP3    H180209   2.549   1.815  14.535 -0.1178  1.1287  1.0907
19598TIP3    H280210   2.555   1.782  14.682  2.6656  1.9099  1.2193
19599TIP3   OH280211   6.039   3.357   5.745 -0.2803  0.2937 -0.0825
19599TIP3    H180212   6.032   3.262   5.745  1.3844  0.1337  0.6815
19599TIP3    H280213   6.024   3.382   5.836 -1.3338  0.8401 -0.3907
19600TIP3   OH280214   2.144   3.179  12.565  1.1597  0.2576 -0.5595
19600TIP3    H180215   2.089   3.136  12.631 -0.2289  1.1959 -1.0495
19600TIP3    H280216   2.212   3.223  12.615  0.0820  1.0309  0.2925
19601TIP3   OH280217   1.858   1.843  14.392 -0.1892  0.2224 -0.1271
19601TIP3    H180218   1.906   1.845  14.474  1.0931 -0.4249 -0.8213
19601TIP3    H280219   1.856   1.934  14.363 -2.1466  0.7314  1.3997
19602TIP3   OH280220   1.919   6.239  15.137 -0.6952  0.6149 -0.3714
19602TIP3    H180221   1.938   6.331  15.156  0.1390  0.3507  0.1393
19602TIP3    H280222   1.836   6.222  15.182 -1.2165  1.2898 -1.0478
19603TIP3   OH280223   4.714   4.160  13.661 -0.3806 -0.0584 -0.7172
19603TIP3    H180224   4.730   4.144  13.753  1.1890  1.6255 -0.6510
19603TIP3    H280225   4.789   4.121  13.616 -0.9480 -0.5459 -1.2609
19604TIP3   OH280226   4.748   0.675   4.736 -0.0906  0.5991 -0.1075
19604TIP3    H180227   4.733   0.761   4.694 -0.8749  0.7169  0.3884
19604TIP3    H280228   4.816   0.691   4.800  0.0581  0.7591 -0.3031
19605TIP3   OH280229   5.568   1.760   4.100 -0.1666 -0.2442  0.1977
19605TIP3    H180230   5.575   1.742   4.194 -0.6635  0.2562  0.3383
19605TIP3    H280231   5.600   1.680   4.058  0.1065 -0.4568  0.7913
19606TIP3   OH280232   0.845   1.436   2.061  0.5977  0.2088  0.4940
19606TIP3    H180233   0.892   1.363   2.101  2.1492  1.4639  1.0864
19606TIP3    H280234   0.831   1.410   1.970 -1.0996 -1.8175  1.2439
19607TIP3   OH280235   4.113   1.861   3.411  0.0850 -0.3545  0.1528
19607TIP3    H180236   4.207   1.855   3.429  0.4993 -0.6039 -1.8446
19607TIP3    H280237   4.107   1.902   3.324 -1.4314 -3.5211 -1.4447
19608TIP3   OH280238   1.238   1.407   5.306 -0.1535  0.2011  0.1507
19608TIP3    H180239   1.201   1.496   5.304  0.7733  0.5968 -0.2340
19608TIP3    H280240   1.257   1.391   5.398  1.8807  1.3820 -0.0043
19609TIP3   OH280241   6.517   2.200  15.661  0.3234 -0.0694 -0.2462
19609TIP3    H180242   6.612   2.198  15.673  0.3310  0.6732 -0.1319
19609TIP3    H280243   6.491   2.108  15.660  0.9838 -0.2677  0.1930
19610TIP3   OH280244   4.206   5.449  11.452  0.2649 -0.1069  0.4174
19610TIP3    H180245   4.229   5.437  11.545  2.0788 -0.1491  0.0056
19610TIP3    H280246   4.140   5.383  11.435  0.6982 -0.8233  1.4157
19611TIP3   OH280247   6.549   6.303   6.138  0.1514 -0.5294 -0.0517
19611TIP3    H180248   6.641   6.290   6.163 -0.2327 -1.3408  1.0503
19611TIP3    H280249   6.500   6.250   6.201 -1.2635  2.0187  1.1479
19612TIP3   OH280250   5.983   0.389   1.562 -0.3256  0.0529 -0.7827
19612TIP3    H180251   5.904   0.443   1.573 -0.2635  0.3635 -1.7584
19612TIP3    H280252   5.962   0.332   1.487 -0.2061 -0.9629 -0.0719
19613TIP3   OH280253   5.670   0.958  13.107 -0.0644 -0.0095 -0.1361
19613TIP3    H180254   5.626   0.931  13.026  1.6872 -1.0261 -0.8217
19613TIP3    H280255   5.614   0.927  13.177 -1.2799  0.2758 -0.9502
19614TIP3   OH280256   1.494   3.411   1.304  0.2537  0.2031 -0.2122
19614TIP3    H180257   1.586   3.423   1.284  0.5154  1.8871  1.6530
19614TIP3    H280258   1.450   3.483   1.259 -0.0637 -0.1862 -0.5288
19615TIP3   OH280259   0.614   2.534   1.673  0.1409  0.0154 -0.0142
19615TIP3    H180260   0.658   2.588   1.608  1.2935  0.9941  1.5032
19615TIP3    H280261   0.614   2.446   1.636  0.1293  0.6643 -1.6192
19616TIP3   OH280262   5.286   5.016   2.683  0.5655  0.1070 -0.0739
19616TIP3    H180263   5.254   5.031   2.594  0.4319 -2.4730 -0.5502
19616TIP3    H280264   5.344   4.940   2.675  0.5983 -0.1507  2.0385
19617TIP3   OH280265   3.501   3.775  17.192 -0.0860 -0.3299 -0.0661
19617TIP3    H180266   3.463   3.727  17.265 -2.2479 -0.0363 -0.9359
19617TIP3    H280267   3.555   3.843  17.233 -1.3761 -0.0817  1.2643
19618TIP3   OH280268   3.473   2.813   0.705  0.1603  0.4801 -0.8148
19618TIP3    H180269   3.547   2.844   0.758  0.6285 -1.2900 -0.3681
19618TIP3    H280270   3.397   2.826   0.762 -0.0847  3.1391 -1.6037
19619TIP3   OH280271   1.676   3.837  12.003  0.0981 -0.2504 -0.3091
19619TIP3    H180272   1.629   3.852  11.921  0.4742  0.1052 -0.4620
19619TIP3    H280273   1.609   3.803  12.063 -0.6002  1.2393 -0.2020
19620TIP3   OH280274   3.647   5.230  13.165  0.4495  0.0664  0.0745
19620TIP3    H180275   3.597   5.286  13.106 -1.7039 -1.1685  0.5769
19620TIP3    H280276   3.680   5.289  13.232 -0.5638  0.9517 -0.1722
19621TIP3   OH280277   6.324   1.700   2.156  0.0050  1.1525  0.3474
19621TIP3    H180278   6.301   1.793   2.159  0.9763  1.3929  1.1872
19621TIP3    H280279   6.363   1.682   2.242 -0.2326 -0.0564  0.2256
19622TIP3   OH280280   4.445   4.810  11.256  0.2523  0.0928  0.0524
19622TIP3    H180281   4.540   4.816  11.265  0.2123  1.0361 -0.0827
19622TIP3    H280282   4.412   4.886  11.303 -0.3491  0.6929 -1.3013
19623TIP3   OH280283   3.395   5.091  12.833  0.1473 -0.7192  0.3800
19623TIP3    H180284   3.447   5.012  12.851  3.2523  0.7612 -1.3556
19623TIP3    H280285   3.443   5.162  12.875 -3.2367  0.2852  3.0042
19624TIP3   OH280286   0.076   3.472  15.675  0.2030 -0.2594 -0.1867
19624TIP3    H180287   0.158   3.428  15.653  0.8892  1.1973 -0.6859
19624TIP3    H280288   0.056   3.441  15.764  1.5276 -0.3137  0.1244
19625TIP3   OH280289   3.252   5.383  15.014  0.3877  0.2887 -0.0827
19625TIP3    H180290   3.338   5.421  14.997  1.6345 -2.2128  0.0712
19625TIP3    H280291   3.240   5.318  14.945 -1.6012  0.8683 -0.3387
19626TIP3   OH280292   2.199   4.621  12.829  0.6784  0.1106 -0.1135
19626TIP3    H180293   2.246   4.578  12.757  0.1937  1.3180 -1.1835
19626TIP3    H280294   2.119   4.570  12.839 -0.7733  1.6798 -2.5936
19627TIP3   OH280295   6.376   2.646  17.015 -0.8300 -0.3423 -0.0498
19627TIP3    H180296   6.409   2.565  16.976 -0.2802 -0.0085 -0.2934
19627TIP3    H280297   6.450   2.681  17.063 -1.3428 -0.4592  0.8489
19628TIP3   OH280298   2.098   1.143   3.615 -0.0978  0.1819 -0.1227
19628TIP3    H180299   2.070   1.202   3.544 -0.0699 -0.7417 -0.9247
19628TIP3    H280300   2.041   1.066   3.605  0.3906 -0.2543  0.4166
19629TIP3   OH280301   2.047   4.821   5.916 -0.0000 -0.1749 -0.1871
19629TIP3    H180302   2.067   4.895   5.974  1.3748 -0.3477 -0.4128
19629TIP3    H280303   1.989   4.858   5.850 -0.4460  0.3628  0.4843
19630TIP3   OH280304   1.460   4.476   5.219 -0.9168  0.3464  0.3845
19630TIP3    H180305   1.502   4.420   5.153 -0.2197 -0.1057  1.1769
19630TIP3    H280306   1.368   4.480   5.193 -0.5213  0.7556 -0.9939
19631TIP3   OH280307   1.039   6.122   2.935 -0.1811  0.1958 -0.0957
19631TIP3    H180308   1.022   6.069   2.857 -0.8713  0.8883 -0.4353
19631TIP3    H280309   1.134   6.125   2.943 -0.1210 -1.2380  0.0454
19632TIP3   OH280310   6.708   4.661  11.253 -0.4688 -0.0747 -0.6441
19632TIP3    H180311   6.784   4.612  11.284  1.4066  2.3908 -1.0635
19632TIP3    H280312   6.693   4.629  11.164  1.8347  1.1637 -1.5713
19633TIP3   OH280313   2.044   5.884   3.180  0.1074 -0.2615  0.3470
19633TIP3    H180314   2.040   5.818   3.249  1.5377 -0.1868  0.5281
19633TIP3    H280315   2.043   5.968   3.227  1.3788 -0.2141  0.3153
19634TIP3   OH280316   4.349   6.129  15.422 -0.1301  0.1310 -0.1348
19634TIP3    H180317   4.311   6.209  15.385 -0.8870 -0.4644 -0.6731
19634TIP3    H280318   4.384   6.082  15.346 -0.7511 -0.6003  0.0159
19635TIP3   OH280319   3.228   4.739  13.343 -0.5069  0.4972 -0.2503
19635TIP3    H180320   3.177   4.713  13.266 -0.4468 -3.3105  0.7987
19635TIP3    H280321   3.164   4.748  13.413 -0.3049  1.6434 -0.1906
19636TIP3   OH280322   2.576   0.688   0.154 -0.3712  0.1581 -0.6204
19636TIP3    H180323   2.560   0.725   0.240  0.5327 -0.8958  0.0278
19636TIP3    H280324   2.557   0.595   0.164 -0.9097  0.1346 -1.7420
19637TIP3   OH280325   2.488   1.287   5.196  0.0450  0.1260 -0.3110
19637TIP3    H180326   2.420   1.278   5.130 -2.6166  1.3001  2.0288
19637TIP3    H280327   2.464   1.367   5.243  1.9228 -0.4951  1.8732
19638TIP3   OH280328   2.412   5.139  13.317  0.0173 -0.0156  0.3188
19638TIP3    H180329   2.473   5.123  13.389 -1.3281 -0.9383  1.3028
19638TIP3    H280330   2.408   5.234  13.309 -1.8420  0.2831  3.3482
19639TIP3   OH280331   3.011   3.093   3.085  0.2429  0.0516  0.3237
19639TIP3    H180332   2.922   3.059   3.077  0.5393 -1.4552  2.5162
19639TIP3    H280333   2.999   3.182   3.119 -0.5338 -1.3378  4.2419
19640TIP3   OH280334   0.404   1.055   0.310 -0.0853 -0.1385  0.9739
19640TIP3    H180335   0.477   1.115   0.296 -0.2509  0.1299  1.2585
19640TIP3    H280336   0.443   0.980   0.354  0.2901 -0.6342 -0.1536
19641TIP3   OH280337   3.794   0.067   1.074  0.3952 -0.2553 -0.3041
19641TIP3    H180338   3.777   0.013   0.996 -0.3783 -1.8109  0.9001
19641TIP3    H280339   3.880   0.038   1.104  0.1568 -0.5266  0.1155
19642TIP3   OH280340   0.247   2.008   2.558 -0.1914 -0.7510  0.3834
19642TIP3    H180341   0.338   2.017   2.585 -0.3822  1.1909  0.4887
19642TIP3    H280342   0.200   1.982   2.638  0.3855 -2.8626  0.0908
19643TIP3   OH280343   5.782   0.704  10.501  0.7300 -0.4952 -0.4862
19643TIP3    H180344   5.690   0.680  10.491  1.0517 -1.5267 -1.1001
19643TIP3    H280345   5.780   0.790  10.544 -0.4515 -1.8336  2.3411
19644TIP3   OH280346   5.495   2.102  15.040  0.7376 -0.2964  0.1279
19644TIP3    H180347   5.489   2.083  14.946 -0.9233 -0.5923  0.2574
19644TIP3    H280348   5.580   2.144  15.051  1.1523 -0.6662 -1.4363
19645TIP3   OH280349   2.452   3.859   4.552 -0.0098  0.9719  0.0578
19645TIP3    H180350   2.481   3.774   4.586  0.6295  0.8940 -0.6524
19645TIP3    H280351   2.519   3.920   4.584  0.4429  0.9405 -0.7992
19646TIP3   OH280352   2.836   5.499   3.000  0.1822 -0.2196  0.0027
19646TIP3    H180353   2.752   5.500   2.954  0.3276  0.8162 -0.2709
19646TIP3    H280354   2.901   5.512   2.930  0.4538  0.6139  0.3974
19647TIP3   OH280355   2.226   6.604   5.289 -0.1108  0.3668 -0.2040
19647TIP3    H180356   2.287   6.673   5.261 -0.2070  0.9021  0.8624
19647TIP3    H280357   2.197   6.564   5.207  0.5065  1.1080 -0.8084
19648TIP3   OH280358   5.006   5.421  12.977 -0.3220 -0.2923  0.0155
19648TIP3    H180359   4.990   5.380  13.062 -0.3974 -0.9900 -0.3222
19648TIP3    H280360   4.920   5.429  12.937 -0.3816  0.8109  0.3385
19649TIP3   OH280361   2.312   4.112   4.286 -0.1509 -0.4673  0.1549
19649TIP3    H180362   2.360   4.053   4.228  1.5327  1.8308 -0.9608
19649TIP3    H280363   2.229   4.129   4.239  0.9274  0.8742 -1.3879
19650TIP3   OH280364   3.005   5.035   6.040 -0.0804 -0.3122 -0.3220
19650TIP3    H180365   2.955   4.975   6.095 -0.2958  0.5820  0.4937
19650TIP3    H280366   3.045   5.097   6.102  0.2404  0.3045 -1.1236
19651TIP3   OH280367   5.902   3.499  13.424  0.1359 -0.0249 -0.3687
19651TIP3    H180368   5.874   3.575  13.374  1.1876  1.4175  1.0903
19651TIP3    H280369   5.823   3.446  13.435 -0.3602  0.2342 -2.4233
19652TIP3   OH280370   0.809   5.154  16.627  0.5542 -0.0426  0.2835
19652TIP3    H180371   0.903   5.171  16.622  0.4541  0.3936 -0.1609
19652TIP3    H280372   0.800   5.087  16.695  1.2519 -0.6039 -0.1661
19653TIP3   OH280373   4.631   2.502  12.702 -0.2833  0.0373  0.0263
19653TIP3    H180374   4.607   2.413  12.676  0.5318 -0.1222 -0.2122
19653TIP3    H280375   4.683   2.490  12.782  0.0584  0.2763 -0.1581
19654TIP3   OH280376   6.572   5.555   2.611  0.5412 -0.3273  0.4828
19654TIP3    H180377   6.569   5.459   2.608 -2.8692 -0.2958 -1.2755
19654TIP3    H280378   6.517   5.578   2.686  0.5522  0.2827  0.3056
19655TIP3   OH280379   0.667   3.952  13.853 -0.1834 -0.2329  0.3738
19655TIP3    H180380   0.622   3.982  13.933  1.0422  1.4063  0.5094
19655TIP3    H280381   0.733   3.891  13.885  0.8932  1.0783  0.7858
19656TIP3   OH280382   5.803   4.868  15.913  0.0426 -0.3629  0.5657
19656TIP3    H180383   5.819   4.962  15.905 -0.2287 -0.1896  1.8499
19656TIP3    H280384   5.888   4.828  15.897 -0.0068  0.0311 -0.8180
19657TIP3   OH280385   5.727   3.485   1.279 -0.0997 -0.3714 -0.4016
19657TIP3    H180386   5.707   3.560   1.223 -1.0303 -1.2329 -1.2657
19657TIP3    H280387   5.823   3.476   1.273 -0.1511 -0.2648 -1.6378
19658TIP3   OH280388   1.681   6.116   4.976  0.0538  0.0633 -0.1758
19658TIP3    H180389   1.595   6.111   5.018  0.1719 -0.9260 -0.0192
19658TIP3    H280390   1.662   6.098   4.883  0.2158 -1.3020  0.0402
19659TIP3   OH280391   3.914   3.433  13.272  0.3481  0.5655  0.2568
19659TIP3    H180392   3.874   3.361  13.225  2.6960 -2.4056  2.4050
19659TIP3    H280393   3.846   3.465  13.330 -0.2838 -1.1827  0.5288
19660TIP3   OH280394   1.055   3.715   4.727  0.0753  0.4833  0.2382
19660TIP3    H180395   1.120   3.733   4.795 -0.2544 -2.5030  1.5196
19660TIP3    H280396   0.971   3.727   4.770 -0.2068  1.2626 -0.4961
19661TIP3   OH280397   3.929   4.028  16.697  0.8669  0.1975 -0.3793
19661TIP3    H180398   3.927   4.033  16.793  0.6028  0.2459 -0.3858
19661TIP3    H280399   3.853   4.080  16.669 -0.3422 -1.5531 -0.5413
19662TIP3   OH280400   1.293   2.968  13.494 -0.6103  0.8823  0.0223
19662TIP3    H180401   1.338   2.953  13.411  0.5376 -0.0597  0.7751
19662TIP3    H280402   1.200   2.957  13.473 -0.3224  0.4012 -1.0779
19663TIP3   OH280403   5.704   3.117   5.885 -0.2744  0.2611 -0.2630
19663TIP3    H180404   5.666   3.039   5.844  0.3620 -0.0580 -0.2600
19663TIP3    H280405   5.798   3.110   5.867 -0.2516  1.1970 -0.5307
19664TIP3   OH280406   3.988   5.180   2.364 -0.2759 -0.4368  0.2515
19664TIP3    H180407   3.994   5.209   2.273 -2.2773  0.6647  0.4169
19664TIP3    H280408   3.933   5.102   2.361 -2.3844  0.9488  0.6896
19665TIP3   OH280409   0.483   5.236   5.322  0.0027 -0.0818 -0.2143
19665TIP3    H180410   0.564   5.219   5.370  1.1169  0.1439 -1.9179
19665TIP3    H280411   0.413   5.213   5.384  1.2222  2.7566  2.5400
19666TIP3   OH280412   2.169   6.774  17.241 -0.3490 -0.4059 -0.2402
19666TIP3    H180413   2.173   6.798  17.334 -3.2616  2.6772 -0.7066
19666TIP3    H280414   2.075   6.771  17.222  0.1733 -0.6899 -3.1555
19667TIP3   OH280415   6.126   0.630   0.726 -0.2037  0.2699  0.2758
19667TIP3    H180416   6.169   0.715   0.712 -0.3426  0.5972  1.6471
19667TIP3    H280417   6.060   0.648   0.793 -1.8583 -0.4340 -1.0991
19668TIP3   OH280418   0.921   1.999   1.449 -0.1983 -0.8287  0.5553
19668TIP3    H180419   0.983   1.928   1.463  0.8662 -0.4169 -1.6509
19668TIP3    H280420   0.932   2.056   1.525  1.7647 -1.0541  0.4901
19669TIP3   OH280421   5.184   4.799   3.361 -0.2203  0.4450  0.6388
19669TIP3    H180422   5.185   4.893   3.341  0.7036  0.6746  1.6419
19669TIP3    H280423   5.270   4.782   3.399  0.5521 -1.3365 -1.7252
19670TIP3   OH280424   5.541   4.073  14.232 -0.2373 -0.2661  0.4770
19670TIP3    H180425   5.551   4.126  14.312 -0.5115  0.5210 -0.0050
19670TIP3    H280426   5.498   3.994  14.263 -3.0964  1.2434  0.7012
19671TIP3   OH280427   1.586   1.040   0.507 -0.5622 -0.0268 -0.1023
19671TIP3    H180428   1.515   0.983   0.479 -0.1983  0.2467 -1.6921
19671TIP3    H280429   1.616   1.082   0.426 -0.5567  2.1099  0.9390
19672TIP3   OH280430   5.877   3.458   2.056 -0.4107  0.2000  0.2023
19672TIP3    H180431   5.836   3.443   1.971  1.2828 -0.8135 -0.4693
19672TIP3    H280432   5.922   3.542   2.046  3.4816 -1.8563 -1.5147
19673TIP3   OH280433   6.350   0.057   5.175  0.7827  0.3858  0.4806
19673TIP3    H180434   6.362  -0.031   5.212  0.6692 -0.0577 -0.5087
19673TIP3    H280435   6.321   0.041   5.085  0.9225  1.4431  0.2415
19674TIP3   OH280436   6.430   5.565   2.268  0.4894 -0.0327 -0.2148
19674TIP3    H180437   6.385   5.596   2.189  0.0758 -0.4018 -0.1266
19674TIP3    H280438   6.474   5.485   2.241 -0.0526 -0.4260  0.0449
19675TIP3   OH280439   5.615   4.449   5.257  0.0319  0.3455 -0.0597
19675TIP3    H180440   5.610   4.505   5.335  0.8323  1.6463 -0.9130
19675TIP3    H280441   5.574   4.366   5.284  0.7014  0.6014  1.8791
19676TIP3   OH280442   1.974   5.115   3.952  0.1577  0.3967  0.1228
19676TIP3    H180443   2.046   5.117   3.888 -0.2204  0.0257 -0.3251
19676TIP3    H280444   1.934   5.028   3.940 -0.0608  0.4155  0.7066
19677TIP3   OH280445   2.637   0.942  11.455 -0.0372 -0.2087 -0.0124
19677TIP3    H180446   2.558   0.889  11.449  0.4516 -0.9081 -0.3170
19677TIP3    H280447   2.606   1.032  11.444 -0.6780 -0.5401 -0.9739
19678TIP3   OH280448   0.477   6.267  15.359 -0.4155 -0.5021  0.1484
19678TIP3    H180449   0.405   6.269  15.423 -1.3419 -1.6015 -0.8143
19678TIP3    H280450   0.437   6.233  15.279  0.7217  0.8312 -1.0433
19679TIP3   OH280451   2.171   5.512   3.334  0.0240 -0.8441  0.5178
19679TIP3    H180452   2.138   5.596   3.366 -0.1788 -0.7794  0.1484
19679TIP3    H280453   2.207   5.469   3.412 -0.7062 -0.8102  0.8810
19680TIP3   OH280454   1.334   3.369  17.089 -0.4617  0.3287 -0.4517
19680TIP3    H180455   1.352   3.313  17.014  0.1023  0.6842 -0.5846
19680TIP3    H280456   1.251   3.411  17.068 -0.1475  0.6766 -1.0322
19681TIP3   OH280457   6.241   3.124   0.378  0.3184 -0.3605 -0.0669
19681TIP3    H180458   6.248   3.183   0.453 -1.2314 -0.5737  0.2642
19681TIP3    H280459   6.168   3.066   0.399  1.9683 -2.6350 -0.2455
19682TIP3   OH280460   0.040   0.858  16.787 -0.6389 -0.4642  0.0637
19682TIP3    H180461   0.055   0.949  16.763  0.7494 -0.5602  0.4497
19682TIP3    H280462   0.037   0.858  16.883 -2.1393 -0.6319  0.0390
19683TIP3   OH280463   4.456   0.545   0.370  0.0568  0.0984 -0.3667
19683TIP3    H180464   4.509   0.474   0.406 -1.5048 -0.2835  1.3484
19683TIP3    H280465   4.476   0.620   0.426  0.9459  0.7527 -1.5408
19684TIP3   OH280466   5.154   1.763   0.149 -0.1147  0.1421 -0.1676
19684TIP3    H180467   5.091   1.807   0.206  0.4061  0.0725  0.4756
19684TIP3    H280468   5.151   1.813   0.067 -2.0365 -0.7053 -0.6839
19685TIP3   OH280469   0.785   1.956  16.252  0.0537 -0.3008  0.6083
19685TIP3    H180470   0.868   1.953  16.205  0.4161  0.1626  1.2053
19685TIP3    H280471   0.809   1.944  16.344 -0.7588 -2.4161  0.6000
19686TIP3   OH280472   5.348   1.850  12.647  0.2864 -0.2074 -0.5710
19686TIP3    H180473   5.320   1.910  12.716  3.3478 -0.4088  1.0164
19686TIP3    H280474   5.312   1.887  12.566 -2.4289  0.6953  0.9505
19687TIP3   OH280475   3.054   3.106  15.181 -0.6811 -0.0378  0.3664
19687TIP3    H180476   2.978   3.048  15.189  0.6366 -1.6151  2.3192
19687TIP3    H280477   3.129   3.049  15.194  0.7111  2.0473  2.1505
19688TIP3   OH280478   1.062   3.003  11.011 -0.0861  0.1641 -0.0221
19688TIP3    H180479   1.109   2.920  11.003 -0.7627 -0.4200  1.6291
19688TIP3    H280480   1.094   3.056  10.938 -0.0158 -1.7167 -1.4152
19689TIP3   OH280481   2.050   3.085  15.216 -0.2743 -0.2047  0.0684
19689TIP3    H180482   2.114   3.024  15.179  0.3408 -0.5616  1.6105
19689TIP3    H280483   2.010   3.036  15.288  1.1414  1.5453  2.1959
19690TIP3   OH280484   5.965   4.457   3.118  0.6634 -0.1278  0.5285
19690TIP3    H180485   5.942   4.487   3.206 -0.1070  1.4550 -0.1661
19690TIP3    H280486   5.995   4.536   3.073 -2.3811 -0.1008 -1.7126
19691TIP3   OH280487   4.826   3.458  16.851 -0.1114 -0.2184  0.8442
19691TIP3    H180488   4.789   3.544  16.831 -1.0583 -0.7650  0.1691
19691TIP3    H280489   4.882   3.474  16.927 -0.6233  0.9134  1.0130
19692TIP3   OH280490   3.976   1.288   6.819  0.3778 -0.8358  0.2693
19692TIP3    H180491   3.959   1.203   6.777  0.5548 -1.3033  1.1180
19692TIP3    H280492   4.051   1.323   6.771 -1.0654 -0.1170 -1.5504
19693TIP3   OH280493   5.583   4.168   1.411 -0.6918 -0.0705 -0.0113
19693TIP3    H180494   5.555   4.169   1.503  2.1561 -0.8737  0.9436
19693TIP3    H280495   5.585   4.075   1.387  0.9473 -0.0507 -0.0587
19694TIP3   OH280496   3.700   1.361   3.726  0.5747 -0.5856  0.0505
19694TIP3    H180497   3.714   1.315   3.809 -1.6563 -0.3843  0.6052
19694TIP3    H280498   3.644   1.304   3.675  0.1070  0.2588 -0.4118
19695TIP3   OH280499   3.366   0.588  15.720 -0.6678 -0.0460 -0.0629
19695TIP3    H180500   3.298   0.588  15.787  1.4079  2.0403  2.2632
19695TIP3    H280501   3.424   0.515  15.744  0.5277  1.2060  1.0079
19696TIP3   OH280502   5.359   1.368  15.607 -0.6083 -0.0730 -0.0435
19696TIP3    H180503   5.453   1.386  15.597 -0.4740 -0.6767  0.1272
19696TIP3    H280504   5.355   1.280  15.643 -1.2652 -0.5398 -1.2033
19697TIP3   OH280505   2.525   1.725  16.243 -0.0809 -0.2757  0.3411
19697TIP3    H180506   2.487   1.801  16.198  2.5011  0.3263 -1.0176
19697TIP3    H280507   2.605   1.759  16.283  2.4020 -2.6366 -2.2058
19698TIP3   OH280508   2.678   1.361   6.290 -0.8012 -0.0228  0.0091
19698TIP3    H180509   2.632   1.422   6.349 -0.9690  0.2151 -0.3669
19698TIP3    H280510   2.703   1.288   6.347  0.6812  1.0317  0.7984
19699TIP3   OH280511   3.691   5.941  15.466 -0.2449  0.5514 -0.3270
19699TIP3    H180512   3.623   5.878  15.442 -1.1513  0.9428  1.0973
19699TIP3    H280513   3.649   5.999  15.529  1.3102  1.0519  0.2987
19700TIP3   OH280514   0.308   6.441  11.761  0.4352 -0.1264 -0.2867
19700TIP3    H180515   0.364   6.517  11.746 -0.9926  1.0169 -0.0068
19700TIP3    H280516   0.304   6.397  11.676 -0.1235  1.1023 -0.9209
19701TIP3   OH280517   0.394   6.664   3.374 -0.2364 -0.3966  0.7122
19701TIP3    H180518   0.368   6.731   3.437 -0.7268  1.4086 -1.3134
19701TIP3    H280519   0.465   6.704   3.324 -1.2240 -0.9491 -1.2345
19702TIP3   OH280520   2.036   3.832   3.896  0.0103 -0.4852  0.7303
19702TIP3    H180521   2.089   3.869   3.826 -0.4333 -0.8123  0.2136
19702TIP3    H280522   2.098   3.815   3.967  0.0055  2.7135  1.6469
19703TIP3   OH280523   3.745   3.076   1.674  0.0921 -0.3921  0.2647
19703TIP3    H180524   3.802   3.078   1.751 -0.7594 -1.6584  0.9602
19703TIP3    H280525   3.657   3.080   1.710 -0.3022 -0.3642 -0.6958
19704TIP3   OH280526   3.531   2.345   2.563  0.7019  0.4294  0.3861
19704TIP3    H180527   3.549   2.394   2.483  1.1469  0.2289  0.3622
19704TIP3    H280528   3.476   2.404   2.615 -1.5922 -0.3404 -1.0477
19705TIP3   OH280529   6.105   2.097  16.529 -0.2030  0.1376 -0.5020
19705TIP3    H180530   6.123   2.020  16.475  1.5775 -1.3557  1.9982
19705TIP3    H280531   6.169   2.092  16.599 -2.9911  1.3155  2.3700
19706TIP3   OH280532   3.467   3.719   1.164 -0.7498 -0.5687  0.2438
19706TIP3    H180533   3.560   3.700   1.176 -0.8656 -1.7642 -0.6270
19706TIP3    H280534   3.452   3.800   1.214  0.5475 -0.8648  1.1439
19707TIP3   OH280535   2.619   4.385   2.246 -0.3833  0.2103 -0.0235
19707TIP3    H180536   2.563   4.463   2.250 -1.1859 -0.2559 -1.5058
19707TIP3    H280537   2.699   4.410   2.292 -0.8006  1.7514 -0.0949
19708TIP3   OH280538   0.382   0.098  13.397 -0.7649 -0.2011  0.5334
19708TIP3    H180539   0.357   0.190  13.410 -1.3031 -0.4405  1.2397
19708TIP3    H280540   0.361   0.056  13.480 -0.4630 -0.9539  0.2290
19709TIP3   OH280541   1.093   6.511  13.595  0.3843 -0.0597  0.0734
19709TIP3    H180542   1.140   6.436  13.559  1.1440  1.0855 -1.4230
19709TIP3    H280543   1.156   6.553  13.653  0.1720 -0.1982  0.4111
19710TIP3   OH280544   4.946   2.461   1.822  0.0889  0.2027 -0.2429
19710TIP3    H180545   4.936   2.444   1.916  0.1024  0.9730 -0.1012
19710TIP3    H280546   5.037   2.489   1.813 -0.6825  2.9781 -0.0412
19711TIP3   OH280547   2.677   2.328   4.170  0.1150 -0.9963 -0.4474
19711TIP3    H180548   2.588   2.357   4.150 -0.2625 -1.4100  0.5621
19711TIP3    H280549   2.719   2.319   4.085 -0.2704  0.8375 -0.8908
19712TIP3   OH280550   5.055   4.586  13.077 -0.1841 -0.0078  0.3539
19712TIP3    H180551   5.134   4.550  13.037  0.0700 -0.2197  1.0374
19712TIP3    H280552   5.008   4.627  13.004  0.7449  0.4682  0.0094
19713TIP3   OH280553   0.388   2.641  16.759  0.2613  0.3676  0.1447
19713TIP3    H180554   0.361   2.580  16.690 -1.0243 -0.2548  1.1450
19713TIP3    H280555   0.361   2.727  16.727 -1.2830 -0.0308  0.2788
19714TIP3   OH280556   0.722   1.475  11.865 -0.4689  0.1028 -0.0692
19714TIP3    H180557   0.722   1.436  11.777  2.3129  1.1952 -0.6454
19714TIP3    H280558   0.666   1.552  11.858 -0.1890  0.2331 -0.9214
19715TIP3   OH280559   0.787   0.559   4.733 -0.3764 -0.7887 -0.7436
19715TIP3    H180560   0.759   0.544   4.643 -0.2901  2.9372 -1.5650
19715TIP3    H280561   0.715   0.609   4.772  0.5567 -0.3577  0.4962
19716TIP3   OH280562   3.584   5.398  12.677  0.4132  0.0959  0.1343
19716TIP3    H180563   3.627   5.354  12.750  0.5770  0.7727  0.4468
19716TIP3    H280564   3.594   5.491  12.695  0.3622  0.2731 -0.6935
19717TIP3   OH280565   0.614   2.287  13.604 -0.1817 -0.2071 -0.1735
19717TIP3    H180566   0.684   2.347  13.577 -1.2572  0.7418 -0.9294
19717TIP3    H280567   0.631   2.271  13.697  1.0793 -0.0584 -0.3545
19718TIP3   OH280568   0.428   4.867   3.673  0.0429  0.1185  0.0319
19718TIP3    H180569   0.482   4.829   3.743  2.0155  0.6357 -1.1093
19718TIP3    H280570   0.422   4.960   3.697  0.5393  0.2546 -0.3602
19719TIP3   OH280571   6.404   3.190   4.871 -0.4750 -0.0085  0.3646
19719TIP3    H180572   6.470   3.194   4.802 -1.2476 -1.0822 -0.4802
19719TIP3    H280573   6.451   3.212   4.951  0.5336  0.8649 -0.4315
19720TIP3   OH280574   4.539   4.869  11.799 -0.0930 -0.2852 -0.7532
19720TIP3    H180575   4.486   4.839  11.873 -1.9667 -1.3165 -2.4210
19720TIP3    H280576   4.481   4.862  11.723  1.7868  0.6150 -2.3670
19721TIP3   OH280577   1.512   6.243   6.408  0.0221  0.4831  0.0292
19721TIP3    H180578   1.594   6.206   6.439 -0.5808 -0.6971  0.2481
19721TIP3    H280579   1.456   6.247   6.486  0.2705  2.4654  0.1507
19722TIP3   OH280580   2.485   6.497  17.014 -0.0292  0.0263 -0.1506
19722TIP3    H180581   2.454   6.441  16.943 -0.1532 -1.4265  1.0103
19722TIP3    H280582   2.479   6.443  17.092  0.6885  1.3823  0.8912
19723TIP3   OH280583   5.493   4.056   2.159  0.0913  0.7229  0.0570
19723TIP3    H180584   5.413   4.100   2.188  0.1563  0.5853  0.4435
19723TIP3    H280585   5.483   4.049   2.064  0.7972  3.0254 -0.2394
19724TIP3   OH280586   2.449   4.030  12.989  0.3700 -0.2386 -0.0072
19724TIP3    H180587   2.365   4.049  12.948 -0.1990  0.5796  1.4504
19724TIP3    H280588   2.427   3.985  13.070  1.2779  0.5497  0.7124
19725TIP3   OH280589   3.131   0.650   1.348  0.4630  0.0730  0.1562
19725TIP3    H180590   3.128   0.741   1.378 -0.4599 -0.2262  1.0104
19725TIP3    H280591   3.207   0.613   1.393  0.7766  0.3849 -0.1098
19726TIP3   OH280592   4.264   1.746  11.648  0.5716 -0.8628  0.5585
19726TIP3    H180593   4.206   1.817  11.623  0.5852 -0.8799  0.4780
19726TIP3    H280594   4.225   1.667  11.610  0.3406 -0.9567  0.9801
19727TIP3   OH280595   2.202   3.078  17.212 -0.6661 -0.1200  0.1654
19727TIP3    H180596   2.216   2.995  17.167 -0.4014  0.6142 -1.1716
19727TIP3    H280597   2.150   3.130  17.151 -1.7865  0.3236  1.4394
19728TIP3   OH280598   4.313   5.718   6.472 -0.1092 -0.9236 -0.5694
19728TIP3    H180599   4.404   5.747   6.472  0.2069 -1.8603  0.8700
19728TIP3    H280600   4.263   5.799   6.486  0.6298 -0.6883  0.8954
19729TIP3   OH280601   1.024   0.531   6.400  0.3713 -0.4771  0.2005
19729TIP3    H180602   1.108   0.494   6.428  0.5470 -0.5484 -0.4183
19729TIP3    H280603   0.966   0.456   6.392 -0.2880 -0.2714  2.3803
19730TIP3   OH280604   1.634   2.998  11.237 -0.1092 -0.4739 -0.0693
19730TIP3    H180605   1.567   2.936  11.267  0.1974 -0.4501  0.6738
19730TIP3    H280606   1.649   2.974  11.145 -2.1210  0.3837 -0.7006
19731TIP3   OH280607   2.404   1.889   4.731  0.3930 -0.5874  0.8438
19731TIP3    H180608   2.424   1.924   4.644  2.4176 -2.5490  0.4205
19731TIP3    H280609   2.336   1.823   4.716  1.3761 -1.5688  0.5498
19732TIP3   OH280610   1.034   0.860   1.734  0.5456 -0.4438  0.2000
19732TIP3    H180611   1.122   0.897   1.722  1.2730 -1.7106  1.4179
19732TIP3    H280612   0.984   0.932   1.774  1.2825  0.0045  0.3464
19733TIP3   OH280613   4.915   0.772  12.230 -0.7516 -0.4423  0.1607
19733TIP3    H180614   4.869   0.740  12.308  0.1267  1.5988  1.6082
19733TIP3    H280615   4.876   0.858  12.214 -1.0136 -0.8957 -1.7858
19734TIP3   OH280616   5.710   2.236  17.053  0.1975  0.2895  0.5326
19734TIP3    H180617   5.772   2.298  17.092  0.3610 -0.9720  2.4030
19734TIP3    H280618   5.742   2.221  16.964  2.7484 -0.5129  1.5169
19735TIP3   OH280619   5.712   0.610   6.507 -0.3620 -0.4068  0.0045
19735TIP3    H180620   5.772   0.652   6.445  0.2657 -1.1878  0.0770
19735TIP3    H280621   5.658   0.682   6.539  0.5003  0.3122 -0.0993
19736TIP3   OH280622   5.345   5.199   0.541 -0.1019  0.1057  0.2605
19736TIP3    H180623   5.396   5.263   0.591  4.1833 -0.2821 -3.0344
19736TIP3    H280624   5.321   5.246   0.461 -0.1865 -1.3375 -0.5838
19737TIP3   OH280625   0.676   6.785   2.851  0.1107  0.1011 -0.6526
19737TIP3    H180626   0.730   6.794   2.772  0.2883 -1.5334 -0.7516
19737TIP3    H280627   0.730   6.820   2.921  1.0391 -0.8793 -0.8623
19738TIP3   OH280628   5.614   5.287  11.967  0.3218 -0.1172 -0.5691
19738TIP3    H180629   5.540   5.332  12.007  0.2052 -1.4136  0.7544
19738TIP3    H280630   5.578   5.205  11.933  1.1625 -0.9071  0.3617
19739TIP3   OH280631   3.267   2.832  17.091  0.0408 -0.2859 -0.5682
19739TIP3    H180632   3.363   2.825  17.088  0.4058  2.6128  1.1781
19739TIP3    H280633   3.250   2.907  17.147 -3.3508 -2.0857  1.1207
19740TIP3   OH280634   1.456   1.093  12.708  0.2685 -0.2063  0.2820
19740TIP3    H180635   1.420   1.089  12.619  2.4558  0.4728 -0.6788
19740TIP3    H280636   1.386   1.133  12.760  0.6021  3.9753 -2.1143
19741TIP3   OH280637   1.120   3.525   2.728 -0.0085  0.2850 -0.0025
19741TIP3    H180638   1.149   3.458   2.666 -2.7309  1.0872 -2.3774
19741TIP3    H280639   1.196   3.582   2.739  0.8656 -0.4131 -1.9450
19742TIP3   OH280640   1.296   6.747   5.570 -0.1409 -0.2075  0.3424
19742TIP3    H180641   1.378   6.796   5.564  0.3268 -0.7962  1.5298
19742TIP3    H280642   1.241   6.783   5.500  0.3579  1.6416  0.8396
19743TIP3   OH280643   0.436   4.074   5.159  0.0674  0.0737  0.4996
19743TIP3    H180644   0.480   3.993   5.131 -0.3112  0.2024 -0.4972
19743TIP3    H280645   0.343   4.051   5.161 -0.1711  0.8232 -1.0351
19744TIP3   OH280646   2.642   2.402  13.793  1.1194 -0.5683  0.4954
19744TIP3    H180647   2.709   2.379  13.857  1.9391 -1.8490 -0.7620
19744TIP3    H280648   2.657   2.342  13.720  0.1463  0.7517 -0.8556
19745TIP3   OH280649   4.032   3.818  11.623  0.0940 -0.6957  0.3380
19745TIP3    H180650   4.121   3.792  11.599  0.3651  1.2180 -0.9750
19745TIP3    H280651   3.979   3.793  11.548  0.1705  1.2898 -0.4351
19746TIP3   OH280652   0.346   4.644   5.321  0.5872  0.8196 -0.2193
19746TIP3    H180653   0.277   4.620   5.383 -1.5942  1.2573 -2.3288
19746TIP3    H280654   0.356   4.739   5.332  0.8735  0.7518  0.1065
19747TIP3   OH280655   5.369   5.020   4.011  0.2334 -0.1908 -0.5509
19747TIP3    H180656   5.283   5.031   4.052  0.0072  0.1068 -1.0943
19747TIP3    H280657   5.370   5.085   3.940  1.6404  1.1309  0.6108
19748TIP3   OH280658   2.156   1.027  13.736  0.0901 -0.2978 -0.3961
19748TIP3    H180659   2.213   1.038  13.813  0.4791  1.9628 -0.9208
19748TIP3    H280660   2.216   1.020  13.662 -0.2637 -3.0642 -0.5350
19749TIP3   OH280661   6.049   0.671  10.492  0.4371  0.2697 -0.0878
19749TIP3    H180662   6.080   0.761  10.483  0.6178  0.2451  0.2706
19749TIP3    H280663   5.955   0.676  10.472  0.2872  0.6759  0.6738
19750TIP3   OH280664   3.799   2.790   1.811 -0.2648 -0.2525  0.0381
19750TIP3    H180665   3.751   2.812   1.890 -2.8002 -1.7887 -0.9528
19750TIP3    H280666   3.826   2.874   1.775 -1.9246  0.6857  0.8668
19751TIP3   OH280667   4.576   3.463   0.968 -0.4034 -0.2574 -0.0007
19751TIP3    H180668   4.580   3.473   0.873 -2.0541  0.4099 -0.0233
19751TIP3    H280669   4.535   3.543   0.999 -1.0946 -1.0323  1.1443
19752TIP3   OH280670   5.321   0.348  11.564  0.2174  0.1312 -0.2335
19752TIP3    H180671   5.324   0.418  11.629 -0.0201 -1.1619  1.2246
19752TIP3    H280672   5.251   0.290  11.594  0.1915 -0.5827 -1.5766
19753TIP3   OH280673   2.878   6.522   4.691 -0.0565  0.1639 -0.4009
19753TIP3    H180674   2.870   6.579   4.614  0.4863 -0.5932 -1.0288
19753TIP3    H280675   2.792   6.479   4.697 -1.7588  3.4044  2.0621
19754TIP3   OH280676   4.867   0.962   2.987 -0.1643 -0.8510  0.2264
19754TIP3    H180677   4.808   1.037   2.995  1.1126  0.5165 -2.1183
19754TIP3    H280678   4.947   0.989   3.032  0.1109 -1.0294 -0.1541
19755TIP3   OH280679   3.713   4.383   1.495 -0.1733  0.4925 -0.3022
19755TIP3    H180680   3.768   4.367   1.572  0.2097 -0.2291 -0.7036
19755TIP3    H280681   3.690   4.475   1.500  3.0693  1.5078 -1.3537
19756TIP3   OH280682   2.502   0.279  15.480 -0.2765  0.4177 -0.2740
19756TIP3    H180683   2.483   0.255  15.389  1.8648  1.6155 -1.1084
19756TIP3    H280684   2.597   0.284  15.484 -0.3557  1.2298  1.8296
19757TIP3   OH280685   0.029   0.599  12.263 -1.2184  0.4431  0.1162
19757TIP3    H180686  -0.015   0.632  12.342  1.2264  1.0252  1.3549
19757TIP3    H280687  -0.011   0.514  12.247 -3.0947  1.1388  0.8202
19758TIP3   OH280688   1.115   3.709  11.541 -0.4958 -0.1088  0.1667
19758TIP3    H180689   1.200   3.705  11.496 -1.0384  1.0940 -1.0409
19758TIP3    H280690   1.081   3.620  11.536 -0.3791 -0.0882 -1.5154
19759TIP3   OH280691   5.635   2.511   4.266 -0.2030 -0.2390  0.0341
19759TIP3    H180692   5.709   2.454   4.289  0.2859  0.2334 -0.3322
19759TIP3    H280693   5.668   2.600   4.278 -0.3211  0.0009 -1.2487
19760TIP3   OH280694   3.503   6.177  12.949  0.5380  0.1781 -0.1398
19760TIP3    H180695   3.433   6.220  12.901  1.6788  2.4928  0.1320
19760TIP3    H280696   3.471   6.172  13.039 -0.5643 -1.8525 -0.5766
19761TIP3   OH280697   5.762   3.428  13.096 -0.3618  0.7698  0.0461
19761TIP3    H180698   5.857   3.438  13.088 -0.3063  0.7299  0.6223
19761TIP3    H280699   5.735   3.392  13.011  0.0022  1.7139 -0.4888
19762TIP3   OH280700   6.404   3.675   5.917  0.1880  0.0856 -0.1032
19762TIP3    H180701   6.345   3.742   5.884 -0.3193 -0.2687  0.0789
19762TIP3    H280702   6.399   3.604   5.854 -1.5376 -1.0042  1.1934
19763TIP3   OH280703   6.485   2.510   6.487 -0.1304 -0.2440  0.0657
19763TIP3    H180704   6.576   2.497   6.515 -0.2073  0.9954  0.9822
19763TIP3    H280705   6.459   2.425   6.450  0.5814 -1.4541  2.1232
19764TIP3   OH280706   2.220   2.443   1.831  0.1291 -0.4814  0.4364
19764TIP3    H180707   2.287   2.381   1.861 -0.2940 -1.0451  0.2136
19764TIP3    H280708   2.162   2.454   1.907  1.0429  0.8197  0.9926
19765TIP3   OH280709   2.238   1.218   5.928 -0.4566 -0.3979 -0.1232
19765TIP3    H180710   2.288   1.271   5.990  1.4137 -1.6312 -0.4935
19765TIP3    H280711   2.153   1.206   5.970 -0.3452  1.4055  0.7366
19766TIP3   OH280712   5.061   1.400  13.311 -0.5438 -0.4936 -0.4460
19766TIP3    H180713   5.087   1.359  13.393 -1.6878  0.3391  0.3675
19766TIP3    H280714   5.108   1.484  13.310 -1.1722 -0.1316 -0.2198
19767TIP3   OH280715   6.777   1.958   1.308 -0.8283  0.2617  0.3907
19767TIP3    H180716   6.728   1.896   1.254 -0.8934 -0.5723  1.3749
19767TIP3    H280717   6.766   1.926   1.397  2.0581 -0.3491  0.5998
19768TIP3   OH280718   2.626   2.969  11.206  0.5544 -0.2548 -0.3008
19768TIP3    H180719   2.597   2.898  11.263 -0.1157 -0.2349 -0.6016
19768TIP3    H280720   2.677   2.925  11.138  1.4812 -0.2632  0.3762
19769TIP3   OH280721   5.256   0.282   3.190 -0.0721 -0.3262 -0.3017
19769TIP3    H180722   5.318   0.350   3.166  0.1226 -0.4670 -0.2030
19769TIP3    H280723   5.174   0.308   3.149 -0.1024  0.1806  0.0625
19770TIP3   OH280724   5.948   0.001  13.623 -0.0830 -0.3585 -0.0964
19770TIP3    H180725   5.869   0.056  13.623 -0.6604 -1.1580 -0.8570
19770TIP3    H280726   5.922  -0.079  13.576  0.9182 -1.0215  0.4401
19771TIP3   OH280727   4.087   4.588  16.867  0.0782  0.6064 -0.8688
19771TIP3    H180728   4.167   4.599  16.814  1.3795  1.4739  1.1748
19771TIP3    H280729   4.110   4.521  16.931 -0.6593  1.2453  0.0789
19772TIP3   OH280730   4.283   6.339   0.426  0.0820 -0.6395  0.0519
19772TIP3    H180731   4.248   6.428   0.439 -0.6657 -0.8567 -0.3725
19772TIP3    H280732   4.278   6.326   0.331 -2.2962 -2.0951  0.3041
19773TIP3   OH280733   0.428   3.705   6.471 -0.4144 -0.3256 -0.1381
19773TIP3    H180734   0.484   3.742   6.403 -0.3552  0.0753  0.1212
19773TIP3    H280735   0.364   3.775   6.490 -1.0089 -0.7786 -0.4404
19774TIP3   OH280736   0.135   6.102   5.563  0.0920  0.0355  0.9095
19774TIP3    H180737   0.142   6.106   5.468  1.1967  1.5458  1.0222
19774TIP3    H280738   0.116   6.192   5.590  1.4851 -0.0138  2.2031
19775TIP3   OH280739   6.775   3.265  16.559  0.1942 -0.2890 -0.5731
19775TIP3    H180740   6.686   3.234  16.543 -0.1224  0.0932  0.4022
19775TIP3    H280741   6.773   3.302  16.647  2.1374 -3.4501  0.9839
19776TIP3   OH280742   6.405   3.851  16.157  0.2465 -0.2399 -0.2373
19776TIP3    H180743   6.464   3.898  16.216  1.6564 -2.0878 -0.0722
19776TIP3    H280744   6.342   3.809  16.215 -0.1215  0.2512 -0.2763
19777TIP3   OH280745   6.592   1.384   4.741  0.0940 -0.5003  0.0815
19777TIP3    H180746   6.531   1.311   4.749 -1.0002  0.4743  0.9639
19777TIP3    H280747   6.588   1.409   4.649  0.6132 -1.6354 -0.2712
19778TIP3   OH280748   2.780   4.309  14.391 -0.7357  0.2341  0.4365
19778TIP3    H180749   2.796   4.369  14.464  1.9364  0.4156 -0.2054
19778TIP3    H280750   2.800   4.222  14.426  4.3192  0.5885 -0.7989
19779TIP3   OH280751   0.842   1.637   6.026 -0.1668 -0.1683 -0.2506
19779TIP3    H180752   0.824   1.628   5.933  0.0901  0.0649 -0.3253
19779TIP3    H280753   0.868   1.549   6.054  1.7567  0.1550 -0.8486
19780TIP3   OH280754   1.548   0.550   5.110  0.0026 -0.1251 -0.3397
19780TIP3    H180755   1.614   0.618   5.124 -0.1170  0.0529 -0.6290
19780TIP3    H280756   1.582   0.499   5.036 -0.8171  0.7867 -1.3859
19781TIP3   OH280757   0.497   2.939  16.259 -0.2658 -0.5063 -0.1488
19781TIP3    H180758   0.557   2.868  16.282  0.0148 -0.6039 -1.1428
19781TIP3    H280759   0.451   2.958  16.341  0.2237 -1.2810  0.3266
19782TIP3   OH280760   3.428   2.223  16.487 -0.6062 -0.0897  0.3792
19782TIP3    H180761   3.398   2.192  16.573 -0.1600  0.2832  0.6715
19782TIP3    H280762   3.359   2.196  16.427 -0.9880 -0.2346  0.8754
19783TIP3   OH280763   2.179   1.934  11.528 -0.2891  0.2553 -0.6911
19783TIP3    H180764   2.270   1.923  11.501 -0.2464 -1.5369  0.0543
19783TIP3    H280765   2.179   2.016  11.577  1.6323 -1.1120  1.8545
19784TIP3   OH280766   4.641   3.771  17.068  0.0913 -0.0339 -0.0831
19784TIP3    H180767   4.670   3.683  17.094  1.1455  0.6282  1.0686
19784TIP3    H280768   4.684   3.786  16.984  2.7790  0.7116  1.3381
19785TIP3   OH280769   6.630   2.696   6.222 -0.8320  0.2545  0.2664
19785TIP3    H180770   6.700   2.711   6.159 -0.9828  2.0379  0.4844
19785TIP3    H280771   6.667   2.721   6.306 -1.6594  1.0417  0.4118
19786TIP3   OH280772   0.836   5.102  17.180 -0.4185  0.0101  0.4044
19786TIP3    H180773   0.816   5.194  17.164 -0.8802 -0.3399 -1.1215
19786TIP3    H280774   0.929   5.094  17.160 -0.0456  0.3988  1.8421
19787TIP3   OH280775   3.788   3.171  15.065  0.6614 -0.7129  0.2838
19787TIP3    H180776   3.780   3.129  15.151 -1.1920  0.4233  0.7281
19787TIP3    H280777   3.744   3.111  15.005  1.1804 -1.0901  0.2745
19788TIP3   OH280778   0.484   5.841   2.922  0.2982 -0.1398 -1.0235
19788TIP3    H180779   0.468   5.908   2.988  2.7128 -0.3252 -0.1339
19788TIP3    H280780   0.553   5.878   2.866  1.0297 -1.4908 -1.0627
19789TIP3   OH280781   6.335   2.322  15.512 -0.0503  0.6665 -0.0475
19789TIP3    H180782   6.400   2.283  15.571  0.9173 -0.7426 -1.9534
19789TIP3    H280783   6.253   2.281  15.536  0.2531  0.4240  0.5907
19790TIP3   OH280784   5.165   3.247  12.817  0.5172  0.1258 -0.2039
19790TIP3    H180785   5.250   3.261  12.860  0.2786 -0.4406  0.4606
19790TIP3    H280786   5.126   3.174  12.864 -0.8224  1.0701  0.1997
19791TIP3   OH280787   4.362   6.005  13.062  0.4394  0.6686  0.5558
19791TIP3    H180788   4.348   6.042  12.975  0.3599  0.5077  0.4984
19791TIP3    H280789   4.430   6.059  13.102  0.3173  0.8795  0.4771
19792TIP3   OH280790   4.878   0.536  11.938 -0.6271 -0.0661 -0.1605
19792TIP3    H180791   4.940   0.483  11.989 -1.1994 -1.2322 -0.6376
19792TIP3    H280792   4.810   0.560  12.002  0.1723  1.0168  0.3069
19793TIP3   OH280793   0.795   1.961  11.244  1.1732  0.5940 -0.1123
19793TIP3    H180794   0.782   1.868  11.260  2.0269  0.4792 -0.0673
19793TIP3    H280795   0.825   1.966  11.153  0.9695  0.8434 -0.1681
19794TIP3   OH280796   3.177   2.985   0.448 -0.1551 -0.0699  0.0215
19794TIP3    H180797   3.093   3.030   0.456 -0.2652 -0.4587  1.2445
19794TIP3    H280798   3.239   3.041   0.497  0.1950 -0.0382 -0.4517
19795TIP3   OH280799   4.554   5.717   3.697 -0.4042 -0.2387 -0.6225
19795TIP3    H180800   4.509   5.801   3.691 -0.3661 -0.2476 -1.1124
19795TIP3    H280801   4.532   5.672   3.615 -0.8878 -0.9472 -0.1147
19796TIP3   OH280802   0.888   6.634   0.837  0.3949  0.2083  0.3221
19796TIP3    H180803   0.885   6.554   0.785  3.2001  1.4943 -2.0706
19796TIP3    H280804   0.834   6.697   0.789  1.5912  0.9121 -0.1352
19797TIP3   OH280805   2.284   4.786  14.715 -0.3592  0.2899  0.8241
19797TIP3    H180806   2.340   4.768  14.791  0.1232 -0.2771  0.3429
19797TIP3    H280807   2.208   4.729  14.727  1.1875 -2.3300 -0.7265
19798TIP3   OH280808   3.104   1.972   5.610  0.1226  0.0974 -0.5503
19798TIP3    H180809   3.023   2.021   5.600  1.0456  1.5921 -1.1606
19798TIP3    H280810   3.170   2.038   5.631  1.0829 -1.1511  0.5674
19799TIP3   OH280811   1.215   5.605  13.927  0.5438  0.2480 -0.4097
19799TIP3    H180812   1.243   5.520  13.894 -3.9385 -0.9701 -1.7785
19799TIP3    H280813   1.260   5.669  13.871  2.6435 -1.2117 -0.5071
19800TIP3   OH280814   5.668   0.463  11.698  0.3363  0.0050  0.3334
19800TIP3    H180815   5.640   0.500  11.615 -1.6161 -0.4823  0.7348
19800TIP3    H280816   5.678   0.539  11.756 -1.4365  0.1151  0.5238
19801TIP3   OH280817   2.756   3.219   3.949  0.5029  0.2388  0.2535
19801TIP3    H180818   2.758   3.123   3.954 -0.7205  0.1790 -0.0355
19801TIP3    H280819   2.663   3.241   3.952  0.7177  1.3695 -0.6422
19802TIP3   OH280820   6.708   4.644   4.528  0.0631  0.2610  0.1160
19802TIP3    H180821   6.738   4.602   4.448  3.2226 -1.3604  1.9421
19802TIP3    H280822   6.761   4.723   4.536 -1.6340  1.5191 -0.2718
19803TIP3   OH280823   0.968   2.120   3.746 -0.0476  0.2115  0.2386
19803TIP3    H180824   1.023   2.110   3.824  2.2060  2.0039 -1.0047
19803TIP3    H280825   0.897   2.178   3.774  1.6717  2.2310  0.5965
19804TIP3   OH280826   3.048   1.500   3.883  0.7563 -0.2857  0.0788
19804TIP3    H180827   3.077   1.434   3.945 -0.4739 -0.6403  0.2998
19804TIP3    H280828   2.954   1.510   3.900  0.9828  1.8704  0.3782
19805TIP3   OH280829   2.949   1.355   2.649 -0.0062  0.4231 -0.2586
19805TIP3    H180830   2.909   1.290   2.707 -0.7363  1.0853 -0.0139
19805TIP3    H280831   3.042   1.330   2.646 -0.2037 -0.4053  0.1248
19806TIP3   OH280832   2.866   2.857  13.862 -0.5103  0.4072  0.3514
19806TIP3    H180833   2.921   2.856  13.940 -1.5318 -0.3519  1.0971
19806TIP3    H280834   2.814   2.776  13.869 -1.1160  0.6867 -0.7485
19807TIP3   OH280835   1.919   4.378   6.262 -0.1056  0.3070 -0.0205
19807TIP3    H180836   1.936   4.391   6.356 -1.1818  0.2128  0.2036
19807TIP3    H280837   2.003   4.349   6.226 -0.2613 -2.2021  1.3953
19808TIP3   OH280838   4.192   4.539   5.374  0.2799  0.5536 -0.2206
19808TIP3    H180839   4.206   4.621   5.421 -2.3584  0.5737  0.6787
19808TIP3    H280840   4.280   4.502   5.364  1.2696  2.1327  1.8219
19809TIP3   OH280841   1.030   4.517   2.284 -0.4021 -0.8926  0.3731
19809TIP3    H180842   0.983   4.464   2.349  1.1751 -2.4020  0.3552
19809TIP3    H280843   1.101   4.558   2.333  1.6936 -3.1878 -0.5396
19810TIP3   OH280844   5.509   2.492  13.245 -0.2314 -0.0915 -0.0942
19810TIP3    H180845   5.468   2.576  13.224  2.1945  1.1171 -0.3558
19810TIP3    H280846   5.516   2.447  13.161 -1.0381 -0.3443 -0.0358
19811TIP3   OH280847   3.067   3.765  14.631  0.4977 -0.1432  0.7347
19811TIP3    H180848   3.093   3.847  14.589  1.1558  0.7525  2.7659
19811TIP3    H280849   3.017   3.793  14.708 -0.8054 -1.7200  0.5122
19812TIP3   OH280850   3.411   0.591   0.792 -0.3024  0.1444 -0.1446
19812TIP3    H180851   3.378   0.675   0.825 -2.0079 -0.7008  0.4281
19812TIP3    H280852   3.335   0.552   0.748  0.3469 -1.2929 -0.0216
19813TIP3   OH280853   3.346   3.592   0.725 -0.1034  0.2479 -0.5466
19813TIP3    H180854   3.359   3.670   0.671 -1.6176 -0.1491 -1.5520
19813TIP3    H280855   3.321   3.523   0.663  1.0384 -1.0146  0.3386
19814TIP3   OH280856   6.564   6.355  15.529 -0.0142 -0.2734 -0.3093
19814TIP3    H180857   6.633   6.346  15.595 -1.2472 -0.7329  0.9661
19814TIP3    H280858   6.488   6.389  15.578 -1.0311 -0.8196 -1.4442
19815TIP3   OH280859   3.041   2.923   6.332  0.2637  0.2177 -0.2078
19815TIP3    H180860   3.028   2.997   6.391  1.2252 -0.0587  0.3764
19815TIP3    H280861   3.106   2.868   6.376 -1.0014 -1.3941 -0.2377
19816TIP3   OH280862   2.168   5.699   4.909 -0.2939  0.4118 -0.1191
19816TIP3    H180863   2.260   5.676   4.918 -0.6990 -0.3185  3.2449
19816TIP3    H280864   2.162   5.787   4.946 -0.9447  0.5585 -0.5561
19817TIP3   OH280865   2.082   5.236  14.630 -1.2017 -0.1011 -0.0369
19817TIP3    H180866   2.154   5.232  14.693  1.2623 -1.2107 -2.6815
19817TIP3    H280867   2.077   5.147  14.595 -2.2257  0.5552 -1.6515
19818TIP3   OH280868   0.894   3.434  14.005  0.5307  0.8412 -0.7030
19818TIP3    H180869   0.867   3.346  14.031 -2.1063  1.9802  0.8643
19818TIP3    H280870   0.902   3.482  14.087 -0.0590  2.5382 -1.5707
19819TIP3   OH280871   2.660   6.383  15.211 -0.4248  0.0707  0.3287
19819TIP3    H180872   2.571   6.406  15.238 -0.8460 -0.7056 -0.3607
19819TIP3    H280873   2.649   6.336  15.128  0.5318 -0.9701  0.7583
19820TIP3   OH280874   3.509   4.806   3.849  0.2166 -0.2431 -0.4304
19820TIP3    H180875   3.534   4.775   3.937 -2.2207 -1.9322 -0.2327
19820TIP3    H280876   3.592   4.808   3.800  1.4821 -0.2764  1.5797
19821TIP3   OH280877   4.528   1.851  17.142  0.1864 -0.3362 -0.1178
19821TIP3    H180878   4.561   1.919  17.083 -2.1547  1.3973  0.4355
19821TIP3    H280879   4.486   1.787  17.084 -0.7995  0.5897 -0.4541
19822TIP3   OH280880   0.903   2.558   2.650  0.3691  0.2965 -0.1756
19822TIP3    H180881   0.826   2.538   2.597 -0.3526  1.4026  0.4109
19822TIP3    H280882   0.958   2.480   2.644 -0.9087 -0.6126 -0.4105
19823TIP3   OH280883   2.624   4.531  14.304  0.0252  0.3103 -0.4019
19823TIP3    H180884   2.650   4.441  14.326 -2.1936  0.1831  2.2728
19823TIP3    H280885   2.539   4.521  14.262  0.6443  1.1087 -1.9206
19824TIP3   OH280886   4.895   1.512   6.317  0.1763 -0.0570 -0.1730
19824TIP3    H180887   4.983   1.548   6.310  0.4311 -0.5946  0.2106
19824TIP3    H280888   4.899   1.452   6.392 -0.2527 -0.8303 -0.7542
19825TIP3   OH280889   1.059   2.323  12.433  0.4153  0.1826 -0.4872
19825TIP3    H180890   1.000   2.253  12.460  0.0859  0.3016 -0.8770
19825TIP3    H280891   1.091   2.295  12.347  0.1664  0.5723 -0.7119
19826TIP3   OH280892   2.767   5.008  12.179 -0.9130  0.6037  0.8008
19826TIP3    H180893   2.773   4.913  12.172 -0.4949  0.6975 -0.5082
19826TIP3    H280894   2.715   5.034  12.103  2.3063  1.6941 -1.2562
19827TIP3   OH280895   4.829   6.335  16.762  0.1426  0.1091 -0.0714
19827TIP3    H180896   4.901   6.345  16.699  0.1272  0.2309 -0.0689
19827TIP3    H280897   4.801   6.244  16.750  2.1480 -0.8893  1.9129
19828TIP3   OH280898   6.666   3.265   5.455 -1.1066 -0.6892  0.0841
19828TIP3    H180899   6.585   3.229   5.421 -3.3847  2.2239  1.9474
19828TIP3    H280900   6.723   3.274   5.378 -3.1783 -1.2151 -1.5846
19829TIP3   OH280901   0.544   1.857  11.633 -0.2813 -0.2863  0.3653
19829TIP3    H180902   0.609   1.874  11.700  0.8259  1.5020 -1.0630
19829TIP3    H280903   0.531   1.942  11.590 -0.3281 -1.5031 -2.1869
19830TIP3   OH280904   4.835   5.384   2.300 -0.3018 -0.3310  0.3041
19830TIP3    H180905   4.806   5.437   2.225 -0.0840  1.6099  1.5300
19830TIP3    H280906   4.763   5.322   2.313 -1.5579  0.9990  0.0611
19831TIP3   OH280907   6.031   3.696   1.029  0.4036 -0.4270  0.3507
19831TIP3    H180908   5.998   3.656   1.109 -0.1301 -1.6799 -0.4737
19831TIP3    H280909   6.096   3.634   0.996  1.2895  0.5065  0.2686
19832TIP3   OH280910   1.589   3.142   1.026  0.5551 -0.1685  0.1009
19832TIP3    H180911   1.509   3.179   1.062  0.8418  0.1114  0.4635
19832TIP3    H280912   1.632   3.099   1.101 -0.6861 -2.9499 -0.6477
19833TIP3   OH280913   2.999   6.088  13.161  0.0600 -0.2361  0.6456
19833TIP3    H180914   3.073   6.058  13.214 -0.4627 -1.8619  0.5021
19833TIP3    H280915   3.039   6.115  13.078  0.7018  0.8340  1.2842
19834TIP3   OH280916   5.275   3.035   6.033 -0.1821  0.6891  0.4800
19834TIP3    H180917   5.293   3.048   6.126  2.0630  1.8987 -0.0624
19834TIP3    H280918   5.229   2.951   6.029 -1.1426  1.0317  2.7310
19835TIP3   OH280919   1.286   1.216  14.578 -0.0446  0.4694 -0.3687
19835TIP3    H180920   1.308   1.211  14.671 -0.8583 -0.2494 -0.2027
19835TIP3    H280921   1.297   1.308  14.556 -0.4283  0.7598  0.5861
19836TIP3   OH280922   3.982   1.587   1.124 -0.1087 -0.1702  0.3708
19836TIP3    H180923   4.021   1.615   1.041  4.3542 -0.0993  2.2131
19836TIP3    H280924   4.005   1.495   1.132 -1.0295 -0.3401  1.2766
19837TIP3   OH280925   4.841   1.326   0.151  0.2386  0.4274  0.1678
19837TIP3    H180926   4.809   1.245   0.112  0.0230  0.4651  0.2670
19837TIP3    H280927   4.776   1.349   0.217  0.6193  0.3507  0.5724
19838TIP3   OH280928   4.358   3.407  13.199 -1.2453 -0.4299  0.4946
19838TIP3    H180929   4.453   3.403  13.208 -1.0743 -4.2414 -1.4315
19838TIP3    H280930   4.326   3.393  13.288 -0.0050 -0.3748  0.9773
19839TIP3   OH280931   2.439   1.840   1.993 -0.0404  0.1593 -0.2010
19839TIP3    H180932   2.426   1.912   1.930 -1.6025 -0.9480 -1.2134
19839TIP3    H280933   2.532   1.842   2.012  0.1992  1.5627 -1.3096
19840TIP3   OH280934   3.939   4.485  14.969 -0.6134 -0.2256  0.0044
19840TIP3    H180935   3.946   4.529  15.054 -0.6907  0.0698 -0.1395
19840TIP3    H280936   3.876   4.415  14.984 -1.9472  0.8669 -0.2146
19841TIP3   OH280937   5.458   1.076  12.626  0.2946  0.2995  0.1363
19841TIP3    H180938   5.511   1.061  12.704 -0.6659  0.5157  0.8448
19841TIP3    H280939   5.397   1.003  12.625 -0.4249  0.8937  0.2107
19842TIP3   OH280940   3.330   0.814   4.617  0.0444  0.2082  0.5395
19842TIP3    H180941   3.238   0.789   4.608  0.1360 -0.0516  0.2857
19842TIP3    H280942   3.363   0.760   4.688  0.8327 -2.1747 -1.4826
19843TIP3   OH280943   1.742   3.702   0.987  0.0016  0.2342  0.2604
19843TIP3    H180944   1.787   3.783   0.964  2.3570 -0.5295  1.8614
19843TIP3    H280945   1.786   3.634   0.937 -2.5679 -0.0993 -1.8134
19844TIP3   OH280946   3.093   1.447  15.544  0.0227 -0.2566 -0.0373
19844TIP3    H180947   3.162   1.513  15.552  0.0853 -0.3698  0.4192
19844TIP3    H280948   3.067   1.430  15.635 -0.6079 -0.2128 -0.2103
19845TIP3   OH280949   5.574   4.401   4.849  0.3431 -0.1857  0.0546
19845TIP3    H180950   5.601   4.472   4.908  0.1058  0.5409 -0.6832
19845TIP3    H280951   5.572   4.323   4.905  4.5023 -0.4935  0.1214
19846TIP3   OH280952   2.294   3.160  12.035 -0.1549  0.7919  0.3539
19846TIP3    H180953   2.258   3.076  12.062 -0.8835  0.6349 -0.9835
19846TIP3    H280954   2.283   3.217  12.111 -1.3453  0.1684  0.6817
19847TIP3   OH280955   1.801   6.443   6.283  0.1301  0.0784  0.2669
19847TIP3    H180956   1.830   6.508   6.347 -0.7314  0.1514  0.6018
19847TIP3    H280957   1.782   6.365   6.336  0.4497 -0.2082 -0.0386
19848TIP3   OH280958   5.000   4.409  16.034  0.5927 -0.5967 -0.0965
19848TIP3    H180959   4.924   4.404  16.092 -0.8178  1.0115 -1.6487
19848TIP3    H280960   5.075   4.417  16.092 -0.1012 -4.1959  1.5747
19849TIP3   OH280961   0.780   4.081  11.767 -0.8364 -0.4994 -0.2105
19849TIP3    H180962   0.685   4.092  11.768 -0.6338  2.1212 -1.2524
19849TIP3    H280963   0.803   4.084  11.674  0.1228 -3.4692 -0.1614
19850TIP3   OH280964   6.264   1.317  15.383  0.3861  0.7849  0.1319
19850TIP3    H180965   6.235   1.246  15.439  0.7798  1.1136  0.7642
19850TIP3    H280966   6.194   1.383  15.390  0.9617  1.3135  1.1644
19851TIP3   OH280967   4.592   2.826   3.046  0.0217 -0.3797 -0.1301
19851TIP3    H180968   4.567   2.805   3.136 -2.9402 -0.6044 -0.8997
19851TIP3    H280969   4.585   2.921   3.041  1.6484 -0.2067  0.1996
19852TIP3   OH280970   5.223   3.173   6.596 -0.1730  0.3527  0.0544
19852TIP3    H180971   5.134   3.208   6.595  0.2277  1.4066 -1.1446
19852TIP3    H280972   5.211   3.078   6.602 -1.5565  0.1223 -3.6314
19853TIP3   OH280973   0.435   3.730  15.551  0.3098  0.0428 -0.2753
19853TIP3    H180974   0.427   3.825  15.543  1.4564  0.2418  0.6102
19853TIP3    H280975   0.473   3.702  15.468 -0.1706  0.3292 -0.5973
19854TIP3   OH280976   5.641   0.380   3.682 -0.5387  0.4920  0.5090
19854TIP3    H180977   5.681   0.466   3.692 -1.0036  0.9172 -0.9895
19854TIP3    H280978   5.653   0.358   3.590 -2.5288  0.0499  0.2953
19855TIP3   OH280979   1.140   1.708   6.014 -0.3586  0.1605  0.5579
19855TIP3    H180980   1.070   1.769   6.037  1.8815  2.6087  1.3716
19855TIP3    H280981   1.153   1.656   6.094 -2.0670 -1.3051 -0.0402
19856TIP3   OH280982   6.191   6.142  14.279  0.5073 -0.3188  0.1333
19856TIP3    H180983   6.199   6.184  14.193  1.1425 -2.3338 -0.8482
19856TIP3    H280984   6.268   6.086  14.285  0.3501 -0.3739  1.9525
19857TIP3   OH280985   1.952   1.033  12.313 -0.1723  0.5450 -0.4493
19857TIP3    H180986   2.020   1.072  12.368 -0.7988  0.9648  0.0339
19857TIP3    H280987   1.905   0.973  12.371 -1.8293  2.1322 -0.0652
19858TIP3   OH280988   2.837   5.973   6.329 -0.5803  0.7171 -0.0875
19858TIP3    H180989   2.830   5.881   6.354 -0.2910  1.0871  1.4533
19858TIP3    H280990   2.931   5.987   6.316 -0.5802  0.8944  0.1004
19859TIP3   OH280991   6.683   4.351  12.457  0.6766 -0.1477 -0.1923
19859TIP3    H180992   6.597   4.350  12.498  0.6210  2.5549 -0.0367
19859TIP3    H280993   6.732   4.417  12.506  1.7693  0.6581 -2.2496
19860TIP3   OH280994   0.334   0.641  15.440 -0.8211  0.4124 -0.5806
19860TIP3    H180995   0.359   0.556  15.404 -0.9522  0.4074 -0.6593
19860TIP3    H280996   0.406   0.699  15.418  0.4503 -0.2255  1.5561
19861TIP3   OH280997   6.589   5.420   0.261 -0.0864 -0.3732  0.1241
19861TIP3    H180998   6.623   5.334   0.234 -1.2484 -1.2428  1.2923
19861TIP3    H280999   6.504   5.400   0.301 -0.3930  1.3392  0.3818
19862TIP3   OH281000   1.079   0.769  13.844 -0.6257 -0.0678  0.6169
19862TIP3    H181001   1.024   0.738  13.772 -1.1202  1.7892  0.1369
19862TIP3    H281002   1.048   0.721  13.921 -1.6503 -0.4145  0.0062
19863TIP3   OH281003   6.007   5.594   6.329 -0.5965 -0.0350  0.7761
19863TIP3    H181004   6.047   5.530   6.387 -2.1673 -0.2680  1.6631
19863TIP3    H281005   5.951   5.542   6.271 -1.9328  0.4754  1.5415
19864TIP3   OH281006   3.231   3.062   3.706  0.0120 -0.0166  0.0640
19864TIP3    H181007   3.188   2.979   3.684  0.6524  0.3964 -3.4423
19864TIP3    H281008   3.322   3.038   3.726  0.5195 -0.1851 -2.1446
19865TIP3   OH281009   5.617   3.044  15.966 -0.1489 -0.2535  0.1449
19865TIP3    H181010   5.541   3.096  15.940 -0.7325  0.1062  2.3283
19865TIP3    H281011   5.651   3.008  15.884 -2.4589 -0.1609 -0.9450
19866TIP3   OH281012   2.607   0.845  14.192 -0.0038  0.5044 -0.5422
19866TIP3    H181013   2.525   0.893  14.184 -0.0611  0.3424 -0.9585
19866TIP3    H281014   2.582   0.759  14.226 -0.1745  0.0101 -1.8300
19867TIP3   OH281015   2.222   6.584  13.276  0.1731 -0.8728 -0.0028
19867TIP3    H181016   2.163   6.649  13.316  1.1210 -0.5975  1.0098
19867TIP3    H281017   2.233   6.613  13.186 -0.3086 -0.2705  0.1275
19868TIP3   OH281018   3.943   2.884   2.576  0.2294 -0.8095  0.0573
19868TIP3    H181019   3.887   2.936   2.518  1.1247 -0.0781 -0.1823
19868TIP3    H281020   3.941   2.932   2.659  1.0765 -0.3632 -0.1705
19869TIP3   OH281021   1.209   1.189  16.338 -0.1866 -0.3283  0.3100
19869TIP3    H181022   1.219   1.239  16.419 -0.1654 -0.5957  0.4764
19869TIP3    H281023   1.226   1.098  16.364 -1.9068 -0.6637  0.3865
19870TIP3   OH281024   5.381   3.175   5.013  0.2772  0.0422  0.0852
19870TIP3    H181025   5.297   3.130   5.014  0.0957  0.2641  3.0324
19870TIP3    H281026   5.374   3.240   4.943 -0.6036 -2.2924 -2.1575
19871TIP3   OH281027   3.252   2.871  10.823 -0.1729  0.1467 -0.4064
19871TIP3    H181028   3.241   2.949  10.768 -0.4495  0.1729 -0.3164
19871TIP3    H281029   3.347   2.861  10.832 -0.1423  0.8486  0.1093
19872TIP3   OH281030   1.277   6.533   3.262  0.0754  0.5535 -0.6185
19872TIP3    H181031   1.247   6.577   3.182 -0.7743 -0.0984 -0.6719
19872TIP3    H281032   1.317   6.603   3.314  2.1224  0.7031 -2.2824
19873TIP3   OH281033   5.923   5.736  13.953 -0.3218 -0.3909 -0.6209
19873TIP3    H181034   5.850   5.725  13.893 -0.0621  2.0402 -1.4985
19873TIP3    H281035   5.981   5.798  13.909  0.2195  0.9747  1.8143
19874TIP3   OH281036   2.402   5.834  12.272  0.2252  0.1401  0.1819
19874TIP3    H181037   2.411   5.929  12.277  1.1759  0.0467  0.4290
19874TIP3    H281038   2.425   5.812  12.181 -0.8642  0.2194 -0.1303
19875TIP3   OH281039   6.513   6.643  12.192 -0.3457 -0.0701  0.0218
19875TIP3    H181040   6.462   6.565  12.167 -1.6507  0.2749  1.4661
19875TIP3    H281041   6.546   6.623  12.280  0.0729  0.6442  0.0356
19876TIP3   OH281042   4.879   1.766   0.945 -0.1964 -0.0451 -0.2306
19876TIP3    H181043   4.784   1.759   0.947 -0.2510  0.4979 -0.6886
19876TIP3    H281044   4.900   1.838   1.005 -0.0095 -0.7016  0.5075
19877TIP3   OH281045   2.860   1.891  13.042  0.1369  0.3913 -0.2773
19877TIP3    H181046   2.795   1.961  13.056 -0.2288 -0.1731  0.9245
19877TIP3    H281047   2.815   1.828  12.986 -0.0332  0.4298 -0.1841
19878TIP3   OH281048   6.751   2.565   2.332 -0.1211 -0.4116  0.2703
19878TIP3    H181049   6.787   2.627   2.395 -1.6981 -0.1870  0.9922
19878TIP3    H281050   6.799   2.582   2.251  0.1790  1.0341  0.7368
19879TIP3   OH281051   5.866   4.144   5.351  0.2564  0.6428 -0.2207
19879TIP3    H181052   5.899   4.117   5.265  1.4075  0.8342  0.1473
19879TIP3    H281053   5.844   4.236   5.340  2.9442  1.4582  0.3393
19880TIP3   OH281054   3.931   3.331  14.356 -0.5705  0.2411 -0.2082
19880TIP3    H181055   3.971   3.393  14.417  0.0687 -0.4167  0.0485
19880TIP3    H281056   3.861   3.382  14.314 -1.2282  0.6286  1.2648
19881TIP3   OH281057   4.656   5.630  15.425 -0.0513 -0.2944  0.3703
19881TIP3    H181058   4.751   5.619  15.422 -0.0128  0.0991  0.1629
19881TIP3    H281059   4.641   5.722  15.402 -0.3628  0.1262  2.0774
19882TIP3   OH281060   3.780   5.685  13.001  0.1740 -0.3062 -0.7370
19882TIP3    H181061   3.745   5.765  13.040  2.4248  1.1936 -1.6269
19882TIP3    H281062   3.864   5.671  13.045 -1.0087 -3.4197  0.8661
19883TIP3   OH281063   6.171   5.582  16.354  0.3904 -0.1654  0.1698
19883TIP3    H181064   6.166   5.503  16.300 -0.8622 -0.6719  0.9836
19883TIP3    H281065   6.211   5.647  16.297  0.6401 -1.1436 -0.8127
19884TIP3   OH281066   5.454   6.377   5.835 -0.2928 -0.6725  0.6380
19884TIP3    H181067   5.407   6.459   5.819 -0.2831 -0.8504 -0.3643
19884TIP3    H281068   5.455   6.368   5.931 -2.4267 -0.7416  0.6979
19885TIP3   OH281069   6.233   4.242  16.521  0.3420 -0.1585  0.0804
19885TIP3    H181070   6.304   4.178  16.526  1.3841  0.7256 -1.9363
19885TIP3    H281071   6.166   4.199  16.468  1.1417  0.4244 -1.4776
19886TIP3   OH281072   2.377   2.362  13.837  0.3135  0.1167  0.1883
19886TIP3    H181073   2.465   2.399  13.831  0.2864  0.3322  1.0331
19886TIP3    H281074   2.382   2.297  13.907 -0.4526  0.8971  0.9994
19887TIP3   OH281075   3.026   6.190   4.327 -0.0055  0.4029 -0.3313
19887TIP3    H181076   2.938   6.192   4.291  0.2669  0.9273 -0.9853
19887TIP3    H281077   3.079   6.147   4.260  0.5331  1.5003 -0.6343
19888TIP3   OH281078   3.145   1.396  16.653 -0.1043  0.5599  0.1639
19888TIP3    H181079   3.108   1.404  16.565  0.2131  0.2133 -0.0056
19888TIP3    H281080   3.072   1.418  16.711 -1.3981 -2.5687 -0.0660
19889TIP3   OH281081   1.692   6.775   2.108 -0.1060 -0.2281  0.5310
19889TIP3    H181082   1.599   6.798   2.102  0.0908  0.6493  0.6553
19889TIP3    H281083   1.724   6.823   2.185  0.3115 -1.0208  0.8645
19890TIP3   OH281084   0.703   2.481   4.279  0.1615 -0.4386 -1.3650
19890TIP3    H181085   0.623   2.468   4.227 -1.4417 -2.3660  1.3592
19890TIP3    H281086   0.706   2.406   4.338  2.1713  1.3186  0.9532
19891TIP3   OH281087   4.544   2.353   4.102  0.7179 -0.1532  0.6691
19891TIP3    H181088   4.541   2.372   4.009  2.5251 -1.5309  0.2763
19891TIP3    H281089   4.578   2.433   4.142  0.3362  0.2976  0.0936
19892TIP3   OH281090   0.943   5.304   4.288 -0.4884 -0.0626 -0.0289
19892TIP3    H181091   0.869   5.254   4.324 -0.4744  0.6941  1.0827
19892TIP3    H281092   1.014   5.240   4.283 -0.4571 -0.1800  1.4115
19893TIP3   OH281093   4.335   5.328  13.950  0.5246 -0.7392 -0.4516
19893TIP3    H181094   4.407   5.278  13.989  0.0734 -1.5112 -0.5749
19893TIP3    H281095   4.357   5.334  13.858  1.0801  0.1849 -0.2684
19894TIP3   OH281096   5.687   4.919  11.588  0.2262  0.2439 -0.8115
19894TIP3    H181097   5.670   4.979  11.661 -1.2905 -0.3031 -0.6944
19894TIP3    H281098   5.607   4.920  11.536  1.4931  1.1556 -2.9214
19895TIP3   OH281099   4.611   6.744  13.616 -0.0578 -0.2124  0.4817
19895TIP3    H181100   4.530   6.764  13.570  1.2967  2.0053 -1.1338
19895TIP3    H281101   4.668   6.707  13.549  2.3892  4.2236 -0.2901
19896TIP3   OH281102   1.199   3.132  14.980 -0.0823 -0.1831  0.2735
19896TIP3    H181103   1.284   3.171  14.998 -0.1685  0.6194 -0.9567
19896TIP3    H281104   1.204   3.104  14.889 -1.9237  2.0343 -0.5931
19897TIP3   OH281105   4.778   1.128   4.513  0.1107  0.1981 -0.0012
19897TIP3    H181106   4.688   1.132   4.479  0.4916 -0.0304 -1.0720
19897TIP3    H281107   4.811   1.217   4.506  0.3119  0.0796 -0.5857
19898TIP3   OH281108   4.816   0.515   1.959  0.4212 -0.4808 -0.0375
19898TIP3    H181109   4.793   0.524   1.867 -1.8450 -0.6390  0.4552
19898TIP3    H281110   4.784   0.595   2.000 -0.8415 -1.4476  0.9695
19899TIP3   OH281111   0.459   6.145  10.649 -0.3659 -0.1162  0.3666
19899TIP3    H181112   0.370   6.153  10.615 -0.6609 -2.8696  0.2354
19899TIP3    H281113   0.459   6.194  10.731 -1.8476  0.3243  0.1207
19900TIP3   OH281114   3.397   0.608   1.495 -0.0265 -0.0215 -0.1137
19900TIP3    H181115   3.362   0.523   1.522  1.8064 -0.3882  1.3534
19900TIP3    H281116   3.433   0.646   1.575  1.2681  1.0951 -1.1617
19901TIP3   OH281117   3.543   3.226  16.344  0.4499 -0.0404 -0.1627
19901TIP3    H181118   3.572   3.149  16.296  0.3010 -0.0496 -0.2406
19901TIP3    H281119   3.567   3.208  16.435  1.9911  0.5917 -0.4275
19902TIP3   OH281120   1.493   2.261  12.532  0.5410  0.2231 -0.3107
19902TIP3    H181121   1.429   2.305  12.586 -0.5162 -1.9033  0.2830
19902TIP3    H281122   1.478   2.167  12.547  0.6422 -0.4879 -3.7139
19903TIP3   OH281123   5.881   4.225   3.867  0.2789  0.6149  0.2000
19903TIP3    H181124   5.870   4.292   3.935  0.1108  0.4402  0.3438
19903TIP3    H281125   5.886   4.275   3.785  2.3501  0.9728  0.4850
19904TIP3   OH281126   6.396   3.133  15.282 -0.3605  0.0122  0.2414
19904TIP3    H181127   6.469   3.154  15.341 -1.0994 -0.4803  1.3844
19904TIP3    H281128   6.320   3.127  15.341 -0.9708 -1.3855 -0.6395
19905TIP3   OH281129   4.478   5.699  13.534  1.3238  0.0959 -0.1168
19905TIP3    H181130   4.541   5.632  13.561  1.4519  0.5077  0.6198
19905TIP3    H281131   4.433   5.725  13.614  0.5551  0.1670 -0.5586
19906TIP3   OH281132   4.846   6.724   3.849 -0.3139  0.0426 -0.5932
19906TIP3    H181133   4.809   6.745   3.935 -1.1547 -0.9539 -0.6778
19906TIP3    H281134   4.847   6.807   3.802 -1.3660  0.3188 -0.1649
19907TIP3   OH281135   5.625   1.939  16.369  0.0698 -0.1869 -0.2411
19907TIP3    H181136   5.689   1.977  16.428 -2.3902  1.3267  1.6681
19907TIP3    H281137   5.656   1.963  16.281  1.6605  1.2028  0.6497
19908TIP3   OH281138   2.691   3.151  13.097  0.6227  0.0861 -0.2811
19908TIP3    H181139   2.634   3.227  13.114  1.7777  0.9950 -0.3304
19908TIP3    H281140   2.659   3.116  13.014  0.1929  0.6466 -0.3604
19909TIP3   OH281141   2.648   0.171  10.134  0.4280  0.1142 -0.0180
19909TIP3    H181142   2.629   0.241  10.071  0.6113  0.2405  0.0664
19909TIP3    H281143   2.597   0.193  10.212 -0.4862 -0.5002 -0.4147
19910TIP3   OH281144   5.611   6.432  13.981 -0.1888  0.8132  0.5203
19910TIP3    H181145   5.702   6.423  14.010 -0.2849  1.8166  1.1700
19910TIP3    H281146   5.565   6.468  14.056 -1.1691  0.1732  0.2395
19911TIP3   OH281147   5.978   2.775  15.240 -0.9157  0.3827  0.7186
19911TIP3    H181148   5.941   2.849  15.190 -0.1558  0.0131 -0.4372
19911TIP3    H281149   5.950   2.698  15.190  1.9751  0.1115 -0.6570
19912TIP3   OH281150   2.195   5.500   3.824 -0.0603  0.4259  0.0926
19912TIP3    H181151   2.106   5.477   3.851  0.2288 -0.6732  0.1379
19912TIP3    H281152   2.201   5.470   3.733  0.9873 -1.6367  0.7942
19913TIP3   OH281153   0.893   1.212   1.158  0.1512  0.2866 -0.7431
19913TIP3    H181154   0.873   1.128   1.116  0.3205 -1.1826  1.8764
19913TIP3    H281155   0.811   1.239   1.198  0.7910 -0.3479  1.1269
19914TIP3   OH281156   3.952   1.501  12.541 -0.2598  0.0594 -0.4678
19914TIP3    H181157   3.917   1.582  12.579 -0.2528 -0.3332  0.3920
19914TIP3    H281158   4.043   1.498  12.570 -0.3724 -0.4576 -0.1713
19915TIP3   OH281159   1.976   0.319  13.740  0.1478  0.2805 -0.4737
19915TIP3    H181160   2.022   0.246  13.783  2.0855  0.7428 -1.6105
19915TIP3    H281161   2.046   0.381  13.719 -0.9815  0.8892 -2.6379
19916TIP3   OH281162   6.391   6.399   1.474 -0.0550  0.1920 -0.1539
19916TIP3    H181163   6.463   6.337   1.470  0.1396  0.4594 -0.8763
19916TIP3    H281164   6.407   6.459   1.401 -0.5832  0.7117  0.1528
19917TIP3   OH281165   5.503   1.273  10.736  0.1685 -0.1733 -0.8613
19917TIP3    H181166   5.556   1.198  10.765  1.0890  0.7484 -0.1047
19917TIP3    H281167   5.457   1.301  10.815  0.6908  0.7493 -0.8773
19918TIP3   OH281168   4.306   6.061  11.763 -0.4141  0.4450 -0.1361
19918TIP3    H181169   4.258   6.123  11.709 -0.9473  1.5985  1.6128
19918TIP3    H281170   4.314   5.983  11.707 -2.5854  0.9010 -1.1925
19919TIP3   OH281171   4.280   5.677   1.009  0.4105  0.1060 -0.3552
19919TIP3    H181172   4.190   5.658   1.035 -0.0021  0.7444 -1.2605
19919TIP3    H281173   4.334   5.624   1.068 -0.6046 -2.6891 -1.7641
19920TIP3   OH281174   5.206   0.466   1.020 -0.2696 -0.0396  0.5050
19920TIP3    H181175   5.174   0.551   1.050  0.8026  0.6986 -0.3539
19920TIP3    H281176   5.154   0.448   0.941 -0.0183  0.1534  0.2948
19921TIP3   OH281177   0.118   1.439   5.479 -0.1071 -0.3830  0.5515
19921TIP3    H181178   0.086   1.483   5.557  0.1585  0.4398  0.2089
19921TIP3    H281179   0.185   1.497   5.444  1.4881 -1.8711  1.0257
19922TIP3   OH281180   1.432   2.575   2.188 -0.1969 -0.2717  0.0844
19922TIP3    H181181   1.352   2.627   2.182 -0.8521 -1.2132  0.2786
19922TIP3    H281182   1.494   2.617   2.128 -1.0440  0.1306 -0.5216
19923TIP3   OH281183   3.026   2.780  14.178  0.5408  0.0189 -0.3715
19923TIP3    H181184   3.062   2.732  14.253 -0.2696 -2.0432 -1.2311
19923TIP3    H281185   3.061   2.868  14.188 -0.3169  0.1424  2.9884
19924TIP3   OH281186   5.739   3.784   1.644  0.9777 -0.6052  0.1505
19924TIP3    H181187   5.646   3.807   1.646  1.0896 -0.0749 -0.4736
19924TIP3    H281188   5.740   3.689   1.657  0.5116 -0.3249  2.5968
19925TIP3   OH281189   0.724   2.062   4.529 -0.2617 -0.5324 -0.3701
19925TIP3    H181190   0.631   2.069   4.550  0.1960 -0.1330  1.7441
19925TIP3    H281191   0.733   1.978   4.484 -1.1223 -2.4843  2.8181
19926TIP3   OH281192   4.896   3.987  13.562 -0.2071  0.2547  0.3628
19926TIP3    H181193   4.948   3.914  13.598  2.3768  1.9788  0.3964
19926TIP3    H281194   4.878   3.961  13.472  0.1157 -0.7000  0.5603
19927TIP3   OH281195   3.132   5.033  11.346  0.1456 -0.2048 -0.1592
19927TIP3    H181196   3.175   4.976  11.410  1.1932 -1.2261 -1.7307
19927TIP3    H281197   3.068   4.977  11.303 -2.4399  1.1187  1.6639
19928TIP3   OH281198   1.572   5.170   2.033 -0.2399 -0.1379 -0.0714
19928TIP3    H181199   1.631   5.094   2.032  1.2935  0.9391 -2.2389
19928TIP3    H281200   1.577   5.204   1.943  0.0178  3.1452  1.0600
19929TIP3   OH281201   3.827   5.272  14.002  0.4597 -0.0306  0.4390
19929TIP3    H181202   3.909   5.230  13.977 -0.0052  0.0526 -1.3575
19929TIP3    H281203   3.848   5.323  14.081  1.4495 -2.1598  1.6165
19930TIP3   OH281204   5.660   4.205  11.240  0.1128  0.1357 -0.3736
19930TIP3    H181205   5.743   4.213  11.287  0.7143  2.7047 -1.6619
19930TIP3    H281206   5.611   4.284  11.264 -1.6714 -0.9303 -0.2679
19931TIP3   OH281207   2.387   3.945  13.958  0.1440 -0.2718  0.5053
19931TIP3    H181208   2.472   3.952  13.915 -0.3887  0.3504 -0.4771
19931TIP3    H281209   2.408   3.933  14.051  1.3109  0.9116  0.4282
19932TIP3   OH281210   4.693   6.285  15.281 -0.1759 -0.1029 -0.2477
19932TIP3    H181211   4.647   6.358  15.238  0.4635  1.1896  1.1469
19932TIP3    H281212   4.743   6.244  15.212 -0.6874  0.6826 -1.1103
19933TIP3   OH281213   0.948   5.690  17.203 -0.5296 -0.1455 -0.0509
19933TIP3    H181214   1.013   5.635  17.247 -0.6288  0.9900  1.6390
19933TIP3    H281215   0.938   5.652  17.116  0.8309 -1.5984  0.3882
19934TIP3   OH281216   5.533   2.093  15.889 -0.2761 -0.2715 -0.5754
19934TIP3    H181217   5.492   2.180  15.884 -0.3730 -0.3047 -0.3366
19934TIP3    H281218   5.461   2.032  15.879 -0.5411 -0.3592  1.5064
19935TIP3   OH281219   0.017   2.799  16.916 -0.0859  0.3258 -0.5076
19935TIP3    H181220  -0.025   2.752  16.844 -0.6937 -0.3963  0.3119
19935TIP3    H281221   0.095   2.838  16.876  0.8466 -1.9668 -1.0717
19936TIP3   OH281222   1.739   3.259  16.307 -0.5298 -0.1099 -0.3541
19936TIP3    H181223   1.741   3.297  16.219  1.5521 -0.9674 -0.7473
19936TIP3    H281224   1.809   3.305  16.354 -0.0571 -1.2734  0.1107
19937TIP3   OH281225   1.644   6.077   4.684 -0.1031 -0.2498  0.8198
19937TIP3    H181226   1.719   6.129   4.654 -0.7472  0.4651  0.3999
19937TIP3    H281227   1.632   6.010   4.616 -1.3317  1.1401 -0.4264
19938TIP3   OH281228   2.864   5.386  15.399  0.2109 -0.5817 -0.7275
19938TIP3    H181229   2.860   5.296  15.367  1.7773 -0.5910 -0.9488
19938TIP3    H281230   2.921   5.383  15.476  1.0325  0.3511 -1.2720
19939TIP3   OH281231   5.807   1.927  11.791  0.4857  0.1263  0.5188
19939TIP3    H181232   5.798   1.833  11.801  0.5599 -0.1200 -1.3520
19939TIP3    H281233   5.898   1.945  11.815 -0.0283  0.0425  2.6999
19940TIP3   OH281234   2.619   4.671   3.080 -0.1625  0.2330 -0.1124
19940TIP3    H181235   2.647   4.689   3.170 -1.5538  0.4654  0.2943
19940TIP3    H281236   2.701   4.661   3.032  0.6243 -0.3844  1.2655
19941TIP3   OH281237   6.782   1.399   4.293  0.0825  0.1235  0.1406
19941TIP3    H181238   6.745   1.330   4.238  0.9235  0.6931 -1.1884
19941TIP3    H281239   6.874   1.374   4.304  0.1399  0.4890  0.5444
19942TIP3   OH281240   3.874   6.304   5.415  0.4553  0.6488 -0.2042
19942TIP3    H181241   3.821   6.326   5.491  1.2353  0.6350  0.3496
19942TIP3    H281242   3.813   6.260   5.355 -0.2684  1.0838  0.2042
19943TIP3   OH281243   0.261   2.644   1.990  0.1154  0.1282  0.1594
19943TIP3    H181244   0.281   2.609   2.077 -0.5458  0.3785  0.4153
19943TIP3    H281245   0.240   2.736   2.005 -0.0301  0.1682 -0.2623
19944TIP3   OH281246   2.282   5.046   4.323 -0.2535 -0.0273  0.4556
19944TIP3    H181247   2.324   4.963   4.300 -0.1068  0.4060 -0.9177
19944TIP3    H281248   2.253   5.082   4.239 -1.0282  0.9338  1.1189
19945TIP3   OH281249   1.407   5.732  11.210  0.2775 -0.1508  0.6782
19945TIP3    H181250   1.320   5.715  11.174  0.3475 -1.1318  0.9707
19945TIP3    H281251   1.439   5.807  11.159 -1.3893  1.3290  1.6683
19946TIP3   OH281252   3.327   2.774  11.684  0.2139 -0.6155 -0.1348
19946TIP3    H181253   3.257   2.839  11.694  0.5436 -0.4273  1.1803
19946TIP3    H281254   3.285   2.690  11.698 -0.2599 -0.7386 -2.0659
19947TIP3   OH281255   1.007   3.111  13.604 -0.3863 -0.1645 -0.5263
19947TIP3    H181256   0.925   3.153  13.580 -1.9096 -2.0065  1.0911
19947TIP3    H281257   0.982   3.046  13.670  2.4445 -0.4735  0.3767
19948TIP3   OH281258   4.468   3.212   3.284 -0.0002  0.2006 -0.0260
19948TIP3    H181259   4.453   3.195   3.377  0.6199 -0.4737 -0.0455
19948TIP3    H281260   4.560   3.239   3.280  0.8614 -2.5896 -0.7913
19949TIP3   OH281261   3.766   3.687  15.752  0.0746  0.2164  0.4158
19949TIP3    H181262   3.848   3.655  15.790 -0.1038 -0.4806  0.2297
19949TIP3    H281263   3.780   3.681  15.657 -0.3334 -0.3108  0.3814
19950TIP3   OH281264   4.270   0.654   5.624  0.1697 -0.4788 -0.1874
19950TIP3    H181265   4.322   0.640   5.545  2.7392 -1.3157  1.5242
19950TIP3    H281266   4.234   0.568   5.645 -2.3060  0.1588 -1.5356
19951TIP3   OH281267   3.678   2.631  14.977 -0.4023 -0.1576 -0.2528
19951TIP3    H181268   3.737   2.610  14.905  0.2309  0.6077  0.0185
19951TIP3    H281269   3.669   2.550  15.026  0.7851 -0.1850 -0.0531
19952LIG     O181270   5.061   1.763   8.380 -1.0156 -0.6488 -0.1693
19952LIG     O281271   5.225   1.722   8.571 -0.0692  0.1882 -0.0568
19952LIG     O381272   4.996   2.025   8.499  0.4844  0.0908  0.6627
19952LIG     O481273   5.443   1.669   8.600 -0.7728 -0.0321  0.7000
19952LIG     O581274   5.286   2.008   8.610 -0.1422 -0.1882  0.3852
19952LIG     O681275   5.534   2.061   8.730  0.3431 -0.0048  0.5679
19952LIG     O781276   5.744   1.869   8.683 -0.8950  0.5557 -0.2330
19952LIG     O881277   5.723   1.506   8.568  0.3275 -0.0485  0.3416
19952LIG     O981278   5.680   1.577   8.778 -0.3370  0.5612  0.3678
19952LIG      N81279   4.742   1.384   8.425 -0.3273  0.2608 -0.3037
19952LIG     C181280   4.953   1.572   8.423  0.1588 -0.2504 -0.0743
19952LIG     C281281   4.965   1.454   8.518 -0.0887  0.4109 -0.4241
19952LIG     C381282   5.093   1.628   8.390  0.3341 -0.1393 -0.3156
19952LIG     C481283   4.811   1.422   8.552 -0.3947  0.0425 -0.6579
19952LIG     C581284   4.869   1.552   8.298  0.1679 -0.2321 -0.8680
19952LIG     C681285   4.881   1.679   8.494 -0.3693 -0.3744 -0.5928
19952LIG     C781286   4.733   1.538   8.628 -0.0931  0.1400  0.0431
19952LIG     C881287   4.730   1.498   8.337  0.0874 -0.3241 -0.0616
19952LIG     C981288   5.202   1.601   8.496 -0.1841  0.2836 -0.7139
19952LIG    C1081289   4.784   1.683   8.595 -0.1138  0.0121  0.1995
19952LIG    C1181290   5.058   1.451   8.636 -0.2135 -0.7458  0.1014
19952LIG    C1281291   4.966   1.789   8.478 -0.5340 -0.2122 -0.0636
19952LIG    C1381292   5.175   1.519   8.620 -0.0571  0.9413  0.2373
19952LIG    C1481293   4.790   1.267   8.357  0.4040  0.3347 -0.2534
19952LIG    C1581294   4.754   1.803   8.658  0.1706 -0.0030 -0.1269
19952LIG    C1681295   4.928   1.912   8.532  0.0833 -0.2020 -0.6646
19952LIG    C1781296   4.826   1.918   8.631 -0.5974 -0.3075  0.5796
19952LIG    C1881297   5.358   1.776   8.561  0.8113  1.0422  0.3024
19952LIG    C1981298   5.378   1.903   8.646  0.0504 -0.2269  0.5044
19952LIG    C2081299   5.527   1.941   8.646  1.1416 -0.7054  0.0279
19952LIG    C2181300   5.608   1.825   8.695 -0.4135 -0.5123 -0.7093
19952LIG    C2281301   5.586   1.706   8.600  0.1297  0.5301  0.3217
19952LIG    C2381302   5.671   1.597   8.656 -0.3079 -0.1068 -0.4541
19952LIG     H181303   4.999   1.366   8.460 -0.0540 -0.9803  1.6224
19952LIG     H281304   5.127   1.595   8.289 -0.2317 -1.2735 -0.1609
19952LIG     H381305   4.813   1.334   8.619  2.4097  1.9287  2.0360
19952LIG     H481306   4.923   1.478   8.236  0.2225 -1.4352  0.5575
19952LIG     H581307   4.856   1.649   8.247  0.0767  0.8428  1.0824
19952LIG     H681308   4.738   1.521   8.737  2.1218  1.7858  0.2785
19952LIG     H781309   4.626   1.548   8.599 -0.3843  2.4991  1.5886
19952LIG     H881310   4.660   1.567   8.388  1.0244  0.2208  0.5117
19952LIG     H981311   4.666   1.471   8.251 -1.1178  4.0542 -0.7700
19952LIG    H1081312   5.295   1.574   8.441 -0.3573  0.6145 -1.1739
19952LIG    H1181313   5.036   1.406   8.734  1.2612 -0.8728  0.4018
19952LIG    H1281314   5.247   1.530   8.703 -3.4823  1.4441  3.4269
19952LIG    H1381315   4.776   1.171   8.410  4.2940 -1.4374 -2.0572
19952LIG    H1481316   4.899   1.263   8.338  0.2473 -1.8729 -0.9532
19952LIG    H1581317   4.731   1.252   8.264 -0.2189  0.6938  0.0786
19952LIG    H1681318   4.661   1.807   8.712 -0.8403 -1.6414 -1.6295
19952LIG    H1781319   4.809   2.007   8.689  2.0431 -0.3784  1.6115
19952LIG    H1881320   5.378   1.805   8.456 -2.9651  0.3630 -0.7318
19952LIG    H1981321   5.361   1.875   8.752  0.3170  1.5001  1.0473
19952LIG    H2081322   5.551   1.970   8.541 -1.6734 -0.1678 -0.5389
19952LIG    H2181323   5.077   1.995   8.456 -1.3320 -1.5395 -1.8526
19952LIG    H2281324   5.573   1.796   8.796 -1.2848  0.2380 -0.7888
19952LIG    H2381325   5.619   1.728   8.496  1.3568 -1.8107  0.1440
19952LIG    H2481326   5.218   2.001   8.678 -1.4430 -0.8823 -0.9460
19952LIG    H2581327   5.475   2.125   8.688 -0.4258  0.3754  2.1378
19952LIG    H2681328   5.753   1.947   8.738  1.3407 -0.4356  0.9408
19952LIG    H2781329   5.789   1.444   8.598 -0.8697 -0.6996  1.7330
   6.79123   6.79123  17.27692
