;;
;; Generated by CHARMM-GUI (http://www.charmm-gui.org) v1.7
;;
;; psf2itp_mol.py
;;
;; Correspondance:
;; jul316@lehigh.edu or wonpil@lehigh.edu
;;
;; CHARMM36 FF in GROMACS format
;;


[ defaults ]
; nbfunc	comb-rule	gen-pairs	fudgeLJ	fudgeQQ
1	2	yes	1.0	1.0

[ atomtypes ]
; name	at.num	mass	charge	ptype	sigma	epsilon	;	sigma_14	epsilon_14
   CG311     6    12.0110      0.139     A    3.56359487256e-01    1.338880e-01 ;   3.38541512893e-01    4.184000e-02 
   CG331     6    12.0110     -0.268     A    3.65268474438e-01    3.263520e-01 ;   3.38541512893e-01    4.184000e-02 
    HGA1     1     1.0080      0.090     A    2.38760856462e-01    1.882800e-01 
    HGA3     1     1.0080      0.090     A    2.38760856462e-01    1.004160e-01 
    HGP1     1     1.0080      0.408     A    4.00013524445e-02    1.924640e-01 
   OG311     8    15.9994     -0.641     A    3.14487247504e-01    8.037464e-01 

[ bondtypes ]
; i	j	func	b0	Kb
  CG311   CG311     1  1.500000e-01  1.861880e+05
  CG311   CG331     1  1.538000e-01  1.861880e+05
  CG311    HGA1     1  1.111000e-01  2.585712e+05
  CG311    HGA3     1  1.111000e-01  2.694496e+05
  CG311   OG311     1  1.420000e-01  3.581504e+05
  CG331   CG331     1  1.530000e-01  1.861880e+05
  CG331    HGA3     1  1.111000e-01  2.694496e+05
  CG331   OG311     1  1.420000e-01  3.581504e+05
  OG311    HGP1     1  9.600000e-02  4.560560e+05

[ pairtypes ]
; i	j	func	sigma1-4	epsilon1-4
  CG311   CG311     1  3.38541512893e-01  4.18400000000e-02 
  CG311   CG331     1  3.38541512893e-01  4.18400000000e-02 
  CG311    HGA1     1  2.88651184677e-01  8.87560431745e-02 
  CG311    HGA3     1  2.88651184677e-01  6.48182492821e-02 
  CG311    HGP1     1  1.89271432669e-01  8.97368027066e-02 
  CG311   OG311     1  3.26514380198e-01  1.83381431383e-01 
  CG331   CG331     1  3.38541512893e-01  4.18400000000e-02 
  CG331    HGA1     1  2.88651184677e-01  8.87560431745e-02 
  CG331    HGA3     1  2.88651184677e-01  6.48182492821e-02 
  CG331    HGP1     1  1.89271432669e-01  8.97368027066e-02 
  CG331   OG311     1  3.26514380198e-01  1.83381431383e-01 

[ angletypes ]
; i	j	k	func	th0	cth	S0	Kub
  CG311   CG311   CG311     5  1.1100000e+02  4.4643280e+02  2.5610000e-01  6.6944000e+03
  CG311   CG311   CG331     5  1.0850000e+02  4.4643280e+02  2.5610000e-01  6.6944000e+03
  CG311   CG311    HGA1     5  1.1010000e+02  2.8869600e+02  2.1790000e-01  1.8853104e+04
  CG311   CG311   OG311     5  1.1010000e+02  6.3345760e+02  0.0000000e+00  0.0000000e+00
  CG311   CG331    HGA3     5  1.1010000e+02  2.7974224e+02  2.1790000e-01  1.8853104e+04
  CG311   OG311    HGP1     5  1.0600000e+02  4.1840000e+02  0.0000000e+00  0.0000000e+00
  CG331   CG311   CG331     5  1.1400000e+02  4.4643280e+02  2.5610000e-01  6.6944000e+03
  CG331   CG311    HGA1     5  1.1010000e+02  2.8869600e+02  2.1790000e-01  1.8853104e+04
  CG331   CG311   OG311     5  1.1010000e+02  6.3345760e+02  0.0000000e+00  0.0000000e+00
  CG331   CG331    HGA3     5  1.1010000e+02  3.1380000e+02  2.1790000e-01  1.8853104e+04
  CG331   OG311    HGP1     5  1.0600000e+02  4.8116000e+02  0.0000000e+00  0.0000000e+00
   HGA3   CG331    HGA3     5  1.0840000e+02  2.9706400e+02  1.8020000e-01  4.5187200e+03
  OG311   CG311    HGA1     5  1.0889000e+02  3.8409120e+02  0.0000000e+00  0.0000000e+00
  OG311   CG311   OG311     5  1.1715000e+02  8.4098400e+02  0.0000000e+00  0.0000000e+00
  OG311   CG331    HGA3     5  1.0889000e+02  3.8409120e+02  0.0000000e+00  0.0000000e+00

[ dihedraltypes ]
; i	j	k	l	func	phi0	cp	mult
  CG311   CG311   CG311   CG331     9  1.800000e+02  2.092000e+00      4
  CG311   CG311   CG311    HGA1     9  0.000000e+00  8.158800e-01      3
  CG311   CG311   CG311   OG311     9  0.000000e+00  5.857600e-01      3
  CG311   CG311   CG331    HGA3     9  0.000000e+00  8.368000e-01      3
  CG311   CG311   OG311    HGP1     9  0.000000e+00  7.531200e-01      2
  CG311   CG311   OG311    HGP1     9  0.000000e+00  1.924640e+00      3
  CG311   CG311   OG311    HGP1     9  0.000000e+00  5.564720e+00      1
  CG331   CG311   CG311   CG331     9  1.800000e+02  2.092000e+00      4
  CG331   CG311   CG311    HGA1     9  0.000000e+00  8.158800e-01      3
  CG331   CG311   CG311   OG311     9  0.000000e+00  5.857600e-01      3
  CG331   CG311   CG331    HGA3     9  0.000000e+00  8.158800e-01      3
  CG331   CG311   OG311    HGP1     9  0.000000e+00  7.531200e-01      2
  CG331   CG311   OG311    HGP1     9  0.000000e+00  1.924640e+00      3
  CG331   CG311   OG311    HGP1     9  0.000000e+00  5.564720e+00      1
   HGA1   CG311   CG311    HGA1     9  0.000000e+00  8.158800e-01      3
   HGA1   CG311   CG331    HGA3     9  0.000000e+00  8.158800e-01      3
   HGA1   CG311   OG311    HGP1     9  0.000000e+00  0.000000e+00      3
   HGA3   CG331   CG331    HGA3     9  0.000000e+00  6.485200e-01      3
   HGA3   CG331   OG311    HGP1     9  0.000000e+00  7.531200e-01      3
  OG311   CG311   CG311    HGA1     9  0.000000e+00  8.158800e-01      3
  OG311   CG311   CG311   OG311     9  0.000000e+00  8.368000e-01      3
  OG311   CG311   CG331    HGA3     9  0.000000e+00  8.368000e-01      3
  OG311   CG311   OG311    HGP1     9  0.000000e+00  1.163570e+00      3
  OG311   CG311   OG311    HGP1     9  0.000000e+00  4.413702e+00      2
  OG311   CG311   OG311    HGP1     9  0.000000e+00  7.673038e+00      1
