Title
42779
    1SAPS     N    1   5.552   5.056   7.105  0.1198 -0.3398  0.2511
    1SAPS   HN1    2   5.649   5.091   7.092  0.5450 -1.8284 -0.8834
    1SAPS   HN2    3   5.556   4.976   7.171 -3.4694 -0.8339  0.0545
    1SAPS   HN3    4   5.516   5.027   7.012  1.5678  1.9209 -1.1163
    1SAPS   C12    5   5.463   5.157   7.176 -0.0167 -0.2676 -0.0884
    1SAPS  H12A    6   5.373   5.115   7.217 -0.3211  1.8464  1.6169
    1SAPS   C13    7   5.527   5.233   7.300 -0.2870  1.0827  1.3898
    1SAPS  O13A    8   5.634   5.190   7.352 -0.4895 -0.0029 -0.3418
    1SAPS  O13B    9   5.453   5.310   7.357 -0.1544 -0.4172 -0.0843
    1SAPS   C11   10   5.406   5.266   7.075  0.1442  0.2393 -0.3027
    1SAPS  H11A   11   5.497   5.311   7.031  0.8616 -0.7274  0.1569
    1SAPS  H11B   12   5.349   5.341   7.134  0.7239 -0.0998  0.7159
    1SAPS     P   13   5.239   5.262   6.880 -0.1659 -0.3623  0.1324
    1SAPS   O13   14   5.202   5.167   6.769  0.4672 -0.7617 -0.0679
    1SAPS   O14   15   5.124   5.320   6.961 -0.8925 -0.1513  0.9589
    1SAPS   O12   16   5.338   5.191   6.976  0.7574  0.0878 -0.9236
    1SAPS   O11   17   5.330   5.383   6.829  0.7639 -0.1237 -0.2175
    1SAPS    C1   18   5.263   5.454   6.720 -0.1856  0.6736 -0.7443
    1SAPS    HA   19   5.231   5.389   6.636 -2.2514  0.1014  0.4239
    1SAPS    HB   20   5.181   5.522   6.753 -2.3366 -2.2753  0.3722
    1SAPS    C2   21   5.360   5.538   6.643  0.3934  0.1119 -0.0641
    1SAPS    HS   22   5.398   5.610   6.719  3.0971 -0.5879 -0.6400
    1SAPS   O21   23   5.287   5.603   6.536  0.9891  0.1765 -0.0088
    1SAPS   C21   24   5.350   5.697   6.488 -0.7775 -0.6981  0.1957
    1SAPS   O22   25   5.427   5.773   6.547  0.1693  0.2867 -0.2368
    1SAPS   C22   26   5.311   5.719   6.337  0.1288 -0.7248 -0.1288
    1SAPS   H2R   27   5.310   5.618   6.292 -1.0695 -0.9977  0.4601
    1SAPS   H2S   28   5.208   5.762   6.336  0.3514 -0.1804 -0.3341
    1SAPS    C3   29   5.476   5.456   6.595  0.6295  0.5356 -0.3369
    1SAPS    HX   30   5.516   5.397   6.680 -2.4491 -0.9088  0.2663
    1SAPS    HY   31   5.558   5.522   6.560  1.9617 -0.1646  1.3223
    1SAPS   O31   32   5.424   5.363   6.492 -0.3703  1.1915 -0.6241
    1SAPS   C31   33   5.467   5.375   6.367 -0.7080  0.1122  0.5432
    1SAPS   O32   34   5.545   5.458   6.326  0.2336 -0.1251 -0.2339
    1SAPS   C32   35   5.407   5.266   6.271  0.5240  0.1990 -0.5651
    1SAPS   H2X   36   5.298   5.290   6.263  0.0126 -1.2014  1.4327
    1SAPS   H2Y   37   5.430   5.174   6.329 -1.8851  1.0262  1.9711
    1SAPS   C23   38   5.417   5.803   6.274 -0.5549 -0.8521  0.5587
    1SAPS   H3R   39   5.514   5.751   6.285 -0.0609  0.1049  0.8136
    1SAPS   H3S   40   5.425   5.908   6.309 -1.2971  0.4267 -2.7445
    1SAPS   C24   41   5.392   5.815   6.119 -0.5279 -0.3415 -0.0375
    1SAPS   H4R   42   5.431   5.909   6.073 -1.7928  0.5238  0.5662
    1SAPS   H4S   43   5.281   5.814   6.109 -0.7301  0.3982  1.7956
    1SAPS   C25   44   5.446   5.692   6.042 -0.8840 -0.4189 -0.0555
    1SAPS   H5R   45   5.548   5.672   6.075 -0.3539  1.4444 -0.4310
    1SAPS   C26   46   5.374   5.622   5.951 -0.1844 -0.1697 -0.4726
    1SAPS   H6R   47   5.423   5.530   5.916  1.3866 -0.7536  2.8578
    1SAPS   C27   48   5.235   5.652   5.889 -0.5927 -0.6736  0.2785
    1SAPS   H7R   49   5.234   5.742   5.824  2.8413 -0.5851  0.2134
    1SAPS   H7S   50   5.163   5.665   5.974  0.1444  4.8113  0.4193
    1SAPS   C28   51   5.192   5.547   5.793  0.6828  0.0532 -0.9471
    1SAPS   H8R   52   5.125   5.478   5.847  0.8153 -0.3959 -1.3529
    1SAPS   C29   53   5.205   5.526   5.662 -0.8248  0.1034  0.1358
    1SAPS   H9R   54   5.151   5.440   5.621  0.4454 -1.8922  2.4289
    1SAPS  C210   55   5.289   5.607   5.573 -0.9233 -0.7961  0.0194
    1SAPS  H10R   56   5.343   5.559   5.488  0.8970  1.7041 -0.3736
    1SAPS  H10S   57   5.375   5.648   5.630 -1.0746  0.5272 -0.6615
    1SAPS  C211   58   5.221   5.731   5.523  0.2378 -0.4095  0.2478
    1SAPS  H11R   59   5.161   5.786   5.596 -0.6061 -2.1382  0.9042
    1SAPS  C212   60   5.233   5.782   5.394  0.4645 -0.0933  0.4369
    1SAPS  H12R   61   5.189   5.880   5.372 -1.2762 -0.7419  0.8202
    1SAPS  C213   62   5.309   5.715   5.284  0.3634  0.0252 -0.1640
    1SAPS  H13R   63   5.268   5.739   5.184 -0.0361 -3.4214 -0.9633
    1SAPS  H13S   64   5.306   5.604   5.281  3.4184 -0.1164 -1.4040
    1SAPS  C214   65   5.454   5.766   5.284  0.1918  0.1420  0.0464
    1SAPS  H14R   66   5.498   5.785   5.383 -0.2821 -0.9324  0.4847
    1SAPS  C215   67   5.522   5.777   5.172  0.5741 -0.2358  0.4510
    1SAPS  H15R   68   5.624   5.817   5.184  0.5077 -0.0265  0.3098
    1SAPS  C216   69   5.474   5.749   5.033  0.9714 -0.5812 -0.5214
    1SAPS  H16R   70   5.380   5.804   5.012  0.9599 -0.8724 -1.2421
    1SAPS  H16S   71   5.449   5.641   5.037  1.2595 -0.6418 -0.2934
    1SAPS  C217   72   5.567   5.772   4.913 -0.2144  0.3996 -0.1905
    1SAPS  H17R   73   5.517   5.758   4.814 -1.3730 -0.0723  0.4401
    1SAPS  H17S   74   5.645   5.692   4.914  1.4353  1.9379 -0.4764
    1SAPS  C218   75   5.641   5.905   4.910  0.2961 -0.2524 -0.0526
    1SAPS  H18R   76   5.684   5.918   5.012 -1.3707  0.2569  0.6210
    1SAPS  H18S   77   5.569   5.989   4.899  0.3860  0.1311  1.9433
    1SAPS  C219   78   5.755   5.908   4.808 -0.6631  0.2766 -0.3603
    1SAPS  H19R   79   5.788   6.014   4.794 -1.9512  0.6900 -0.4089
    1SAPS  H19S   80   5.717   5.866   4.713  1.0491  1.5226 -1.6840
    1SAPS  C220   81   5.878   5.823   4.834  0.2800 -0.1109 -0.9848
    1SAPS  H20R   82   5.927   5.833   4.735 -0.2944  1.4647 -1.1318
    1SAPS  H20S   83   5.838   5.719   4.841 -1.0352  0.3485 -1.3692
    1SAPS  H20T   84   5.937   5.854   4.923  0.4238 -1.0119 -0.7559
    1SAPS   C33   85   5.465   5.271   6.133  0.0665  0.2950  0.0115
    1SAPS   H3X   86   5.574   5.290   6.125  0.0758 -0.1560 -1.2192
    1SAPS   H3Y   87   5.414   5.353   6.078 -0.8729 -0.4926 -0.3214
    1SAPS   C34   88   5.430   5.144   6.052 -0.2846 -0.0067  0.1703
    1SAPS   H4X   89   5.322   5.125   6.063  0.2442 -3.0431  0.9909
    1SAPS   H4Y   90   5.476   5.059   6.106  0.4838 -0.4306 -1.0968
    1SAPS   C35   91   5.465   5.146   5.899  0.0101  0.3449 -0.2646
    1SAPS   H5X   92   5.461   5.044   5.853  0.6690 -0.1300  0.6948
    1SAPS   H5Y   93   5.565   5.193   5.890 -0.0601  0.6484  0.4837
    1SAPS   C36   94   5.370   5.234   5.821  0.0697 -0.3895 -0.0645
    1SAPS   H6X   95   5.375   5.340   5.855  1.8593  0.0736 -1.6092
    1SAPS   H6Y   96   5.268   5.203   5.849  0.5063 -1.1454  0.7372
    1SAPS   C37   97   5.394   5.227   5.669  0.7714  0.0999 -0.6963
    1SAPS   H7X   98   5.498   5.258   5.644  1.0040  0.6311  0.8239
    1SAPS   H7Y   99   5.321   5.295   5.620  1.5841  0.1598 -1.8568
    1SAPS   C38  100   5.376   5.088   5.606 -0.1223 -0.0883 -0.0979
    1SAPS   H8X  101   5.294   5.036   5.661 -0.4065  0.0725 -0.3662
    1SAPS   H8Y  102   5.470   5.030   5.620  0.3898  0.9055  0.6495
    1SAPS   C39  103   5.343   5.092   5.457 -0.7357  0.3155  0.2309
    1SAPS   H9X  104   5.418   5.155   5.405 -1.6448  2.1541  1.0840
    1SAPS   H9Y  105   5.244   5.141   5.445 -0.4646  0.4457 -1.9028
    1SAPS  C310  106   5.319   4.949   5.409 -0.1874 -0.3763  0.8416
    1SAPS  H10X  107   5.285   4.946   5.303  2.0217  0.7397  0.0490
    1SAPS  H10Y  108   5.238   4.910   5.475  0.6505  1.3401  3.0000
    1SAPS  C311  109   5.444   4.868   5.411 -0.0207  0.1862 -0.0245
    1SAPS  H11X  110   5.450   4.811   5.507  2.7236  0.9553  0.3614
    1SAPS  H11Y  111   5.537   4.927   5.395  0.2261 -0.5880 -1.6474
    1SAPS  C312  112   5.451   4.772   5.289  0.4593 -0.2304 -0.5777
    1SAPS  H12X  113   5.459   4.831   5.196 -1.2239 -0.2135 -0.7383
    1SAPS  H12Y  114   5.353   4.721   5.280 -0.4611  1.5985 -1.2366
    1SAPS  C313  115   5.563   4.662   5.303  0.2105  0.2009 -0.4858
    1SAPS  H13X  116   5.546   4.581   5.377 -0.2724  0.4710 -0.2993
    1SAPS  H13Y  117   5.652   4.725   5.326  0.9957 -0.1248 -2.4233
    1SAPS  C314  118   5.608   4.596   5.165  1.0652 -0.1031 -0.1629
    1SAPS  H14X  119   5.633   4.678   5.095  0.1810 -1.3679 -2.0397
    1SAPS  H14Y  120   5.524   4.546   5.112  2.2851 -2.3765 -0.0751
    1SAPS  C315  121   5.719   4.492   5.176 -0.1788 -0.5495 -0.5028
    1SAPS  H15X  122   5.770   4.464   5.082  0.9722 -4.2079  1.0326
    1SAPS  H15Y  123   5.698   4.399   5.233  0.4466 -0.0850  0.5171
    1SAPS  C316  124   5.836   4.550   5.264  0.4467  0.5178  0.3456
    1SAPS  H16X  125   5.796   4.562   5.367 -0.4320  0.8737 -0.0243
    1SAPS  H16Y  126   5.876   4.646   5.225  4.0887 -0.5935  1.0348
    1SAPS  C317  127   5.955   4.449   5.271 -0.1527  0.5144  0.3474
    1SAPS  H17X  128   6.013   4.464   5.177  2.7403 -0.9419  1.7713
    1SAPS  H17Y  129   5.914   4.346   5.280 -1.4064  1.0411  0.8354
    1SAPS  C318  130   6.047   4.480   5.389  0.8146  0.1214  0.4324
    1SAPS  H18X  131   6.077   4.587   5.384  0.5252  0.2160  0.6970
    1SAPS  H18Y  132   6.140   4.420   5.387  1.3971  0.9397  1.7376
    1SAPS  H18Z  133   5.991   4.469   5.484 -1.9963 -1.3808 -1.2660
    2SAPS     N  134   0.084   0.784   7.627 -0.5237 -0.0732  0.3886
    2SAPS   HN1  135   0.119   0.691   7.658 -0.7020  0.0857  1.0784
    2SAPS   HN2  136   0.002   0.769   7.566 -1.6925  0.1240  1.8543
    2SAPS   HN3  137   0.161   0.832   7.577 -0.4153 -1.1636 -0.5184
    2SAPS   C12  138   0.046   0.875   7.736 -0.0063 -0.3310  0.5187
    2SAPS  H12A  139  -0.029   0.826   7.796  0.4505  2.2301  3.4454
    2SAPS   C13  140   0.166   0.896   7.834  0.0382  0.0923 -0.1356
    2SAPS  O13A  141   0.262   0.813   7.823 -0.1254  0.2012  0.1450
    2SAPS  O13B  142   0.129   0.940   7.948 -0.5277 -0.5565 -1.0639
    2SAPS   C11  143  -0.020   1.006   7.678 -0.0154 -0.5166  0.0982
    2SAPS  H11A  144   0.056   1.061   7.618  0.6297 -0.2967  1.0892
    2SAPS  H11B  145  -0.042   1.070   7.767 -0.5488 -0.7148  0.1117
    2SAPS     P  146  -0.225   1.095   7.561 -0.5427 -0.1665 -0.4554
    2SAPS   O13  147  -0.367   1.046   7.563 -0.8428  0.3608 -0.2916
    2SAPS   O14  148  -0.194   1.211   7.649  0.4805  0.3540 -0.3333
    2SAPS   O12  149  -0.138   0.970   7.610  0.3866 -0.2204  0.0197
    2SAPS   O11  150  -0.178   1.121   7.411  0.4690 -0.9081  0.2128
    2SAPS    C1  151  -0.174   1.017   7.310  0.3882 -0.9150  0.2864
    2SAPS    HA  152  -0.113   0.931   7.346 -0.2497 -0.7904  1.7424
    2SAPS    HB  153  -0.272   0.968   7.295  0.6850 -1.6308  0.6265
    2SAPS    C2  154  -0.110   1.074   7.181  0.8963  1.0222 -0.0853
    2SAPS    HS  155  -0.012   1.118   7.209  1.1691  0.5743 -0.3172
    2SAPS   O21  156  -0.195   1.176   7.135  0.0152 -0.0282 -0.3870
    2SAPS   C21  157  -0.143   1.281   7.079  0.4795  0.2328  0.2186
    2SAPS   O22  158  -0.023   1.296   7.063  0.3537  0.0445  0.2859
    2SAPS   C22  159  -0.252   1.369   7.022  0.1316  0.1684  0.5811
    2SAPS   H2R  160  -0.348   1.314   7.014  0.9814 -1.1779 -0.8476
    2SAPS   H2S  161  -0.259   1.444   7.104  1.4626  1.4624 -0.4228
    2SAPS    C3  162  -0.103   0.967   7.072 -1.1802  0.4249 -0.5780
    2SAPS    HX  163  -0.200   0.913   7.077 -1.3374  0.8049  0.8596
    2SAPS    HY  164  -0.030   0.891   7.108 -0.3044  1.2588 -0.5758
    2SAPS   O31  165  -0.077   1.009   6.941  0.5038  0.8662 -0.3597
    2SAPS   C31  166   0.045   1.044   6.913  0.0849  0.2257 -0.5017
    2SAPS   O32  167   0.139   1.039   6.992  0.0143  0.2174  0.1371
    2SAPS   C32  168   0.034   1.124   6.782  0.1530  0.4297  0.5475
    2SAPS   H2X  169  -0.012   1.224   6.800  1.5115  1.2397 -0.2839
    2SAPS   H2Y  170  -0.036   1.060   6.723  0.8431 -1.8756  2.1061
    2SAPS   C23  171  -0.210   1.442   6.888  0.5946  0.1569  0.6033
    2SAPS   H3R  172  -0.205   1.373   6.801  1.4360  0.1549  0.6451
    2SAPS   H3S  173  -0.104   1.475   6.898  0.9068  0.0967 -2.0096
    2SAPS   C24  174  -0.290   1.565   6.856  0.2617 -0.7025  0.6453
    2SAPS   H4R  175  -0.254   1.622   6.767 -2.6839 -0.0552 -0.2433
    2SAPS   H4S  176  -0.277   1.637   6.939  0.8628 -2.2468  1.9306
    2SAPS   C25  177  -0.435   1.532   6.838 -0.6685  0.0825 -0.8256
    2SAPS   H5R  178  -0.470   1.451   6.904 -1.4987  0.4943 -0.7497
    2SAPS   C26  179  -0.527   1.598   6.764 -0.2228  0.1701  0.7793
    2SAPS   H6R  180  -0.627   1.552   6.765  0.0029 -0.4658 -0.9833
    2SAPS   C27  181  -0.505   1.711   6.674  0.3767  0.1871  0.4052
    2SAPS   H7R  182  -0.443   1.792   6.719 -2.0232  2.0687  0.5363
    2SAPS   H7S  183  -0.600   1.764   6.650  0.9190  1.2195  0.4921
    2SAPS   C28  184  -0.425   1.674   6.544 -0.2108 -0.3679 -0.2311
    2SAPS   H8R  185  -0.368   1.580   6.547 -0.0521 -0.3091 -1.1904
    2SAPS   C29  186  -0.421   1.745   6.427  0.2085  0.2477  1.1193
    2SAPS   H9R  187  -0.359   1.712   6.343 -0.9601  0.9313 -0.0467
    2SAPS  C210  188  -0.498   1.876   6.402 -0.5228 -0.0730  0.7878
    2SAPS  H10R  189  -0.494   1.942   6.492  0.0756  0.9256  0.0467
    2SAPS  H10S  190  -0.607   1.853   6.391 -0.1570 -1.4443 -0.2244
    2SAPS  C211  191  -0.452   1.968   6.292 -0.5707 -1.0541 -0.3110
    2SAPS  H11R  192  -0.420   2.066   6.330 -1.5309 -1.3554  1.4012
    2SAPS  C212  193  -0.439   1.939   6.163  0.6862 -0.4192 -0.2052
    2SAPS  H12R  194  -0.409   2.020   6.094 -0.5052 -0.8659 -1.2869
    2SAPS  C213  195  -0.491   1.819   6.087 -0.4340  0.1032  0.1739
    2SAPS  H13R  196  -0.515   1.731   6.151  0.3600 -0.0109  0.3292
    2SAPS  H13S  197  -0.403   1.792   6.023 -0.2012  1.1632  0.0224
    2SAPS  C214  198  -0.611   1.870   6.017  0.5309 -0.2276  0.0246
    2SAPS  H14R  199  -0.700   1.876   6.080 -1.4812  1.4405 -2.7305
    2SAPS  C215  200  -0.623   1.885   5.881 -0.1095 -0.4463 -0.6404
    2SAPS  H15R  201  -0.713   1.929   5.836  1.0994  1.0246 -1.7521
    2SAPS  C216  202  -0.513   1.852   5.789 -0.8509 -0.4287 -0.2039
    2SAPS  H16R  203  -0.558   1.827   5.691 -0.5144 -2.2068  0.0658
    2SAPS  H16S  204  -0.462   1.756   5.811  0.7128  0.0286 -1.6016
    2SAPS  C217  205  -0.400   1.962   5.770  0.0144 -0.2816 -0.0203
    2SAPS  H17R  206  -0.369   2.000   5.869  0.1249  1.1703 -0.5908
    2SAPS  H17S  207  -0.439   2.048   5.711 -1.1722 -0.7133  0.0908
    2SAPS  C218  208  -0.272   1.901   5.712  0.2873  0.7848 -0.7123
    2SAPS  H18R  209  -0.234   1.847   5.801  1.3266  1.6253 -0.6377
    2SAPS  H18S  210  -0.187   1.969   5.694  0.3523  0.5407 -1.3532
    2SAPS  C219  211  -0.297   1.823   5.584  0.5424 -0.0243 -0.0770
    2SAPS  H19R  212  -0.331   1.892   5.504  0.3519  0.7203  0.6341
    2SAPS  H19S  213  -0.378   1.749   5.598  0.6286 -0.3093 -1.0214
    2SAPS  C220  214  -0.172   1.752   5.540 -0.3281  0.3033  0.5591
    2SAPS  H20R  215  -0.102   1.831   5.505  0.2779  0.0045  1.0693
    2SAPS  H20S  216  -0.199   1.691   5.452  0.5619  0.8349 -0.0985
    2SAPS  H20T  217  -0.123   1.688   5.616 -0.3155 -2.4159 -1.6012
    2SAPS   C33  218   0.168   1.148   6.705 -0.7115 -1.1066  0.0965
    2SAPS   H3X  219   0.240   1.066   6.727  0.7178 -0.0737 -0.5770
    2SAPS   H3Y  220   0.209   1.244   6.742 -0.5885 -1.2518  0.3369
    2SAPS   C34  221   0.145   1.169   6.556  0.2012 -0.2767  0.0868
    2SAPS   H4X  222   0.075   1.248   6.521  0.8367 -0.0630 -0.7086
    2SAPS   H4Y  223   0.101   1.074   6.517 -0.1769  0.0275 -0.2423
    2SAPS   C35  224   0.266   1.194   6.457  0.4617  0.0156 -0.5531
    2SAPS   H5X  225   0.348   1.125   6.484 -1.2591 -2.6536 -1.7165
    2SAPS   H5Y  226   0.307   1.293   6.485 -1.8511  1.5928 -2.3939
    2SAPS   C36  227   0.211   1.195   6.313 -0.3797 -0.6823  0.5551
    2SAPS   H6X  228   0.130   1.269   6.296 -0.7701 -0.9379  1.2984
    2SAPS   H6Y  229   0.153   1.105   6.285  1.2949 -1.5154 -0.3642
    2SAPS   C37  230   0.309   1.219   6.197  0.0925  0.4287 -0.0041
    2SAPS   H7X  231   0.386   1.140   6.213 -2.7146 -2.5649 -0.1273
    2SAPS   H7Y  232   0.346   1.323   6.210 -1.3876  0.7042  2.5594
    2SAPS   C38  233   0.246   1.210   6.063 -0.2803 -0.3342 -0.9152
    2SAPS   H8X  234   0.163   1.283   6.053  1.2684  1.6016 -0.4349
    2SAPS   H8Y  235   0.208   1.106   6.057 -0.2580 -0.4584  0.7225
    2SAPS   C39  236   0.346   1.230   5.943  1.2239  0.0810 -0.2974
    2SAPS   H9X  237   0.420   1.148   5.951  0.6923 -0.4278 -0.5453
    2SAPS   H9Y  238   0.395   1.325   5.973 -0.0530  0.2023  1.5771
    2SAPS  C310  239   0.270   1.223   5.806  0.1864  0.3967  0.0947
    2SAPS  H10X  240   0.209   1.316   5.805 -1.4116 -0.6158  0.5073
    2SAPS  H10Y  241   0.199   1.138   5.810  2.2037 -1.3940 -0.3615
    2SAPS  C311  242   0.364   1.201   5.679  0.4263 -0.0935 -0.3542
    2SAPS  H11X  243   0.417   1.104   5.693 -0.9055 -0.6652  1.1434
    2SAPS  H11Y  244   0.433   1.287   5.671 -0.3355  0.5718  0.0223
    2SAPS  C312  245   0.291   1.175   5.551 -0.1580 -0.3090 -0.3962
    2SAPS  H12X  246   0.211   1.249   5.534 -1.5659 -0.5879  3.7554
    2SAPS  H12Y  247   0.236   1.079   5.564 -1.3012  0.3820 -0.0708
    2SAPS  C313  248   0.396   1.184   5.433 -0.3735 -0.7388 -0.0532
    2SAPS  H13X  249   0.439   1.286   5.434 -0.1285 -0.8431  0.1363
    2SAPS  H13Y  250   0.346   1.177   5.334 -0.2984  2.1270 -0.3776
    2SAPS  C314  251   0.509   1.083   5.444  0.1626  0.0731  0.3878
    2SAPS  H14X  252   0.452   0.990   5.464  0.8225 -0.1068  1.5132
    2SAPS  H14Y  253   0.574   1.110   5.530 -0.0079  1.1235  0.1960
    2SAPS  C315  254   0.594   1.060   5.315 -0.2082  0.8020  0.1284
    2SAPS  H15X  255   0.526   1.065   5.227 -2.0922  0.3089  1.5070
    2SAPS  H15Y  256   0.640   0.960   5.324 -2.0305 -0.1296 -0.5263
    2SAPS  C316  257   0.711   1.160   5.293 -0.2249  0.0851 -0.4052
    2SAPS  H16X  258   0.784   1.165   5.377  1.8020  1.5747 -2.1252
    2SAPS  H16Y  259   0.673   1.264   5.279 -0.9203 -0.1428 -0.2397
    2SAPS  C317  260   0.796   1.127   5.170 -0.5405 -0.3641  0.4272
    2SAPS  H17X  261   0.733   1.115   5.079 -1.2743 -1.8559  1.0892
    2SAPS  H17Y  262   0.857   1.035   5.188  1.3054  0.6629 -0.3364
    2SAPS  C318  263   0.896   1.242   5.130  0.0996 -0.6595  0.0082
    2SAPS  H18X  264   0.977   1.255   5.205  0.2405  1.9038 -0.4913
    2SAPS  H18Y  265   0.843   1.339   5.115  0.8463 -0.5547 -2.4638
    2SAPS  H18Z  266   0.945   1.219   5.033  0.4777  1.1056 -0.2570
    3SAPS     N  267   5.745   0.019   7.574 -0.0625  0.2570  0.0863
    3SAPS   HN1  268   5.768   0.024   7.473  1.7025 -0.3862  0.4082
    3SAPS   HN2  269   5.726   0.118   7.600  0.7072  0.2466  0.7711
    3SAPS   HN3  270   5.831  -0.008   7.628  0.7854  0.0010 -1.3443
    3SAPS   C12  271   5.619  -0.063   7.615 -0.4742  0.1887 -0.2003
    3SAPS  H12A  272   5.616  -0.086   7.720  0.0872 -1.4068 -0.5048
    3SAPS   C13  273   5.477  -0.012   7.567  0.3537  0.0514 -0.4525
    3SAPS  O13A  274   5.469   0.074   7.474 -0.1528 -0.3055  0.0941
    3SAPS  O13B  275   5.376  -0.079   7.602 -0.2854  0.0335 -0.4958
    3SAPS   C11  276   5.641  -0.201   7.546  0.2008 -1.0208  0.8262
    3SAPS  H11A  277   5.557  -0.268   7.572 -1.0923 -0.3512 -1.3818
    3SAPS  H11B  278   5.736  -0.243   7.587  3.0325  2.5299 -1.3639
    3SAPS     P  279   5.561  -0.274   7.301 -0.0630  0.0565  0.2378
    3SAPS   O13  280   5.626  -0.408   7.295 -0.4643  0.8922 -0.2755
    3SAPS   O14  281   5.416  -0.274   7.351 -0.1845 -0.2636  0.5862
    3SAPS   O12  282   5.647  -0.188   7.401 -0.1319 -0.0595 -0.0291
    3SAPS   O11  283   5.580  -0.195   7.168  0.3865 -0.5665  0.1995
    3SAPS    C1  284   5.603  -0.055   7.157 -0.4708 -0.6886  0.0422
    3SAPS    HA  285   5.542   0.008   7.226  0.2095  1.7172 -1.4268
    3SAPS    HB  286   5.702  -0.032   7.202  0.1914 -1.2615 -1.0780
    3SAPS    C2  287   5.597   0.009   7.014 -0.6873  0.0497  0.3672
    3SAPS    HS  288   5.503  -0.039   6.979 -1.0945  1.0123  0.0774
    3SAPS   O21  289   5.714  -0.020   6.937  0.3047 -0.5621 -0.3297
    3SAPS   C21  290   5.717  -0.131   6.869  0.1716  0.0338 -0.3848
    3SAPS   O22  291   5.627  -0.217   6.873 -0.3296  0.0436  0.5312
    3SAPS   C22  292   5.852  -0.136   6.805  0.0454  0.0014 -0.0428
    3SAPS   H2R  293   5.857  -0.045   6.743 -1.5377  1.9624  2.5081
    3SAPS   H2S  294   5.933  -0.134   6.881  0.6484  0.4289 -0.6845
    3SAPS    C3  295   5.574   0.167   7.007  0.6358  0.3151 -0.4451
    3SAPS    HX  296   5.651   0.241   7.039 -1.6515  2.2855  0.8903
    3SAPS    HY  297   5.495   0.189   7.082  1.5900 -3.0241  1.7493
    3SAPS   O31  298   5.541   0.214   6.869 -0.8497  0.1979  0.2392
    3SAPS   C31  299   5.412   0.205   6.837 -0.2317  0.1258 -0.1071
    3SAPS   O32  300   5.326   0.157   6.907 -0.8115  0.1000 -0.8261
    3SAPS   C32  301   5.401   0.247   6.686 -0.4692  0.8401 -0.4813
    3SAPS   H2X  302   5.370   0.153   6.634  0.3169 -0.1832  0.8305
    3SAPS   H2Y  303   5.503   0.275   6.652 -0.0962  0.6180  0.4159
    3SAPS   C23  304   5.867  -0.259   6.703  0.2251 -0.7499  0.1023
    3SAPS   H3R  305   5.785  -0.245   6.630  0.8390 -1.1086 -0.6632
    3SAPS   H3S  306   5.844  -0.354   6.755  2.5298 -1.9385 -0.8797
    3SAPS   C24  307   6.007  -0.264   6.628 -0.1808  0.2708  0.0660
    3SAPS   H4R  308   6.080  -0.266   6.712  0.7419 -0.4650 -0.7260
    3SAPS   H4S  309   6.023  -0.161   6.589 -0.7783  0.3029 -0.0964
    3SAPS   C25  310   6.038  -0.385   6.540 -0.4219  0.5485 -0.2739
    3SAPS   H5R  311   6.048  -0.479   6.595  2.4173  1.9907  1.9122
    3SAPS   C26  312   6.049  -0.381   6.401  0.2595 -0.0302  0.6669
    3SAPS   H6R  313   6.080  -0.470   6.344  0.3927  0.4823 -0.0675
    3SAPS   C27  314   6.037  -0.258   6.313 -0.1264  0.5584  0.5433
    3SAPS   H7R  315   6.116  -0.264   6.234  0.4794 -0.3952  1.1927
    3SAPS   H7S  316   6.063  -0.169   6.373 -0.8438  0.9544  0.2793
    3SAPS   C28  317   5.904  -0.243   6.258  0.5338 -0.3113  0.3706
    3SAPS   H8R  318   5.830  -0.199   6.327  0.7578  0.7065 -0.0182
    3SAPS   C29  319   5.864  -0.276   6.132  0.4001 -0.3996  0.5307
    3SAPS   H9R  320   5.761  -0.250   6.103  0.4481 -0.5022  0.2641
    3SAPS  C210  321   5.941  -0.317   6.009  0.4370  0.3288 -0.6468
    3SAPS  H10R  322   5.881  -0.392   5.954 -0.0876  2.2642 -2.8715
    3SAPS  H10S  323   6.030  -0.373   6.045 -0.1750 -0.4237 -0.2671
    3SAPS  C211  324   5.986  -0.197   5.936  0.0724 -0.0884  0.4011
    3SAPS  H11R  325   6.090  -0.167   5.959  1.8025 -3.7267 -1.8100
    3SAPS  C212  326   5.931  -0.148   5.823  0.0171  0.3029  0.1490
    3SAPS  H12R  327   5.978  -0.065   5.769 -3.8717  0.7587 -3.0779
    3SAPS  C213  328   5.807  -0.189   5.755  0.2161 -0.0220  0.2110
    3SAPS  H13R  329   5.726  -0.115   5.770 -1.2463 -1.7141  0.9988
    3SAPS  H13S  330   5.766  -0.285   5.793  0.1353  0.8439  2.4556
    3SAPS  C214  331   5.819  -0.201   5.600 -0.0368 -0.5300  0.1243
    3SAPS  H14R  332   5.894  -0.275   5.568 -1.0296 -1.4775 -0.0845
    3SAPS  C215  333   5.746  -0.138   5.503  0.0429  0.2388 -0.2994
    3SAPS  H15R  334   5.782  -0.149   5.399  1.9701  1.3418  0.2161
    3SAPS  C216  335   5.620  -0.047   5.506  0.2886  0.2625 -0.5346
    3SAPS  H16R  336   5.638   0.034   5.432  1.5600 -0.8064 -1.4596
    3SAPS  H16S  337   5.591  -0.003   5.603 -0.3966  1.2343 -1.1648
    3SAPS  C217  338   5.484  -0.111   5.456 -0.4361 -0.6821  0.4093
    3SAPS  H17R  339   5.404  -0.044   5.495 -0.2415 -0.1230 -0.1336
    3SAPS  H17S  340   5.467  -0.209   5.506 -0.4529 -2.0460 -2.0957
    3SAPS  C218  341   5.457  -0.120   5.314 -0.7945 -0.1023  0.4370
    3SAPS  H18R  342   5.502  -0.215   5.280 -0.1720  0.0587  0.7943
    3SAPS  H18S  343   5.510  -0.036   5.263 -0.1374  0.9428  2.7205
    3SAPS  C219  344   5.309  -0.120   5.274  0.5317 -0.4223 -0.7271
    3SAPS  H19R  345   5.293  -0.177   5.180 -0.7209 -0.4834 -0.4981
    3SAPS  H19S  346   5.254  -0.169   5.358  3.2583 -0.8495  0.9409
    3SAPS  C220  347   5.243   0.015   5.249 -0.3867 -0.7842  0.4430
    3SAPS  H20R  348   5.284   0.054   5.154 -1.3849 -0.7894 -0.0055
    3SAPS  H20S  349   5.258   0.083   5.335  0.5642 -0.3712 -0.0435
    3SAPS  H20T  350   5.134   0.009   5.229 -0.4533 -0.1986  0.6066
    3SAPS   C33  351   5.307   0.357   6.666 -0.7371  0.1848  0.0598
    3SAPS   H3X  352   5.331   0.452   6.720 -1.5676  0.9812 -0.9217
    3SAPS   H3Y  353   5.207   0.327   6.702 -0.8759  1.5569  0.9083
    3SAPS   C34  354   5.292   0.404   6.519 -0.7705 -0.0513 -0.5312
    3SAPS   H4X  355   5.387   0.447   6.481  0.2077 -3.6859 -2.6245
    3SAPS   H4Y  356   5.227   0.495   6.523  2.0243  2.0517  0.8625
    3SAPS   C35  357   5.227   0.302   6.430 -0.3565 -1.0620  0.0859
    3SAPS   H5X  358   5.302   0.223   6.404  1.3138  0.5424 -0.2023
    3SAPS   H5Y  359   5.131   0.266   6.473 -1.7206  0.4502 -1.5453
    3SAPS   C36  360   5.181   0.356   6.290 -0.4946 -0.1123 -0.0652
    3SAPS   H6X  361   5.106   0.281   6.256 -0.3838  0.3769 -1.4775
    3SAPS   H6Y  362   5.259   0.373   6.213  0.7664 -1.3355  0.9044
    3SAPS   C37  363   5.091   0.479   6.303  0.2658  0.0026  0.4613
    3SAPS   H7X  364   5.149   0.572   6.323  0.1000  0.4764 -1.0663
    3SAPS   H7Y  365   5.023   0.475   6.390 -0.3373 -2.8874 -0.0439
    3SAPS   C38  366   5.003   0.504   6.178 -1.1327 -0.5580  0.3120
    3SAPS   H8X  367   4.925   0.579   6.199  0.1315  1.8167 -2.7466
    3SAPS   H8Y  368   4.954   0.408   6.150  1.4158 -1.2527 -2.2345
    3SAPS   C39  369   5.079   0.569   6.064  0.4595 -0.0547  0.1105
    3SAPS   H9X  370   5.167   0.508   6.034  1.0138  1.3880 -1.3373
    3SAPS   H9Y  371   5.119   0.665   6.104 -0.8085  0.4109  0.2900
    3SAPS  C310  372   4.993   0.597   5.941 -0.2032  0.3218 -0.2455
    3SAPS  H10X  373   4.906   0.652   5.983  0.5476 -0.0289  1.8894
    3SAPS  H10Y  374   4.953   0.500   5.903 -1.7144  0.9094 -0.2258
    3SAPS  C311  375   5.070   0.676   5.840 -0.1208  0.1838  0.7431
    3SAPS  H11X  376   5.165   0.628   5.808 -1.3116 -0.9826 -1.1924
    3SAPS  H11Y  377   5.097   0.771   5.890 -0.2028  1.7017 -1.9178
    3SAPS  C312  378   4.995   0.711   5.712 -0.4335  0.1681 -0.0354
    3SAPS  H12X  379   4.900   0.760   5.744 -1.1099 -1.0691 -0.0757
    3SAPS  H12Y  380   4.973   0.622   5.650 -0.8036 -0.6218  1.1861
    3SAPS  C313  381   5.080   0.788   5.607  0.2723 -0.5606  0.6223
    3SAPS  H13X  382   5.172   0.731   5.584  1.0951  1.2751 -0.9753
    3SAPS  H13Y  383   5.112   0.882   5.656 -1.0029 -0.2366  0.8623
    3SAPS  C314  384   5.017   0.841   5.476 -0.2272  0.1757  0.1479
    3SAPS  H14X  385   4.925   0.899   5.500 -0.7635  0.0332 -1.4514
    3SAPS  H14Y  386   4.985   0.762   5.404  1.3350 -0.3917  0.0266
    3SAPS  C315  387   5.120   0.935   5.400  0.7650  0.4490  0.4948
    3SAPS  H15X  388   5.226   0.905   5.391  0.6932  0.1168  0.7100
    3SAPS  H15Y  389   5.131   1.017   5.474  0.0392  0.3479  0.7301
    3SAPS  C316  390   5.063   0.981   5.271  0.3247  0.2543  0.4412
    3SAPS  H16X  391   4.960   1.022   5.278  0.9570  1.8119  0.9639
    3SAPS  H16Y  392   5.066   0.892   5.204 -0.5087  0.8671 -0.4312
    3SAPS  C317  393   5.151   1.083   5.202 -0.1517  0.3852  0.3014
    3SAPS  H17X  394   5.155   1.179   5.257 -0.9485  0.9871 -0.6677
    3SAPS  H17Y  395   5.110   1.106   5.101  1.7425  1.7498 -0.2118
    3SAPS  C318  396   5.294   1.037   5.170  0.2654  0.6573 -0.4559
    3SAPS  H18X  397   5.351   1.095   5.093  0.9016  2.4450  1.2829
    3SAPS  H18Y  398   5.284   0.931   5.137  0.9545 -0.1478  1.7482
    3SAPS  H18Z  399   5.369   1.033   5.252  0.2842 -0.5113 -0.5046
    4SAPS     N  400   3.252   4.887   7.024  0.5134 -0.0899 -0.0624
    4SAPS   HN1  401   3.261   4.814   7.097 -1.9921 -0.0489  0.3824
    4SAPS   HN2  402   3.150   4.908   7.021  0.2324 -1.3299  0.2210
    4SAPS   HN3  403   3.284   4.854   6.931  1.4111  0.1893  0.1423
    4SAPS   C12  404   3.326   5.014   7.059  0.0889 -0.5489 -0.1509
    4SAPS  H12A  405   3.353   5.068   6.969 -0.5067  0.9864  0.5503
    4SAPS   C13  406   3.250   5.115   7.153 -0.7403  0.6711  0.2630
    4SAPS  O13A  407   3.124   5.098   7.162 -1.1189 -0.1025  0.0082
    4SAPS  O13B  408   3.296   5.226   7.184 -1.0195 -0.2822  0.5137
    4SAPS   C11  409   3.470   4.984   7.115  0.1522  0.1642  0.8260
    4SAPS  H11A  410   3.466   4.959   7.223 -0.3354  1.2898  1.0869
    4SAPS  H11B  411   3.535   5.073   7.107  0.9305 -0.4507  0.1903
    4SAPS     P  412   3.685   4.844   7.049  0.1275  0.1868 -0.1221
    4SAPS   O13  413   3.703   4.815   7.193  1.0162  0.0212  0.6292
    4SAPS   O14  414   3.719   4.731   6.952  0.1291  0.0588  0.0381
    4SAPS   O12  415   3.535   4.886   7.030  0.2979  0.0831 -0.9204
    4SAPS   O11  416   3.761   4.978   7.005 -0.2451  0.2106 -1.0779
    4SAPS    C1  417   3.727   5.046   6.886 -0.3425 -0.2576  0.1841
    4SAPS    HA  418   3.640   5.008   6.827 -0.2806  2.0411 -1.5421
    4SAPS    HB  419   3.690   5.148   6.911 -0.6324 -0.2998 -0.0679
    4SAPS    C2  420   3.851   5.072   6.798 -0.3981 -0.1769 -0.0266
    4SAPS    HS  421   3.818   5.134   6.711 -2.9323 -2.2813 -0.7037
    4SAPS   O21  422   3.900   4.943   6.748 -0.6314  0.1480 -0.1511
    4SAPS   C21  423   3.835   4.896   6.639 -0.6098  0.8792 -0.2802
    4SAPS   O22  424   3.733   4.948   6.593 -0.0277 -0.1088 -0.4001
    4SAPS   C22  425   3.887   4.762   6.594 -0.7181 -0.1326  0.2848
    4SAPS   H2R  426   3.993   4.775   6.563 -1.0086  1.3182 -0.1999
    4SAPS   H2S  427   3.867   4.693   6.678 -1.1464 -0.5922 -0.1869
    4SAPS    C3  428   3.972   5.149   6.864 -0.1361 -0.2024 -0.0563
    4SAPS    HX  429   3.972   5.088   6.958  0.1141  0.9451  0.7041
    4SAPS    HY  430   3.939   5.253   6.882 -0.5076 -0.5058  1.1217
    4SAPS   O31  431   4.093   5.125   6.783  0.0585 -0.3176 -0.4980
    4SAPS   C31  432   4.106   5.218   6.691 -0.4330 -0.0433  0.2283
    4SAPS   O32  433   4.027   5.307   6.670  0.3278 -0.1220 -0.0728
    4SAPS   C32  434   4.241   5.194   6.616 -0.8139  0.0908  0.6094
    4SAPS   H2X  435   4.243   5.085   6.593 -1.5542 -0.5220  3.0961
    4SAPS   H2Y  436   4.313   5.209   6.698 -1.1851  0.4268  0.8769
    4SAPS   C23  437   3.800   4.702   6.475 -0.0307 -0.0941 -0.7593
    4SAPS   H3R  438   3.691   4.713   6.491  0.0641  0.5619 -0.5155
    4SAPS   H3S  439   3.829   4.595   6.482  2.1158  0.5011  0.4106
    4SAPS   C24  440   3.843   4.732   6.334  0.5019  0.4256 -0.0171
    4SAPS   H4R  441   3.777   4.669   6.271  1.5708 -0.8171  0.0599
    4SAPS   H4S  442   3.940   4.679   6.321  0.0973 -0.3539  0.0521
    4SAPS   C25  443   3.843   4.880   6.292  0.1528 -0.2772  0.2871
    4SAPS   H5R  444   3.844   4.955   6.373 -0.8979 -0.8746  0.8699
    4SAPS   C26  445   3.834   4.923   6.167  0.7263 -0.2539 -0.8155
    4SAPS   H6R  446   3.829   5.032   6.155  0.4743 -0.2928 -1.0667
    4SAPS   C27  447   3.814   4.830   6.046  0.3348  0.0270  0.3008
    4SAPS   H7R  448   3.705   4.826   6.028 -0.2629  1.2290  3.1104
    4SAPS   H7S  449   3.836   4.723   6.069 -0.7246 -0.3642 -0.4327
    4SAPS   C28  450   3.884   4.850   5.912 -0.1063 -0.0882  0.4513
    4SAPS   H8R  451   3.978   4.792   5.912  1.0417  1.7123 -0.1283
    4SAPS   C29  452   3.836   4.930   5.814  0.1634 -0.1083 -0.5222
    4SAPS   H9R  453   3.896   4.953   5.725 -0.0218  3.5288  0.1173
    4SAPS  C210  454   3.710   5.015   5.817  0.5084 -0.2090  0.3495
    4SAPS  H10R  455   3.733   5.111   5.765  0.7715 -0.4085  0.1015
    4SAPS  H10S  456   3.687   5.054   5.919 -1.7187 -0.5335  0.0068
    4SAPS  C211  457   3.582   4.950   5.772  0.5304  0.7044  0.3507
    4SAPS  H11R  458   3.538   4.883   5.847  1.7082  0.0364  0.4733
    4SAPS  C212  459   3.518   4.972   5.652  0.4118 -0.1149  0.0453
    4SAPS  H12R  460   3.424   4.923   5.623  0.8580 -0.7622 -0.3247
    4SAPS  C213  461   3.555   5.065   5.543 -0.3263 -0.1668 -0.6802
    4SAPS  H13R  462   3.574   5.008   5.450 -0.1113  0.3884 -0.9850
    4SAPS  H13S  463   3.647   5.125   5.562 -0.5948  0.1302 -0.2861
    4SAPS  C214  464   3.451   5.165   5.514  0.0910  0.0814 -0.2651
    4SAPS  H14R  465   3.352   5.157   5.560 -0.6975  1.5299 -1.5964
    4SAPS  C215  466   3.456   5.259   5.412 -0.7622  0.6792 -0.7808
    4SAPS  H15R  467   3.377   5.335   5.403 -2.8279 -1.3299 -0.4939
    4SAPS  C216  468   3.574   5.279   5.316 -0.8402  0.5317 -1.0896
    4SAPS  H16R  469   3.633   5.184   5.311 -1.7225  0.0341 -4.7268
    4SAPS  H16S  470   3.649   5.352   5.354  1.0215 -2.2201  0.9095
    4SAPS  C217  471   3.527   5.320   5.184  0.3918  0.5207  0.3107
    4SAPS  H17R  472   3.486   5.422   5.193  4.2651  2.3586 -0.6689
    4SAPS  H17S  473   3.450   5.250   5.145 -0.3128  0.9128  0.9883
    4SAPS  C218  474   3.645   5.333   5.081 -0.4653  0.2767  0.2389
    4SAPS  H18R  475   3.691   5.237   5.051  4.8795  2.2739  0.9916
    4SAPS  H18S  476   3.716   5.395   5.141 -1.6836 -0.8526  3.0280
    4SAPS  C219  477   3.617   5.402   4.944  0.3259  0.0391 -0.2334
    4SAPS  H19R  478   3.704   5.433   4.883  1.2050  0.8731  1.3809
    4SAPS  H19S  479   3.563   5.497   4.963  1.4174  0.7190 -0.4607
    4SAPS  C220  480   3.513   5.332   4.852 -0.0821 -0.1962 -0.4704
    4SAPS  H20R  481   3.413   5.308   4.893 -0.1038 -0.5696 -0.7291
    4SAPS  H20S  482   3.557   5.236   4.817  1.3600  1.1764 -2.7032
    4SAPS  H20T  483   3.499   5.405   4.770 -1.1599  1.5019  1.1596
    4SAPS   C33  484   4.266   5.297   6.506 -0.4152  0.0476 -0.2844
    4SAPS   H3X  485   4.376   5.305   6.493 -0.7186  3.4047 -1.6934
    4SAPS   H3Y  486   4.242   5.399   6.544  0.1014 -0.0802  0.4240
    4SAPS   C34  487   4.217   5.262   6.365  0.1766 -0.4291 -0.2262
    4SAPS   H4X  488   4.237   5.349   6.300 -0.5398  1.0705  1.4587
    4SAPS   H4Y  489   4.106   5.271   6.365 -0.0642 -2.6307  0.7203
    4SAPS   C35  490   4.260   5.134   6.303  1.0520  0.1711  0.1932
    4SAPS   H5X  491   4.244   5.047   6.371 -0.8094  1.1869  1.1059
    4SAPS   H5Y  492   4.369   5.128   6.282  0.7658 -1.7856 -1.0120
    4SAPS   C36  493   4.176   5.090   6.184  0.0102 -0.1826 -0.2324
    4SAPS   H6X  494   4.072   5.076   6.223  0.0848  0.0424  0.0513
    4SAPS   H6Y  495   4.212   4.991   6.148  0.5356  0.1359 -0.5790
    4SAPS   C37  496   4.201   5.192   6.071 -0.2810 -0.4089  0.0696
    4SAPS   H7X  497   4.311   5.203   6.055 -0.2106 -1.4883 -0.2997
    4SAPS   H7Y  498   4.161   5.293   6.093 -0.3308 -0.5114  0.4537
    4SAPS   C38  499   4.144   5.148   5.940 -0.0828 -0.3065 -0.6960
    4SAPS   H8X  500   4.034   5.157   5.949  0.1018  1.2427  0.2612
    4SAPS   H8Y  501   4.151   5.037   5.930 -1.2230 -0.3820 -0.7996
    4SAPS   C39  502   4.199   5.215   5.813 -0.0392  0.0464 -0.1333
    4SAPS   H9X  503   4.296   5.168   5.786 -0.3733 -0.2274 -0.8872
    4SAPS   H9Y  504   4.210   5.325   5.822 -0.8036  0.0719  0.5255
    4SAPS  C310  505   4.122   5.177   5.692  0.3447  0.3380 -0.3319
    4SAPS  H10X  506   4.012   5.189   5.700  0.2115  0.1442 -1.6940
    4SAPS  H10Y  507   4.134   5.072   5.659 -0.8390 -0.5142  1.7702
    4SAPS  C311  508   4.151   5.266   5.567  0.1442  0.1455 -0.0799
    4SAPS  H11X  509   4.249   5.240   5.523  0.9779  4.4951 -1.2223
    4SAPS  H11Y  510   4.139   5.375   5.582  0.5269 -0.1996  3.6517
    4SAPS  C312  511   4.053   5.225   5.453 -0.3557 -0.1615 -0.2023
    4SAPS  H12X  512   4.078   5.289   5.366 -1.0935 -1.2340 -1.2512
    4SAPS  H12Y  513   3.951   5.250   5.489 -0.6114 -2.0750  0.5305
    4SAPS  C313  514   4.041   5.081   5.412 -0.2403 -0.1586  0.1942
    4SAPS  H13X  515   3.991   5.027   5.495  0.1611  1.8888  1.8328
    4SAPS  H13Y  516   4.147   5.051   5.392 -0.3155 -3.3168  3.5001
    4SAPS  C314  517   3.961   5.059   5.288  0.1137  0.2571 -0.4007
    4SAPS  H14X  518   3.910   5.153   5.257  1.9459  1.2624 -0.4831
    4SAPS  H14Y  519   3.875   4.991   5.303 -0.1192  0.6397  0.0056
    4SAPS  C315  520   4.046   5.007   5.174 -0.3885  0.1092  0.4470
    4SAPS  H15X  521   4.101   4.913   5.195  1.4759  0.7471 -1.2578
    4SAPS  H15Y  522   4.130   5.079   5.162  0.3042 -0.8387 -0.5375
    4SAPS  C316  523   3.981   5.005   5.038 -0.7748  0.1634 -0.0559
    4SAPS  H16X  524   4.054   5.019   4.955 -0.4621 -0.9826  0.0141
    4SAPS  H16Y  525   3.915   5.094   5.031 -1.0494 -0.0828 -0.6099
    4SAPS  C317  526   3.890   4.879   5.017 -0.3390 -0.3827  0.7510
    4SAPS  H17X  527   3.802   4.886   5.084 -1.1774 -0.5028 -0.3019
    4SAPS  H17Y  528   3.946   4.783   5.028 -1.5587 -1.1203  0.6749
    4SAPS  C318  529   3.826   4.884   4.872  0.1507  0.2795 -0.3355
    4SAPS  H18X  530   3.780   4.985   4.869 -1.7348 -0.5110  0.3688
    4SAPS  H18Y  531   3.742   4.810   4.876 -0.3499  0.8748  0.6109
    4SAPS  H18Z  532   3.903   4.861   4.795  2.7768  0.1135  2.1985
    5SAPS     N  533   0.205   6.451   7.936  0.0169 -0.3484 -0.7236
    5SAPS   HN1  534   0.293   6.417   7.890  0.4934  0.1928 -0.2266
    5SAPS   HN2  535   0.232   6.453   8.037  2.3615 -0.0711 -1.2904
    5SAPS   HN3  536   0.144   6.368   7.924  0.8258 -1.0266 -0.2961
    5SAPS   C12  537   0.158   6.577   7.882 -0.4489 -0.4815 -0.6374
    5SAPS  H12A  538   0.150   6.576   7.774  0.5640  1.2316 -0.7620
    5SAPS   C13  539   0.024   6.642   7.935 -0.4149 -0.2251  0.1084
    5SAPS  O13A  540  -0.030   6.596   8.037 -0.0235 -0.0876  0.1118
    5SAPS  O13B  541  -0.002   6.756   7.894 -0.3064 -0.1078  0.1848
    5SAPS   C11  542   0.265   6.689   7.901  0.0223  0.2027  0.5948
    5SAPS  H11A  543   0.270   6.707   8.011 -1.4875 -1.5850  1.0138
    5SAPS  H11B  544   0.230   6.774   7.839  0.1133 -1.1661 -1.4001
    5SAPS     P  545   0.514   6.723   7.841 -0.1582  0.0321  0.0531
    5SAPS   O13  546   0.483   6.864   7.876 -0.2025  0.3728 -0.2044
    5SAPS   O14  547   0.629   6.652   7.910  0.4111 -0.7944 -0.3702
    5SAPS   O12  548   0.389   6.632   7.849  0.0844  0.4349  0.5309
    5SAPS   O11  549   0.539   6.721   7.689  0.0258 -0.0534  0.1641
    5SAPS    C1  550   0.501   6.616   7.596 -0.0709  0.5169  0.2481
    5SAPS    HA  551   0.550   6.521   7.625 -1.7016 -0.5577 -0.4293
    5SAPS    HB  552   0.390   6.615   7.604  0.0211  0.4938  1.7378
    5SAPS    C2  553   0.535   6.645   7.443 -0.6416  0.8893 -0.6171
    5SAPS    HS  554   0.643   6.669   7.432 -0.9256  2.2874 -0.4760
    5SAPS   O21  555   0.456   6.754   7.397 -0.7705 -0.1234  0.0018
    5SAPS   C21  556   0.508   6.825   7.300 -0.2398  0.5315  0.6706
    5SAPS   O22  557   0.626   6.818   7.263  0.3201 -0.3567  0.2936
    5SAPS   C22  558   0.407   6.921   7.243 -0.2543  0.4153  0.3033
    5SAPS   H2R  559   0.327   6.858   7.197  0.4943 -0.3245 -0.0097
    5SAPS   H2S  560   0.374   6.979   7.332  0.2013 -0.8031  1.2901
    5SAPS    C3  561   0.509   6.523   7.355 -0.0726 -0.0350 -0.1026
    5SAPS    HX  562   0.401   6.498   7.363 -0.1185  0.6586  2.0536
    5SAPS    HY  563   0.566   6.433   7.388 -2.0275 -1.6366 -0.8575
    5SAPS   O31  564   0.549   6.545   7.216 -0.9765  0.0497 -0.3834
    5SAPS   C31  565   0.681   6.530   7.196  0.2630 -1.0407 -0.0436
    5SAPS   O32  566   0.762   6.486   7.278  0.2409 -0.1792 -0.3149
    5SAPS   C32  567   0.716   6.561   7.051  0.2894 -0.2599  0.1480
    5SAPS   H2X  568   0.699   6.671   7.041 -2.2648 -0.2268  3.2452
    5SAPS   H2Y  569   0.633   6.519   6.990 -0.5171 -0.9981  1.6969
    5SAPS   C23  570   0.476   7.004   7.135  0.1407  0.3994 -0.2923
    5SAPS   H3R  571   0.535   6.941   7.066 -0.2208  0.8469 -1.0291
    5SAPS   H3S  572   0.540   7.080   7.185  0.1767  1.1181 -1.3796
    5SAPS   C24  573   0.378   7.081   7.042  0.6439 -0.2256  0.3145
    5SAPS   H4R  574   0.439   7.153   6.983 -1.6028  0.7416 -0.9627
    5SAPS   H4S  575   0.303   7.142   7.095  0.4858  0.5272 -0.7374
    5SAPS   C25  576   0.306   6.993   6.947  0.1206  0.3623  1.1509
    5SAPS   H5R  577   0.251   6.905   6.984  0.6193  0.4888  2.2466
    5SAPS   C26  578   0.313   7.014   6.814 -0.8758 -0.3545  0.5176
    5SAPS   H6R  579   0.265   6.936   6.752 -0.8481 -0.2769  0.3985
    5SAPS   C27  580   0.383   7.116   6.728  0.5247  0.4361 -0.2329
    5SAPS   H7R  581   0.472   7.061   6.687 -0.4555 -0.8245 -0.7503
    5SAPS   H7S  582   0.419   7.210   6.775  1.7987  0.1789 -0.6503
    5SAPS   C28  583   0.290   7.172   6.619 -0.1073 -0.7452 -0.0904
    5SAPS   H8R  584   0.188   7.194   6.653 -0.7287 -1.4966 -1.3673
    5SAPS   C29  585   0.335   7.205   6.493  0.7076 -0.2190  0.6732
    5SAPS   H9R  586   0.270   7.256   6.422  2.2655  2.1857  0.8603
    5SAPS  C210  587   0.470   7.166   6.429  0.5598 -0.3329  0.5134
    5SAPS  H10R  588   0.511   7.069   6.466  0.0750 -0.9571 -0.5328
    5SAPS  H10S  589   0.541   7.249   6.447 -1.2665  1.3760  0.1275
    5SAPS  C211  590   0.452   7.157   6.279  0.8441  0.5187  0.4726
    5SAPS  H11R  591   0.478   7.247   6.221  0.2563 -1.3952 -3.0560
    5SAPS  C212  592   0.423   7.047   6.213  0.4879  0.5003  0.3575
    5SAPS  H12R  593   0.434   7.049   6.104  3.2462  1.3255  0.5832
    5SAPS  C213  594   0.396   6.908   6.270 -0.0221 -0.6398 -0.0714
    5SAPS  H13R  595   0.319   6.923   6.348 -2.6414  1.3948 -2.8075
    5SAPS  H13S  596   0.486   6.873   6.326 -1.3766 -2.1818  1.2457
    5SAPS  C214  597   0.350   6.809   6.165 -0.1354  0.4275  0.1113
    5SAPS  H14R  598   0.418   6.737   6.119 -1.3592 -0.0890 -0.9640
    5SAPS  C215  599   0.225   6.787   6.126  0.1491 -0.1384  0.5058
    5SAPS  H15R  600   0.205   6.720   6.041  1.4193  0.7722 -0.5640
    5SAPS  C216  601   0.105   6.865   6.188  0.4929 -0.3799  0.0163
    5SAPS  H16R  602   0.145   6.961   6.229 -0.5759 -0.1291  0.5086
    5SAPS  H16S  603   0.068   6.806   6.274 -0.5024 -0.4090 -0.4253
    5SAPS  C217  604  -0.019   6.881   6.097 -0.2144  0.0094  0.7322
    5SAPS  H17R  605  -0.111   6.906   6.154 -0.8163  0.9303 -0.5885
    5SAPS  H17S  606  -0.028   6.786   6.040  0.8659 -1.3351  2.6771
    5SAPS  C218  607   0.009   6.990   5.990  0.3532 -0.4641  0.0452
    5SAPS  H18R  608  -0.061   6.971   5.905  0.9411 -0.6959 -0.3974
    5SAPS  H18S  609   0.106   6.971   5.938  0.3946 -2.6128  0.7818
    5SAPS  C219  610  -0.019   7.141   6.034  0.3766 -0.4927 -0.2420
    5SAPS  H19R  611  -0.099   7.147   6.112  1.3853  0.9198  0.7278
    5SAPS  H19S  612  -0.047   7.192   5.940  2.4399 -0.2451 -0.7545
    5SAPS  C220  613   0.111   7.205   6.095  0.1209 -0.1166 -0.5296
    5SAPS  H20R  614   0.185   7.216   6.012 -3.2700  0.2728 -3.7352
    5SAPS  H20S  615   0.152   7.155   6.185  0.2516 -0.9280 -1.0228
    5SAPS  H20T  616   0.080   7.309   6.116  0.6091  0.8852 -4.0214
    5SAPS   C33  617   0.855   6.519   7.020 -0.6615 -0.0607  0.0408
    5SAPS   H3X  618   0.874   6.411   7.037 -0.7540  0.0019  0.5447
    5SAPS   H3Y  619   0.930   6.569   7.085 -0.6785 -0.4469  0.3590
    5SAPS   C34  620   0.886   6.531   6.870 -0.1075  0.0751 -0.5801
    5SAPS   H4X  621   0.889   6.632   6.823 -0.0798  0.2532 -0.2032
    5SAPS   H4Y  622   0.802   6.476   6.823 -0.9793  1.6057 -0.8701
    5SAPS   C35  623   1.013   6.461   6.825 -0.3162 -0.0116  0.1097
    5SAPS   H5X  624   1.025   6.358   6.865  0.0816 -0.5672 -1.3730
    5SAPS   H5Y  625   1.104   6.519   6.851 -0.1526 -0.5254  0.7223
    5SAPS   C36  626   1.014   6.447   6.674  0.2003  0.5692  0.7466
    5SAPS   H6X  627   0.996   6.548   6.630  2.5091  0.0639 -1.5754
    5SAPS   H6Y  628   0.925   6.381   6.663 -2.1623  2.1885  6.3695
    5SAPS   C37  629   1.140   6.379   6.613 -0.8426 -0.6392 -0.6069
    5SAPS   H7X  630   1.179   6.305   6.686  1.1203  1.9565  1.1664
    5SAPS   H7Y  631   1.224   6.452   6.609  1.4206 -3.0362 -0.2911
    5SAPS   C38  632   1.122   6.325   6.477 -0.7183  0.0234 -0.1510
    5SAPS   H8X  633   1.036   6.256   6.464  0.1148 -0.8583 -1.1965
    5SAPS   H8Y  634   1.210   6.259   6.459  0.0987  1.0716 -0.0718
    5SAPS   C39  635   1.123   6.441   6.378 -0.0648 -0.9139 -0.5295
    5SAPS   H9X  636   1.223   6.489   6.389 -0.4616 -0.2857  0.4213
    5SAPS   H9Y  637   1.037   6.504   6.408  0.0654  0.5982 -3.0610
    5SAPS  C310  638   1.115   6.403   6.232  0.2926  0.6164 -0.0070
    5SAPS  H10X  639   1.105   6.495   6.170 -2.1376  0.4377  0.0322
    5SAPS  H10Y  640   1.022   6.346   6.214  1.2168  0.0386 -4.0370
    5SAPS  C311  641   1.242   6.328   6.184 -0.2748 -0.3222 -0.1919
    5SAPS  H11X  642   1.245   6.240   6.252 -0.6105  0.6836  1.1753
    5SAPS  H11Y  643   1.327   6.398   6.192 -1.4021  1.6283 -3.4232
    5SAPS  C312  644   1.231   6.272   6.041 -0.6443  0.7065 -0.4512
    5SAPS  H12X  645   1.159   6.190   6.059 -0.2640  0.8471  2.1359
    5SAPS  H12Y  646   1.324   6.220   6.010 -1.0371 -0.4973  0.3159
    5SAPS  C313  647   1.186   6.367   5.929 -0.2739 -0.4613 -0.0685
    5SAPS  H13X  648   1.087   6.411   5.956  0.5083 -0.2996  2.8447
    5SAPS  H13Y  649   1.183   6.312   5.833 -0.1980 -2.0367  0.8013
    5SAPS  C314  650   1.284   6.485   5.907  0.0407 -0.1903 -0.2369
    5SAPS  H14X  651   1.383   6.439   5.888  1.1807  2.8961 -2.8159
    5SAPS  H14Y  652   1.300   6.547   5.998  1.4429 -1.1387  0.1951
    5SAPS  C315  653   1.254   6.563   5.779 -0.2971 -0.0565  0.2341
    5SAPS  H15X  654   1.144   6.574   5.772 -0.3282 -0.9382 -1.1527
    5SAPS  H15Y  655   1.273   6.490   5.697  1.5470 -1.9488  2.1768
    5SAPS  C316  656   1.320   6.699   5.765  0.6749  0.1517 -0.0892
    5SAPS  H16X  657   1.429   6.688   5.749  0.4580 -1.5042 -0.5485
    5SAPS  H16Y  658   1.313   6.748   5.865  1.1280 -0.3093  0.1724
    5SAPS  C317  659   1.261   6.782   5.658  0.2408 -0.8045 -0.1822
    5SAPS  H17X  660   1.150   6.781   5.666  0.3615 -0.4042  2.3687
    5SAPS  H17Y  661   1.288   6.731   5.563  0.2238  0.8097 -1.0896
    5SAPS  C318  662   1.307   6.928   5.665  0.7145  0.3478  0.1166
    5SAPS  H18X  663   1.415   6.949   5.683  1.4371 -0.9269 -2.3161
    5SAPS  H18Y  664   1.262   6.977   5.754 -0.3598 -1.2895  0.5134
    5SAPS  H18Z  665   1.276   6.990   5.579  1.9322 -0.1555 -0.7260
    6SAPS     N  666   3.307   6.503   7.568 -0.3333  0.7379  0.2758
    6SAPS   HN1  667   3.243   6.530   7.490 -0.9748  2.8605  1.4798
    6SAPS   HN2  668   3.402   6.540   7.547  0.1094 -0.8569 -0.7870
    6SAPS   HN3  669   3.325   6.400   7.571 -0.3688  0.5293 -2.9514
    6SAPS   C12  670   3.254   6.573   7.687  0.3407  0.2234 -0.0332
    6SAPS  H12A  671   3.160   6.532   7.720  0.0191  1.8195  1.1272
    6SAPS   C13  672   3.345   6.567   7.811 -0.1073  0.0082  0.0703
    6SAPS  O13A  673   3.447   6.490   7.810  0.2441  0.1018 -0.2484
    6SAPS  O13B  674   3.305   6.612   7.923  0.0778  0.3398  0.5576
    6SAPS   C11  675   3.229   6.717   7.655 -0.8070  0.3768 -0.5265
    6SAPS  H11A  676   3.318   6.765   7.608  0.2915 -2.0671 -1.0522
    6SAPS  H11B  677   3.211   6.764   7.754  1.5336 -0.1805  0.2036
    6SAPS     P  678   3.099   6.726   7.426  0.4846  0.2591 -0.3430
    6SAPS   O13  679   3.128   6.584   7.383 -0.2401 -0.2630  0.4067
    6SAPS   O14  680   2.970   6.780   7.386 -0.1726 -0.1885 -0.4684
    6SAPS   O12  681   3.115   6.734   7.577 -0.4575 -0.2497 -0.0263
    6SAPS   O11  682   3.222   6.820   7.390  0.4509 -0.6154 -0.2237
    6SAPS    C1  683   3.326   6.806   7.303  0.0142  0.0698 -0.2446
    6SAPS    HA  684   3.423   6.801   7.356 -0.4133  0.4196  0.5880
    6SAPS    HB  685   3.321   6.711   7.246  3.5463  0.0160 -0.7133
    6SAPS    C2  686   3.341   6.927   7.199 -0.2627 -0.0794  0.7858
    6SAPS    HS  687   3.383   7.015   7.252 -0.9000  1.3880 -1.0252
    6SAPS   O21  688   3.213   6.953   7.139  0.3470  0.3394 -0.8843
    6SAPS   C21  689   3.185   7.061   7.063 -0.3956 -0.6974  0.2662
    6SAPS   O22  690   3.260   7.152   7.036 -0.2700 -0.0517 -0.3999
    6SAPS   C22  691   3.047   7.037   7.005  0.1102 -0.3651  0.0503
    6SAPS   H2R  692   3.059   6.976   6.914  1.8910 -0.8222  0.5640
    6SAPS   H2S  693   2.979   6.986   7.077  0.9758 -1.9166 -0.1818
    6SAPS    C3  694   3.455   6.883   7.094  0.0394  0.3251 -0.1464
    6SAPS    HX  695   3.412   6.783   7.072 -1.7639  0.7963  1.0009
    6SAPS    HY  696   3.549   6.887   7.153 -0.1865 -1.2844  0.3760
    6SAPS   O31  697   3.461   6.971   6.982  0.2443  0.0833  0.2267
    6SAPS   C31  698   3.540   7.080   6.987 -0.4470  0.1774 -0.2403
    6SAPS   O32  699   3.604   7.110   7.087 -0.4006 -0.5003  0.0502
    6SAPS   C32  700   3.525   7.169   6.862  0.3676  0.2615  0.7743
    6SAPS   H2X  701   3.584   7.260   6.885  1.3783 -0.2015  0.0783
    6SAPS   H2Y  702   3.416   7.190   6.851  0.2460 -0.0948  1.2569
    6SAPS   C23  703   2.975   7.164   6.949  0.6263  0.8377 -0.1954
    6SAPS   H3R  704   2.961   7.235   7.033 -3.4232 -0.2531  0.2464
    6SAPS   H3S  705   2.871   7.127   6.931  1.1878 -1.8965  1.5758
    6SAPS   C24  706   3.042   7.225   6.825 -0.1543  0.2935 -0.6170
    6SAPS   H4R  707   3.149   7.242   6.847  0.1642  0.1813 -2.0407
    6SAPS   H4S  708   2.994   7.324   6.810 -1.5178 -0.2775 -0.2386
    6SAPS   C25  709   3.023   7.144   6.699  0.3841  0.1585  0.4152
    6SAPS   H5R  710   2.969   7.049   6.716  1.1513 -0.3221  0.1961
    6SAPS   C26  711   3.067   7.174   6.578  0.3604 -0.5340 -0.2761
    6SAPS   H6R  712   3.048   7.104   6.496 -0.9478 -2.3029  1.4457
    6SAPS   C27  713   3.137   7.302   6.535  0.2496 -0.7522  0.3416
    6SAPS   H7R  714   3.232   7.294   6.477  1.7289 -1.2131  2.6963
    6SAPS   H7S  715   3.181   7.342   6.629  1.1052 -0.4786 -0.1705
    6SAPS   C28  716   3.035   7.394   6.472 -0.1475  0.1651  0.1907
    6SAPS   H8R  717   2.975   7.446   6.548 -1.4164 -2.2676  0.9531
    6SAPS   C29  718   3.012   7.413   6.338 -0.8639  0.0425  0.4258
    6SAPS   H9R  719   2.935   7.484   6.302 -1.0381  0.1517  1.0133
    6SAPS  C210  720   3.091   7.348   6.226 -0.1913 -0.0043  0.1369
    6SAPS  H10R  721   3.148   7.262   6.268 -0.9087  0.0742  1.3323
    6SAPS  H10S  722   3.165   7.417   6.179 -0.7486 -0.4210 -1.3941
    6SAPS  C211  723   3.002   7.301   6.109  0.6201 -0.1889  0.4336
    6SAPS  H11R  724   2.905   7.255   6.132  0.6274 -0.6485 -0.4372
    6SAPS  C212  725   3.027   7.316   5.977  0.4192 -0.2805  0.4339
    6SAPS  H12R  726   2.949   7.276   5.912  0.0732  0.0883  0.6237
    6SAPS  C213  727   3.132   7.407   5.916 -0.2937  0.4329 -0.5797
    6SAPS  H13R  728   3.229   7.357   5.937 -0.2241  0.8602  0.1624
    6SAPS  H13S  729   3.142   7.502   5.972 -0.2261  0.5793 -0.8415
    6SAPS  C214  730   3.117   7.431   5.767 -0.1187 -0.1484 -0.2973
    6SAPS  H14R  731   3.038   7.503   5.741 -0.0825 -1.1207 -3.5631
    6SAPS  C215  732   3.192   7.385   5.667  0.6531  0.2482 -0.7575
    6SAPS  H15R  733   3.162   7.409   5.564 -0.2589  1.9567 -0.1293
    6SAPS  C216  734   3.300   7.283   5.675 -0.3762 -0.0787  0.2084
    6SAPS  H16R  735   3.257   7.183   5.656  3.2817 -1.5637 -1.2884
    6SAPS  H16S  736   3.348   7.286   5.775  0.1670  0.4034 -0.0561
    6SAPS  C217  737   3.405   7.305   5.569  0.3716  0.1134  0.0896
    6SAPS  H17R  738   3.351   7.311   5.472  2.2132  0.4824 -0.9657
    6SAPS  H17S  739   3.469   7.217   5.548 -1.2779 -0.6814 -1.9783
    6SAPS  C218  740   3.479   7.437   5.583 -0.0796 -1.2983  0.0958
    6SAPS  H18R  741   3.504   7.462   5.688 -1.9803  1.4258  0.0040
    6SAPS  H18S  742   3.407   7.513   5.545  0.4921 -0.3748  0.8371
    6SAPS  C219  743   3.612   7.452   5.501 -0.0811 -0.2287  0.1363
    6SAPS  H19R  744   3.689   7.384   5.544 -0.5462 -2.8287 -2.8400
    6SAPS  H19S  745   3.649   7.555   5.518  0.0163 -0.7127  3.7680
    6SAPS  C220  746   3.597   7.424   5.357 -0.1380 -0.2131  0.5726
    6SAPS  H20R  747   3.690   7.442   5.299 -0.0387  0.7489  1.0057
    6SAPS  H20S  748   3.520   7.487   5.307 -0.2860 -1.0880 -0.3410
    6SAPS  H20T  749   3.566   7.319   5.341 -2.5153  0.3941  0.8640
    6SAPS   C33  750   3.569   7.100   6.733 -0.6992 -0.1586 -0.3742
    6SAPS   H3X  751   3.544   6.991   6.737 -1.3067 -0.0214 -0.3408
    6SAPS   H3Y  752   3.678   7.089   6.717 -0.6178 -0.4182  0.3332
    6SAPS   C34  753   3.512   7.173   6.607  0.0310  0.0717  0.2103
    6SAPS   H4X  754   3.565   7.269   6.589  0.8150  0.0894  2.3315
    6SAPS   H4Y  755   3.406   7.202   6.619 -0.3622 -0.5928 -1.3542
    6SAPS   C35  756   3.529   7.092   6.479 -0.8776  0.0045  0.3461
    6SAPS   H5X  757   3.479   6.992   6.482 -0.5539 -0.1920 -0.5508
    6SAPS   H5Y  758   3.638   7.069   6.469 -0.6198  1.9185 -1.9595
    6SAPS   C36  759   3.487   7.170   6.352 -0.1135  0.4186  0.1235
    6SAPS   H6X  760   3.395   7.232   6.367 -1.2836 -1.2140 -0.0362
    6SAPS   H6Y  761   3.467   7.092   6.275 -1.3559 -0.3574  1.1889
    6SAPS   C37  762   3.594   7.261   6.296  0.2438  0.7123  0.7688
    6SAPS   H7X  763   3.690   7.206   6.287  0.1468  0.7108 -0.3932
    6SAPS   H7Y  764   3.616   7.330   6.381 -1.3979  0.3799  1.5024
    6SAPS   C38  765   3.558   7.338   6.166 -0.3244 -0.0699  0.4812
    6SAPS   H8X  766   3.645   7.399   6.134  0.8287 -1.7640  0.2372
    6SAPS   H8Y  767   3.470   7.402   6.190  0.0241  0.1946  1.0698
    6SAPS   C39  768   3.505   7.251   6.043  0.0036 -0.4513 -0.0629
    6SAPS   H9X  769   3.470   7.321   5.965  1.2176  1.1872  0.7989
    6SAPS   H9Y  770   3.422   7.186   6.076  0.1727 -0.7545 -0.2233
    6SAPS  C310  771   3.618   7.179   5.973  0.5701 -0.1634 -0.4352
    6SAPS  H10X  772   3.695   7.149   6.047  0.7835  1.2832 -0.0430
    6SAPS  H10Y  773   3.681   7.258   5.926  3.7650 -2.6138 -0.5928
    6SAPS  C311  774   3.580   7.076   5.862  0.2029 -0.6386 -0.0270
    6SAPS  H11X  775   3.560   7.112   5.759 -1.8338 -2.5051 -0.3532
    6SAPS  H11Y  776   3.490   7.024   5.901  0.6657 -2.4314 -1.2705
    6SAPS  C312  777   3.686   6.960   5.844 -0.0178  0.1760 -0.3336
    6SAPS  H12X  778   3.638   6.879   5.785  2.7044 -1.0596 -0.9980
    6SAPS  H12Y  779   3.717   6.936   5.947  1.9440  1.1292 -0.6558
    6SAPS  C313  780   3.815   7.010   5.780  0.6859 -0.0431 -0.4827
    6SAPS  H13X  781   3.883   6.923   5.763  1.9283  0.7586  0.1947
    6SAPS  H13Y  782   3.861   7.080   5.852 -2.2499 -0.3276  1.8406
    6SAPS  C314  783   3.798   7.083   5.648  0.7774  0.2103 -0.4642
    6SAPS  H14X  784   3.897   7.130   5.632  0.5829  1.0819  0.6815
    6SAPS  H14Y  785   3.729   7.171   5.655  1.0753  0.3104  2.5663
    6SAPS  C315  786   3.767   6.987   5.536  0.1217  0.3035  0.1410
    6SAPS  H15X  787   3.662   6.957   5.560  1.5155 -3.1604  2.6897
    6SAPS  H15Y  788   3.817   6.888   5.545 -0.5141  0.1272  2.4876
    6SAPS  C316  789   3.785   7.042   5.394 -0.1380  0.4070  0.7534
    6SAPS  H16X  790   3.750   7.147   5.403  0.3838  0.6649 -0.1513
    6SAPS  H16Y  791   3.711   6.989   5.330  1.7573 -1.9382  0.3528
    6SAPS  C317  792   3.927   7.041   5.338  0.0253  0.1332  0.9789
    6SAPS  H17X  793   3.941   6.932   5.322  2.6788  0.8848 -3.3453
    6SAPS  H17Y  794   3.993   7.091   5.412  2.1433  1.5685 -1.7170
    6SAPS  C318  795   3.946   7.098   5.196  0.2092 -0.7119  0.2647
    6SAPS  H18X  796   4.052   7.085   5.165  0.3456 -2.4663  1.3346
    6SAPS  H18Y  797   3.916   7.205   5.197 -0.2554 -0.7320  3.7571
    6SAPS  H18Z  798   3.876   7.056   5.122  1.5919 -0.1978 -1.3925
    7SAPS     N  799   5.922   1.404   7.769  0.0826 -0.4764  0.0586
    7SAPS   HN1  800   5.989   1.459   7.711  0.9358  0.5905  1.9376
    7SAPS   HN2  801   5.975   1.323   7.807  2.4245  0.9066  0.0071
    7SAPS   HN3  802   5.842   1.366   7.715 -0.0728  0.7562 -0.6250
    7SAPS   C12  803   5.852   1.476   7.877 -0.7656  0.5030 -0.2052
    7SAPS  H12A  804   5.856   1.415   7.966  1.5661 -0.9809 -1.2392
    7SAPS   C13  805   5.916   1.600   7.921  0.5805 -0.4682 -0.2357
    7SAPS  O13A  806   6.037   1.627   7.897 -0.3422  0.1075 -0.4679
    7SAPS  O13B  807   5.856   1.673   8.007 -0.0514 -0.5973 -0.8246
    7SAPS   C11  808   5.701   1.503   7.839 -0.1920  0.2201  0.8052
    7SAPS  H11A  809   5.658   1.561   7.923 -1.3714 -0.2172  0.5278
    7SAPS  H11B  810   5.638   1.411   7.831  0.9687 -0.6066  0.9081
    7SAPS     P  811   5.552   1.629   7.653  0.3244  0.3507 -0.4189
    7SAPS   O13  812   5.453   1.516   7.662 -0.7834 -0.3100 -0.3072
    7SAPS   O14  813   5.513   1.751   7.722  0.0891 -0.3749  0.1079
    7SAPS   O12  814   5.688   1.576   7.713  0.3092  0.2317  0.2546
    7SAPS   O11  815   5.600   1.653   7.510  0.4282  0.1475  0.4497
    7SAPS    C1  816   5.652   1.547   7.429 -0.4167 -0.3891  0.2349
    7SAPS    HA  817   5.748   1.510   7.472  0.6591 -0.0665 -1.7716
    7SAPS    HB  818   5.578   1.465   7.421  0.7534 -1.4023 -0.6359
    7SAPS    C2  819   5.675   1.608   7.288  0.1426  0.2692 -0.0441
    7SAPS    HS  820   5.738   1.699   7.285  1.7882 -0.8031  0.1939
    7SAPS   O21  821   5.548   1.635   7.234 -0.6741  0.4907 -0.1814
    7SAPS   C21  822   5.487   1.750   7.239  0.6174 -0.7638  0.0078
    7SAPS   O22  823   5.515   1.846   7.312  0.3061  0.3462  0.8972
    7SAPS   C22  824   5.379   1.760   7.129  0.4335  0.2837 -1.0356
    7SAPS   H2R  825   5.396   1.674   7.060 -0.9025 -0.6521 -0.2604
    7SAPS   H2S  826   5.279   1.749   7.178  0.8813  1.6203  0.2621
    7SAPS    C3  827   5.742   1.504   7.191 -0.1224 -0.1097  0.3274
    7SAPS    HX  828   5.670   1.420   7.180 -0.9752  0.2246  2.7661
    7SAPS    HY  829   5.832   1.460   7.240  1.4066  2.3362 -0.0938
    7SAPS   O31  830   5.784   1.563   7.066 -0.1228  0.0984  0.2500
    7SAPS   C31  831   5.747   1.508   6.950 -0.5016  0.6602  0.3494
    7SAPS   O32  832   5.691   1.403   6.938  0.2615 -0.3674 -0.4628
    7SAPS   C32  833   5.793   1.606   6.840 -0.3433 -0.2047 -0.7737
    7SAPS   H2X  834   5.898   1.616   6.875 -0.1832 -2.5391 -0.4016
    7SAPS   H2Y  835   5.745   1.705   6.836  0.8285  0.4232  0.1221
    7SAPS   C23  836   5.372   1.903   7.062  0.0732  0.8306 -1.3014
    7SAPS   H3R  837   5.361   1.980   7.142 -0.0467 -0.1600 -0.3475
    7SAPS   H3S  838   5.276   1.907   7.006 -0.5292 -0.5591 -0.4271
    7SAPS   C24  839   5.504   1.928   6.973  0.0120 -0.4351  0.0700
    7SAPS   H4R  840   5.592   1.909   7.039  0.2306  0.7129  0.1227
    7SAPS   H4S  841   5.497   2.036   6.951  0.3555  0.2541  2.9042
    7SAPS   C25  842   5.497   1.833   6.862  0.5231  0.8275  0.2310
    7SAPS   H5R  843   5.506   1.725   6.881  0.4040  1.1696  2.4469
    7SAPS   C26  844   5.480   1.863   6.731 -0.6470 -0.4473 -0.8864
    7SAPS   H6R  845   5.512   1.792   6.653  2.5358 -1.4764  1.1441
    7SAPS   C27  846   5.443   1.999   6.677 -0.9742 -0.2208 -0.3087
    7SAPS   H7R  847   5.403   2.071   6.751 -0.8637 -0.3857 -0.0898
    7SAPS   H7S  848   5.365   1.983   6.599 -2.1874  0.1369  0.8062
    7SAPS   C28  849   5.564   2.066   6.612 -0.5170  0.2010 -0.5326
    7SAPS   H8R  850   5.639   2.099   6.685 -1.8427  1.4463  0.3169
    7SAPS   C29  851   5.578   2.106   6.484  0.3478  0.8188  0.1502
    7SAPS   H9R  852   5.679   2.133   6.448  0.9398 -1.5021 -0.1170
    7SAPS  C210  853   5.483   2.080   6.366  0.5865  0.3611 -0.3951
    7SAPS  H10R  854   5.454   2.172   6.311 -1.2447 -0.4821 -0.9191
    7SAPS  H10S  855   5.381   2.040   6.383  0.6713 -0.3651 -1.4849
    7SAPS  C211  856   5.534   1.965   6.280 -0.0646  0.4776  0.3350
    7SAPS  H11R  857   5.544   1.866   6.326  0.3591  0.3422 -0.0322
    7SAPS  C212  858   5.564   1.966   6.149 -0.5265 -0.2871 -0.8474
    7SAPS  H12R  859   5.597   1.872   6.102  0.3682 -1.8244  2.5353
    7SAPS  C213  860   5.542   2.084   6.056  0.6583 -0.0608 -0.1422
    7SAPS  H13R  861   5.632   2.142   6.026  1.1829 -0.3226  0.8715
    7SAPS  H13S  862   5.482   2.156   6.116  0.8061 -1.0688  1.2835
    7SAPS  C214  863   5.464   2.033   5.934 -0.0377  0.0542  0.3696
    7SAPS  H14R  864   5.378   1.974   5.965 -0.8433  0.1582 -1.5375
    7SAPS  C215  865   5.487   2.052   5.805 -0.5519 -0.9096 -0.0534
    7SAPS  H15R  866   5.424   1.997   5.735 -1.0433 -0.8925  0.3703
    7SAPS  C216  867   5.604   2.135   5.748 -0.4499 -0.5200  0.0339
    7SAPS  H16R  868   5.652   2.088   5.659  1.2032  0.8374  0.1526
    7SAPS  H16S  869   5.683   2.137   5.826 -1.6887 -2.0225  1.3696
    7SAPS  C217  870   5.545   2.279   5.714  0.5202  0.0901  0.4527
    7SAPS  H17R  871   5.620   2.355   5.686  0.5697 -0.1742 -0.1609
    7SAPS  H17S  872   5.481   2.299   5.803  1.1151 -1.5224  1.2980
    7SAPS  C218  873   5.447   2.286   5.597 -0.6220 -0.4281 -0.5707
    7SAPS  H18R  874   5.377   2.200   5.598 -0.4743 -0.5779 -1.6501
    7SAPS  H18S  875   5.508   2.271   5.505 -0.4814  0.7299 -0.6887
    7SAPS  C219  876   5.365   2.423   5.605  0.7157 -0.1881  0.2273
    7SAPS  H19R  877   5.438   2.507   5.613  0.6886  0.2342 -2.6324
    7SAPS  H19S  878   5.297   2.421   5.693  1.7915  2.0726  1.1903
    7SAPS  C220  879   5.275   2.433   5.482 -0.1247  0.0731  0.0587
    7SAPS  H20R  880   5.205   2.518   5.494 -0.3227  0.0819 -1.0434
    7SAPS  H20S  881   5.216   2.340   5.473 -0.2222  0.1570 -0.1708
    7SAPS  H20T  882   5.335   2.443   5.389  1.2662  1.1473  1.0238
    7SAPS   C33  883   5.796   1.531   6.710  0.1545  0.0569 -0.7031
    7SAPS   H3X  884   5.694   1.503   6.676 -0.3037 -0.6388  1.1447
    7SAPS   H3Y  885   5.843   1.432   6.722  0.2103 -0.2666 -3.0596
    7SAPS   C34  886   5.872   1.599   6.598  0.2393  0.1462  0.2770
    7SAPS   H4X  887   5.980   1.612   6.620  0.4596 -2.5930  1.1027
    7SAPS   H4Y  888   5.821   1.696   6.578 -0.9859 -0.1597  1.7481
    7SAPS   C35  889   5.860   1.525   6.462  0.5923 -0.3562 -0.4646
    7SAPS   H5X  890   5.751   1.516   6.445  0.5557  0.2057 -0.5537
    7SAPS   H5Y  891   5.900   1.422   6.470  0.4535 -0.4101 -0.4719
    7SAPS   C36  892   5.939   1.604   6.353  0.8891 -0.1904  0.1213
    7SAPS   H6X  893   6.049   1.590   6.359  0.8892 -0.1887  0.1204
    7SAPS   H6Y  894   5.919   1.711   6.373  0.0972 -0.2539 -0.2938
    7SAPS   C37  895   5.897   1.581   6.208  0.8533 -0.0226 -0.2447
    7SAPS   H7X  896   5.885   1.471   6.196 -1.7471  0.2128 -0.3810
    7SAPS   H7Y  897   5.963   1.613   6.124  1.5780 -0.0222  0.3156
    7SAPS   C38  898   5.767   1.652   6.172  0.2875 -0.0502 -0.1390
    7SAPS   H8X  899   5.776   1.762   6.181 -0.3773  0.0654 -0.7513
    7SAPS   H8Y  900   5.695   1.616   6.249  1.3271 -0.8042  0.5031
    7SAPS   C39  901   5.713   1.626   6.027 -0.0978 -0.3757 -0.0233
    7SAPS   H9X  902   5.604   1.649   6.025 -0.0244  0.4265  2.2697
    7SAPS   H9Y  903   5.717   1.518   6.003 -0.6853 -0.7384  1.4076
    7SAPS  C310  904   5.789   1.714   5.927  1.2021  0.1362  0.0895
    7SAPS  H10X  905   5.892   1.681   5.899  1.5781  1.2179  0.1286
    7SAPS  H10Y  906   5.780   1.818   5.966 -0.7831  0.0454 -0.0575
    7SAPS  C311  907   5.716   1.726   5.788  0.1794  0.0792  0.4595
    7SAPS  H11X  908   5.629   1.795   5.791 -3.3012 -3.9654  0.7901
    7SAPS  H11Y  909   5.673   1.631   5.750 -1.3082  1.8372 -2.6637
    7SAPS  C312  910   5.807   1.786   5.685 -0.1573 -0.2200  0.1664
    7SAPS  H12X  911   5.915   1.763   5.695 -0.2239 -0.0726  1.3330
    7SAPS  H12Y  912   5.809   1.894   5.712  2.3750 -0.9008  3.2763
    7SAPS  C313  913   5.758   1.766   5.539  0.8853  0.0345 -0.8449
    7SAPS  H13X  914   5.762   1.858   5.477 -1.5039 -0.1469 -1.3835
    7SAPS  H13Y  915   5.649   1.743   5.536  1.0888 -1.6528  1.8900
    7SAPS  C314  916   5.826   1.657   5.464  0.1855  0.4754 -0.4220
    7SAPS  H14X  917   5.820   1.560   5.518  1.3308 -0.2152 -1.4749
    7SAPS  H14Y  918   5.933   1.681   5.451 -0.0479  1.4120 -0.7111
    7SAPS  C315  919   5.775   1.627   5.319 -0.2245 -0.7451  0.3248
    7SAPS  H15X  920   5.861   1.575   5.272 -0.9162 -0.2121 -1.5856
    7SAPS  H15Y  921   5.766   1.730   5.279  0.6484 -1.2160 -1.1550
    7SAPS  C316  922   5.648   1.554   5.297 -0.4889  0.4375  0.5628
    7SAPS  H16X  923   5.618   1.584   5.194  2.7197 -1.8591 -1.2189
    7SAPS  H16Y  924   5.574   1.605   5.362  0.5288 -1.2319  3.1876
    7SAPS  C317  925   5.662   1.408   5.314  0.2176 -0.5867 -0.3453
    7SAPS  H17X  926   5.693   1.394   5.420 -0.4828 -1.0114 -0.1930
    7SAPS  H17Y  927   5.744   1.374   5.247  1.3977 -1.1508  1.3377
    7SAPS  C318  928   5.528   1.350   5.279  0.3758 -0.3067 -0.8454
    7SAPS  H18X  929   5.450   1.426   5.300  2.9220  1.9615  0.9528
    7SAPS  H18Y  930   5.505   1.259   5.339  1.3687  0.8566  1.3994
    7SAPS  H18Z  931   5.519   1.325   5.171 -2.1164 -0.2699 -0.7054
    8SAPS     N  932   5.504   0.351   7.403  0.0626 -0.0164 -0.2233
    8SAPS   HN1  933   5.506   0.247   7.405 -0.9559 -0.0467 -0.2749
    8SAPS   HN2  934   5.434   0.387   7.336 -1.0405 -2.7342 -0.6723
    8SAPS   HN3  935   5.600   0.365   7.365  0.3756 -3.0790 -0.8348
    8SAPS   C12  936   5.489   0.404   7.536 -0.3400  0.4846 -0.7770
    8SAPS  H12A  937   5.393   0.367   7.569  0.4353 -2.7775 -1.8012
    8SAPS   C13  938   5.587   0.338   7.643 -0.7164 -0.0173  0.1595
    8SAPS  O13A  939   5.683   0.273   7.601 -0.8370  0.7473 -0.0067
    8SAPS  O13B  940   5.567   0.354   7.765  0.9835  0.0937  0.5355
    8SAPS   C11  941   5.499   0.566   7.550  0.2965  0.6163 -0.2530
    8SAPS  H11A  942   5.498   0.590   7.658 -0.2685 -0.5009  0.0073
    8SAPS  H11B  943   5.412   0.611   7.496 -0.4331  1.0882  1.2769
    8SAPS     P  944   5.660   0.770   7.493  0.5142  0.0208  0.5824
    8SAPS   O13  945   5.660   0.812   7.634 -0.7228 -0.6507 -0.1261
    8SAPS   O14  946   5.783   0.787   7.417 -0.0951 -0.0012 -0.2164
    8SAPS   O12  947   5.615   0.616   7.485 -0.3661 -0.3158  0.7262
    8SAPS   O11  948   5.538   0.840   7.422 -0.1393 -0.5066 -0.4529
    8SAPS    C1  949   5.508   0.807   7.279 -1.2561 -0.4744  0.7961
    8SAPS    HA  950   5.561   0.714   7.249 -0.0800  0.0201  1.2425
    8SAPS    HB  951   5.400   0.789   7.263 -1.6815  2.5997 -0.5410
    8SAPS    C2  952   5.540   0.927   7.192  0.7643 -0.3484  0.1066
    8SAPS    HS  953   5.637   0.970   7.226  0.3676 -0.5134  1.5120
    8SAPS   O21  954   5.443   1.027   7.214 -0.3802 -0.0195 -0.5682
    8SAPS   C21  955   5.476   1.155   7.208 -0.2764  0.3928 -0.0590
    8SAPS   O22  956   5.590   1.198   7.238  0.3955 -0.1859  0.7539
    8SAPS   C22  957   5.359   1.241   7.160 -0.0938 -0.4169 -0.5466
    8SAPS   H2R  958   5.267   1.196   7.203  0.2229 -0.7336 -0.1954
    8SAPS   H2S  959   5.380   1.343   7.200 -3.6760 -1.1902  4.2761
    8SAPS    C3  960   5.550   0.893   7.041 -0.2133 -0.5265 -0.1145
    8SAPS    HX  961   5.450   0.856   7.010 -1.0936  1.3088  0.3603
    8SAPS    HY  962   5.602   0.796   7.029  1.6096  0.5054 -1.0514
    8SAPS   O31  963   5.603   0.990   6.946  0.2855 -0.2203 -0.0833
    8SAPS   C31  964   5.737   0.988   6.934  0.3707 -0.3168  0.2655
    8SAPS   O32  965   5.806   0.919   7.006 -0.4961  0.2414 -0.4951
    8SAPS   C32  966   5.788   1.085   6.829 -0.3574  0.6828 -0.6104
    8SAPS   H2X  967   5.899   1.079   6.820 -0.3445  0.0130 -0.1221
    8SAPS   H2Y  968   5.762   1.190   6.855  0.7877  0.8142  0.0802
    8SAPS   C23  969   5.347   1.223   7.008  0.6965 -0.5560  0.5516
    8SAPS   H3R  970   5.356   1.115   6.984  3.7128 -0.8274  2.3162
    8SAPS   H3S  971   5.422   1.275   6.945 -0.8820 -1.5135 -2.3037
    8SAPS   C24  972   5.211   1.283   6.956 -0.4630 -0.1124 -0.0528
    8SAPS   H4R  973   5.132   1.227   7.011  0.3579 -1.0572  0.1879
    8SAPS   H4S  974   5.194   1.245   6.853 -1.6675 -4.2829  1.5055
    8SAPS   C25  975   5.200   1.429   6.988  0.7392  0.0721 -0.1128
    8SAPS   H5R  976   5.158   1.460   7.085 -1.5850  0.9169 -1.3162
    8SAPS   C26  977   5.200   1.528   6.892 -0.0571 -0.6331  0.0139
    8SAPS   H6R  978   5.184   1.631   6.927 -1.9053 -0.9478  0.2138
    8SAPS   C27  979   5.224   1.514   6.745  0.7575 -0.5842 -0.4748
    8SAPS   H7R  980   5.183   1.603   6.693 -0.4784 -0.5976  0.4170
    8SAPS   H7S  981   5.159   1.430   6.712 -0.4877  0.2546 -0.1961
    8SAPS   C28  982   5.358   1.468   6.689  0.1690  0.6468 -1.2160
    8SAPS   H8R  983   5.436   1.449   6.764 -0.2055  0.3142 -0.9061
    8SAPS   C29  984   5.396   1.455   6.561 -0.0364  0.0986  0.2603
    8SAPS   H9R  985   5.491   1.404   6.540 -0.7598 -1.0117 -0.4033
    8SAPS  C210  986   5.314   1.485   6.436  0.1874  0.1502  0.0825
    8SAPS  H10R  987   5.284   1.591   6.450  3.3824  1.1872 -0.1835
    8SAPS  H10S  988   5.214   1.436   6.427  0.9884 -1.2029 -2.5236
    8SAPS  C211  989   5.397   1.480   6.310  0.0235 -0.1900  0.2187
    8SAPS  H11R  990   5.487   1.417   6.311  1.5847  1.8292 -1.8894
    8SAPS  C212  991   5.364   1.549   6.203 -0.1080 -0.3976 -0.1865
    8SAPS  H12R  992   5.425   1.559   6.112 -1.3532  1.0637 -0.9203
    8SAPS  C213  993   5.244   1.646   6.186  0.6902  0.1240  0.3273
    8SAPS  H13R  994   5.289   1.747   6.172  1.2644 -0.0463  0.9146
    8SAPS  H13S  995   5.181   1.661   6.276  0.3635  2.2044 -0.1927
    8SAPS  C214  996   5.151   1.608   6.073 -0.2385  0.7184  0.3285
    8SAPS  H14R  997   5.055   1.563   6.103  0.4611 -0.9421  0.1413
    8SAPS  C215  998   5.172   1.608   5.943 -0.3879 -0.5876 -0.3095
    8SAPS  H15R  999   5.088   1.597   5.873 -1.1715 -0.2870  0.5734
    8SAPS  C216 1000   5.291   1.673   5.876 -0.1557 -0.9752 -0.8089
    8SAPS  H16R 1001   5.377   1.607   5.897  0.6718  0.8808  2.4707
    8SAPS  H16S 1002   5.335   1.764   5.924  0.3910 -1.9511  0.5969
    8SAPS  C217 1003   5.261   1.688   5.725  0.1490 -0.4596  0.4545
    8SAPS  H17R 1004   5.190   1.772   5.710  0.2356 -0.5846 -0.7141
    8SAPS  H17S 1005   5.216   1.599   5.677 -1.7474 -0.1846  1.6086
    8SAPS  C218 1006   5.379   1.721   5.629 -0.0568  0.7658 -0.0547
    8SAPS  H18R 1007   5.441   1.629   5.616  0.4420  0.9174  1.0831
    8SAPS  H18S 1008   5.441   1.804   5.669 -2.2163  3.5439 -2.1412
    8SAPS  C219 1009   5.339   1.792   5.500 -0.6354 -0.6559 -0.2260
    8SAPS  H19R 1010   5.438   1.816   5.455 -0.4664 -0.3486  0.3004
    8SAPS  H19S 1011   5.304   1.894   5.530  1.3208 -0.4857  1.6703
    8SAPS  C220 1012   5.241   1.728   5.399 -0.7229  0.2878  0.0658
    8SAPS  H20R 1013   5.260   1.619   5.391 -0.2959  0.3493  0.2034
    8SAPS  H20S 1014   5.260   1.766   5.296  0.0815 -0.1706  0.0371
    8SAPS  H20T 1015   5.137   1.738   5.436 -1.2651 -0.8287 -1.0712
    8SAPS   C33 1016   5.735   1.051   6.688  0.1348  0.0857 -0.2773
    8SAPS   H3X 1017   5.624   1.045   6.697  0.2407 -0.9469  0.5277
    8SAPS   H3Y 1018   5.768   0.948   6.662 -0.8282 -0.1652 -0.5510
    8SAPS   C34 1019   5.765   1.158   6.578  0.6090  0.5761 -0.2495
    8SAPS   H4X 1020   5.859   1.212   6.603  0.7881 -0.9929  3.0641
    8SAPS   H4Y 1021   5.679   1.227   6.593  1.7882  1.7255  1.7035
    8SAPS   C35 1022   5.766   1.095   6.437 -0.0301 -0.3430  0.2248
    8SAPS   H5X 1023   5.676   1.036   6.410 -0.5003 -0.1615  1.3359
    8SAPS   H5Y 1024   5.848   1.021   6.436  0.3608  0.0728 -1.2596
    8SAPS   C36 1025   5.788   1.191   6.322  0.0429 -0.2528 -0.6684
    8SAPS   H6X 1026   5.876   1.257   6.336 -0.2271  0.1761 -0.9663
    8SAPS   H6Y 1027   5.706   1.266   6.323  1.3340  1.2598  1.3048
    8SAPS   C37 1028   5.785   1.115   6.191  0.2526  0.3724 -0.4156
    8SAPS   H7X 1029   5.694   1.055   6.170 -0.1856  1.4565 -1.7454
    8SAPS   H7Y 1030   5.875   1.050   6.194 -0.5374 -0.8054 -1.5477
    8SAPS   C38 1031   5.796   1.201   6.063 -0.5780  0.0599 -0.0573
    8SAPS   H8X 1032   5.870   1.284   6.069  0.3270 -0.7796  0.9632
    8SAPS   H8Y 1033   5.694   1.245   6.055 -0.0984  0.9755 -1.7217
    8SAPS   C39 1034   5.818   1.115   5.938 -0.5445  0.3773  0.6566
    8SAPS   H9X 1035   5.733   1.045   5.922 -1.7631  1.7876  0.8174
    8SAPS   H9Y 1036   5.909   1.054   5.960  0.3704  1.7792  0.8934
    8SAPS  C310 1037   5.848   1.197   5.810 -0.4300 -0.6918  0.2691
    8SAPS  H10X 1038   5.926   1.273   5.830 -0.0718 -0.8891 -0.3226
    8SAPS  H10Y 1039   5.763   1.263   5.785  0.1963  0.9461  2.2632
    8SAPS  C311 1040   5.905   1.131   5.677  0.0377  0.4673 -0.1330
    8SAPS  H11X 1041   5.843   1.040   5.662  0.8461 -0.0936 -0.1176
    8SAPS  H11Y 1042   6.011   1.099   5.687 -0.4535 -1.3631 -0.2607
    8SAPS  C312 1043   5.887   1.213   5.551  0.6099 -0.1622  0.0780
    8SAPS  H12X 1044   5.864   1.316   5.587  0.3300 -0.0022 -0.5561
    8SAPS  H12Y 1045   5.791   1.176   5.510  0.9647 -1.4970  0.4012
    8SAPS  C313 1046   6.015   1.221   5.464 -0.5088  0.9449 -0.3613
    8SAPS  H13X 1047   6.009   1.120   5.417  2.2144  0.0545  0.9989
    8SAPS  H13Y 1048   6.108   1.234   5.523  0.0566 -1.3218 -0.6288
    8SAPS  C314 1049   6.031   1.331   5.359 -0.4227  0.6779 -0.4689
    8SAPS  H14X 1050   5.974   1.417   5.400 -1.0061  0.6897 -1.2759
    8SAPS  H14Y 1051   5.979   1.308   5.264  1.0298 -1.2044 -0.8626
    8SAPS  C315 1052   6.174   1.370   5.331 -0.5317 -1.6323  0.2327
    8SAPS  H15X 1053   6.231   1.288   5.281  1.3159 -0.0237 -0.4196
    8SAPS  H15Y 1054   6.222   1.398   5.427 -1.2665 -0.9087  0.3965
    8SAPS  C316 1055   6.178   1.488   5.226  0.1787 -0.8994  0.7128
    8SAPS  H16X 1056   6.125   1.578   5.266  1.9575  1.1229 -1.2174
    8SAPS  H16Y 1057   6.130   1.454   5.132 -0.2264  0.7343  0.2830
    8SAPS  C317 1058   6.327   1.527   5.185  0.0955 -0.1130 -0.4750
    8SAPS  H17X 1059   6.368   1.424   5.182 -1.2175 -0.6835  0.1310
    8SAPS  H17Y 1060   6.381   1.572   5.271 -0.7432 -3.4637  2.0163
    8SAPS  C318 1061   6.332   1.599   5.048  0.3676  0.2701 -0.6094
    8SAPS  H18X 1062   6.280   1.694   5.070 -0.6879 -1.0747  3.9967
    8SAPS  H18Y 1063   6.291   1.543   4.962  0.6445  0.9016 -1.1605
    8SAPS  H18Z 1064   6.439   1.626   5.032  0.2390  0.9651 -0.3070
    9SAPS     N 1065   1.894   2.021   7.717 -0.0386  0.6143 -0.4078
    9SAPS   HN1 1066   1.944   1.985   7.634  0.0687 -0.4023  0.0876
    9SAPS   HN2 1067   1.792   2.045   7.715 -0.1109  0.3367  0.0077
    9SAPS   HN3 1068   1.950   2.108   7.729 -0.8821  0.9296  1.6655
    9SAPS   C12 1069   1.905   1.909   7.820  0.1380  0.6034 -0.6752
    9SAPS  H12A 1070   1.998   1.856   7.813 -0.4767 -1.1977  2.7372
    9SAPS   C13 1071   1.872   1.938   7.969  0.2333  0.1223 -0.0631
    9SAPS  O13A 1072   1.881   2.060   8.007  0.2018  0.3543 -0.0972
    9SAPS  O13B 1073   1.899   1.848   8.055 -0.0047  0.0663 -0.5495
    9SAPS   C11 1074   1.807   1.797   7.780  1.0869  0.0770  0.7968
    9SAPS  H11A 1075   1.706   1.842   7.766  0.4656 -0.9752  1.7470
    9SAPS  H11B 1076   1.789   1.723   7.860 -0.4696 -0.9562 -0.4405
    9SAPS     P 1077   1.883   1.582   7.663 -0.3522  0.1256  0.3104
    9SAPS   O13 1078   1.981   1.575   7.775 -0.2463 -0.1215  0.1306
    9SAPS   O14 1079   1.756   1.501   7.663 -0.3833  0.0733 -0.5626
    9SAPS   O12 1080   1.844   1.735   7.659  0.2518  0.1708 -0.0148
    9SAPS   O11 1081   1.956   1.550   7.529  0.1964 -0.0646 -0.2483
    9SAPS    C1 1082   2.097   1.576   7.533 -0.0408  0.2900  0.2469
    9SAPS    HA 1083   2.131   1.673   7.575  2.2769  0.6645 -2.2458
    9SAPS    HB 1084   2.153   1.497   7.588 -0.7872 -0.0746  0.4894
    9SAPS    C2 1085   2.163   1.574   7.395 -0.7487  0.6262 -0.0661
    9SAPS    HS 1086   2.116   1.658   7.340 -1.5107  1.6482  2.0303
    9SAPS   O21 1087   2.139   1.444   7.337 -0.2295 -0.8128  0.4068
    9SAPS   C21 1088   2.125   1.440   7.207 -0.4492 -1.4669  0.1209
    9SAPS   O22 1089   2.115   1.540   7.139  0.3688 -0.3275 -0.1796
    9SAPS   C22 1090   2.121   1.296   7.155  0.1638 -0.2708  0.2012
    9SAPS   H2R 1091   2.171   1.223   7.222  0.8551  0.0824  0.0744
    9SAPS   H2S 1092   2.015   1.261   7.159  0.9605 -2.7507  1.5611
    9SAPS    C3 1093   2.317   1.588   7.416 -0.2932  0.4154 -0.0250
    9SAPS    HX 1094   2.363   1.490   7.443  0.8043  1.2401  1.2102
    9SAPS    HY 1095   2.330   1.663   7.496  0.5639  2.8684 -2.3082
    9SAPS   O31 1096   2.367   1.644   7.290 -0.5657  0.0572  0.1653
    9SAPS   C31 1097   2.497   1.646   7.262  0.8575 -0.2825  0.3411
    9SAPS   O32 1098   2.585   1.614   7.345 -0.4106  0.1547  0.2809
    9SAPS   C32 1099   2.522   1.720   7.132  0.4997 -0.0587  0.2542
    9SAPS   H2X 1100   2.593   1.801   7.159 -1.0090  2.1738 -2.0457
    9SAPS   H2Y 1101   2.427   1.757   7.090 -0.4602  2.7980  4.3677
    9SAPS   C23 1102   2.167   1.281   7.009  0.1698 -0.7320  0.8827
    9SAPS   H3R 1103   2.278   1.270   7.008  0.2018 -0.4329  1.1173
    9SAPS   H3S 1104   2.158   1.376   6.953  1.8362  0.4396  2.4750
    9SAPS   C24 1105   2.083   1.170   6.939 -0.4822 -0.6340 -0.0487
    9SAPS   H4R 1106   2.089   1.174   6.829 -0.0512  0.5417 -0.0010
    9SAPS   H4S 1107   1.977   1.195   6.960  0.2792  2.1200  1.0361
    9SAPS   C25 1108   2.121   1.034   6.995 -0.0361 -0.2345  0.6343
    9SAPS   H5R 1109   2.109   1.028   7.105 -0.1054  2.2346  0.8301
    9SAPS   C26 1110   2.163   0.924   6.929 -0.0969  0.3263 -0.1381
    9SAPS   H6R 1111   2.185   0.836   6.992 -0.1249  0.4330  0.0232
    9SAPS   C27 1112   2.205   0.911   6.785  0.1364 -0.0635  0.6754
    9SAPS   H7R 1113   2.228   1.007   6.735  2.0505 -0.4970  0.6491
    9SAPS   H7S 1114   2.113   0.871   6.736  1.6544 -0.9789 -1.5987
    9SAPS   C28 1115   2.316   0.822   6.737 -0.4758  0.1786 -0.1637
    9SAPS   H8R 1116   2.414   0.840   6.785 -0.2412 -1.1713 -0.1206
    9SAPS   C29 1117   2.313   0.721   6.649  0.6140 -0.6074  0.4487
    9SAPS   H9R 1118   2.395   0.650   6.664 -0.5488 -1.5387  3.0015
    9SAPS  C210 1119   2.191   0.690   6.567  0.0902  1.1244  0.0121
    9SAPS  H10R 1120   2.194   0.730   6.464 -3.0066 -1.6224 -1.3274
    9SAPS  H10S 1121   2.100   0.727   6.618  0.2693  0.2674  1.0060
    9SAPS  C211 1122   2.189   0.540   6.551 -0.3839 -0.4184 -0.4039
    9SAPS  H11R 1123   2.151   0.492   6.643 -1.4364  1.4935  0.2309
    9SAPS  C212 1124   2.213   0.470   6.439  0.1450  0.6762 -0.7365
    9SAPS  H12R 1125   2.194   0.362   6.443 -0.8618  0.8700  0.4074
    9SAPS  C213 1126   2.262   0.519   6.304  0.7985  0.5298 -1.1817
    9SAPS  H13R 1127   2.323   0.441   6.253 -0.5981 -1.7647  0.4450
    9SAPS  H13S 1128   2.332   0.604   6.315 -0.5469  1.3010  2.7062
    9SAPS  C214 1129   2.139   0.572   6.230  0.3787 -0.5511 -0.0710
    9SAPS  H14R 1130   2.052   0.605   6.289  0.3597  0.7459 -0.7748
    9SAPS  C215 1131   2.137   0.580   6.095  0.1344 -0.3833  0.0027
    9SAPS  H15R 1132   2.056   0.644   6.056 -0.5253  0.1029  2.0433
    9SAPS  C216 1133   2.242   0.541   5.993  0.5562 -0.6018 -0.6356
    9SAPS  H16R 1134   2.212   0.461   5.923  0.1373 -0.8605 -0.1644
    9SAPS  H16S 1135   2.336   0.510   6.044  1.0709 -0.3299 -1.4062
    9SAPS  C217 1136   2.266   0.660   5.902 -0.3749  0.0601 -0.3010
    9SAPS  H17R 1137   2.302   0.746   5.962 -0.7630 -0.6217  0.9363
    9SAPS  H17S 1138   2.170   0.675   5.848 -1.5763 -0.8007  1.4920
    9SAPS  C218 1139   2.379   0.632   5.792 -0.6437  0.1246 -0.2610
    9SAPS  H18R 1140   2.341   0.543   5.736 -0.9542  0.9987 -1.4753
    9SAPS  H18S 1141   2.472   0.605   5.845 -0.2969  0.3288 -0.7569
    9SAPS  C219 1142   2.387   0.755   5.710 -0.3236  0.1547  0.4188
    9SAPS  H19R 1143   2.393   0.848   5.770 -0.4426 -0.5522  1.5542
    9SAPS  H19S 1144   2.292   0.757   5.653  1.0135 -0.6777 -1.9925
    9SAPS  C220 1145   2.491   0.762   5.601 -0.3369 -0.3934  0.3345
    9SAPS  H20R 1146   2.485   0.865   5.559  2.5771 -0.8128 -1.3680
    9SAPS  H20S 1147   2.496   0.677   5.530  1.3650 -0.6090  0.6540
    9SAPS  H20T 1148   2.592   0.760   5.647  0.1708  0.6148 -0.7030
    9SAPS   C33 1149   2.592   1.623   7.024 -0.5922 -0.8373 -0.1752
    9SAPS   H3X 1150   2.678   1.580   7.079  2.2144  4.1587 -0.0399
    9SAPS   H3Y 1151   2.625   1.679   6.934  0.4293 -1.6442 -0.3140
    9SAPS   C34 1152   2.513   1.510   6.964 -0.3914 -0.0556  0.9891
    9SAPS   H4X 1153   2.450   1.450   7.033 -2.1526  0.8429  0.2286
    9SAPS   H4Y 1154   2.586   1.440   6.916  0.4501  0.8446  0.9303
    9SAPS   C35 1155   2.429   1.557   6.848  0.2364 -0.6882  0.8141
    9SAPS   H5X 1156   2.483   1.637   6.793 -1.3199  0.0815  0.3383
    9SAPS   H5Y 1157   2.341   1.615   6.886  0.4283  1.3280 -1.5178
    9SAPS   C36 1158   2.378   1.449   6.746 -0.1662 -0.4425  0.1703
    9SAPS   H6X 1159   2.296   1.492   6.685  2.0005 -0.3916 -2.9004
    9SAPS   H6Y 1160   2.323   1.378   6.812 -0.5636  1.4384  1.9689
    9SAPS   C37 1161   2.484   1.390   6.651  0.1594 -0.3869 -0.1255
    9SAPS   H7X 1162   2.571   1.368   6.717 -0.0541 -0.8437  0.0106
    9SAPS   H7Y 1163   2.516   1.469   6.580 -2.8974 -0.0353 -1.2615
    9SAPS   C38 1164   2.441   1.266   6.564 -0.0525  0.2522 -0.4320
    9SAPS   H8X 1165   2.344   1.293   6.516  0.0696  0.3991 -0.5943
    9SAPS   H8Y 1166   2.427   1.177   6.629 -3.2924 -0.0175 -1.2868
    9SAPS   C39 1167   2.552   1.222   6.471 -0.4211  0.4459  0.9247
    9SAPS   H9X 1168   2.538   1.115   6.443  0.2546  0.3480  0.9526
    9SAPS   H9Y 1169   2.653   1.224   6.517 -0.1715 -1.6882  0.5752
    9SAPS  C310 1170   2.564   1.310   6.347  0.4011  0.3166  0.0053
    9SAPS  H10X 1171   2.626   1.398   6.376 -1.2553  1.8477 -0.8970
    9SAPS  H10Y 1172   2.478   1.357   6.295  1.7158  0.9004 -1.7609
    9SAPS  C311 1173   2.648   1.243   6.234  0.1150  0.5998  0.2295
    9SAPS  H11X 1174   2.592   1.164   6.179  0.2213  0.3920  0.4191
    9SAPS  H11Y 1175   2.742   1.218   6.287 -0.0751  1.8062  1.2052
    9SAPS  C312 1176   2.683   1.355   6.139 -0.4359  1.5381 -0.0702
    9SAPS  H12X 1177   2.687   1.451   6.194  1.4453  2.5726 -1.8592
    9SAPS  H12Y 1178   2.602   1.378   6.067 -0.6456  1.0560  0.0109
    9SAPS  C313 1179   2.804   1.311   6.056  0.3209 -0.0759  0.3242
    9SAPS  H13X 1180   2.788   1.204   6.031 -0.7697 -0.9439  4.0144
    9SAPS  H13Y 1181   2.894   1.314   6.121  0.4799 -0.0708  0.1021
    9SAPS  C314 1182   2.819   1.396   5.932 -0.5832 -0.6632  0.6594
    9SAPS  H14X 1183   2.785   1.498   5.958  0.8983  0.1522 -0.4408
    9SAPS  H14Y 1184   2.745   1.369   5.854  0.2224  0.4594 -0.5200
    9SAPS  C315 1185   2.962   1.399   5.869 -0.0446 -0.2246  0.7674
    9SAPS  H15X 1186   2.957   1.475   5.787 -1.3520  1.3988  2.2858
    9SAPS  H15Y 1187   2.993   1.296   5.840 -0.7590 -0.3587  0.4567
    9SAPS  C316 1188   3.081   1.443   5.969  0.4292  1.1259  0.2476
    9SAPS  H16X 1189   3.097   1.357   6.038 -1.1381 -0.3277 -1.1038
    9SAPS  H16Y 1190   3.055   1.530   6.032  0.6606  2.0396 -0.8804
    9SAPS  C317 1191   3.200   1.481   5.877  0.3152 -0.4153  0.2070
    9SAPS  H17X 1192   3.202   1.409   5.793 -1.7879  1.0121 -1.1650
    9SAPS  H17Y 1193   3.292   1.484   5.939  0.8661  0.1556 -0.6162
    9SAPS  C318 1194   3.195   1.617   5.810 -0.2575  0.1806  0.5139
    9SAPS  H18X 1195   3.292   1.623   5.755 -0.9591  0.6117 -0.7141
    9SAPS  H18Y 1196   3.186   1.696   5.886 -0.1775 -1.8437  2.7481
    9SAPS  H18Z 1197   3.116   1.637   5.735 -0.2046  0.4894  0.5417
   10SAPS     N 1198   2.281   2.505   7.613  1.0244  0.0429 -0.1297
   10SAPS   HN1 1199   2.219   2.589   7.612  0.2444 -0.5100 -1.7633
   10SAPS   HN2 1200   2.378   2.535   7.636  1.1482  0.6339 -1.3364
   10SAPS   HN3 1201   2.283   2.462   7.518  0.1802 -1.5277  0.5330
   10SAPS   C12 1202   2.234   2.401   7.709 -0.3417 -0.5914  0.4607
   10SAPS  H12A 1203   2.249   2.446   7.806  0.0351  0.6260 -0.1401
   10SAPS   C13 1204   2.089   2.355   7.682 -0.1865 -0.9892 -0.4895
   10SAPS  O13A 1205   2.022   2.415   7.602  0.5777  0.2922  0.1136
   10SAPS  O13B 1206   2.038   2.257   7.747  0.4643 -0.9509 -0.2427
   10SAPS   C11 1207   2.333   2.280   7.695 -0.1585 -0.3748 -0.9277
   10SAPS  H11A 1208   2.336   2.244   7.590 -1.4678 -0.5253 -0.9220
   10SAPS  H11B 1209   2.298   2.204   7.768  1.3848  0.2787  0.5755
   10SAPS     P 1210   2.580   2.228   7.774 -0.0034 -0.0929  0.0008
   10SAPS   O13 1211   2.703   2.313   7.774  0.5571  0.2313 -0.3276
   10SAPS   O14 1212   2.547   2.145   7.888 -0.3023  0.2070 -0.2640
   10SAPS   O12 1213   2.461   2.322   7.737  0.0110 -0.6649  0.7610
   10SAPS   O11 1214   2.591   2.123   7.656 -0.4066  0.1811  0.4629
   10SAPS    C1 1215   2.605   2.172   7.520  0.1601 -0.6006 -0.0059
   10SAPS    HA 1216   2.517   2.156   7.455 -1.5855  2.4585  1.3494
   10SAPS    HB 1217   2.636   2.279   7.514  0.3374 -0.6066  0.7288
   10SAPS    C2 1218   2.719   2.103   7.431 -0.2830  0.8616  1.1783
   10SAPS    HS 1219   2.806   2.127   7.496  0.0462  1.8054  0.4104
   10SAPS   O21 1220   2.728   2.171   7.304 -0.4424  0.3631  0.4361
   10SAPS   C21 1221   2.850   2.173   7.250 -0.3686  0.0907  0.2847
   10SAPS   O22 1222   2.952   2.159   7.315  0.3050 -0.5997 -0.0748
   10SAPS   C22 1223   2.845   2.192   7.102 -0.7682 -0.5405  0.4481
   10SAPS   H2R 1224   2.742   2.185   7.061 -0.8053 -1.9828  0.7192
   10SAPS   H2S 1225   2.884   2.294   7.082 -0.5325 -0.5272  0.9477
   10SAPS    C3 1226   2.702   1.947   7.426 -0.1304  0.4424  0.9210
   10SAPS    HX 1227   2.615   1.934   7.359  1.1059  1.7108 -1.0186
   10SAPS    HY 1228   2.670   1.902   7.523 -3.0555 -2.1132 -1.0175
   10SAPS   O31 1229   2.806   1.884   7.348  0.3296  0.4478  0.1810
   10SAPS   C31 1230   2.857   1.771   7.406 -0.0403 -0.7105  0.4716
   10SAPS   O32 1231   2.845   1.729   7.513  0.0448 -0.0786 -0.5884
   10SAPS   C32 1232   2.927   1.689   7.289 -0.4062 -0.8029 -0.2596
   10SAPS   H2X 1233   3.020   1.737   7.251  0.8057 -2.5884  0.3121
   10SAPS   H2Y 1234   2.856   1.700   7.204 -0.5669 -2.4218 -0.3645
   10SAPS   C23 1235   2.927   2.087   7.029 -0.1446 -0.5753 -0.2239
   10SAPS   H3R 1236   3.022   2.071   7.083 -0.7649  1.8902  1.7993
   10SAPS   H3S 1237   2.952   2.120   6.926 -0.8659  0.4449 -0.0893
   10SAPS   C24 1238   2.855   1.950   7.020 -0.3730 -0.4737 -0.1622
   10SAPS   H4R 1239   2.820   1.939   7.125  2.5602  2.1535  1.2501
   10SAPS   H4S 1240   2.940   1.880   7.003  0.4592  0.0990  1.4173
   10SAPS   C25 1241   2.750   1.924   6.920 -0.0542 -0.1392 -0.7476
   10SAPS   H5R 1242   2.652   1.952   6.962  1.6346  0.9810  2.8404
   10SAPS   C26 1243   2.764   1.894   6.790 -0.0171 -0.8995 -0.7810
   10SAPS   H6R 1244   2.676   1.879   6.726 -1.6946 -0.5756  1.3380
   10SAPS   C27 1245   2.891   1.852   6.724 -0.3885 -0.8972  0.0218
   10SAPS   H7R 1246   2.903   1.743   6.743 -0.1517 -0.5813  1.9887
   10SAPS   H7S 1247   2.974   1.893   6.786 -1.3379  2.9718 -1.0431
   10SAPS   C28 1248   2.903   1.884   6.572  0.5475  0.0586  0.1026
   10SAPS   H8R 1249   2.817   1.858   6.508  0.1238 -0.3490  0.8340
   10SAPS   C29 1250   2.998   1.930   6.504  0.3095  0.3993 -0.6293
   10SAPS   H9R 1251   2.978   1.962   6.400  0.3725  0.7606 -0.5306
   10SAPS  C210 1252   3.135   1.971   6.556  0.1303 -0.4318  0.6731
   10SAPS  H10R 1253   3.128   1.974   6.666  0.0239 -0.8677  0.6801
   10SAPS  H10S 1254   3.162   2.072   6.518 -2.0839 -0.3105 -0.7745
   10SAPS  C211 1255   3.239   1.867   6.517  0.2528  0.3521  0.3248
   10SAPS  H11R 1256   3.220   1.773   6.571 -0.6475  1.3631  1.8565
   10SAPS  C212 1257   3.345   1.872   6.432  0.6225  0.0638 -0.3517
   10SAPS  H12R 1258   3.409   1.783   6.440 -0.4354 -0.7732 -0.9749
   10SAPS  C213 1259   3.383   1.997   6.350  0.2656 -0.5049  0.3492
   10SAPS  H13R 1260   3.443   2.066   6.413  1.0305  0.6308 -1.5320
   10SAPS  H13S 1261   3.297   2.058   6.317  0.2412 -0.6219  0.1963
   10SAPS  C214 1262   3.475   1.943   6.238 -0.4165  0.4644  0.0911
   10SAPS  H14R 1263   3.571   1.898   6.269 -1.3578 -0.9481  1.0604
   10SAPS  C215 1264   3.437   1.947   6.114  0.1722 -0.2633 -0.6848
   10SAPS  H15R 1265   3.501   1.902   6.037 -0.3118 -0.7832 -0.7919
   10SAPS  C216 1266   3.312   1.996   6.043  0.4154  0.0301 -0.6429
   10SAPS  H16R 1267   3.231   2.035   6.108 -0.6228 -1.9157 -0.6993
   10SAPS  H16S 1268   3.271   1.906   5.992 -3.3870  0.9864  0.4105
   10SAPS  C217 1269   3.344   2.116   5.947 -0.2895  0.0540 -0.6361
   10SAPS  H17R 1270   3.374   2.207   6.005  1.7079 -0.4448 -0.8111
   10SAPS  H17S 1271   3.241   2.140   5.913 -1.1724 -0.5270  1.4356
   10SAPS  C218 1272   3.446   2.090   5.844  0.2937 -0.2020  0.1627
   10SAPS  H18R 1273   3.423   1.996   5.789 -1.3690  1.1862 -1.6677
   10SAPS  H18S 1274   3.550   2.084   5.882  0.8439 -1.4325 -1.3848
   10SAPS  C219 1275   3.451   2.190   5.735  0.0096 -1.0313 -0.2228
   10SAPS  H19R 1276   3.482   2.284   5.786  0.5623 -0.4552 -1.5957
   10SAPS  H19S 1277   3.352   2.197   5.685 -0.0599  0.1236  0.0405
   10SAPS  C220 1278   3.552   2.150   5.637  0.3608 -0.4610  0.0636
   10SAPS  H20R 1279   3.529   2.069   5.565 -0.7550 -0.2000  0.1044
   10SAPS  H20S 1280   3.631   2.098   5.696 -0.2658 -2.3853 -0.7370
   10SAPS  H20T 1281   3.581   2.249   5.596 -0.1829  0.0859  0.9573
   10SAPS   C33 1282   2.944   1.541   7.319  0.0587 -0.6834 -0.0951
   10SAPS   H3X 1283   2.842   1.498   7.324 -0.4965  0.6563  1.2632
   10SAPS   H3Y 1284   2.989   1.516   7.418 -1.1288 -0.7805  0.4460
   10SAPS   C34 1285   3.030   1.473   7.210  0.4793  0.1289  0.0385
   10SAPS   H4X 1286   3.043   1.365   7.234  1.2734 -0.1484 -1.5386
   10SAPS   H4Y 1287   3.130   1.522   7.206  0.2100  0.6361 -3.8539
   10SAPS   C35 1288   2.979   1.483   7.064  0.6168  0.1527  0.3353
   10SAPS   H5X 1289   2.945   1.588   7.049  0.0043  0.0598  0.9720
   10SAPS   H5Y 1290   2.898   1.407   7.065  1.5749 -0.8965  0.8479
   10SAPS   C36 1291   3.083   1.429   6.959  0.7365  0.1695  0.0317
   10SAPS   H6X 1292   3.095   1.320   6.973 -2.0983 -0.4357 -1.5757
   10SAPS   H6Y 1293   3.173   1.491   6.981 -0.4344  2.1031 -0.3884
   10SAPS   C37 1294   3.051   1.457   6.816  0.3604  0.0766  0.0403
   10SAPS   H7X 1295   3.016   1.562   6.813 -1.6963 -0.5271  0.7639
   10SAPS   H7Y 1296   2.970   1.383   6.795 -0.0117  0.5308 -0.1208
   10SAPS   C38 1297   3.161   1.405   6.728  0.2331  0.3149 -0.3253
   10SAPS   H8X 1298   3.186   1.297   6.734 -1.7111 -0.1111  1.5081
   10SAPS   H8Y 1299   3.249   1.461   6.765 -0.6176  1.3329  0.2366
   10SAPS   C39 1300   3.135   1.464   6.588 -0.1051 -0.2678 -0.5193
   10SAPS   H9X 1301   3.107   1.571   6.596 -1.3578 -0.6879  1.4349
   10SAPS   H9Y 1302   3.049   1.407   6.548  0.3133 -2.7124  1.7523
   10SAPS  C310 1303   3.261   1.438   6.500  0.6668 -0.2537 -0.3160
   10SAPS  H10X 1304   3.271   1.327   6.499  2.9342 -0.1776  2.5216
   10SAPS  H10Y 1305   3.342   1.488   6.556  0.5619 -0.5907  0.1374
   10SAPS  C311 1306   3.234   1.485   6.354  0.1754  0.3035 -0.0276
   10SAPS  H11X 1307   3.206   1.592   6.346  0.1786  0.5066  2.2017
   10SAPS  H11Y 1308   3.143   1.434   6.316  1.3644 -0.9968 -1.2673
   10SAPS  C312 1309   3.348   1.458   6.257 -0.6273  0.0913  0.0966
   10SAPS  H12X 1310   3.304   1.461   6.155 -1.5368  0.7043  0.4928
   10SAPS  H12Y 1311   3.398   1.360   6.271 -0.1973 -0.2665 -3.1979
   10SAPS  C313 1312   3.456   1.570   6.255 -0.0686  1.2104 -0.0877
   10SAPS  H13X 1313   3.487   1.594   6.359 -0.3597 -1.1819  0.6003
   10SAPS  H13Y 1314   3.417   1.659   6.200  0.1722 -0.5965 -3.4144
   10SAPS  C314 1315   3.586   1.532   6.181 -0.3139 -0.3705 -0.4395
   10SAPS  H14X 1316   3.644   1.444   6.215 -1.0707 -0.2185  1.3601
   10SAPS  H14Y 1317   3.658   1.616   6.194  1.4127 -1.5595 -1.8301
   10SAPS  C315 1318   3.556   1.521   6.031 -0.2998  0.0351 -0.0755
   10SAPS  H15X 1319   3.474   1.586   5.994 -1.5510 -0.0265  2.3724
   10SAPS  H15Y 1320   3.528   1.414   6.023  1.3616 -0.8462  3.4395
   10SAPS  C316 1321   3.682   1.543   5.954 -0.2700  0.7254 -0.2941
   10SAPS  H16X 1322   3.660   1.507   5.852 -1.3504 -0.6892  0.3964
   10SAPS  H16Y 1323   3.762   1.476   5.994 -1.4401  1.2907  3.3729
   10SAPS  C317 1324   3.728   1.691   5.946 -0.1440  0.1935  0.1996
   10SAPS  H17X 1325   3.832   1.690   5.907  0.3801 -1.2566  1.5234
   10SAPS  H17Y 1326   3.737   1.736   6.047  2.4305 -0.4579  0.3320
   10SAPS  C318 1327   3.645   1.770   5.848  0.3636  0.0380  0.0089
   10SAPS  H18X 1328   3.667   1.878   5.860  0.8192  0.0944 -1.2350
   10SAPS  H18Y 1329   3.537   1.744   5.855  0.0996  0.6217 -1.6052
   10SAPS  H18Z 1330   3.668   1.745   5.742 -0.6161  0.7437 -0.3845
   11SAPS     N 1331   3.657   0.302   2.834 -0.3017 -0.4905  0.2436
   11SAPS   HN1 1332   3.669   0.405   2.837 -0.8895 -0.4471  1.5153
   11SAPS   HN2 1333   3.595   0.280   2.753 -1.2705  2.6050  0.0063
   11SAPS   HN3 1334   3.597   0.276   2.915 -1.3598  1.1155  0.0175
   11SAPS   C12 1335   3.783   0.235   2.830 -0.3386  0.7722  0.0207
   11SAPS  H12A 1336   3.765   0.129   2.828 -0.4935  0.8061 -0.5181
   11SAPS   C13 1337   3.872   0.279   2.710  0.8961 -0.9525  0.3951
   11SAPS  O13A 1338   3.825   0.362   2.626 -0.2700 -0.3812  0.0282
   11SAPS  O13B 1339   3.985   0.235   2.691 -0.7027 -0.5381 -0.7699
   11SAPS   C11 1340   3.870   0.270   2.957  0.2400  0.3879  0.4188
   11SAPS  H11A 1341   3.870   0.381   2.966 -0.1037  0.6241 -1.8953
   11SAPS  H11B 1342   3.976   0.240   2.945 -0.3075 -0.8075 -2.3323
   11SAPS     P 1343   3.868   0.079   3.132 -0.0910 -0.0143 -0.4782
   11SAPS   O13 1344   3.895   0.003   3.013 -0.7126  0.1064 -0.3483
   11SAPS   O14 1345   3.974   0.109   3.233  0.0488 -0.7949  0.0218
   11SAPS   O12 1346   3.811   0.221   3.085 -0.6113 -0.0261  0.2127
   11SAPS   O11 1347   3.747   0.021   3.219 -0.4524 -0.0624  0.1488
   11SAPS    C1 1348   3.689   0.115   3.311 -0.0727 -0.7613  0.7252
   11SAPS    HA 1349   3.765   0.177   3.363 -0.6234 -0.3598  1.0591
   11SAPS    HB 1350   3.618   0.183   3.259 -0.5116 -0.6557  1.4493
   11SAPS    C2 1351   3.607   0.044   3.422  0.8822  0.0158 -0.2209
   11SAPS    HS 1352   3.578   0.119   3.498 -0.4090  0.5209 -1.1660
   11SAPS   O21 1353   3.681  -0.070   3.483 -0.0925  0.3577  0.0998
   11SAPS   C21 1354   3.792  -0.034   3.545  0.0417 -0.0012  0.3608
   11SAPS   O22 1355   3.814   0.074   3.591 -0.2186 -0.4857  0.3660
   11SAPS   C22 1356   3.883  -0.146   3.574 -0.1320  0.1311  0.3341
   11SAPS   H2R 1357   3.960  -0.103   3.642 -0.6641  2.3770 -0.3939
   11SAPS   H2S 1358   3.832  -0.217   3.642 -0.2540 -0.0417  0.0628
   11SAPS    C3 1359   3.470  -0.016   3.369  0.3513  0.0568 -0.2905
   11SAPS    HX 1360   3.494  -0.100   3.301 -2.4223 -1.8052  0.8356
   11SAPS    HY 1361   3.409   0.065   3.323 -0.2622  1.2230  2.3554
   11SAPS   O31 1362   3.403  -0.083   3.486  0.0804 -0.5533  0.2405
   11SAPS   C31 1363   3.339   0.010   3.557 -0.0794 -0.0541  0.6882
   11SAPS   O32 1364   3.327   0.128   3.531  0.3207 -0.1361 -0.7291
   11SAPS   C32 1365   3.292  -0.063   3.685  0.1016 -0.6102 -0.3243
   11SAPS   H2X 1366   3.335  -0.166   3.688 -0.1468 -0.8127 -2.2288
   11SAPS   H2Y 1367   3.181  -0.063   3.681  0.0686  1.2764 -3.9059
   11SAPS   C23 1368   3.943  -0.208   3.447  0.0438  0.3359  0.7496
   11SAPS   H3R 1369   4.007  -0.132   3.398 -0.8985  2.2535  2.3271
   11SAPS   H3S 1370   3.856  -0.239   3.386  0.6316  1.0457 -0.4833
   11SAPS   C24 1371   4.024  -0.331   3.488 -0.5792 -0.8611 -0.3705
   11SAPS   H4R 1372   3.975  -0.376   3.577 -1.8248 -0.3323 -0.7694
   11SAPS   H4S 1373   4.122  -0.301   3.531 -0.3375 -1.7802 -0.2634
   11SAPS   C25 1374   4.047  -0.430   3.374 -0.2159  0.2915 -0.0905
   11SAPS   H5R 1375   4.082  -0.392   3.277 -0.5038  2.3949  0.5869
   11SAPS   C26 1376   4.037  -0.566   3.378 -1.0125 -0.0984  0.7508
   11SAPS   H6R 1377   4.080  -0.622   3.294 -0.4180  1.8008 -0.2439
   11SAPS   C27 1378   4.004  -0.647   3.503  0.1083 -0.4766  0.5092
   11SAPS   H7R 1379   3.895  -0.636   3.523 -0.1264 -0.4703 -0.6905
   11SAPS   H7S 1380   4.059  -0.600   3.588 -0.1814  2.2868 -0.7292
   11SAPS   C28 1381   4.034  -0.793   3.496  0.3471 -0.9430  0.1894
   11SAPS   H8R 1382   3.979  -0.847   3.417  0.7653 -1.8725  0.5124
   11SAPS   C29 1383   4.111  -0.870   3.571  0.0739 -0.3418  0.0972
   11SAPS   H9R 1384   4.109  -0.978   3.555 -0.8399 -0.1090 -1.5268
   11SAPS  C210 1385   4.206  -0.813   3.677  0.1409  0.0093 -0.5366
   11SAPS  H10R 1386   4.155  -0.759   3.760  2.3655  0.0421  0.8999
   11SAPS  H10S 1387   4.272  -0.738   3.630 -0.6507 -0.6093 -2.7555
   11SAPS  C211 1388   4.295  -0.914   3.740 -0.5134  1.3768  0.5094
   11SAPS  H11R 1389   4.365  -0.969   3.676 -1.3490 -0.6070  1.2174
   11SAPS  C212 1390   4.321  -0.935   3.874 -0.4490 -0.3362 -0.5199
   11SAPS  H12R 1391   4.388  -1.018   3.901 -1.7941 -1.1891  0.3256
   11SAPS  C213 1392   4.249  -0.880   3.996 -0.0946  0.1162 -0.1982
   11SAPS  H13R 1393   4.240  -0.950   4.081  1.8109  0.8548  0.6673
   11SAPS  H13S 1394   4.152  -0.842   3.957  0.3756 -0.4320 -2.0287
   11SAPS  C214 1395   4.305  -0.752   4.059 -0.0587 -0.3134  0.6420
   11SAPS  H14R 1396   4.265  -0.662   4.011  1.8382 -0.3882 -1.2164
   11SAPS  C215 1397   4.383  -0.737   4.164  0.0159  0.0142 -0.3004
   11SAPS  H15R 1398   4.400  -0.634   4.196 -2.7822 -0.2444  2.4509
   11SAPS  C216 1399   4.453  -0.843   4.243  0.5946 -0.1961  0.1463
   11SAPS  H16R 1400   4.551  -0.852   4.191 -0.0602  0.0769 -1.1687
   11SAPS  H16S 1401   4.397  -0.936   4.217  0.3373  0.6145 -2.4678
   11SAPS  C217 1402   4.447  -0.841   4.400 -0.4001 -0.5420 -0.4239
   11SAPS  H17R 1403   4.480  -0.939   4.440  2.0057  1.1613  2.1081
   11SAPS  H17S 1404   4.341  -0.822   4.428 -0.9671 -2.6519 -0.9625
   11SAPS  C218 1405   4.552  -0.747   4.469  0.4452  0.1686 -0.5142
   11SAPS  H18R 1406   4.559  -0.651   4.413  0.0953  0.5597  0.0918
   11SAPS  H18S 1407   4.652  -0.785   4.441 -0.1610 -0.6051 -1.6701
   11SAPS  C219 1408   4.544  -0.743   4.620  0.4192 -0.5648  0.4060
   11SAPS  H19R 1409   4.630  -0.685   4.658  0.2813  0.0779 -0.2451
   11SAPS  H19S 1410   4.568  -0.845   4.659 -1.8388 -1.8201 -1.2248
   11SAPS  C220 1411   4.412  -0.701   4.682  0.5756 -0.6325 -0.1947
   11SAPS  H20R 1412   4.444  -0.669   4.784  0.0713  0.8094 -0.4684
   11SAPS  H20S 1413   4.346  -0.791   4.692  0.3463 -0.3812  0.6957
   11SAPS  H20T 1414   4.370  -0.617   4.625  2.8910  0.0207 -1.0294
   11SAPS   C33 1415   3.325   0.014   3.823  0.4519  0.5021 -0.3648
   11SAPS   H3X 1416   3.303   0.122   3.805 -1.6883  0.0388 -0.8523
   11SAPS   H3Y 1417   3.433  -0.007   3.831  0.9807  2.6898 -1.0872
   11SAPS   C34 1418   3.241  -0.051   3.931 -0.5308  0.0189  0.0197
   11SAPS   H4X 1419   3.279  -0.153   3.950  0.7477  0.5997  0.6857
   11SAPS   H4Y 1420   3.137  -0.047   3.892  0.3262  3.3890 -2.4599
   11SAPS   C35 1421   3.243   0.037   4.054  0.1326  0.0272 -0.0508
   11SAPS   H5X 1422   3.196   0.132   4.022  3.0072  1.8278  0.7527
   11SAPS   H5Y 1423   3.346   0.073   4.074  0.9780 -1.4431 -1.4545
   11SAPS   C36 1424   3.196  -0.032   4.187  0.2642  0.1520  0.2457
   11SAPS   H6X 1425   3.255  -0.126   4.198 -0.0426 -0.5138 -2.8066
   11SAPS   H6Y 1426   3.091  -0.052   4.158  0.4813  1.1206 -1.3797
   11SAPS   C37 1427   3.211   0.059   4.309 -0.2882  0.3325 -0.6023
   11SAPS   H7X 1428   3.169   0.162   4.302  0.3716  0.6762  0.3250
   11SAPS   H7Y 1429   3.320   0.082   4.316 -0.0967 -0.5672 -0.5701
   11SAPS   C38 1430   3.173  -0.014   4.436 -0.1752 -0.1684 -0.1893
   11SAPS   H8X 1431   3.235  -0.103   4.456  2.3661  1.0035 -2.1586
   11SAPS   H8Y 1432   3.066  -0.038   4.421 -0.5607  0.3680  1.4840
   11SAPS   C39 1433   3.162   0.092   4.553  0.0310 -0.5110 -0.5459
   11SAPS   H9X 1434   3.105   0.180   4.518  1.7646  1.7969  2.0409
   11SAPS   H9Y 1435   3.264   0.132   4.568  0.9324 -2.4111 -1.2161
   11SAPS  C310 1436   3.093   0.035   4.680 -0.1307 -0.4463  1.4802
   11SAPS  H10X 1437   3.167  -0.038   4.719 -0.2805 -0.9528  0.8306
   11SAPS  H10Y 1438   2.993  -0.009   4.659 -1.6332  3.3550 -0.1058
   11SAPS  C311 1439   3.072   0.142   4.786  0.1213  0.2322  0.1538
   11SAPS  H11X 1440   2.988   0.208   4.756 -1.3891 -1.1663  1.1613
   11SAPS  H11Y 1441   3.167   0.199   4.786 -0.5541  1.4457 -1.6812
   11SAPS  C312 1442   3.048   0.079   4.921  0.3747 -0.0330  0.7968
   11SAPS  H12X 1443   3.113  -0.009   4.937 -0.4252 -0.5084  1.4901
   11SAPS  H12Y 1444   2.953   0.022   4.919 -0.0054  0.5907 -1.2921
   11SAPS  C313 1445   3.036   0.173   5.037 -0.9039  0.4370 -0.2191
   11SAPS  H13X 1446   2.991   0.270   5.008  1.1332  1.0727 -1.5095
   11SAPS  H13Y 1447   3.139   0.203   5.068 -0.5375  0.4738 -1.4286
   11SAPS  C314 1448   2.984   0.099   5.168 -0.0006 -0.1812 -0.1124
   11SAPS  H14X 1449   3.022  -0.005   5.176 -0.0545 -0.5966 -3.6728
   11SAPS  H14Y 1450   2.874   0.096   5.156  0.2425 -0.1768 -2.8800
   11SAPS  C315 1451   3.025   0.187   5.289  0.2412 -0.2429  0.4901
   11SAPS  H15X 1452   3.135   0.200   5.294  0.4057 -0.7509 -1.1447
   11SAPS  H15Y 1453   2.993   0.131   5.379 -0.8410 -0.7730 -0.2023
   11SAPS  C316 1454   2.957   0.330   5.291 -0.6892  0.3135 -0.3872
   11SAPS  H16X 1455   2.897   0.342   5.384 -0.0317  0.2013  0.0544
   11SAPS  H16Y 1456   2.896   0.344   5.199 -1.6071  1.0314  0.3066
   11SAPS  C317 1457   3.061   0.436   5.280  0.2187 -0.4722  0.1130
   11SAPS  H17X 1458   3.110   0.423   5.181 -1.0896 -3.3481 -0.2558
   11SAPS  H17Y 1459   3.150   0.416   5.344  1.7547 -0.4485 -1.9171
   11SAPS  C318 1460   3.001   0.575   5.305  0.6523  0.5215  0.0619
   11SAPS  H18X 1461   2.971   0.591   5.410  1.3286  2.3282  0.0233
   11SAPS  H18Y 1462   2.910   0.586   5.243  0.9202  1.2011 -0.2278
   11SAPS  H18Z 1463   3.076   0.656   5.288 -0.0794  1.2818  0.3502
   12SAPS     N 1464   3.172   4.644   1.956  0.0143 -0.3161 -0.4340
   12SAPS   HN1 1465   3.077   4.631   1.997  0.6188  0.0638  1.1711
   12SAPS   HN2 1466   3.172   4.629   1.853  1.8974 -0.7307 -0.4120
   12SAPS   HN3 1467   3.230   4.559   1.972 -0.1554 -0.7900 -2.1394
   12SAPS   C12 1468   3.235   4.773   2.016 -0.8752  0.1447  0.0438
   12SAPS  H12A 1469   3.250   4.746   2.120 -0.9666 -0.5608 -0.1207
   12SAPS   C13 1470   3.376   4.816   1.959  0.2791  0.4530  0.1931
   12SAPS  O13A 1471   3.432   4.745   1.871  0.3581 -0.2788  0.0791
   12SAPS  O13B 1472   3.429   4.922   1.997  0.7682  0.6084 -0.3490
   12SAPS   C11 1473   3.142   4.902   2.008  0.9441  0.1171  0.1641
   12SAPS  H11A 1474   3.141   4.924   1.899  2.4922 -0.3041  0.0431
   12SAPS  H11B 1475   3.202   4.981   2.057  2.7290 -0.3010 -1.2629
   12SAPS     P 1476   2.936   4.936   2.186  0.5108 -0.0711 -0.0285
   12SAPS   O13 1477   2.896   5.080   2.170  0.3714  0.2210  0.4109
   12SAPS   O14 1478   2.828   4.838   2.226  0.1891 -0.1662 -0.0952
   12SAPS   O12 1479   3.008   4.874   2.055  0.7519 -0.1050 -0.5893
   12SAPS   O11 1480   3.048   4.929   2.296 -0.1556 -0.3362  0.1242
   12SAPS    C1 1481   3.138   5.033   2.330 -0.7284  0.3110  0.7850
   12SAPS    HA 1482   3.244   5.009   2.305 -1.0099  0.8915 -1.1539
   12SAPS    HB 1483   3.116   5.128   2.276 -0.4429  2.2528  3.8104
   12SAPS    C2 1484   3.124   5.077   2.475 -0.2878 -0.0611 -0.4766
   12SAPS    HS 1485   3.173   5.176   2.488  1.5927 -0.9362 -0.4581
   12SAPS   O21 1486   3.168   4.972   2.571 -0.5977  0.0179  0.8596
   12SAPS   C21 1487   3.295   4.985   2.603 -0.6883  0.2504  0.6955
   12SAPS   O22 1488   3.372   5.074   2.564 -0.1353  0.9947 -0.5552
   12SAPS   C22 1489   3.335   4.857   2.678 -0.6200  0.4389  0.3174
   12SAPS   H2R 1490   3.363   4.773   2.611 -2.4283  0.6767 -0.7930
   12SAPS   H2S 1491   3.433   4.894   2.715  1.1588 -3.3999 -0.0992
   12SAPS    C3 1492   2.976   5.099   2.499 -0.4054  0.2971 -0.1916
   12SAPS    HX 1493   2.919   5.005   2.484 -1.9344  1.0944  0.4982
   12SAPS    HY 1494   2.930   5.173   2.429  1.5956  0.1564 -1.7787
   12SAPS   O31 1495   2.963   5.164   2.626  0.4340  0.0075  0.4050
   12SAPS   C31 1496   2.929   5.086   2.734 -0.2057 -0.2008  0.0907
   12SAPS   O32 1497   2.908   4.967   2.725 -0.5943  0.5920 -0.1115
   12SAPS   C32 1498   2.915   5.166   2.861 -0.2531  0.4798  0.5121
   12SAPS   H2X 1499   2.806   5.181   2.874 -0.2983 -0.0952  0.8147
   12SAPS   H2Y 1500   2.977   5.258   2.861 -0.4117  0.5959 -0.6425
   12SAPS   C23 1501   3.242   4.810   2.792 -0.6983 -0.6383  0.2041
   12SAPS   H3R 1502   3.152   4.754   2.758 -1.5183  0.2935  0.8005
   12SAPS   H3S 1503   3.196   4.897   2.843  2.0130  1.7240 -1.0645
   12SAPS   C24 1504   3.310   4.717   2.909  0.4311 -0.6329  0.8883
   12SAPS   H4R 1505   3.326   4.618   2.861 -1.7782 -0.5172 -0.2107
   12SAPS   H4S 1506   3.230   4.694   2.983  1.8912  0.8785  3.0622
   12SAPS   C25 1507   3.442   4.760   2.967 -0.0962  0.3557 -0.3378
   12SAPS   H5R 1508   3.529   4.716   2.917 -0.4833  1.0014 -1.6251
   12SAPS   C26 1509   3.455   4.813   3.091 -0.5899  0.2887 -0.3850
   12SAPS   H6R 1510   3.553   4.848   3.126 -0.0502 -0.0400 -1.5358
   12SAPS   C27 1511   3.349   4.846   3.190  0.5247 -0.0610 -0.6645
   12SAPS   H7R 1512   3.331   4.754   3.250  1.4533 -0.9596 -1.7191
   12SAPS   H7S 1513   3.249   4.867   3.146  0.1695 -0.4866 -0.0810
   12SAPS   C28 1514   3.387   4.960   3.287 -0.2001 -0.0106  0.3237
   12SAPS   H8R 1515   3.363   5.055   3.237 -0.6367 -0.7586 -0.9166
   12SAPS   C29 1516   3.436   4.964   3.415  0.0937  0.1587  0.1617
   12SAPS   H9R 1517   3.471   5.061   3.453 -0.8637  0.7070 -0.3133
   12SAPS  C210 1518   3.470   4.842   3.501 -0.7807  0.0463  0.3098
   12SAPS  H10R 1519   3.562   4.872   3.557 -0.7254  1.3532 -0.4394
   12SAPS  H10S 1520   3.498   4.752   3.442  3.0390  1.6808 -0.6994
   12SAPS  C211 1521   3.355   4.799   3.589 -0.6675 -0.1788  0.9623
   12SAPS  H11R 1522   3.269   4.773   3.525 -1.2734  0.7094  1.4022
   12SAPS  C212 1523   3.356   4.789   3.722  0.6599 -0.7736 -0.3438
   12SAPS  H12R 1524   3.267   4.753   3.776  0.3256 -0.9120 -0.9759
   12SAPS  C213 1525   3.478   4.821   3.811  0.2120 -0.7372 -0.5395
   12SAPS  H13R 1526   3.443   4.829   3.916  3.4800 -0.2478  0.6061
   12SAPS  H13S 1527   3.521   4.916   3.773 -0.9333 -0.0733 -0.2220
   12SAPS  C214 1528   3.590   4.723   3.804  0.0945 -0.0675  0.1663
   12SAPS  H14R 1529   3.604   4.654   3.719  2.9815 -2.5947  2.4385
   12SAPS  C215 1530   3.664   4.693   3.912  0.2023  0.0852 -0.0494
   12SAPS  H15R 1531   3.731   4.606   3.903  0.4984 -0.0420  2.5165
   12SAPS  C216 1532   3.658   4.757   4.048 -0.3370  0.1849 -0.3804
   12SAPS  H16R 1533   3.600   4.850   4.036  1.3863  1.1225 -1.8505
   12SAPS  H16S 1534   3.759   4.799   4.070 -0.9778  1.1401  0.8954
   12SAPS  C217 1535   3.598   4.669   4.159  0.3341 -0.0869 -0.3440
   12SAPS  H17R 1536   3.673   4.595   4.194  2.1655  0.9572 -1.8302
   12SAPS  H17S 1537   3.516   4.613   4.110  0.7480 -0.0553 -1.0915
   12SAPS  C218 1538   3.557   4.751   4.274  0.3212 -0.4382 -0.8589
   12SAPS  H18R 1539   3.495   4.835   4.237 -0.5158  0.9197  3.0815
   12SAPS  H18S 1540   3.636   4.817   4.317 -1.6056  1.5071 -0.1255
   12SAPS  C219 1541   3.485   4.677   4.391 -0.0759 -0.3579  0.1844
   12SAPS  H19R 1542   3.537   4.589   4.434  0.5706  0.7075  1.6927
   12SAPS  H19S 1543   3.390   4.637   4.351 -0.1424  0.0379 -0.0632
   12SAPS  C220 1544   3.450   4.772   4.512  0.0715 -0.0112 -0.0151
   12SAPS  H20R 1545   3.547   4.807   4.553  0.1749 -0.4066  0.0834
   12SAPS  H20S 1546   3.396   4.721   4.594  0.5455 -0.1639  0.2010
   12SAPS  H20T 1547   3.397   4.861   4.471 -2.0070  0.3956  3.2009
   12SAPS   C33 1548   2.966   5.095   2.987  0.7034  0.7158 -0.0691
   12SAPS   H3X 1549   3.065   5.047   2.973  0.7573  1.1429 -1.2507
   12SAPS   H3Y 1550   2.892   5.013   3.000  0.3392  0.7378 -1.7577
   12SAPS   C34 1551   2.956   5.176   3.111  0.1318 -0.4442 -0.4102
   12SAPS   H4X 1552   2.853   5.214   3.129  0.2148 -0.7094  0.7018
   12SAPS   H4Y 1553   3.023   5.264   3.110 -0.1261 -0.1555  2.0879
   12SAPS   C35 1554   2.997   5.087   3.228  0.0877  0.0195  0.5319
   12SAPS   H5X 1555   3.099   5.044   3.224  0.5030  0.5055  3.3291
   12SAPS   H5Y 1556   2.932   4.997   3.234 -0.3900  0.0769 -2.3028
   12SAPS   C36 1557   2.987   5.164   3.362  0.2558 -0.1724  0.6199
   12SAPS   H6X 1558   2.884   5.204   3.370  0.8444  1.6382 -0.3165
   12SAPS   H6Y 1559   3.062   5.246   3.369  0.9336 -0.7561  0.3416
   12SAPS   C37 1560   3.022   5.071   3.472  0.7882  0.4842 -0.7161
   12SAPS   H7X 1561   3.115   5.015   3.452  0.6020 -0.4605  0.8947
   12SAPS   H7Y 1562   2.951   4.986   3.465  2.0859 -0.5003 -4.3162
   12SAPS   C38 1563   3.021   5.132   3.608  0.1344 -0.8534 -0.7189
   12SAPS   H8X 1564   2.919   5.168   3.632  0.4422 -0.1202 -0.4910
   12SAPS   H8Y 1565   3.076   5.228   3.613 -2.9210  1.1214 -1.8965
   12SAPS   C39 1566   3.063   5.030   3.716  0.9173 -0.0780 -0.1965
   12SAPS   H9X 1567   3.172   5.012   3.704  0.4915 -2.4232 -1.0136
   12SAPS   H9Y 1568   3.015   4.932   3.695  0.6003  0.1230 -0.4314
   12SAPS  C310 1569   3.029   5.068   3.858 -0.0732  0.2586 -0.3054
   12SAPS  H10X 1570   2.922   5.098   3.857  0.4263  2.2479 -0.1258
   12SAPS  H10Y 1571   3.088   5.161   3.877  0.7977 -0.2144 -0.6504
   12SAPS  C311 1572   3.089   4.977   3.968  0.3700  0.2645 -0.0568
   12SAPS  H11X 1573   3.199   4.966   3.963  0.6346  2.3735  0.1600
   12SAPS  H11Y 1574   3.052   4.879   3.930  2.0837  0.7672 -3.4061
   12SAPS  C312 1575   3.040   5.017   4.105 -0.5694  0.2529  0.5178
   12SAPS  H12X 1576   2.930   5.008   4.117 -0.6776  0.1229 -0.4775
   12SAPS  H12Y 1577   3.070   5.121   4.126 -0.9774  0.4318  0.2393
   12SAPS  C313 1578   3.106   4.942   4.224  0.5043 -0.1702 -0.1605
   12SAPS  H13X 1579   3.213   4.924   4.202 -0.2775 -0.9597 -4.0236
   12SAPS  H13Y 1580   3.057   4.843   4.216 -2.8748  1.1420  1.7934
   12SAPS  C314 1581   3.062   5.008   4.361 -0.1237  0.2771 -0.0039
   12SAPS  H14X 1582   2.952   5.022   4.371  0.1848  1.0296  3.5822
   12SAPS  H14Y 1583   3.121   5.102   4.367 -0.2722  0.3979 -0.4355
   12SAPS  C315 1584   3.105   4.917   4.480 -0.2019  0.0466 -0.5392
   12SAPS  H15X 1585   3.215   4.916   4.495 -0.3571 -1.7864  0.7427
   12SAPS  H15Y 1586   3.065   4.815   4.464  1.4924 -0.6766 -0.3173
   12SAPS  C316 1587   3.038   4.967   4.609 -0.3668 -0.0186  0.1444
   12SAPS  H16X 1588   2.928   4.953   4.602 -0.3607 -0.5085  0.8838
   12SAPS  H16Y 1589   3.061   5.075   4.619  1.6973 -0.3938 -0.1074
   12SAPS  C317 1590   3.087   4.890   4.734  0.2298  0.2419 -0.1195
   12SAPS  H17X 1591   3.198   4.883   4.728  0.2072 -1.8399  0.9518
   12SAPS  H17Y 1592   3.043   4.788   4.727 -0.3913  0.5909 -1.7636
   12SAPS  C318 1593   3.044   4.950   4.869  0.0116 -0.0481 -0.0169
   12SAPS  H18X 1594   2.934   4.963   4.867 -0.4485 -3.1333 -0.7864
   12SAPS  H18Y 1595   3.097   5.046   4.884  1.1427 -0.3702 -1.6279
   12SAPS  H18Z 1596   3.064   4.880   4.953  1.9036  0.7152  0.2149
   13SAPS     N 1597   3.977   3.784   2.555  0.0479  0.3907 -0.4680
   13SAPS   HN1 1598   3.964   3.887   2.559  0.3070  0.4156 -0.2735
   13SAPS   HN2 1599   4.079   3.768   2.567  0.3291  0.6691 -2.1888
   13SAPS   HN3 1600   3.945   3.758   2.459  0.7807  2.8576 -1.4383
   13SAPS   C12 1601   3.887   3.702   2.645 -0.1315 -0.3379  0.4939
   13SAPS  H12A 1602   3.863   3.772   2.724  2.9312  1.2323  0.1832
   13SAPS   C13 1603   3.753   3.662   2.563 -0.1265 -0.0764  0.0273
   13SAPS  O13A 1604   3.748   3.690   2.439  0.0133 -0.4543 -0.5077
   13SAPS  O13B 1605   3.645   3.628   2.625 -0.2216 -0.1721 -0.0376
   13SAPS   C11 1606   3.953   3.572   2.708  0.6352 -0.6266  0.2366
   13SAPS  H11A 1607   4.027   3.525   2.641  1.9579  1.1873  0.3541
   13SAPS  H11B 1608   3.882   3.489   2.728  0.2229 -0.5335 -0.7846
   13SAPS     P 1609   3.968   3.602   2.971  0.6918  0.3669 -0.1671
   13SAPS   O13 1610   3.824   3.632   2.950  0.2151  0.3208 -0.1613
   13SAPS   O14 1611   4.003   3.472   3.031  0.5261 -0.3082  0.2289
   13SAPS   O12 1612   4.031   3.605   2.824 -0.6644 -0.4926  0.9054
   13SAPS   O11 1613   4.040   3.723   3.045 -0.1457 -0.0495 -0.1382
   13SAPS    C1 1614   4.044   3.856   3.002  0.3788  0.5270  0.2421
   13SAPS    HA 1615   3.990   3.863   2.905  2.0069  0.5142 -0.7025
   13SAPS    HB 1616   3.996   3.923   3.076  1.7935  2.1413 -0.2315
   13SAPS    C2 1617   4.191   3.897   2.982 -0.9908 -0.7379 -0.2044
   13SAPS    HS 1618   4.235   3.822   2.913  1.5337 -1.0840  1.6423
   13SAPS   O21 1619   4.256   3.899   3.112 -0.1485 -0.4632  0.3895
   13SAPS   C21 1620   4.383   3.871   3.109 -0.0584  0.4124  0.5678
   13SAPS   O22 1621   4.453   3.845   3.011 -0.3065 -0.1629  0.1848
   13SAPS   C22 1622   4.448   3.872   3.254  0.1482 -0.2017  0.1274
   13SAPS   H2R 1623   4.546   3.821   3.244 -0.3239 -1.2705  0.7701
   13SAPS   H2S 1624   4.462   3.982   3.266 -0.5794  0.6335 -4.7128
   13SAPS    C3 1625   4.219   4.031   2.909 -0.9063 -0.6335  0.0352
   13SAPS    HX 1626   4.152   4.026   2.820 -0.5849 -1.3029 -0.1723
   13SAPS    HY 1627   4.321   4.039   2.865 -0.0184 -0.6470  1.9962
   13SAPS   O31 1628   4.181   4.142   2.988  0.6379  0.6286  0.2873
   13SAPS   C31 1629   4.267   4.199   3.072  0.8003  0.5852 -0.8575
   13SAPS   O32 1630   4.387   4.163   3.092 -0.2119 -0.5553 -0.2769
   13SAPS   C32 1631   4.198   4.314   3.144  0.5255  0.1395 -0.3780
   13SAPS   H2X 1632   4.114   4.263   3.195  0.3196 -0.0625 -0.9159
   13SAPS   H2Y 1633   4.148   4.371   3.063  0.3172 -2.1517 -1.9540
   13SAPS   C23 1634   4.376   3.810   3.372  0.2104 -0.1933 -0.1549
   13SAPS   H3R 1635   4.452   3.746   3.421  2.2887  1.6393 -0.8174
   13SAPS   H3S 1636   4.289   3.755   3.329 -0.9211  0.2996  1.4215
   13SAPS   C24 1637   4.312   3.902   3.486 -0.0511  0.2244  0.2889
   13SAPS   H4R 1638   4.234   3.847   3.543  0.5650  0.2944  1.2233
   13SAPS   H4S 1639   4.261   3.982   3.428  0.0742 -0.3936 -0.7021
   13SAPS   C25 1640   4.407   3.967   3.584  0.1216  0.3002  0.7885
   13SAPS   H5R 1641   4.498   4.013   3.542  0.3880 -0.0785  0.9483
   13SAPS   C26 1642   4.382   3.993   3.714  0.4407 -0.8908  0.1597
   13SAPS   H6R 1643   4.458   4.039   3.778  2.1864 -4.3619  0.8424
   13SAPS   C27 1644   4.256   3.955   3.793 -0.5170  0.0559  0.2106
   13SAPS   H7R 1645   4.286   3.916   3.893  1.0781  1.2891  0.2650
   13SAPS   H7S 1646   4.220   3.863   3.744 -0.6144  0.2921 -0.1623
   13SAPS   C28 1647   4.141   4.053   3.815 -0.0209  0.4039 -0.4446
   13SAPS   H8R 1648   4.051   4.021   3.761  0.0265  0.4030 -0.5246
   13SAPS   C29 1649   4.125   4.130   3.927  0.1348  0.4677  0.8164
   13SAPS   H9R 1650   4.026   4.174   3.946 -0.6989 -1.8963  2.3662
   13SAPS  C210 1651   4.232   4.152   4.024  0.1403  0.6772 -0.8177
   13SAPS  H10R 1652   4.245   4.262   4.033 -1.3139  0.7985  0.1077
   13SAPS  H10S 1653   4.327   4.099   4.004 -0.8324 -1.8565  0.8366
   13SAPS  C211 1654   4.181   4.094   4.155 -0.4196  0.0850  1.2159
   13SAPS  H11R 1655   4.184   3.984   4.151 -1.9099  0.0357  1.0052
   13SAPS  C212 1656   4.110   4.160   4.245 -0.4060 -0.6813 -0.7776
   13SAPS  H12R 1657   4.091   4.101   4.335 -0.5102  0.1636 -0.2323
   13SAPS  C213 1658   4.066   4.298   4.245  0.4022 -0.6959 -0.6182
   13SAPS  H13R 1659   4.074   4.348   4.146 -3.3818  1.4590 -0.0155
   13SAPS  H13S 1660   4.144   4.358   4.297  1.2799 -1.8790 -0.5294
   13SAPS  C214 1661   3.915   4.329   4.280  0.2556  0.4272  0.3979
   13SAPS  H14R 1662   3.849   4.247   4.250  0.2907  0.9578 -1.2241
   13SAPS  C215 1663   3.861   4.430   4.352 -0.1426 -0.3080  0.5377
   13SAPS  H15R 1664   3.752   4.446   4.349  0.0016  0.6385 -0.4782
   13SAPS  C216 1665   3.937   4.544   4.410  0.1167 -0.5868  0.2914
   13SAPS  H16R 1666   3.881   4.634   4.379  1.5340  0.0168 -0.5920
   13SAPS  H16S 1667   4.041   4.551   4.372  0.8298  1.2759  2.3663
   13SAPS  C217 1668   3.949   4.541   4.564 -0.1485 -0.2652  0.1643
   13SAPS  H17R 1669   4.003   4.629   4.605  2.1754 -2.1810  1.5102
   13SAPS  H17S 1670   3.997   4.446   4.595 -1.1367 -0.1703  2.1917
   13SAPS  C218 1671   3.804   4.545   4.619 -0.1328  0.2391 -0.4095
   13SAPS  H18R 1672   3.755   4.452   4.584  2.3648 -1.1573 -0.4966
   13SAPS  H18S 1673   3.742   4.628   4.580 -0.0072  0.1376 -0.8318
   13SAPS  C219 1674   3.792   4.542   4.775 -0.0407  0.6436  0.3152
   13SAPS  H19R 1675   3.857   4.625   4.811  3.6567 -1.5901 -0.6513
   13SAPS  H19S 1676   3.831   4.445   4.816 -1.7711 -0.2704 -0.1299
   13SAPS  C220 1677   3.654   4.559   4.830  0.7302  0.0577 -0.0614
   13SAPS  H20R 1678   3.593   4.644   4.790 -0.4055 -0.7328 -0.0614
   13SAPS  H20S 1679   3.639   4.568   4.939 -2.9800  2.7054 -0.5491
   13SAPS  H20T 1680   3.592   4.471   4.801 -2.0137  0.6270  3.4066
   13SAPS   C33 1681   4.273   4.407   3.242  0.3616  0.0802  0.6122
   13SAPS   H3X 1682   4.338   4.344   3.307  2.0904 -1.1936 -2.1474
   13SAPS   H3Y 1683   4.196   4.453   3.307  0.2417 -0.3952  0.8135
   13SAPS   C34 1684   4.368   4.503   3.162  0.2234  0.4337  0.4517
   13SAPS   H4X 1685   4.305   4.544   3.080  1.8627  1.5065 -0.3354
   13SAPS   H4Y 1686   4.440   4.438   3.107  0.3063  1.2068 -0.3778
   13SAPS   C35 1687   4.464   4.589   3.248 -0.4537 -0.3922  0.1735
   13SAPS   H5X 1688   4.534   4.623   3.169  0.5632  0.2146  1.3070
   13SAPS   H5Y 1689   4.517   4.534   3.328 -0.5421  0.4374  0.8163
   13SAPS   C36 1690   4.397   4.698   3.334 -0.0953  0.4037 -0.0790
   13SAPS   H6X 1691   4.324   4.659   3.408 -1.4013  1.0587 -0.9994
   13SAPS   H6Y 1692   4.323   4.758   3.277 -1.1321 -1.7530 -1.1092
   13SAPS   C37 1693   4.489   4.808   3.394  0.3789 -0.0053 -0.2480
   13SAPS   H7X 1694   4.420   4.881   3.442 -0.9507 -0.2066 -1.7579
   13SAPS   H7Y 1695   4.529   4.854   3.301 -0.3255  1.5562  0.1837
   13SAPS   C38 1696   4.594   4.761   3.489 -0.2906 -0.9316 -0.5685
   13SAPS   H8X 1697   4.679   4.832   3.492 -1.1325  0.0877  2.2332
   13SAPS   H8Y 1698   4.634   4.659   3.466  2.4725 -0.3092  1.0481
   13SAPS   C39 1699   4.548   4.770   3.637  0.1386  0.2929  0.2073
   13SAPS   H9X 1700   4.467   4.694   3.648  1.0058 -0.9929 -1.6634
   13SAPS   H9Y 1701   4.492   4.865   3.650 -1.5381 -0.8618  2.0127
   13SAPS  C310 1702   4.655   4.741   3.741  0.5118 -0.1904  0.6299
   13SAPS  H10X 1703   4.734   4.818   3.726  1.9973 -1.7673  0.0668
   13SAPS  H10Y 1704   4.703   4.643   3.721  0.1502 -0.5178  1.3388
   13SAPS  C311 1705   4.603   4.764   3.878  0.3420 -0.9782  0.6408
   13SAPS  H11X 1706   4.516   4.699   3.902 -0.5359 -0.1325 -0.1884
   13SAPS  H11Y 1707   4.566   4.868   3.883 -0.4226 -1.1111 -1.4099
   13SAPS  C312 1708   4.714   4.735   3.986 -0.6023  0.2010 -0.6507
   13SAPS  H12X 1709   4.809   4.792   3.980 -0.5219  0.1647  0.2387
   13SAPS  H12Y 1710   4.748   4.633   3.959 -0.0581  0.0450  0.5628
   13SAPS  C313 1711   4.662   4.721   4.126  0.3081 -0.7759 -0.2821
   13SAPS  H13X 1712   4.564   4.668   4.121  0.0407 -0.1764 -2.3354
   13SAPS  H13Y 1713   4.625   4.817   4.167  2.5167  0.1505 -0.3300
   13SAPS  C314 1714   4.769   4.671   4.219 -0.2150 -0.0457  0.2776
   13SAPS  H14X 1715   4.861   4.734   4.215  0.3893 -0.8899  0.5269
   13SAPS  H14Y 1716   4.791   4.565   4.195  0.7886  0.6654 -2.2634
   13SAPS  C315 1717   4.718   4.690   4.363  0.6109  0.0166  0.3549
   13SAPS  H15X 1718   4.610   4.670   4.379  0.5951 -0.0344  0.1841
   13SAPS  H15Y 1719   4.709   4.801   4.372 -2.3932 -0.2989  2.3926
   13SAPS  C316 1720   4.803   4.624   4.465 -0.0820 -0.3748  0.2857
   13SAPS  H16X 1721   4.888   4.694   4.475 -1.5656  1.7312 -0.9299
   13SAPS  H16Y 1722   4.838   4.525   4.429 -0.7332 -0.6449  0.3806
   13SAPS  C317 1723   4.747   4.612   4.608 -0.4007 -0.3586  0.1008
   13SAPS  H17X 1724   4.799   4.531   4.664 -0.7459  1.1288  2.7214
   13SAPS  H17Y 1725   4.648   4.562   4.605 -0.2683 -0.6356  0.2921
   13SAPS  C318 1726   4.737   4.740   4.689  0.3760 -0.0977 -0.5448
   13SAPS  H18X 1727   4.648   4.803   4.666  0.5191  0.6581  0.8114
   13SAPS  H18Y 1728   4.831   4.798   4.700 -0.3166  0.9635 -0.0263
   13SAPS  H18Z 1729   4.706   4.713   4.792  1.2661  1.5345  0.1885
   14SAPS     N 1730   3.945   4.301   2.495  0.7726  0.6666  0.2412
   14SAPS   HN1 1731   3.970   4.274   2.397  1.8742  1.5587  0.2573
   14SAPS   HN2 1732   3.950   4.405   2.495 -0.3998  0.7439 -0.5703
   14SAPS   HN3 1733   4.012   4.271   2.568  1.2162  2.7318  0.7477
   14SAPS   C12 1734   3.804   4.259   2.520 -0.7357  1.3455 -0.2538
   14SAPS  H12A 1735   3.753   4.259   2.424 -0.9538 -0.7865 -0.1859
   14SAPS   C13 1736   3.797   4.114   2.564  0.2678  0.7487  0.0847
   14SAPS  O13A 1737   3.901   4.046   2.567 -0.5176 -0.5923 -0.3996
   14SAPS  O13B 1738   3.686   4.065   2.606 -0.5671 -0.2416  0.4150
   14SAPS   C11 1739   3.735   4.344   2.622  0.5330  0.5997 -0.2392
   14SAPS  H11A 1740   3.779   4.330   2.723  0.0128 -1.2074 -0.2442
   14SAPS  H11B 1741   3.631   4.305   2.626  0.0683  1.8315  0.0759
   14SAPS     P 1742   3.622   4.570   2.641  0.0399 -0.4969  0.1569
   14SAPS   O13 1743   3.611   4.697   2.569 -0.2440 -0.7888  0.1220
   14SAPS   O14 1744   3.498   4.495   2.653  0.8199  0.4991  0.1037
   14SAPS   O12 1745   3.724   4.476   2.568  0.3078  1.3598  0.4705
   14SAPS   O11 1746   3.691   4.590   2.787  0.2199  0.5070 -0.1275
   14SAPS    C1 1747   3.792   4.685   2.819 -0.1376 -0.3079 -0.3421
   14SAPS    HA 1748   3.882   4.670   2.756 -1.4438 -2.0070 -1.8967
   14SAPS    HB 1749   3.751   4.784   2.788 -1.2417 -0.3099  0.9969
   14SAPS    C2 1750   3.829   4.678   2.973 -0.3210 -0.0459 -0.2485
   14SAPS    HS 1751   3.934   4.643   2.979  0.3010  1.4633 -1.6921
   14SAPS   O21 1752   3.728   4.606   3.046  0.4888  0.5102 -0.4568
   14SAPS   C21 1753   3.758   4.479   3.057  0.2603  0.2462  0.3658
   14SAPS   O22 1754   3.859   4.420   3.020  0.2555 -0.2775  0.6160
   14SAPS   C22 1755   3.655   4.404   3.144  0.1951  0.3375  0.5935
   14SAPS   H2R 1756   3.567   4.381   3.080 -0.1422  0.1280  1.1314
   14SAPS   H2S 1757   3.699   4.308   3.178  0.8214  0.5054  0.2757
   14SAPS    C3 1758   3.845   4.819   3.033  0.3826 -0.0539  0.5374
   14SAPS    HX 1759   3.753   4.875   3.007 -0.0699 -0.5773  0.9907
   14SAPS    HY 1760   3.933   4.867   2.986  0.0095  0.2383  0.1292
   14SAPS   O31 1761   3.870   4.810   3.172  0.3839 -0.2135 -0.0558
   14SAPS   C31 1762   3.886   4.930   3.226  0.2842 -0.4014 -0.5314
   14SAPS   O32 1763   3.868   5.033   3.167 -0.4617  0.3799  0.3337
   14SAPS   C32 1764   3.917   4.914   3.379  0.3077  0.1908 -0.3124
   14SAPS   H2X 1765   4.025   4.884   3.376  0.9463  2.3142 -3.0335
   14SAPS   H2Y 1766   3.860   4.824   3.412 -0.3698  0.6526 -0.2126
   14SAPS   C23 1767   3.598   4.483   3.267  1.4549 -0.1387  0.1320
   14SAPS   H3R 1768   3.556   4.580   3.232  0.6569 -0.7087 -0.5199
   14SAPS   H3S 1769   3.672   4.500   3.348  0.7655  1.5832  0.4325
   14SAPS   C24 1770   3.489   4.395   3.327 -1.0387  0.6343 -0.5607
   14SAPS   H4R 1771   3.546   4.302   3.345 -0.3813  0.5620 -2.6621
   14SAPS   H4S 1772   3.411   4.377   3.249 -2.9602  2.3896  0.8445
   14SAPS   C25 1773   3.427   4.441   3.458 -0.7469 -0.3409  0.8591
   14SAPS   H5R 1774   3.423   4.550   3.467  2.6661  0.1803 -1.7988
   14SAPS   C26 1775   3.387   4.356   3.557 -0.4360 -0.9684 -0.4239
   14SAPS   H6R 1776   3.333   4.392   3.646 -1.8762 -2.1996 -0.7433
   14SAPS   C27 1777   3.395   4.210   3.537  0.5982  0.2285 -0.0574
   14SAPS   H7R 1778   3.381   4.154   3.632  0.0820 -0.3302 -0.4602
   14SAPS   H7S 1779   3.491   4.191   3.484 -0.2348  1.4787 -2.1641
   14SAPS   C28 1780   3.280   4.157   3.447  0.9507  0.2449 -0.4015
   14SAPS   H8R 1781   3.200   4.218   3.405  1.8398 -0.2548 -3.0531
   14SAPS   C29 1782   3.296   4.038   3.380  0.7255 -0.0154 -0.0685
   14SAPS   H9R 1783   3.227   4.007   3.300 -0.5791  0.2803  0.9080
   14SAPS  C210 1784   3.402   3.937   3.407  0.0769  0.1976 -0.0738
   14SAPS  H10R 1785   3.451   3.963   3.503 -1.4980 -1.5676  1.2773
   14SAPS  H10S 1786   3.483   3.925   3.332 -2.2645  0.1355 -2.7694
   14SAPS  C211 1787   3.337   3.805   3.414 -0.2463  0.3336  0.8131
   14SAPS  H11R 1788   3.289   3.770   3.322 -0.3126  0.1783  0.9057
   14SAPS  C212 1789   3.356   3.720   3.516 -0.2439 -0.1566  0.6152
   14SAPS  H12R 1790   3.296   3.628   3.522 -0.7847  0.2472  1.3530
   14SAPS  C213 1791   3.412   3.761   3.655 -0.3916 -0.0258 -0.2087
   14SAPS  H13R 1792   3.381   3.691   3.735  0.1721  0.2473  0.2555
   14SAPS  H13S 1793   3.372   3.862   3.678  0.3278 -0.0117  1.0569
   14SAPS  C214 1794   3.566   3.755   3.652  0.5849 -0.6221 -0.6198
   14SAPS  H14R 1795   3.606   3.666   3.602  0.0186 -0.8337 -0.7106
   14SAPS  C215 1796   3.647   3.851   3.688 -0.0467 -0.4942 -0.4920
   14SAPS  H15R 1797   3.754   3.826   3.690 -0.3463 -1.7858  0.7044
   14SAPS  C216 1798   3.611   3.989   3.748 -0.0323  0.5760  0.4793
   14SAPS  H16R 1799   3.501   3.995   3.763  0.1345 -0.6483  2.4982
   14SAPS  H16S 1800   3.636   4.075   3.683  0.1807  2.3423  2.7747
   14SAPS  C217 1801   3.674   4.016   3.892 -0.3962 -1.0540  0.3730
   14SAPS  H17R 1802   3.783   4.035   3.888  0.1352 -3.1919  2.4689
   14SAPS  H17S 1803   3.664   3.923   3.951 -2.0806 -1.5965 -0.6963
   14SAPS  C218 1804   3.592   4.127   3.957 -0.3694  0.2306 -0.3027
   14SAPS  H18R 1805   3.630   4.150   4.059 -1.0565  1.4937 -0.3048
   14SAPS  H18S 1806   3.493   4.086   3.985 -0.6359  0.2564 -1.1943
   14SAPS  C219 1807   3.594   4.266   3.885 -0.3977 -0.1340  0.2429
   14SAPS  H19R 1808   3.533   4.336   3.946  1.7532  2.6517 -0.6113
   14SAPS  H19S 1809   3.553   4.259   3.781  0.1361  2.4545 -0.2063
   14SAPS  C220 1810   3.730   4.328   3.875  0.5970 -0.3859 -0.2197
   14SAPS  H20R 1811   3.716   4.414   3.807  1.3059 -0.6581 -0.7147
   14SAPS  H20S 1812   3.810   4.270   3.825  1.3640 -0.2132  0.7733
   14SAPS  H20T 1813   3.774   4.366   3.969  1.7688  1.3422 -1.4258
   14SAPS   C33 1814   3.875   5.033   3.469  0.4634  0.0723 -0.1537
   14SAPS   H3X 1815   3.766   5.055   3.473  0.7353  1.9272 -1.8777
   14SAPS   H3Y 1816   3.930   5.116   3.421  0.1641 -0.3751 -1.3004
   14SAPS   C34 1817   3.918   5.001   3.615  0.2077 -0.9664  0.6901
   14SAPS   H4X 1818   4.029   4.995   3.616  0.6110  2.6895 -1.8668
   14SAPS   H4Y 1819   3.878   4.905   3.654  0.4441 -0.9780  0.9126
   14SAPS   C35 1820   3.884   5.112   3.723 -0.1138 -0.0900  0.6429
   14SAPS   H5X 1821   3.775   5.128   3.711 -0.1141  0.0993  0.8897
   14SAPS   H5Y 1822   3.936   5.210   3.709  0.5689 -0.5838 -0.4097
   14SAPS   C36 1823   3.918   5.051   3.865 -0.5947  0.1945  0.0160
   14SAPS   H6X 1824   4.021   5.011   3.854 -0.6763  0.5356 -2.6081
   14SAPS   H6Y 1825   3.849   4.966   3.875  0.1207 -0.3875  0.0952
   14SAPS   C37 1826   3.907   5.145   3.982 -0.2296  0.4572 -0.2907
   14SAPS   H7X 1827   3.820   5.214   3.978 -0.2766  0.3434 -1.5057
   14SAPS   H7Y 1828   3.995   5.212   3.983 -0.8691  1.4632  3.4744
   14SAPS   C38 1829   3.883   5.060   4.106  0.1788  0.5330 -0.4839
   14SAPS   H8X 1830   3.947   4.969   4.103  1.7349  1.5737 -0.4923
   14SAPS   H8Y 1831   3.779   5.022   4.096  0.2928  0.0731 -0.0124
   14SAPS   C39 1832   3.899   5.127   4.245 -0.2624  0.6207  0.0430
   14SAPS   H9X 1833   3.822   5.207   4.242 -1.8791 -0.8722 -0.8527
   14SAPS   H9Y 1834   4.003   5.164   4.255 -0.2241  0.4082  0.4497
   14SAPS  C310 1835   3.873   5.037   4.363  0.1413  0.2648 -0.3150
   14SAPS  H10X 1836   3.925   4.941   4.341 -0.3879 -0.0352 -0.2704
   14SAPS  H10Y 1837   3.765   5.013   4.375 -0.0950  1.0862 -0.7365
   14SAPS  C311 1838   3.936   5.096   4.486  0.3582 -0.5671 -0.1906
   14SAPS  H11X 1839   4.046   5.105   4.477  0.1475  1.8127 -0.8347
   14SAPS  H11Y 1840   3.915   5.032   4.575 -0.6812  1.0270  0.7699
   14SAPS  C312 1841   3.884   5.238   4.521  0.0324 -0.5120  0.1532
   14SAPS  H12X 1842   3.780   5.233   4.558  0.8535 -1.9913  2.4650
   14SAPS  H12Y 1843   3.881   5.297   4.427 -2.0773 -0.6536  0.0846
   14SAPS  C313 1844   3.960   5.314   4.636  0.1852 -0.0364  0.7326
   14SAPS  H13X 1845   3.904   5.407   4.660  0.3862 -0.1520  1.6819
   14SAPS  H13Y 1846   4.054   5.360   4.598  0.2152 -0.4740  0.2667
   14SAPS  C314 1847   3.981   5.236   4.763 -0.2579  1.1052  0.3120
   14SAPS  H14X 1848   4.051   5.150   4.765 -0.3263  1.0027  3.0009
   14SAPS  H14Y 1849   3.886   5.191   4.799  0.4599 -1.1037 -0.3684
   14SAPS  C315 1850   4.025   5.324   4.881 -0.2468 -0.0660 -0.5476
   14SAPS  H15X 1851   3.993   5.282   4.978 -0.9803  1.8061  0.0738
   14SAPS  H15Y 1852   3.978   5.424   4.874  1.1172  0.6283 -0.2713
   14SAPS  C316 1853   4.177   5.336   4.899 -0.1467  0.0477 -0.0054
   14SAPS  H16X 1854   4.218   5.337   4.795 -0.1147  2.4158 -0.0330
   14SAPS  H16Y 1855   4.221   5.239   4.932  0.4258  1.1174  2.5723
   14SAPS  C317 1856   4.228   5.449   4.982  0.1536 -0.6878  1.2113
   14SAPS  H17X 1857   4.207   5.539   4.921  1.6952 -0.4265  1.0067
   14SAPS  H17Y 1858   4.339   5.446   4.990  0.0396 -2.9039  3.2553
   14SAPS  C318 1859   4.160   5.460   5.120 -0.2912 -0.3531 -0.2935
   14SAPS  H18X 1860   4.205   5.387   5.190  1.7147 -1.7041 -2.7992
   14SAPS  H18Y 1861   4.050   5.447   5.113 -0.0847 -4.4986  1.6151
   14SAPS  H18Z 1862   4.178   5.560   5.166 -1.4253 -0.3034  0.0718
   15SAPS     N 1863   4.071   6.144   2.517 -0.4987 -0.5361 -0.1934
   15SAPS   HN1 1864   3.995   6.215   2.513  2.0572  2.3648 -1.8753
   15SAPS   HN2 1865   4.100   6.146   2.617  3.3925  1.4996 -1.1388
   15SAPS   HN3 1866   4.153   6.192   2.474 -0.7524  1.3330  1.2519
   15SAPS   C12 1867   4.052   6.023   2.450 -0.3191 -0.3671  0.5924
   15SAPS  H12A 1868   3.965   5.970   2.485  0.2744 -3.6853 -2.3559
   15SAPS   C13 1869   4.025   6.043   2.302  0.1932 -0.0486 -0.5272
   15SAPS  O13A 1870   4.031   6.159   2.256 -0.1728  0.3544  0.1560
   15SAPS  O13B 1871   3.982   5.952   2.225  0.1272 -0.2876 -0.2494
   15SAPS   C11 1872   4.173   5.927   2.463 -0.6166 -0.4846  0.6811
   15SAPS  H11A 1873   4.265   5.971   2.419  0.6733 -0.1045  3.5642
   15SAPS  H11B 1874   4.144   5.839   2.401  0.9952 -0.9887  0.6045
   15SAPS     P 1875   4.319   5.784   2.618 -0.0388  0.0151 -0.3240
   15SAPS   O13 1876   4.347   5.717   2.489 -0.3566  0.2619 -1.1621
   15SAPS   O14 1877   4.434   5.835   2.693 -0.5508 -0.0345  0.2887
   15SAPS   O12 1878   4.205   5.892   2.593 -0.2667  0.1230  0.1264
   15SAPS   O11 1879   4.248   5.670   2.701 -0.3115 -0.1458  0.4124
   15SAPS    C1 1880   4.111   5.668   2.720 -0.2465  0.2485  0.1569
   15SAPS    HA 1881   4.070   5.755   2.775  0.8450  0.0599  1.3176
   15SAPS    HB 1882   4.056   5.655   2.624  2.0036 -0.6085 -1.0980
   15SAPS    C2 1883   4.074   5.550   2.813  0.7464 -0.6161  0.3443
   15SAPS    HS 1884   3.997   5.584   2.886  1.5858 -0.9557  1.4197
   15SAPS   O21 1885   4.186   5.513   2.886  0.2813  0.4272  0.3370
   15SAPS   C21 1886   4.216   5.586   2.996  0.2489 -1.1958  0.0366
   15SAPS   O22 1887   4.144   5.676   3.037  0.3398  0.8626  0.0691
   15SAPS   C22 1888   4.357   5.571   3.042 -0.0153  0.6194  0.3079
   15SAPS   H2R 1889   4.348   5.484   3.111 -0.8681  0.3477 -0.1274
   15SAPS   H2S 1890   4.413   5.541   2.951  0.3535 -2.2258  1.3510
   15SAPS    C3 1891   4.027   5.429   2.733 -0.0692  0.0375  0.6506
   15SAPS    HX 1892   4.042   5.333   2.787 -1.8358 -1.6703 -1.6799
   15SAPS    HY 1893   4.092   5.423   2.643  2.7948  0.0949  2.5824
   15SAPS   O31 1894   3.897   5.445   2.679 -0.5669  0.0899 -0.5654
   15SAPS   C31 1895   3.792   5.446   2.760  0.5692  0.2936  0.1836
   15SAPS   O32 1896   3.790   5.430   2.881  0.1536 -0.2945  0.1243
   15SAPS   C32 1897   3.671   5.474   2.679  0.2444 -0.2546 -0.5135
   15SAPS   H2X 1898   3.682   5.489   2.570 -2.1120  3.9277 -0.4020
   15SAPS   H2Y 1899   3.619   5.565   2.718  1.6805  0.2113  0.3798
   15SAPS   C23 1900   4.424   5.691   3.107 -0.6255 -0.1452 -0.6616
   15SAPS   H3R 1901   4.410   5.795   3.071  0.8170 -0.0032 -0.8654
   15SAPS   H3S 1902   4.533   5.682   3.085 -0.8632 -1.9247 -1.2430
   15SAPS   C24 1903   4.384   5.685   3.254  0.0898 -0.3498 -0.5085
   15SAPS   H4R 1904   4.442   5.602   3.301  0.5632 -0.3305 -1.0589
   15SAPS   H4S 1905   4.277   5.655   3.255  0.4119 -1.5428  0.1660
   15SAPS   C25 1906   4.398   5.821   3.329  0.5729  1.0206  0.3328
   15SAPS   H5R 1907   4.320   5.895   3.306 -1.4576 -0.9310  0.5839
   15SAPS   C26 1908   4.500   5.863   3.407  0.1008  0.6449  0.0591
   15SAPS   H6R 1909   4.484   5.966   3.442 -1.6356  0.3503  0.1976
   15SAPS   C27 1910   4.631   5.798   3.447  0.6294 -0.5672  0.1343
   15SAPS   H7R 1911   4.673   5.719   3.381 -0.8446 -0.1957 -1.3217
   15SAPS   H7S 1912   4.597   5.743   3.538  0.2185  1.4055  1.2350
   15SAPS   C28 1913   4.734   5.905   3.482 -0.3340  0.0426  0.4747
   15SAPS   H8R 1914   4.770   5.963   3.396 -0.9357 -1.2893 -0.7184
   15SAPS   C29 1915   4.787   5.929   3.605 -0.4771  0.4562 -0.1753
   15SAPS   H9R 1916   4.862   6.008   3.618  0.1573 -0.2634  0.6703
   15SAPS  C210 1917   4.766   5.851   3.730  0.1656 -0.0615 -0.4900
   15SAPS  H10R 1918   4.862   5.806   3.765 -0.7325 -0.9932  0.8568
   15SAPS  H10S 1919   4.701   5.762   3.718 -0.8763  0.6113  0.1007
   15SAPS  C211 1920   4.719   5.938   3.840  0.1682 -0.7871  0.1355
   15SAPS  H11R 1921   4.697   6.043   3.813 -1.3379 -1.0094  0.3587
   15SAPS  C212 1922   4.705   5.897   3.970  1.0504  0.4592  0.0358
   15SAPS  H12R 1923   4.660   5.966   4.044  0.3826 -2.3229  2.4452
   15SAPS  C213 1924   4.737   5.765   4.026 -0.2369  0.3529  0.5576
   15SAPS  H13R 1925   4.759   5.691   3.946 -1.2950  0.5599  0.0567
   15SAPS  H13S 1926   4.648   5.722   4.077  0.3653 -2.9105 -0.8913
   15SAPS  C214 1927   4.863   5.778   4.115 -0.4523 -0.0635  0.3333
   15SAPS  H14R 1928   4.941   5.842   4.072 -0.8199  0.1223 -0.0623
   15SAPS  C215 1929   4.887   5.710   4.227 -0.2336 -0.4771  0.2978
   15SAPS  H15R 1930   4.969   5.741   4.293 -0.6192 -0.3362  0.7157
   15SAPS  C216 1931   4.796   5.608   4.286  0.7272 -0.3716  0.5957
   15SAPS  H16R 1932   4.845   5.509   4.291 -3.4162 -2.6735  0.5602
   15SAPS  H16S 1933   4.704   5.579   4.230  1.6157  0.6606 -1.4876
   15SAPS  C217 1934   4.769   5.655   4.430  0.4186  0.9932 -0.3015
   15SAPS  H17R 1935   4.735   5.760   4.436  1.3657  1.2644  0.5768
   15SAPS  H17S 1936   4.861   5.641   4.492 -0.2577 -1.1674  0.3070
   15SAPS  C218 1937   4.659   5.567   4.489  0.1088 -0.2110 -0.8540
   15SAPS  H18R 1938   4.717   5.474   4.507 -1.9957 -0.9438  3.5617
   15SAPS  H18S 1939   4.580   5.554   4.413  0.1752  0.9686 -1.1435
   15SAPS  C219 1940   4.607   5.605   4.622  0.1405 -0.0797  0.1667
   15SAPS  H19R 1941   4.560   5.705   4.616 -0.6537 -0.5107 -1.3727
   15SAPS  H19S 1942   4.693   5.610   4.692  0.9463  0.5941 -0.8471
   15SAPS  C220 1943   4.500   5.509   4.675  0.6493 -0.0660 -0.3296
   15SAPS  H20R 1944   4.538   5.406   4.692 -0.7559 -0.6364 -0.4939
   15SAPS  H20S 1945   4.424   5.497   4.594 -0.6942  1.9957  0.5617
   15SAPS  H20T 1946   4.449   5.530   4.771 -1.8294 -1.8140 -1.1410
   15SAPS   C33 1947   3.570   5.359   2.666 -0.1248  0.1709 -0.2637
   15SAPS   H3X 1948   3.632   5.273   2.632  2.3014  1.4700  0.6678
   15SAPS   H3Y 1949   3.488   5.380   2.594 -1.1305  0.9184  1.0706
   15SAPS   C34 1950   3.490   5.318   2.792 -0.7075 -0.1819  0.1095
   15SAPS   H4X 1951   3.561   5.337   2.876 -0.5374 -0.0573 -0.0643
   15SAPS   H4Y 1952   3.465   5.211   2.780 -0.6397 -0.0717 -1.1247
   15SAPS   C35 1953   3.368   5.408   2.824  0.4133  0.3130 -0.0049
   15SAPS   H5X 1954   3.291   5.392   2.745 -1.9583 -3.4679  2.7795
   15SAPS   H5Y 1955   3.401   5.513   2.811  1.4382  0.0469  0.3954
   15SAPS   C36 1956   3.296   5.383   2.953  0.0537 -0.1601 -0.2447
   15SAPS   H6X 1957   3.281   5.273   2.947  0.0457 -0.2427  1.1312
   15SAPS   H6Y 1958   3.192   5.424   2.951 -0.5531 -1.5227  1.5862
   15SAPS   C37 1959   3.377   5.415   3.081  0.1933 -0.1104 -0.1980
   15SAPS   H7X 1960   3.391   5.525   3.091  2.7941 -0.4109 -0.0331
   15SAPS   H7Y 1961   3.476   5.370   3.063  0.3719 -0.6555  1.8828
   15SAPS   C38 1962   3.323   5.348   3.207 -0.6175 -0.6705  0.7172
   15SAPS   H8X 1963   3.303   5.242   3.183 -0.1848 -0.2711 -1.7173
   15SAPS   H8Y 1964   3.230   5.403   3.231 -0.0887  0.8461 -0.5047
   15SAPS   C39 1965   3.420   5.365   3.320 -0.1647 -0.3196  0.1838
   15SAPS   H9X 1966   3.463   5.467   3.323  0.1677 -0.4086 -1.0919
   15SAPS   H9Y 1967   3.510   5.301   3.315  1.1563  1.5238 -0.4274
   15SAPS  C310 1968   3.362   5.329   3.451  1.2050 -0.5277 -0.2140
   15SAPS  H10X 1969   3.325   5.225   3.447 -0.4497 -0.0082  0.5829
   15SAPS  H10Y 1970   3.269   5.389   3.462  1.2577 -0.5666  0.5112
   15SAPS  C311 1971   3.461   5.319   3.568  0.1111  0.0471 -0.8343
   15SAPS  H11X 1972   3.487   5.423   3.596 -1.6650  0.3142 -0.0733
   15SAPS  H11Y 1973   3.551   5.271   3.523  0.5048 -0.1452  0.1268
   15SAPS  C312 1974   3.400   5.240   3.679  0.7559 -0.0297  0.2914
   15SAPS  H12X 1975   3.391   5.132   3.656 -0.3149  0.1370 -0.1300
   15SAPS  H12Y 1976   3.300   5.280   3.703  0.5114  0.9596 -2.0982
   15SAPS  C313 1977   3.473   5.271   3.810  0.0502 -0.7154  0.1475
   15SAPS  H13X 1978   3.466   5.382   3.817 -1.0972 -0.7012 -0.9724
   15SAPS  H13Y 1979   3.578   5.238   3.794  0.1481  0.9293 -3.4319
   15SAPS  C314 1980   3.405   5.197   3.928 -0.1073 -0.3016 -0.7330
   15SAPS  H14X 1981   3.431   5.089   3.924  1.5623  0.0866 -1.3453
   15SAPS  H14Y 1982   3.294   5.205   3.927 -0.0006  1.9798 -0.0292
   15SAPS  C315 1983   3.463   5.247   4.052  0.1399 -0.2089 -0.5061
   15SAPS  H15X 1984   3.427   5.352   4.062 -0.7580 -0.5021 -0.5987
   15SAPS  H15Y 1985   3.574   5.243   4.061  0.0990 -0.3399 -0.0384
   15SAPS  C316 1986   3.417   5.169   4.184 -0.7162 -0.3639  0.4460
   15SAPS  H16X 1987   3.457   5.066   4.179 -1.3153 -0.5776  0.0690
   15SAPS  H16Y 1988   3.307   5.155   4.178 -0.6463 -1.8551  2.1484
   15SAPS  C317 1989   3.472   5.238   4.307  0.5927 -0.0856 -0.2637
   15SAPS  H17X 1990   3.426   5.339   4.312  0.9019  0.0574 -0.2703
   15SAPS  H17Y 1991   3.579   5.259   4.287  0.0243  2.8427 -0.7398
   15SAPS  C318 1992   3.457   5.174   4.446  0.1097 -0.5931  0.1410
   15SAPS  H18X 1993   3.517   5.081   4.450 -0.9221 -1.3603 -1.2978
   15SAPS  H18Y 1994   3.354   5.145   4.477  0.2194 -0.7543  0.3606
   15SAPS  H18Z 1995   3.486   5.245   4.527 -0.1805 -1.6313  1.1843
   16SAPS     N 1996   6.012   6.602   2.605 -0.7337  0.9450 -0.0902
   16SAPS   HN1 1997   5.956   6.560   2.682  0.0209  0.7704  0.3765
   16SAPS   HN2 1998   5.973   6.564   2.516 -1.7355 -1.4353  1.2448
   16SAPS   HN3 1999   6.111   6.572   2.612 -1.4632 -2.0044 -0.9910
   16SAPS   C12 2000   6.007   6.749   2.598 -0.1277 -0.2335 -0.0090
   16SAPS  H12A 2001   6.038   6.798   2.690  1.0395 -0.8914 -0.0277
   16SAPS   C13 2002   6.095   6.808   2.480  0.8445 -0.6138  0.1458
   16SAPS  O13A 2003   6.160   6.731   2.406 -0.3490  0.4444  0.3916
   16SAPS  O13B 2004   6.122   6.937   2.484  0.4856  0.1369 -0.2119
   16SAPS   C11 2005   5.856   6.793   2.575  0.1754  0.4248 -0.3679
   16SAPS  H11A 2006   5.827   6.760   2.473  0.9414 -2.7762  0.3539
   16SAPS  H11B 2007   5.844   6.904   2.577  2.0480  0.6514  0.1757
   16SAPS     P 2008   5.646   6.792   2.734  0.0817 -0.2062  0.4528
   16SAPS   O13 2009   5.678   6.915   2.806  0.2904  0.2457  0.3041
   16SAPS   O14 2010   5.555   6.810   2.617  0.2442  0.4077 -0.1042
   16SAPS   O12 2011   5.781   6.732   2.672 -0.3949 -0.1073 -0.2726
   16SAPS   O11 2012   5.590   6.682   2.829 -0.1352 -0.3181  0.1103
   16SAPS    C1 2013   5.686   6.593   2.887 -0.8873  0.8244 -0.4900
   16SAPS    HA 2014   5.732   6.526   2.811  2.4197  0.4008  1.6997
   16SAPS    HB 2015   5.776   6.645   2.925 -1.2316  1.2871 -0.2931
   16SAPS    C2 2016   5.618   6.510   3.001 -0.4281  0.2444  0.5407
   16SAPS    HS 2017   5.541   6.451   2.947  1.7037 -2.4340  0.2085
   16SAPS   O21 2018   5.557   6.599   3.102 -0.3893  0.1208  0.7844
   16SAPS   C21 2019   5.443   6.556   3.159 -0.4951 -0.8116  0.6694
   16SAPS   O22 2020   5.375   6.458   3.124 -0.4714  0.0146 -0.4907
   16SAPS   C22 2021   5.414   6.652   3.275 -0.2099 -0.3405 -0.3745
   16SAPS   H2R 2022   5.501   6.655   3.344  0.3784  1.2972 -1.1201
   16SAPS   H2S 2023   5.385   6.755   3.244  0.6683 -0.1468 -0.5750
   16SAPS    C3 2024   5.719   6.412   3.071 -0.5273  0.2665  0.3904
   16SAPS    HX 2025   5.819   6.460   3.084  0.5171 -0.8898 -2.4845
   16SAPS    HY 2026   5.755   6.339   2.995 -0.1917  0.8081  0.0158
   16SAPS   O31 2027   5.661   6.343   3.179 -0.2223  0.2896 -0.2348
   16SAPS   C31 2028   5.691   6.396   3.301 -0.5883 -0.1571 -0.8312
   16SAPS   O32 2029   5.768   6.490   3.312 -0.2390 -0.1104 -0.5591
   16SAPS   C32 2030   5.604   6.332   3.403 -0.0309  0.1373 -0.0044
   16SAPS   H2X 2031   5.633   6.226   3.415 -1.2739 -0.3839 -1.2576
   16SAPS   H2Y 2032   5.496   6.327   3.375  0.0331 -2.0505  0.0015
   16SAPS   C23 2033   5.293   6.604   3.361  0.5093 -0.0470  0.0999
   16SAPS   H3R 2034   5.314   6.516   3.426  0.4084  0.0026  0.2007
   16SAPS   H3S 2035   5.208   6.583   3.293  1.6788 -0.7684 -1.1868
   16SAPS   C24 2036   5.237   6.718   3.445 -0.3875 -0.3566 -0.1934
   16SAPS   H4R 2037   5.142   6.682   3.492  0.3434  0.8788  2.4409
   16SAPS   H4S 2038   5.201   6.803   3.384  0.3950  0.2714  0.2027
   16SAPS   C25 2039   5.335   6.770   3.545 -0.9050 -0.8251 -0.4947
   16SAPS   H5R 2040   5.418   6.823   3.496 -1.0140  0.2990  0.5087
   16SAPS   C26 2041   5.335   6.760   3.682  0.3094  0.5456  0.1710
   16SAPS   H6R 2042   5.428   6.793   3.731 -0.4275 -0.0297  2.0463
   16SAPS   C27 2043   5.231   6.690   3.775  0.6395 -0.7227 -0.0221
   16SAPS   H7R 2044   5.283   6.679   3.872  0.7489  1.0107  0.1330
   16SAPS   H7S 2045   5.208   6.593   3.725 -0.7312 -0.8594  0.8275
   16SAPS   C28 2046   5.105   6.769   3.806  0.4365 -0.3616  0.2062
   16SAPS   H8R 2047   5.081   6.843   3.729  2.7841 -0.5420 -0.8068
   16SAPS   C29 2048   5.040   6.765   3.918 -0.9164 -0.3032  0.0242
   16SAPS   H9R 2049   4.956   6.833   3.938 -0.3544  1.0954 -2.0503
   16SAPS  C210 2050   5.078   6.680   4.041 -0.2612 -0.2670 -0.1437
   16SAPS  H10R 2051   5.144   6.745   4.104 -1.2535  0.3035  0.3263
   16SAPS  H10S 2052   5.142   6.594   4.012  1.2013  1.2701 -1.7777
   16SAPS  C211 2053   4.953   6.634   4.125 -0.5467 -0.9975 -0.2251
   16SAPS  H11R 2054   4.856   6.651   4.078  0.1811  3.2759 -0.6707
   16SAPS  C212 2055   4.952   6.608   4.253 -0.1842 -0.3706 -0.2591
   16SAPS  H12R 2056   4.859   6.581   4.305 -0.8775 -0.1235 -1.3510
   16SAPS  C213 2057   5.078   6.611   4.341  0.3887  0.2847  0.4648
   16SAPS  H13R 2058   5.169   6.610   4.277 -1.5425 -1.2996 -2.4717
   16SAPS  H13S 2059   5.071   6.513   4.392 -0.7526  1.2332  2.2046
   16SAPS  C214 2060   5.075   6.719   4.445 -0.0581 -0.1459  0.2535
   16SAPS  H14R 2061   5.147   6.798   4.418 -0.8619 -0.2502 -2.4827
   16SAPS  C215 2062   5.001   6.727   4.556 -0.6421  0.6601 -0.4425
   16SAPS  H15R 2063   5.008   6.812   4.626 -1.1000  0.6913 -0.4326
   16SAPS  C216 2064   4.895   6.626   4.598  0.8950 -0.3368 -0.2840
   16SAPS  H16R 2065   4.823   6.612   4.514  1.3268  2.9878 -1.3625
   16SAPS  H16S 2066   4.830   6.678   4.671  2.6533  1.2717  0.1860
   16SAPS  C217 2067   4.936   6.497   4.651 -0.3571  0.2041 -0.0251
   16SAPS  H17R 2068   5.015   6.450   4.590  0.7496  3.0233 -0.9043
   16SAPS  H17S 2069   4.849   6.427   4.648  0.5871 -0.9463 -1.4709
   16SAPS  C218 2070   4.977   6.507   4.800  0.3980 -0.0597  0.0995
   16SAPS  H18R 2071   4.907   6.574   4.854  0.1932  0.3354 -0.6490
   16SAPS  H18S 2072   5.081   6.547   4.798  1.5181 -2.7740 -0.4340
   16SAPS  C219 2073   4.979   6.373   4.874 -0.0085 -0.9588  0.0029
   16SAPS  H19R 2074   4.883   6.319   4.863  0.2810 -1.2632 -1.1439
   16SAPS  H19S 2075   4.995   6.380   4.984 -0.1849 -0.7099  0.0125
   16SAPS  C220 2076   5.097   6.282   4.829  0.0628 -0.6028 -0.1519
   16SAPS  H20R 2077   5.117   6.184   4.876  3.3923  0.9008  1.8752
   16SAPS  H20S 2078   5.189   6.342   4.841 -1.2997  1.7481 -0.8503
   16SAPS  H20T 2079   5.082   6.279   4.719 -3.6313  1.6370  0.0991
   16SAPS   C33 2080   5.622   6.415   3.526  0.1519 -0.1585 -0.3484
   16SAPS   H3X 2081   5.565   6.509   3.510 -0.9703 -1.1929 -2.8991
   16SAPS   H3Y 2082   5.727   6.444   3.551 -0.3172  1.2455  0.1364
   16SAPS   C34 2083   5.561   6.345   3.645  0.3155  0.9269 -0.6012
   16SAPS   H4X 2084   5.553   6.423   3.724 -0.4580  1.3329 -1.0759
   16SAPS   H4Y 2085   5.628   6.260   3.673  0.5369 -0.0186 -3.6456
   16SAPS   C35 2086   5.421   6.281   3.636 -0.1176 -0.0757 -0.2508
   16SAPS   H5X 2087   5.425   6.194   3.568  0.5273 -0.8873  0.7871
   16SAPS   H5Y 2088   5.350   6.362   3.608  1.2644  1.2958  0.0395
   16SAPS   C36 2089   5.364   6.226   3.769  0.8961 -0.1602  0.5012
   16SAPS   H6X 2090   5.432   6.150   3.815  0.4511 -1.5169 -0.9833
   16SAPS   H6Y 2091   5.272   6.168   3.747  0.0996  1.0394  0.5772
   16SAPS   C37 2092   5.336   6.334   3.876 -0.6236  0.0056 -0.1891
   16SAPS   H7X 2093   5.228   6.362   3.869 -0.2799  1.3437 -0.3113
   16SAPS   H7Y 2094   5.393   6.427   3.852 -1.8103  0.1739 -2.6732
   16SAPS   C38 2095   5.364   6.292   4.023 -0.4853  0.4579  0.8304
   16SAPS   H8X 2096   5.334   6.187   4.044 -0.0529  0.0447 -0.5126
   16SAPS   H8Y 2097   5.301   6.363   4.080 -0.7409  0.3870  0.6351
   16SAPS   C39 2098   5.508   6.317   4.065 -0.3166 -0.3384 -0.4445
   16SAPS   H9X 2099   5.525   6.424   4.042 -3.0158  0.4361  0.7627
   16SAPS   H9Y 2100   5.576   6.252   4.005  0.8764  1.9117 -1.6892
   16SAPS  C310 2101   5.527   6.295   4.213 -0.0007 -0.2715 -0.3695
   16SAPS  H10X 2102   5.631   6.316   4.245  0.4724 -0.1090 -1.9610
   16SAPS  H10Y 2103   5.518   6.188   4.242 -1.1719  0.1506  0.9729
   16SAPS  C311 2104   5.441   6.380   4.300 -0.2135 -0.2489  0.3331
   16SAPS  H11X 2105   5.337   6.339   4.296  0.1910 -1.3213  0.4198
   16SAPS  H11Y 2106   5.438   6.484   4.262  2.6041 -1.1508 -2.8558
   16SAPS  C312 2107   5.484   6.389   4.446  0.4184  0.0037  0.4326
   16SAPS  H12X 2108   5.428   6.471   4.496 -0.5723 -0.7517  0.5954
   16SAPS  H12Y 2109   5.595   6.401   4.446  0.8351 -2.9103 -1.0858
   16SAPS  C313 2110   5.451   6.260   4.534  0.0448 -0.5648  0.4140
   16SAPS  H13X 2111   5.496   6.170   4.487 -1.9272 -1.5647  0.3233
   16SAPS  H13Y 2112   5.340   6.253   4.534 -0.0511  0.7205 -0.1809
   16SAPS  C314 2113   5.512   6.258   4.678  0.4120  0.0889  0.6347
   16SAPS  H14X 2114   5.615   6.218   4.672  0.0739 -0.7861  0.6085
   16SAPS  H14Y 2115   5.453   6.183   4.735 -1.1413 -0.0456 -1.1012
   16SAPS  C315 2116   5.505   6.387   4.762 -0.3096 -0.2310  0.5160
   16SAPS  H15X 2117   5.408   6.439   4.749 -0.3946 -0.9749 -2.4370
   16SAPS  H15Y 2118   5.583   6.458   4.726 -1.6962  0.7517 -0.6422
   16SAPS  C316 2119   5.535   6.359   4.903 -0.6390 -0.8953  0.1054
   16SAPS  H16X 2120   5.623   6.293   4.920 -0.3226 -0.4328  0.3048
   16SAPS  H16Y 2121   5.455   6.294   4.944 -2.4418  1.3427  0.3032
   16SAPS  C317 2122   5.533   6.481   4.994  0.1958  0.3738  1.0988
   16SAPS  H17X 2123   5.491   6.448   5.091 -2.1768 -0.5682 -0.1454
   16SAPS  H17Y 2124   5.460   6.549   4.946 -0.2311 -0.5856  0.3306
   16SAPS  C318 2125   5.678   6.545   5.001  0.0764  0.3682  0.2419
   16SAPS  H18X 2126   5.715   6.591   4.907 -1.5194  1.2773  0.0344
   16SAPS  H18Y 2127   5.742   6.459   5.031 -0.6756 -0.1924  0.2536
   16SAPS  H18Z 2128   5.672   6.625   5.078 -0.3956 -0.0230  0.6134
   17SAPS     N 2129   1.150   5.786   2.948  0.3739 -0.4216 -0.0881
   17SAPS   HN1 2130   1.077   5.789   3.022 -0.7301  1.8298 -1.1491
   17SAPS   HN2 2131   1.179   5.880   2.914 -2.3103  0.5059 -0.0951
   17SAPS   HN3 2132   1.113   5.730   2.868  0.9786 -1.2172  0.1766
   17SAPS   C12 2133   1.273   5.725   3.009  0.7586  0.0127 -0.4710
   17SAPS  H12A 2134   1.251   5.643   3.076  1.6363 -0.8751 -1.2448
   17SAPS   C13 2135   1.370   5.685   2.901 -0.0479 -0.0849 -0.3969
   17SAPS  O13A 2136   1.352   5.691   2.781  0.5783  0.0635  0.3598
   17SAPS  O13B 2137   1.473   5.623   2.943  0.1636 -0.2000  0.9774
   17SAPS   C11 2138   1.345   5.833   3.102  1.2303 -0.0253  0.2785
   17SAPS  H11A 2139   1.437   5.780   3.133  2.1335  0.8320 -0.8291
   17SAPS  H11B 2140   1.279   5.842   3.191  1.2623 -3.0818  0.7049
   17SAPS     P 2141   1.504   6.021   3.018 -0.3319  0.1139  0.4430
   17SAPS   O13 2142   1.552   5.991   2.883 -0.0958  0.1890  0.0323
   17SAPS   O14 2143   1.486   6.162   3.053 -0.6025  0.2616  0.1737
   17SAPS   O12 2144   1.359   5.959   3.044 -0.1039 -0.3153  0.5676
   17SAPS   O11 2145   1.595   5.943   3.120 -0.5855 -0.1294  0.3247
   17SAPS    C1 2146   1.587   5.978   3.258 -0.6105  0.6003 -0.1663
   17SAPS    HA 2147   1.496   6.030   3.296  0.2545  1.7462  0.3903
   17SAPS    HB 2148   1.583   5.883   3.315  1.1979  0.1640 -0.7077
   17SAPS    C2 2149   1.711   6.068   3.305 -0.0631  0.1783  0.2209
   17SAPS    HS 2150   1.710   6.157   3.238 -2.5341  0.6006  0.7244
   17SAPS   O21 2151   1.827   5.992   3.275 -0.3743 -0.3357 -0.3218
   17SAPS   C21 2152   1.939   6.061   3.260 -0.7731  0.1243  0.6468
   17SAPS   O22 2153   1.945   6.181   3.255  0.2752 -0.5417 -0.3602
   17SAPS   C22 2154   2.058   5.961   3.235 -0.0913 -0.6718  0.0847
   17SAPS   H2R 2155   2.052   5.872   3.301 -1.5259 -1.7487 -1.4166
   17SAPS   H2S 2156   2.040   5.933   3.129  1.0105 -4.2468  0.7104
   17SAPS    C3 2157   1.698   6.123   3.453 -0.0762  0.9299  0.2169
   17SAPS    HX 2158   1.599   6.170   3.469 -0.8193 -1.3651  3.4952
   17SAPS    HY 2159   1.781   6.196   3.466  1.3633 -0.5975 -0.0234
   17SAPS   O31 2160   1.707   6.007   3.539  0.0419  0.1821 -0.1286
   17SAPS   C31 2161   1.818   5.986   3.603 -0.8417 -0.7909 -0.4120
   17SAPS   O32 2162   1.919   6.051   3.603 -0.5025 -0.4702  0.0237
   17SAPS   C32 2163   1.802   5.865   3.696  0.1995 -0.6526  0.6941
   17SAPS   H2X 2164   1.822   5.775   3.634 -0.9299  1.5411 -3.2221
   17SAPS   H2Y 2165   1.693   5.855   3.716 -0.0855 -0.2922 -0.5680
   17SAPS   C23 2166   2.199   6.036   3.231  0.5020 -0.1325  0.3233
   17SAPS   H3R 2167   2.198   6.121   3.160 -1.7503 -0.4344 -0.1003
   17SAPS   H3S 2168   2.267   5.968   3.177  1.7927 -1.1070  2.9993
   17SAPS   C24 2169   2.242   6.079   3.372 -0.4009 -0.3871  0.4544
   17SAPS   H4R 2170   2.192   6.177   3.386 -0.9541 -0.7004  0.6856
   17SAPS   H4S 2171   2.346   6.115   3.353 -0.2289 -2.0943 -2.3506
   17SAPS   C25 2172   2.222   5.985   3.491  0.2205 -0.4717  0.3044
   17SAPS   H5R 2173   2.117   5.976   3.524 -0.2000 -1.9869 -1.3104
   17SAPS   C26 2174   2.324   5.920   3.550 -0.3135  0.0559  0.4957
   17SAPS   H6R 2175   2.302   5.853   3.634  2.0218  0.1611  1.2566
   17SAPS   C27 2176   2.474   5.916   3.520  0.4080  0.2950  0.5683
   17SAPS   H7R 2177   2.530   5.948   3.611  0.4938  0.8702  0.3152
   17SAPS   H7S 2178   2.509   5.980   3.436  1.5464 -0.8132  0.1703
   17SAPS   C28 2179   2.511   5.770   3.484 -0.6778 -0.8754  1.1777
   17SAPS   H8R 2180   2.484   5.734   3.384 -1.9639 -0.0007  1.1939
   17SAPS   C29 2181   2.569   5.674   3.561 -0.1425 -0.0429 -0.2633
   17SAPS   H9R 2182   2.607   5.582   3.514 -0.4005 -0.8119  0.9905
   17SAPS  C210 2183   2.587   5.672   3.713 -0.8526  0.3368  0.0481
   17SAPS  H10R 2184   2.623   5.774   3.743  2.1125  0.0249 -2.0004
   17SAPS  H10S 2185   2.673   5.607   3.740 -0.4908  0.0346 -1.7095
   17SAPS  C211 2186   2.479   5.617   3.799  0.0757 -0.2199  0.3852
   17SAPS  H11R 2187   2.439   5.517   3.774 -0.3804  0.0044  0.2088
   17SAPS  C212 2188   2.429   5.680   3.911  0.5385  1.3040 -0.3821
   17SAPS  H12R 2189   2.351   5.626   3.967  2.0260 -3.5800 -2.5043
   17SAPS  C213 2190   2.460   5.817   3.969  0.3990  0.1408 -0.5048
   17SAPS  H13R 2191   2.440   5.894   3.892  1.0890  0.9244  0.0874
   17SAPS  H13S 2192   2.565   5.829   4.001 -0.1182  0.7600  1.0132
   17SAPS  C214 2193   2.366   5.866   4.079  0.0249  0.3613  0.1501
   17SAPS  H14R 2194   2.315   5.957   4.043 -2.5043 -1.7246 -1.9452
   17SAPS  C215 2195   2.328   5.812   4.197 -0.3129  0.6457  0.6549
   17SAPS  H15R 2196   2.258   5.857   4.269  0.5222  1.2752  1.0739
   17SAPS  C216 2197   2.392   5.681   4.247 -0.5618 -0.0776 -0.3707
   17SAPS  H16R 2198   2.457   5.637   4.169 -0.2167  1.9697 -1.3191
   17SAPS  H16S 2199   2.315   5.617   4.294  0.3543 -0.9826 -0.0618
   17SAPS  C217 2200   2.496   5.705   4.364  0.0945 -0.4342  0.2413
   17SAPS  H17R 2201   2.554   5.792   4.326  0.1317 -1.2793 -1.7471
   17SAPS  H17S 2202   2.573   5.625   4.376 -0.3571 -0.9356 -0.1951
   17SAPS  C218 2203   2.431   5.745   4.495  0.0826 -0.2433 -0.2879
   17SAPS  H18R 2204   2.369   5.834   4.469  0.1901 -0.0224  0.2147
   17SAPS  H18S 2205   2.505   5.783   4.568 -0.0413  0.0388 -0.3100
   17SAPS  C219 2206   2.368   5.623   4.564  0.1698 -0.4659  0.6624
   17SAPS  H19R 2207   2.434   5.537   4.542  1.4558 -0.0288  2.6307
   17SAPS  H19S 2208   2.268   5.600   4.521  0.2624  1.7616 -0.9500
   17SAPS  C220 2209   2.355   5.637   4.716  0.4375 -0.3841  0.0255
   17SAPS  H20R 2210   2.290   5.723   4.743 -0.7653 -1.7582  1.7805
   17SAPS  H20S 2211   2.454   5.643   4.766  0.3823 -2.6604  0.5088
   17SAPS  H20T 2212   2.306   5.544   4.754 -0.1989 -1.5820 -3.3792
   17SAPS   C33 2213   1.876   5.879   3.830  0.3268 -0.0214  0.4077
   17SAPS   H3X 2214   1.870   5.981   3.874  0.0969  0.1319  0.0206
   17SAPS   H3Y 2215   1.985   5.859   3.823  0.3651  0.0898  0.6693
   17SAPS   C34 2216   1.825   5.787   3.936 -0.0392 -0.2285 -1.2232
   17SAPS   H4X 2217   1.863   5.684   3.922 -0.7956 -0.9068  1.2092
   17SAPS   H4Y 2218   1.715   5.773   3.944 -0.3269  2.2281  0.7111
   17SAPS   C35 2219   1.883   5.829   4.074 -0.3170  0.7298 -0.2836
   17SAPS   H5X 2220   1.835   5.928   4.092 -0.2635  1.0436 -1.7000
   17SAPS   H5Y 2221   1.993   5.831   4.060 -0.0687 -0.0068  1.3918
   17SAPS   C36 2222   1.853   5.714   4.167 -0.1599 -0.0675  0.4607
   17SAPS   H6X 2223   1.937   5.641   4.159 -0.5923 -0.4991 -0.2826
   17SAPS   H6Y 2224   1.763   5.664   4.127 -0.1350  1.0686 -1.1218
   17SAPS   C37 2225   1.847   5.740   4.310  0.3570 -0.7224  0.0594
   17SAPS   H7X 2226   1.750   5.787   4.337  0.6227 -0.4599  0.5759
   17SAPS   H7Y 2227   1.940   5.793   4.342  1.0036 -1.6608 -0.2374
   17SAPS   C38 2228   1.872   5.629   4.405  0.3605  0.2525 -0.6221
   17SAPS   H8X 2229   1.972   5.585   4.383  0.5827  1.5610 -2.4696
   17SAPS   H8Y 2230   1.793   5.551   4.410  0.2898  0.2456 -1.6882
   17SAPS   C39 2231   1.870   5.693   4.555 -0.2164 -0.5063  0.1625
   17SAPS   H9X 2232   1.770   5.717   4.597  0.1811  0.8277  0.3965
   17SAPS   H9Y 2233   1.936   5.783   4.564 -1.3929  0.5074 -0.9084
   17SAPS  C310 2234   1.932   5.592   4.649  0.3738 -0.0839 -0.3318
   17SAPS  H10X 2235   2.043   5.589   4.634  0.6655  0.5213  1.5139
   17SAPS  H10Y 2236   1.894   5.489   4.633  2.1092 -0.7762 -0.2008
   17SAPS  C311 2237   1.910   5.627   4.798 -0.4791  0.6442 -0.2526
   17SAPS  H11X 2238   1.979   5.556   4.849 -0.0597  0.8571 -0.5176
   17SAPS  H11Y 2239   1.802   5.610   4.819 -0.1272 -0.4097  0.8457
   17SAPS  C312 2240   1.935   5.773   4.842 -1.2171 -0.0363  0.0472
   17SAPS  H12X 2241   1.843   5.830   4.820 -1.7969 -0.7589  0.5394
   17SAPS  H12Y 2242   2.027   5.811   4.792 -3.2135  3.9682 -0.9729
   17SAPS  C313 2243   1.965   5.775   4.992 -0.4038 -0.9690  0.5293
   17SAPS  H13X 2244   2.053   5.711   5.015 -1.0159 -1.9005  0.3402
   17SAPS  H13Y 2245   1.877   5.730   5.042 -0.4651 -2.1656 -0.6019
   17SAPS  C314 2246   1.990   5.912   5.058  0.5221 -0.4937 -0.0773
   17SAPS  H14X 2247   1.889   5.957   5.051  0.7554 -0.2488 -3.6396
   17SAPS  H14Y 2248   2.070   5.973   5.011 -0.7268  0.1326 -1.4577
   17SAPS  C315 2249   2.018   5.894   5.208 -0.7144 -0.1066  0.1451
   17SAPS  H15X 2250   2.107   5.829   5.225 -1.1355 -0.1695  2.4682
   17SAPS  H15Y 2251   1.929   5.845   5.251 -0.5073 -1.7993 -1.2387
   17SAPS  C316 2252   2.034   6.031   5.278  0.2909 -0.1213 -0.2107
   17SAPS  H16X 2253   1.948   6.097   5.256 -0.6987 -1.7863 -1.5701
   17SAPS  H16Y 2254   2.109   6.087   5.218 -0.9711 -0.3915 -2.1183
   17SAPS  C317 2255   2.071   6.031   5.422  0.7552  1.0107 -0.7998
   17SAPS  H17X 2256   2.092   6.135   5.456 -1.5960  2.2238 -2.7187
   17SAPS  H17Y 2257   2.167   5.976   5.434  1.9342  3.0533 -0.4169
   17SAPS  C318 2258   1.943   5.986   5.505  0.1120  0.3233 -0.1806
   17SAPS  H18X 2259   1.978   5.989   5.611  0.4822  0.0214 -0.2890
   17SAPS  H18Y 2260   1.908   5.882   5.488  0.1738  0.3725 -0.5987
   17SAPS  H18Z 2261   1.856   6.054   5.495 -0.0342  0.4141  1.3385
   18SAPS     N 2262   5.721   3.256   2.561  0.0543 -0.2663 -0.3818
   18SAPS   HN1 2263   5.708   3.226   2.660  0.4326  0.7054 -0.0170
   18SAPS   HN2 2264   5.649   3.330   2.545  0.4549  0.7478  1.9877
   18SAPS   HN3 2265   5.715   3.175   2.497  0.9695 -0.3317 -0.4004
   18SAPS   C12 2266   5.854   3.321   2.559 -0.3992  0.2579  0.5661
   18SAPS  H12A 2267   5.930   3.244   2.548 -0.6471  0.2224 -1.1471
   18SAPS   C13 2268   5.885   3.426   2.449 -0.1262 -0.5239 -0.5578
   18SAPS  O13A 2269   5.793   3.475   2.385 -0.1021 -0.2629  0.3398
   18SAPS  O13B 2270   6.001   3.471   2.425 -0.2203  0.6204 -0.3729
   18SAPS   C11 2271   5.886   3.387   2.692 -0.1510  0.7952 -0.0425
   18SAPS  H11A 2272   5.827   3.481   2.703  0.3985  1.0687  0.6356
   18SAPS  H11B 2273   5.990   3.425   2.701  0.1121 -0.1157  0.8411
   18SAPS     P 2274   5.753   3.330   2.916 -0.4513 -0.2105  0.1276
   18SAPS   O13 2275   5.631   3.325   2.837  0.1347 -0.1283 -0.1189
   18SAPS   O14 2276   5.757   3.222   3.015 -0.3454  0.0653  0.2879
   18SAPS   O12 2277   5.869   3.310   2.805 -0.0205  0.1156 -0.5256
   18SAPS   O11 2278   5.786   3.467   2.979 -0.1895  0.0777 -0.5438
   18SAPS    C1 2279   5.914   3.524   3.006 -0.3755 -0.1735  0.0354
   18SAPS    HA 2280   5.986   3.512   2.923  1.0572  1.5396  0.9660
   18SAPS    HB 2281   5.907   3.635   3.016  2.5701  0.3208 -2.3193
   18SAPS    C2 2282   5.967   3.485   3.144  1.1215  0.7964 -0.5787
   18SAPS    HS 2283   5.971   3.375   3.129 -0.7934  0.9090 -2.3807
   18SAPS   O21 2284   5.872   3.524   3.246 -0.1259  0.3684  0.2355
   18SAPS   C21 2285   5.892   3.450   3.366  0.3206 -0.4625  0.2190
   18SAPS   O22 2286   5.966   3.360   3.380  0.4697  0.0607 -0.5558
   18SAPS   C22 2287   5.795   3.503   3.469  0.2647  0.1415 -0.8859
   18SAPS   H2R 2288   5.803   3.613   3.456  1.4425 -0.0165 -1.6354
   18SAPS   H2S 2289   5.697   3.463   3.436  0.2620  0.0801 -0.8018
   18SAPS    C3 2290   6.108   3.527   3.177  0.2155  0.1781 -0.3200
   18SAPS    HX 2291   6.172   3.483   3.098 -0.1920 -1.4380  0.2133
   18SAPS    HY 2292   6.138   3.492   3.278 -0.4252  1.1645  0.2373
   18SAPS   O31 2293   6.127   3.669   3.163  0.7888 -0.4863 -0.5642
   18SAPS   C31 2294   6.105   3.744   3.275  0.4894  0.1499 -0.1817
   18SAPS   O32 2295   6.074   3.708   3.386  0.1981  0.5142  0.2518
   18SAPS   C32 2296   6.114   3.893   3.239 -0.1162 -0.8400 -0.2779
   18SAPS   H2X 2297   6.044   3.896   3.153  0.9160 -0.5086 -1.1287
   18SAPS   H2Y 2298   6.216   3.904   3.197  0.5767 -2.8927  0.6825
   18SAPS   C23 2299   5.814   3.453   3.614 -0.2698  0.0606 -0.5253
   18SAPS   H3R 2300   5.830   3.343   3.610 -0.0615  0.1294 -2.1318
   18SAPS   H3S 2301   5.728   3.471   3.682 -0.0314  1.4799 -0.5622
   18SAPS   C24 2302   5.933   3.508   3.693  0.3920  0.3989  0.2142
   18SAPS   H4R 2303   6.026   3.460   3.655  0.3217  0.4464 -0.0216
   18SAPS   H4S 2304   5.917   3.467   3.794  0.1471 -1.7754 -0.6503
   18SAPS   C25 2305   5.949   3.664   3.700  1.0425  0.0071 -0.1071
   18SAPS   H5R 2306   5.999   3.697   3.607  0.3538 -0.0111 -0.4923
   18SAPS   C26 2307   5.951   3.740   3.809  0.1724 -0.1109  0.2149
   18SAPS   H6R 2308   5.961   3.849   3.802 -1.5266 -0.0262 -2.3968
   18SAPS   C27 2309   5.905   3.693   3.945 -0.3393 -0.2851 -0.3024
   18SAPS   H7R 2310   5.941   3.772   4.015  4.5713 -1.4863 -1.0882
   18SAPS   H7S 2311   5.950   3.593   3.963 -0.4137 -0.3736 -0.6192
   18SAPS   C28 2312   5.763   3.671   3.952  0.0768 -0.5810 -0.8231
   18SAPS   H8R 2313   5.721   3.631   3.858 -1.6627 -0.1006 -0.2872
   18SAPS   C29 2314   5.682   3.687   4.061 -0.3951  0.3527  0.5623
   18SAPS   H9R 2315   5.577   3.656   4.061 -0.1839 -0.4085  0.4136
   18SAPS  C210 2316   5.730   3.737   4.190  0.0768 -0.2861 -0.5299
   18SAPS  H10R 2317   5.654   3.796   4.246  0.2014  0.3377 -1.0008
   18SAPS  H10S 2318   5.800   3.821   4.172 -1.4492  1.4412  1.1277
   18SAPS  C211 2319   5.808   3.638   4.278  0.4704  0.6075 -0.1983
   18SAPS  H11R 2320   5.909   3.607   4.247 -0.0341 -1.0166 -0.3515
   18SAPS  C212 2321   5.775   3.603   4.404 -0.4902  1.2627  0.2495
   18SAPS  H12R 2322   5.833   3.522   4.451 -1.3764 -1.0901 -2.3582
   18SAPS  C213 2323   5.650   3.646   4.482 -0.3106  0.0018 -0.0161
   18SAPS  H13R 2324   5.591   3.552   4.493 -0.2850 -0.2699 -1.9572
   18SAPS  H13S 2325   5.588   3.713   4.418  1.9889 -0.1552 -2.5431
   18SAPS  C214 2326   5.682   3.698   4.620  0.4015 -0.0887  0.5262
   18SAPS  H14R 2327   5.769   3.765   4.615 -1.8070  2.8633 -1.6072
   18SAPS  C215 2328   5.624   3.665   4.736 -0.0191 -0.4087 -0.0432
   18SAPS  H15R 2329   5.672   3.707   4.825 -1.6062 -1.5955  1.4340
   18SAPS  C216 2330   5.513   3.572   4.778  0.0435 -0.0119  0.2120
   18SAPS  H16R 2331   5.528   3.568   4.889 -0.2913  0.7035  0.2921
   18SAPS  H16S 2332   5.527   3.470   4.737 -0.9899 -0.4368  0.8744
   18SAPS  C217 2333   5.369   3.620   4.756  0.8634 -0.2145  0.5500
   18SAPS  H17R 2334   5.339   3.643   4.652  0.0502 -0.6730  0.6694
   18SAPS  H17S 2335   5.373   3.720   4.805  2.4228 -0.8678  1.8578
   18SAPS  C218 2336   5.267   3.519   4.815 -0.8456 -0.1049  0.0694
   18SAPS  H18R 2337   5.318   3.474   4.903 -0.2505  0.9798  0.2998
   18SAPS  H18S 2338   5.246   3.442   4.737 -0.1188 -2.8249  2.3676
   18SAPS  C219 2339   5.143   3.577   4.875 -0.0090  0.9947  0.0118
   18SAPS  H19R 2340   5.166   3.643   4.961 -1.4105 -1.8471  2.7671
   18SAPS  H19S 2341   5.084   3.493   4.915 -1.6008  0.7433 -2.6218
   18SAPS  C220 2342   5.048   3.653   4.778 -0.5237  0.1437 -0.2233
   18SAPS  H20R 2343   4.955   3.683   4.833  0.0571  2.7403 -0.5242
   18SAPS  H20S 2344   5.026   3.589   4.690  2.8365 -1.8447  0.2282
   18SAPS  H20T 2345   5.083   3.752   4.742  0.9992  0.2670  1.4743
   18SAPS   C33 2346   6.066   3.987   3.359 -0.0605  0.3067 -0.6898
   18SAPS   H3X 2347   6.112   4.087   3.338 -1.1700  1.1680  0.7760
   18SAPS   H3Y 2348   6.110   3.959   3.457  0.3965  3.1091 -0.0131
   18SAPS   C34 2349   5.914   3.998   3.367  0.1879  0.5248 -0.5687
   18SAPS   H4X 2350   5.876   3.896   3.390  2.1305  0.0150  0.5392
   18SAPS   H4Y 2351   5.878   4.025   3.265 -1.0616 -1.7968 -0.8130
   18SAPS   C35 2352   5.866   4.104   3.467  0.0151 -0.1019 -0.3599
   18SAPS   H5X 2353   5.758   4.130   3.456  0.0393  0.3168  0.3079
   18SAPS   H5Y 2354   5.924   4.197   3.451  2.2907 -1.3006  0.5055
   18SAPS   C36 2355   5.880   4.047   3.612 -0.0167 -0.3580 -0.4534
   18SAPS   H6X 2356   5.990   4.035   3.612  0.1673  1.0509 -1.1639
   18SAPS   H6Y 2357   5.831   3.948   3.611 -0.6594 -0.1065  1.5931
   18SAPS   C37 2358   5.820   4.137   3.715  0.6061  0.0949 -0.3060
   18SAPS   H7X 2359   5.712   4.146   3.692  0.1991  0.4338  1.5562
   18SAPS   H7Y 2360   5.860   4.235   3.682 -0.3759  0.7780  0.4869
   18SAPS   C38 2361   5.850   4.096   3.861 -0.2101  0.2399  0.6136
   18SAPS   H8X 2362   5.959   4.099   3.884 -0.0540 -2.3067  0.5416
   18SAPS   H8Y 2363   5.806   3.998   3.890 -3.0782  1.3445  0.3238
   18SAPS   C39 2364   5.780   4.198   3.953 -0.2818  0.2741 -0.2163
   18SAPS   H9X 2365   5.673   4.197   3.925 -0.7643  1.4104  1.4376
   18SAPS   H9Y 2366   5.822   4.295   3.919 -1.6016  0.4026 -1.5420
   18SAPS  C310 2367   5.811   4.165   4.098 -0.1998 -0.0700  0.5678
   18SAPS  H10X 2368   5.801   4.260   4.156 -1.5836  0.4827 -0.5302
   18SAPS  H10Y 2369   5.917   4.133   4.108  0.5396  0.6023 -3.4738
   18SAPS  C311 2370   5.706   4.089   4.180  0.1776  0.7917 -0.1253
   18SAPS  H11X 2371   5.685   3.989   4.136  1.5327 -0.6112  2.1539
   18SAPS  H11Y 2372   5.607   4.140   4.178 -0.7519 -0.8996  0.3398
   18SAPS  C312 2373   5.746   4.080   4.328  1.0118  0.8093  0.0427
   18SAPS  H12X 2374   5.787   4.179   4.355 -1.7295  1.9582  0.2829
   18SAPS  H12Y 2375   5.823   4.002   4.345  1.4962  0.8411 -1.7451
   18SAPS  C313 2376   5.627   4.052   4.421  0.3440 -0.1033  0.9397
   18SAPS  H13X 2377   5.598   3.947   4.400 -0.5163  0.9254 -4.9353
   18SAPS  H13Y 2378   5.542   4.119   4.395 -0.1951 -0.8230  0.8141
   18SAPS  C314 2379   5.665   4.066   4.568  0.5707 -0.1063 -0.7699
   18SAPS  H14X 2380   5.723   4.159   4.583  2.5973 -1.6290  1.6150
   18SAPS  H14Y 2381   5.728   3.982   4.604 -2.3989 -2.0973  0.1686
   18SAPS  C315 2382   5.533   4.076   4.651 -0.4819 -0.5410  0.2625
   18SAPS  H15X 2383   5.465   3.998   4.609 -2.3199  1.2415 -0.2215
   18SAPS  H15Y 2384   5.479   4.170   4.627  1.5942  0.2900 -1.5004
   18SAPS  C316 2385   5.548   4.060   4.805 -0.3884  0.4650  0.0887
   18SAPS  H16X 2386   5.635   4.124   4.831 -1.8603  2.2079  0.9650
   18SAPS  H16Y 2387   5.583   3.957   4.827 -0.9834  0.6318  2.0509
   18SAPS  C317 2388   5.428   4.107   4.889 -0.4506  0.3607  0.9834
   18SAPS  H17X 2389   5.349   4.038   4.855  1.4529 -0.7076 -1.6437
   18SAPS  H17Y 2390   5.413   4.210   4.852 -0.0621 -0.3750 -1.3981
   18SAPS  C318 2391   5.449   4.092   5.034 -0.2623  0.6037  0.2238
   18SAPS  H18X 2392   5.363   4.132   5.093 -0.4726  0.4924 -0.0027
   18SAPS  H18Y 2393   5.533   4.154   5.072  1.4356 -1.9956  0.9399
   18SAPS  H18Z 2394   5.462   3.985   5.060 -0.1543  0.8710  1.3410
   19SAPS     N 2395   5.367   0.961   2.413 -0.4800 -0.2910 -0.2299
   19SAPS   HN1 2396   5.301   0.885   2.389  0.2718 -1.5552  1.4945
   19SAPS   HN2 2397   5.355   1.022   2.329 -1.0275 -0.8313 -0.5479
   19SAPS   HN3 2398   5.461   0.919   2.417 -0.9323 -1.2143  2.4534
   19SAPS   C12 2399   5.335   1.008   2.550  0.4891 -0.3147  0.4064
   19SAPS  H12A 2400   5.403   1.088   2.575  1.9589 -1.5815  0.6399
   19SAPS   C13 2401   5.186   1.066   2.549  0.1996  0.0103  0.1756
   19SAPS  O13A 2402   5.105   1.052   2.449 -0.1184 -0.4764  0.2197
   19SAPS  O13B 2403   5.152   1.116   2.655 -0.1929 -0.2306  0.2971
   19SAPS   C11 2404   5.343   0.896   2.652 -0.0505  0.9477 -0.3927
   19SAPS  H11A 2405   5.262   0.823   2.635  0.9829 -0.8115  1.7107
   19SAPS  H11B 2406   5.318   0.921   2.757  0.9437  1.4592 -0.2597
   19SAPS     P 2407   5.580   0.852   2.741  0.1048 -0.2121 -0.0866
   19SAPS   O13 2408   5.683   0.747   2.729  0.0718 -0.3772 -0.2482
   19SAPS   O14 2409   5.626   0.985   2.698  0.0313  0.1002 -0.3591
   19SAPS   O12 2410   5.458   0.807   2.649  0.1756 -0.7624 -0.4745
   19SAPS   O11 2411   5.521   0.852   2.884  0.2080  0.4279  0.5035
   19SAPS    C1 2412   5.463   0.727   2.938 -0.0478  0.4395 -0.4842
   19SAPS    HA 2413   5.398   0.672   2.867  0.0751 -1.7796  1.0300
   19SAPS    HB 2414   5.543   0.654   2.962 -0.5442  0.4754  1.4158
   19SAPS    C2 2415   5.393   0.742   3.076 -0.1238  0.1245 -0.0398
   19SAPS    HS 2416   5.308   0.812   3.059  1.0131  1.1012 -2.1423
   19SAPS   O21 2417   5.484   0.792   3.172 -0.5801  0.0488  0.1601
   19SAPS   C21 2418   5.433   0.889   3.253  0.0298 -0.2563  0.0619
   19SAPS   O22 2419   5.318   0.923   3.267  0.4435 -0.9366  0.7426
   19SAPS   C22 2420   5.555   0.924   3.342  0.2187  0.0639 -0.1462
   19SAPS   H2R 2421   5.610   0.835   3.380 -0.9582 -1.2154 -1.3395
   19SAPS   H2S 2422   5.622   0.981   3.273  2.8660 -1.2602  1.2013
   19SAPS    C3 2423   5.329   0.617   3.129 -0.7311  0.0921  0.0915
   19SAPS    HX 2424   5.411   0.547   3.157  1.4464  2.0664 -0.9919
   19SAPS    HY 2425   5.265   0.575   3.048 -1.8952  0.5942  0.7381
   19SAPS   O31 2426   5.256   0.641   3.250 -0.5344 -0.5651  0.2375
   19SAPS   C31 2427   5.131   0.670   3.236  0.0690 -0.0313 -0.5417
   19SAPS   O32 2428   5.076   0.701   3.131 -0.2194 -0.2567  0.1136
   19SAPS   C32 2429   5.069   0.685   3.377 -0.0976 -0.2615  0.3512
   19SAPS   H2X 2430   5.081   0.794   3.389  0.5040 -0.2310 -0.4200
   19SAPS   H2Y 2431   5.140   0.648   3.453  0.9306 -1.2156 -1.0175
   19SAPS   C23 2432   5.516   1.016   3.462  0.6293  0.6429 -0.2372
   19SAPS   H3R 2433   5.443   1.096   3.439  1.2977  2.4879  3.2508
   19SAPS   H3S 2434   5.603   1.082   3.484 -0.1929  1.3909  0.8946
   19SAPS   C24 2435   5.487   0.932   3.595 -0.1558 -0.5469 -0.2204
   19SAPS   H4R 2436   5.484   1.007   3.676 -1.5197 -0.6335 -0.1528
   19SAPS   H4S 2437   5.578   0.875   3.620 -0.8316 -1.5224  0.0925
   19SAPS   C25 2438   5.368   0.846   3.594  0.5864 -0.0653  0.3683
   19SAPS   H5R 2439   5.349   0.805   3.494  1.8362  0.5097 -0.1196
   19SAPS   C26 2440   5.276   0.845   3.693  0.3172  1.0891  0.0289
   19SAPS   H6R 2441   5.183   0.789   3.673 -0.0223  1.5523  0.2986
   19SAPS   C27 2442   5.286   0.900   3.834  0.0832  0.5431  0.4556
   19SAPS   H7R 2443   5.370   0.972   3.849 -0.3091  0.5765  2.8014
   19SAPS   H7S 2444   5.330   0.816   3.893 -0.0055  1.8083  2.4065
   19SAPS   C28 2445   5.156   0.944   3.898 -0.7452 -0.2450  0.2482
   19SAPS   H8R 2446   5.112   1.039   3.864  0.1800  0.2225  0.3388
   19SAPS   C29 2447   5.107   0.894   4.012 -0.3053  0.0005 -0.2504
   19SAPS   H9R 2448   5.006   0.928   4.040 -0.1326 -0.6718  1.3287
   19SAPS  C210 2449   5.153   0.780   4.098 -0.7935  0.0411 -0.3445
   19SAPS  H10R 2450   5.154   0.686   4.039 -1.0265 -0.4654  0.4422
   19SAPS  H10S 2451   5.072   0.763   4.173  1.0694 -1.9704  1.3447
   19SAPS  C211 2452   5.284   0.802   4.178  0.8685  0.4146  0.0266
   19SAPS  H11R 2453   5.369   0.816   4.108  0.5852  1.1527 -0.1814
   19SAPS  C212 2454   5.313   0.782   4.312  0.6579 -0.2857  0.1871
   19SAPS  H12R 2455   5.415   0.805   4.348 -0.4144  2.1639  2.0072
   19SAPS  C213 2456   5.203   0.751   4.421 -0.2440  0.0196  0.2545
   19SAPS  H13R 2457   5.243   0.674   4.490 -1.3998 -0.1096  0.7979
   19SAPS  H13S 2458   5.130   0.683   4.372  0.2310 -0.1752 -0.1954
   19SAPS  C214 2459   5.128   0.867   4.490  0.2994  0.9470 -0.1355
   19SAPS  H14R 2460   5.080   0.936   4.419 -0.8011 -0.9296 -1.3047
   19SAPS  C215 2461   5.086   0.876   4.616 -0.2118  0.1616 -0.3461
   19SAPS  H15R 2462   5.029   0.964   4.647  1.5864  1.8337 -1.5915
   19SAPS  C216 2463   5.112   0.766   4.724  0.4775 -0.4725 -0.5827
   19SAPS  H16R 2464   5.169   0.680   4.683 -1.7401 -1.0978 -2.5762
   19SAPS  H16S 2465   5.016   0.726   4.763 -0.6543  2.4570 -0.1461
   19SAPS  C217 2466   5.195   0.822   4.838  0.1289 -0.1042 -0.2178
   19SAPS  H17R 2467   5.145   0.905   4.892  3.2885  0.5067  2.0497
   19SAPS  H17S 2468   5.293   0.860   4.801 -0.0610  1.8601  1.1576
   19SAPS  C218 2469   5.227   0.710   4.940 -0.2088 -0.1642 -0.2312
   19SAPS  H18R 2470   5.293   0.754   5.018 -1.4726 -1.5892  1.7299
   19SAPS  H18S 2471   5.285   0.627   4.892 -1.1801 -0.8448 -0.2604
   19SAPS  C219 2472   5.105   0.657   5.008  0.3564  0.1899  0.0455
   19SAPS  H19R 2473   5.042   0.596   4.940  0.0628 -0.5341  0.9460
   19SAPS  H19S 2474   5.050   0.745   5.048  0.3714 -1.4222  4.0998
   19SAPS  C220 2475   5.139   0.576   5.129  0.1638  0.4820  0.2199
   19SAPS  H20R 2476   5.046   0.536   5.174 -0.1382 -0.7507 -1.4125
   19SAPS  H20S 2477   5.208   0.633   5.195 -1.3630 -0.4631  2.7249
   19SAPS  H20T 2478   5.197   0.483   5.113 -1.3756 -0.5399  0.5082
   19SAPS   C33 2479   4.930   0.629   3.388  0.3640 -0.6433 -0.0770
   19SAPS   H3X 2480   4.934   0.525   3.348 -0.1467 -1.8268  2.7452
   19SAPS   H3Y 2481   4.861   0.693   3.329 -0.9794  0.0609  2.1259
   19SAPS   C34 2482   4.881   0.641   3.535 -0.3725  0.2525 -0.1572
   19SAPS   H4X 2483   4.966   0.634   3.607  0.3583 -0.7549 -1.0829
   19SAPS   H4Y 2484   4.805   0.562   3.555 -2.4169  2.3851  0.8796
   19SAPS   C35 2485   4.803   0.772   3.559 -0.3623  0.7396  0.2463
   19SAPS   H5X 2486   4.711   0.767   3.496 -1.3447  2.3483  1.4873
   19SAPS   H5Y 2487   4.869   0.855   3.527  1.7339 -0.3745  1.4631
   19SAPS   C36 2488   4.764   0.788   3.714  0.1253  0.0572  0.1228
   19SAPS   H6X 2489   4.750   0.896   3.735  0.8607  0.2324 -0.2871
   19SAPS   H6Y 2490   4.857   0.759   3.766  0.4524 -0.2240 -0.6068
   19SAPS   C37 2491   4.640   0.702   3.757 -0.4420  0.1032 -0.0258
   19SAPS   H7X 2492   4.627   0.616   3.687 -0.4883  0.2843 -0.2416
   19SAPS   H7Y 2493   4.544   0.757   3.747 -0.6524  0.0697  1.5288
   19SAPS   C38 2494   4.652   0.659   3.903  0.0695  0.1321  0.6994
   19SAPS   H8X 2495   4.744   0.597   3.901  1.1688  1.7425 -1.0444
   19SAPS   H8Y 2496   4.561   0.598   3.926 -0.2798  0.5125  0.3438
   19SAPS   C39 2497   4.663   0.773   3.993  0.1397  0.2426 -0.2662
   19SAPS   H9X 2498   4.573   0.833   3.970  0.8167  0.8671 -1.3395
   19SAPS   H9Y 2499   4.753   0.833   3.967  1.2487 -1.1830  0.1283
   19SAPS  C310 2500   4.680   0.725   4.135  0.3629  0.2544 -0.6856
   19SAPS  H10X 2501   4.782   0.682   4.142  0.3545  0.5393  2.9617
   19SAPS  H10Y 2502   4.598   0.654   4.161 -1.0947  1.5758 -1.5018
   19SAPS  C311 2503   4.668   0.833   4.246 -0.3186  0.9509 -0.3412
   19SAPS  H11X 2504   4.572   0.887   4.253 -0.5559  0.3370  2.2699
   19SAPS  H11Y 2505   4.756   0.899   4.232  0.7387 -0.4175 -0.3919
   19SAPS  C312 2506   4.683   0.783   4.386  0.3836 -0.3710 -0.0639
   19SAPS  H12X 2507   4.773   0.720   4.400  0.0534 -1.2349 -1.7071
   19SAPS  H12Y 2508   4.592   0.729   4.418 -0.5927  1.7301  0.9266
   19SAPS  C313 2509   4.686   0.895   4.489 -0.1560  0.2599 -0.2354
   19SAPS  H13X 2510   4.596   0.958   4.479 -0.0857  0.2733 -0.8223
   19SAPS  H13Y 2511   4.768   0.965   4.463  0.5059 -0.5103 -0.2787
   19SAPS  C314 2512   4.705   0.840   4.635  0.2244  0.6775  0.0165
   19SAPS  H14X 2513   4.813   0.820   4.643  0.1738  0.7661  0.9873
   19SAPS  H14Y 2514   4.640   0.750   4.640 -1.6972  2.0254  0.4934
   19SAPS  C315 2515   4.663   0.938   4.749 -0.7601  0.1147  0.6041
   19SAPS  H15X 2516   4.554   0.956   4.739 -0.8130 -0.6115 -0.2409
   19SAPS  H15Y 2517   4.719   1.033   4.732 -0.4974 -0.2379 -0.5954
   19SAPS  C316 2518   4.707   0.877   4.877  0.4504  0.0491 -0.0679
   19SAPS  H16X 2519   4.806   0.828   4.862 -0.5257 -1.1446 -3.3126
   19SAPS  H16Y 2520   4.633   0.800   4.909 -0.7600  0.9158 -0.7049
   19SAPS  C317 2521   4.726   0.980   4.990 -0.2217  0.5421  0.5839
   19SAPS  H17X 2522   4.629   1.031   5.005 -0.3217  0.5295 -0.0054
   19SAPS  H17Y 2523   4.789   1.068   4.964 -0.5052  0.1795 -1.5054
   19SAPS  C318 2524   4.770   0.910   5.120  0.0377  0.4649 -0.4754
   19SAPS  H18X 2525   4.703   0.828   5.152 -0.9727  0.3741 -2.6497
   19SAPS  H18Y 2526   4.772   0.994   5.193 -1.8698  0.4420 -0.3577
   19SAPS  H18Z 2527   4.874   0.872   5.126 -0.2115 -0.0763  0.7871
   20SAPS     N 2528   6.106   2.275   2.871 -0.0684 -0.1048 -0.3712
   20SAPS   HN1 2529   6.114   2.274   2.767 -1.1694 -0.6789 -0.4663
   20SAPS   HN2 2530   6.041   2.197   2.893 -0.3470 -0.5153 -2.4063
   20SAPS   HN3 2531   6.059   2.360   2.906  0.9494  0.8551 -1.2572
   20SAPS   C12 2532   6.233   2.250   2.937 -0.1607  0.0590 -0.1992
   20SAPS  H12A 2533   6.274   2.162   2.892 -0.8407  0.6338 -2.0415
   20SAPS   C13 2534   6.330   2.373   2.920 -0.0172 -0.0318  0.9098
   20SAPS  O13A 2535   6.300   2.467   2.836  0.4628  0.3434 -0.1849
   20SAPS  O13B 2536   6.448   2.356   2.956 -0.5696  0.7674 -0.1435
   20SAPS   C11 2537   6.210   2.223   3.094  0.2435  0.4447 -0.2428
   20SAPS  H11A 2538   6.162   2.308   3.146 -0.8421  0.2722 -0.9178
   20SAPS  H11B 2539   6.309   2.196   3.136  1.1113  1.8141 -1.3117
   20SAPS     P 2540   6.110   2.030   3.245  0.1948  0.2604  0.3834
   20SAPS   O13 2541   5.965   2.005   3.265 -0.1216  0.0686  0.2588
   20SAPS   O14 2542   6.202   1.919   3.231 -0.1515  0.1868 -0.4338
   20SAPS   O12 2543   6.114   2.115   3.112  0.5244 -0.7047 -0.5340
   20SAPS   O11 2544   6.166   2.130   3.354  0.1974 -0.0725  0.2171
   20SAPS    C1 2545   6.220   2.092   3.479 -0.0760 -0.2856 -0.1151
   20SAPS    HA 2546   6.204   2.178   3.548 -0.0381  0.6650 -1.2666
   20SAPS    HB 2547   6.169   2.000   3.517 -1.6759  1.7754  3.2291
   20SAPS    C2 2548   6.375   2.068   3.471 -0.4183  0.1501  0.3785
   20SAPS    HS 2549   6.389   1.995   3.388  1.3105 -1.5936  2.0883
   20SAPS   O21 2550   6.420   2.003   3.598 -0.0517  0.6488  0.3654
   20SAPS   C21 2551   6.542   1.961   3.595 -0.0899  0.1156  1.1236
   20SAPS   O22 2552   6.618   1.953   3.499 -0.3399 -0.6533  0.2080
   20SAPS   C22 2553   6.591   1.930   3.735  0.1732 -0.2669  1.0390
   20SAPS   H2R 2554   6.512   1.870   3.785 -1.6147 -0.8363 -2.2511
   20SAPS   H2S 2555   6.680   1.866   3.720  0.1198  0.0925 -1.0594
   20SAPS    C3 2556   6.461   2.198   3.433 -0.2605 -0.6051 -0.1567
   20SAPS    HX 2557   6.414   2.238   3.341  0.1183 -0.4390 -0.2784
   20SAPS    HY 2558   6.567   2.167   3.427 -0.3676 -0.6140 -3.2943
   20SAPS   O31 2559   6.454   2.299   3.542  0.2277 -0.4596  0.6262
   20SAPS   C31 2560   6.490   2.423   3.504 -0.1770  0.0698 -0.3476
   20SAPS   O32 2561   6.532   2.457   3.395 -0.9478  0.0362  0.0027
   20SAPS   C32 2562   6.463   2.521   3.629 -0.1248 -0.5023 -0.4151
   20SAPS   H2X 2563   6.478   2.620   3.580  1.8563  0.8523  2.6387
   20SAPS   H2Y 2564   6.542   2.501   3.704  0.1415 -0.9440 -0.8105
   20SAPS   C23 2565   6.626   2.044   3.829 -0.6623 -0.4654  0.8678
   20SAPS   H3R 2566   6.539   2.108   3.856  1.2799  2.2262  1.1391
   20SAPS   H3S 2567   6.700   2.109   3.779  0.0936 -1.0929  1.1448
   20SAPS   C24 2568   6.682   1.993   3.962 -0.1607  0.3506  0.1829
   20SAPS   H4R 2569   6.770   1.929   3.939  0.5067  0.7232  1.5807
   20SAPS   H4S 2570   6.601   1.927   3.999 -0.3904 -0.0477 -0.9789
   20SAPS   C25 2571   6.714   2.103   4.061 -0.1420 -0.3608  0.2323
   20SAPS   H5R 2572   6.773   2.192   4.033 -0.5180 -1.0864 -3.3633
   20SAPS   C26 2573   6.678   2.100   4.185 -0.4065  0.1369 -0.3610
   20SAPS   H6R 2574   6.712   2.184   4.248  0.3098 -0.3272 -0.1169
   20SAPS   C27 2575   6.610   1.992   4.259  0.2122  0.1713  0.2692
   20SAPS   H7R 2576   6.553   1.912   4.207 -0.4416  0.9165 -0.1914
   20SAPS   H7S 2577   6.524   2.040   4.312 -0.5905 -0.4276 -0.4586
   20SAPS   C28 2578   6.703   1.928   4.356 -0.2759  0.6499  0.0648
   20SAPS   H8R 2579   6.777   1.863   4.307 -1.6702  0.0212 -1.3183
   20SAPS   C29 2580   6.715   1.968   4.480  0.0540 -0.1792 -0.2644
   20SAPS   H9R 2581   6.784   1.915   4.547 -0.2773 -0.5869 -0.2433
   20SAPS  C210 2582   6.631   2.067   4.552 -0.6985 -0.1240 -0.4748
   20SAPS  H10R 2583   6.548   2.012   4.601 -2.2654  1.7621 -0.8937
   20SAPS  H10S 2584   6.580   2.141   4.486  1.3147  3.6967  1.9467
   20SAPS  C211 2585   6.701   2.155   4.652  0.7406  0.5195 -0.5877
   20SAPS  H11R 2586   6.790   2.200   4.605  0.9507 -1.9264 -2.7696
   20SAPS  C212 2587   6.670   2.172   4.784  0.0217  0.2472  0.0589
   20SAPS  H12R 2588   6.723   2.241   4.850 -0.1025  0.3752  0.0260
   20SAPS  C213 2589   6.567   2.101   4.869 -0.3011  0.5061 -0.2938
   20SAPS  H13R 2590   6.617   2.086   4.967 -2.2723 -1.1606  0.5355
   20SAPS  H13S 2591   6.554   1.995   4.839 -1.4930 -0.1422  2.2667
   20SAPS  C214 2592   6.426   2.155   4.883 -0.3441  0.4885 -0.0120
   20SAPS  H14R 2593   6.366   2.143   4.791  0.5374  0.4767 -0.5935
   20SAPS  C215 2594   6.368   2.219   4.988  0.7573  0.3144 -0.2910
   20SAPS  H15R 2595   6.265   2.255   4.980 -0.0841 -1.3327  1.9321
   20SAPS  C216 2596   6.451   2.248   5.111  0.4012  1.0156  0.3480
   20SAPS  H16R 2597   6.537   2.309   5.077 -0.1701  0.8624 -1.5095
   20SAPS  H16S 2598   6.486   2.156   5.161  1.4683 -0.0582 -2.2244
   20SAPS  C217 2599   6.375   2.327   5.217 -0.1334 -0.4165  0.4761
   20SAPS  H17R 2600   6.411   2.310   5.321 -0.2189 -0.6632  0.4673
   20SAPS  H17S 2601   6.265   2.313   5.210 -0.4536  2.2268 -0.9733
   20SAPS  C218 2602   6.392   2.474   5.196 -0.0165 -0.1020  0.4652
   20SAPS  H18R 2603   6.375   2.500   5.090  0.5342  0.4804  0.5072
   20SAPS  H18S 2604   6.489   2.527   5.214  0.1249  0.3246 -1.4074
   20SAPS  C219 2605   6.285   2.550   5.285  0.3098  0.1769  0.3603
   20SAPS  H19R 2606   6.301   2.531   5.394  2.6625  0.2818  0.0945
   20SAPS  H19S 2607   6.183   2.514   5.261  0.0027  1.7658 -0.9013
   20SAPS  C220 2608   6.286   2.703   5.260  0.5492  0.0703  0.1783
   20SAPS  H20R 2609   6.292   2.717   5.150  2.9828  0.9845  0.3707
   20SAPS  H20S 2610   6.367   2.753   5.317 -0.1200  0.0563  1.1795
   20SAPS  H20T 2611   6.187   2.741   5.293  0.5476 -0.1091  0.3809
   20SAPS   C33 2612   6.325   2.523   3.694  0.3705  0.8111  0.0040
   20SAPS   H3X 2613   6.288   2.419   3.709  0.7299  0.0608 -3.4453
   20SAPS   H3Y 2614   6.248   2.559   3.623  0.6615 -0.6127 -1.0844
   20SAPS   C34 2615   6.316   2.606   3.821 -0.3459  0.2246 -0.7563
   20SAPS   H4X 2616   6.312   2.717   3.812  0.1009  0.5484  2.1513
   20SAPS   H4Y 2617   6.404   2.586   3.885 -1.0122 -1.4485 -0.2997
   20SAPS   C35 2618   6.197   2.570   3.917  0.2330 -0.6504  0.5530
   20SAPS   H5X 2619   6.204   2.467   3.958 -0.3262 -0.4831  1.0920
   20SAPS   H5Y 2620   6.104   2.589   3.860  0.3529  0.9761  0.8592
   20SAPS   C36 2621   6.187   2.659   4.043 -0.0320  0.3174 -0.5230
   20SAPS   H6X 2622   6.183   2.767   4.014 -0.5798 -0.2187 -2.6457
   20SAPS   H6Y 2623   6.277   2.646   4.106  1.0879 -1.0894 -2.3007
   20SAPS   C37 2624   6.054   2.623   4.119 -0.3451  0.3886  0.3937
   20SAPS   H7X 2625   6.055   2.512   4.129 -1.9930  0.5922  4.8687
   20SAPS   H7Y 2626   5.967   2.648   4.055 -0.2484  0.4547  0.2875
   20SAPS   C38 2627   6.066   2.669   4.259  0.2204  0.4167 -1.0467
   20SAPS   H8X 2628   6.081   2.778   4.250  0.5724  0.4276 -0.4051
   20SAPS   H8Y 2629   6.149   2.616   4.311  0.6916  0.4974 -1.7084
   20SAPS   C39 2630   5.936   2.624   4.331  0.0478 -0.5095 -1.0022
   20SAPS   H9X 2631   5.946   2.529   4.387 -1.6741  0.1794  0.5809
   20SAPS   H9Y 2632   5.855   2.619   4.255 -2.2030 -2.6867  1.3576
   20SAPS  C310 2633   5.897   2.732   4.435  0.3834 -0.9279  0.9036
   20SAPS  H10X 2634   5.794   2.707   4.466 -0.5069 -2.0038 -2.4643
   20SAPS  H10Y 2635   5.890   2.834   4.391  1.6116 -0.2552  2.1527
   20SAPS  C311 2636   5.994   2.745   4.553 -0.0991 -0.9396  0.0518
   20SAPS  H11X 2637   6.096   2.773   4.519 -0.5263 -1.0726 -1.4296
   20SAPS  H11Y 2638   6.008   2.651   4.609 -2.5668 -2.1617 -1.2151
   20SAPS  C312 2639   5.936   2.845   4.659 -1.0906  0.1363  0.7855
   20SAPS  H12X 2640   5.830   2.825   4.685 -1.1690  2.5860  2.6287
   20SAPS  H12Y 2641   5.947   2.947   4.616  2.7500  0.2344  1.5927
   20SAPS  C313 2642   6.007   2.848   4.792  1.1760 -0.5366 -0.5604
   20SAPS  H13X 2643   6.111   2.887   4.785  0.8942  0.1077 -1.2219
   20SAPS  H13Y 2644   6.027   2.745   4.829 -1.4369 -0.4724  1.2681
   20SAPS  C314 2645   5.926   2.908   4.910 -0.2385  0.5913 -0.0248
   20SAPS  H14X 2646   5.831   2.850   4.919 -0.5321  1.0038 -0.4588
   20SAPS  H14Y 2647   5.899   3.014   4.890 -3.0818 -0.2811 -1.3137
   20SAPS  C315 2648   5.997   2.895   5.039  0.6121  0.2969 -0.6941
   20SAPS  H15X 2649   6.104   2.924   5.031  0.2334  1.8455 -0.3914
   20SAPS  H15Y 2650   5.999   2.790   5.076 -1.5203  1.4391  3.2154
   20SAPS  C316 2651   5.920   2.960   5.154  0.3449  0.1114  0.1277
   20SAPS  H16X 2652   5.817   2.918   5.153 -0.3390  1.7006 -0.8374
   20SAPS  H16Y 2653   5.921   3.069   5.134  1.8206  0.1240  0.1344
   20SAPS  C317 2654   5.973   2.942   5.292 -0.4751 -0.1966  0.3621
   20SAPS  H17X 2655   6.082   2.959   5.300 -0.4459 -1.1366  2.9751
   20SAPS  H17Y 2656   5.962   2.833   5.314  0.5984 -0.4581 -0.3402
   20SAPS  C318 2657   5.927   3.034   5.404 -0.2298  0.0694 -0.0905
   20SAPS  H18X 2658   5.979   2.999   5.496  2.5200  1.1462 -1.1256
   20SAPS  H18Y 2659   5.817   3.028   5.415 -0.2211  0.3221  0.1541
   20SAPS  H18Z 2660   5.951   3.140   5.381  2.8124 -0.2471  1.1326
   21CHL1    C3 2661   3.304   5.568   6.666 -0.0361 -0.3651  0.3820
   21CHL1    H3 2662   3.407   5.561   6.623 -0.1445  1.4979 -0.2957
   21CHL1    O3 2663   3.304   5.545   6.809 -0.0913  0.7165  0.1171
   21CHL1   H3' 2664   3.213   5.532   6.835  0.0886  1.1198  0.9947
   21CHL1    C4 2665   3.252   5.706   6.617  0.1745  0.0654  0.7184
   21CHL1   H4A 2666   3.150   5.709   6.661 -0.2460  0.5896 -0.2574
   21CHL1   H4B 2667   3.311   5.783   6.671  0.2456  0.5610 -0.0649
   21CHL1    C5 2668   3.246   5.714   6.464  0.7681  0.0142 -0.5829
   21CHL1    C6 2669   3.311   5.811   6.403  0.4041  0.1985  0.3128
   21CHL1    H6 2670   3.346   5.889   6.472  0.4192 -1.0796  1.8248
   21CHL1    C7 2671   3.324   5.825   6.256 -0.4264 -0.0240  0.2906
   21CHL1   H7A 2672   3.313   5.933   6.229 -0.1729 -0.2715 -0.8618
   21CHL1   H7B 2673   3.432   5.813   6.233 -0.4165  2.2001 -1.2332
   21CHL1    C8 2674   3.230   5.744   6.170  1.0437  0.5469 -0.1550
   21CHL1    H8 2675   3.132   5.797   6.175  0.0727 -0.9252 -2.0612
   21CHL1   C14 2676   3.270   5.733   6.025 -0.0613  0.3581  0.0196
   21CHL1   H14 2677   3.363   5.673   6.027 -1.2595 -1.6963 -1.8838
   21CHL1   C15 2678   3.319   5.858   5.949  0.2062  0.0001 -0.1060
   21CHL1  H15A 2679   3.247   5.939   5.976  1.6469  1.2894  0.0403
   21CHL1  H15B 2680   3.417   5.902   5.979 -0.4809  1.2416  0.4318
   21CHL1   C16 2681   3.308   5.814   5.805  0.2499  0.1151  0.4676
   21CHL1  H16A 2682   3.233   5.872   5.749  0.5607 -1.4687 -1.7319
   21CHL1  H16B 2683   3.410   5.818   5.760 -0.0073 -0.5672 -0.1977
   21CHL1   C17 2684   3.245   5.673   5.805 -0.7837 -0.0472  0.2796
   21CHL1   H17 2685   3.328   5.601   5.820 -0.2040  0.9784  2.2053
   21CHL1   C13 2686   3.169   5.668   5.940 -0.3283 -0.1420  0.7895
   21CHL1   C18 2687   3.039   5.751   5.929  0.2743  0.3127 -0.8107
   21CHL1  H18A 2688   2.974   5.743   6.019 -0.8113  1.3206 -1.4673
   21CHL1  H18B 2689   3.066   5.857   5.909  0.0784  0.5996  0.3985
   21CHL1  H18C 2690   2.982   5.711   5.842  1.9909  2.4120 -3.0649
   21CHL1   C12 2691   3.145   5.522   6.000 -0.1137  0.0497  0.4429
   21CHL1  H12A 2692   3.057   5.471   5.956 -1.0384  1.0791  1.0296
   21CHL1  H12B 2693   3.234   5.459   5.981  0.9215  1.6554 -0.2578
   21CHL1   C11 2694   3.104   5.521   6.146  0.1690 -0.4672  0.1420
   21CHL1  H11A 2695   2.997   5.549   6.150  0.1003 -0.5882 -0.6987
   21CHL1  H11B 2696   3.103   5.422   6.197 -0.5311 -0.6854 -0.2789
   21CHL1    C9 2697   3.201   5.607   6.237  0.1026  0.1220  0.0365
   21CHL1    H9 2698   3.295   5.548   6.229  0.3093  0.3464  0.6719
   21CHL1   C10 2699   3.178   5.603   6.390  0.1176  0.0779  0.4677
   21CHL1   C19 2700   3.021   5.621   6.412 -0.0062  0.2684 -0.2148
   21CHL1  H19A 2701   2.991   5.716   6.364 -2.9453 -0.4595 -0.0061
   21CHL1  H19B 2702   2.970   5.544   6.350  1.3339 -2.6108  2.0256
   21CHL1  H19C 2703   2.984   5.616   6.517 -1.7267 -1.9627 -0.8471
   21CHL1    C1 2704   3.225   5.459   6.439  0.5883  0.3731 -0.8841
   21CHL1   H1A 2705   3.156   5.381   6.401  0.8064 -1.3211  1.9662
   21CHL1   H1B 2706   3.330   5.443   6.405  1.3035 -2.0226  2.0003
   21CHL1    C2 2707   3.232   5.449   6.589  0.6652 -0.1752  0.5510
   21CHL1   H2A 2708   3.290   5.358   6.609  1.0632 -0.0889 -0.1732
   21CHL1   H2B 2709   3.140   5.430   6.648  0.7741  1.4743  1.3118
   21CHL1   C20 2710   3.168   5.637   5.675  0.4031  0.0900 -0.1391
   21CHL1   H20 2711   3.077   5.701   5.666 -2.6983 -3.4560  2.7421
   21CHL1   C21 2712   3.121   5.491   5.677  0.2660 -0.7970  0.1436
   21CHL1  H21A 2713   3.050   5.477   5.762 -0.9320  0.1230 -0.6885
   21CHL1  H21B 2714   3.205   5.421   5.698  0.3678  0.1299  3.5117
   21CHL1  H21C 2715   3.068   5.477   5.580 -0.3227  0.4815  0.2689
   21CHL1   C22 2716   3.254   5.657   5.551  0.6108  0.0724 -0.2134
   21CHL1  H22A 2717   3.323   5.743   5.561 -0.3320  0.9200 -0.9499
   21CHL1  H22B 2718   3.313   5.562   5.549 -0.0519 -0.3437 -0.5588
   21CHL1   C23 2719   3.181   5.676   5.420 -0.3391 -0.3420 -0.2423
   21CHL1  H23A 2720   3.132   5.577   5.410  4.5321 -2.9792 -0.6440
   21CHL1  H23B 2721   3.116   5.766   5.423  1.5872  1.1105 -0.4901
   21CHL1   C24 2722   3.281   5.696   5.304  0.1862 -0.1902  0.7656
   21CHL1  H24A 2723   3.324   5.798   5.314 -1.9814  1.4944 -3.8901
   21CHL1  H24B 2724   3.360   5.621   5.326 -0.2378 -1.1947 -0.9408
   21CHL1   C25 2725   3.214   5.676   5.168  0.0713 -0.1647 -0.5025
   21CHL1   H25 2726   3.164   5.577   5.164 -0.9750  0.3371 -0.2637
   21CHL1   C26 2727   3.107   5.787   5.153  0.6997 -0.6823 -0.5934
   21CHL1  H26A 2728   3.142   5.888   5.184 -2.0437 -0.1342  1.0276
   21CHL1  H26B 2729   3.069   5.801   5.050  0.6666 -0.2449 -0.5253
   21CHL1  H26C 2730   3.013   5.764   5.207 -0.0096  1.5345 -0.7503
   21CHL1   C27 2731   3.310   5.680   5.046 -0.2545  0.2940  0.6042
   21CHL1  H27A 2732   3.257   5.646   4.954  1.0055  0.5729 -0.2418
   21CHL1  H27B 2733   3.339   5.785   5.028 -0.8751  0.7933  2.3239
   21CHL1  H27C 2734   3.389   5.606   5.071 -2.2803 -2.1034  0.4070
   22CHL1    C3 2735   4.918   5.055   6.667 -0.3989  0.2161  0.5258
   22CHL1    H3 2736   5.005   5.019   6.609 -1.9883  0.3386 -2.1044
   22CHL1    O3 2737   4.951   5.047   6.805  0.3315 -0.6661  0.4563
   22CHL1   H3' 2738   5.019   5.115   6.810 -0.4393  0.0538  1.8812
   22CHL1    C4 2739   4.899   5.203   6.631  0.5574 -0.3629  0.1655
   22CHL1   H4A 2740   4.805   5.240   6.678  1.0269  1.3660 -0.1837
   22CHL1   H4B 2741   4.984   5.263   6.670  0.7782 -0.0489 -0.7894
   22CHL1    C5 2742   4.888   5.213   6.481 -0.2780 -0.3913 -0.7334
   22CHL1    C6 2743   4.982   5.291   6.418 -0.0505  0.4024 -0.3707
   22CHL1    H6 2744   5.058   5.340   6.480  0.1540 -0.8012  0.3580
   22CHL1    C7 2745   4.974   5.322   6.269  0.4140 -0.8902 -0.0916
   22CHL1   H7A 2746   4.991   5.429   6.243  0.6297 -0.9546 -0.2197
   22CHL1   H7B 2747   5.062   5.266   6.231  0.7257  0.1275 -0.9340
   22CHL1    C8 2748   4.843   5.275   6.207  0.5268  0.1996 -0.2527
   22CHL1    H8 2749   4.772   5.355   6.236  0.6904  0.3101 -0.1537
   22CHL1   C14 2750   4.856   5.273   6.049  0.3247 -0.2880 -1.2862
   22CHL1   H14 2751   4.926   5.188   6.032  2.6029  1.0688  0.5242
   22CHL1   C15 2752   4.919   5.394   5.986 -0.0642  0.3321  0.5215
   22CHL1  H15A 2753   4.872   5.494   6.001 -1.0676 -0.1591  0.6965
   22CHL1  H15B 2754   5.028   5.399   6.008  0.4479 -1.7909 -1.2642
   22CHL1   C16 2755   4.895   5.366   5.831 -0.8015 -0.7813 -0.2505
   22CHL1  H16A 2756   4.861   5.458   5.778  3.5310  0.6175 -1.0094
   22CHL1  H16B 2757   4.992   5.328   5.791  0.9991  2.8065  0.2594
   22CHL1   C17 2758   4.795   5.240   5.830 -0.5109 -0.5361 -0.5705
   22CHL1   H17 2759   4.839   5.139   5.813 -1.7034 -0.8255 -2.1636
   22CHL1   C13 2760   4.736   5.236   5.966 -0.6617 -0.9016  0.2286
   22CHL1   C18 2761   4.625   5.344   5.983 -0.3691  0.1928  0.4600
   22CHL1  H18A 2762   4.539   5.311   5.921 -0.4877  1.5819 -0.1519
   22CHL1  H18B 2763   4.604   5.349   6.091  1.6464  0.3544  0.8932
   22CHL1  H18C 2764   4.662   5.442   5.944 -1.8890 -0.2672 -2.4150
   22CHL1   C12 2765   4.686   5.093   6.016 -0.6086  0.6663 -0.2954
   22CHL1  H12A 2766   4.587   5.062   5.975 -0.5430 -1.8933  1.3246
   22CHL1  H12B 2767   4.759   5.018   5.979  0.4046  1.7333 -0.5241
   22CHL1   C11 2768   4.671   5.087   6.171 -0.6100  0.3884 -0.1034
   22CHL1  H11A 2769   4.579   5.141   6.201 -0.1704  1.6963 -1.0382
   22CHL1  H11B 2770   4.667   4.984   6.214  1.0792 -0.7653 -2.4912
   22CHL1    C9 2771   4.791   5.144   6.257  0.1084 -0.2588 -0.6994
   22CHL1    H9 2772   4.879   5.079   6.237  1.4434  1.4379 -0.5395
   22CHL1   C10 2773   4.776   5.133   6.412 -0.1037 -0.5373 -0.5027
   22CHL1   C19 2774   4.640   5.194   6.452  0.1709 -0.3468  0.2178
   22CHL1  H19A 2775   4.624   5.290   6.399 -0.3259 -0.5330  0.0307
   22CHL1  H19B 2776   4.556   5.128   6.423 -0.8223  1.2451 -0.6202
   22CHL1  H19C 2777   4.633   5.213   6.561 -2.6232 -0.6228  0.1366
   22CHL1    C1 2778   4.789   4.984   6.463 -0.2206 -0.4801 -0.0440
   22CHL1   H1A 2779   4.709   4.918   6.424 -0.1264 -1.2449  1.0133
   22CHL1   H1B 2780   4.887   4.949   6.425  0.0904 -1.4618  1.5454
   22CHL1    C2 2781   4.800   4.966   6.618  0.1018 -0.3607  0.2942
   22CHL1   H2A 2782   4.802   4.861   6.654  0.2934 -0.4599 -0.0052
   22CHL1   H2B 2783   4.702   4.994   6.663 -0.2323 -2.0124  0.6618
   22CHL1   C20 2784   4.698   5.252   5.713 -0.1182 -0.0531 -0.1967
   22CHL1   H20 2785   4.641   5.346   5.730  0.7486  0.1277  2.0443
   22CHL1   C21 2786   4.597   5.135   5.716 -0.3979 -0.4950  0.2574
   22CHL1  H21A 2787   4.539   5.135   5.622  1.0458 -0.4682 -0.6598
   22CHL1  H21B 2788   4.521   5.150   5.796  1.1558  2.1387  1.3687
   22CHL1  H21C 2789   4.649   5.037   5.723  1.5884  0.5874  1.8174
   22CHL1   C22 2790   4.767   5.248   5.579 -0.1210 -0.8806 -0.3958
   22CHL1  H22A 2791   4.868   5.213   5.607  0.1354  0.4045  0.3405
   22CHL1  H22B 2792   4.719   5.166   5.521 -1.3809  0.0363 -0.6996
   22CHL1   C23 2793   4.805   5.378   5.502  0.4244  0.3013  0.1596
   22CHL1  H23A 2794   4.720   5.430   5.454 -0.8154 -0.0153  1.9085
   22CHL1  H23B 2795   4.854   5.448   5.573  2.5323  0.6990 -1.5847
   22CHL1   C24 2796   4.894   5.328   5.388 -0.1495  0.4747  0.3481
   22CHL1  H24A 2797   4.999   5.310   5.418  0.2086  1.6480 -0.1222
   22CHL1  H24B 2798   4.854   5.236   5.340 -1.4706  1.4883 -0.5902
   22CHL1   C25 2799   4.902   5.432   5.270 -0.1056 -0.0683 -0.0797
   22CHL1   H25 2800   4.985   5.396   5.204 -0.3000 -2.4282  0.8908
   22CHL1   C26 2801   4.771   5.441   5.184 -0.0435  0.2391  0.0461
   22CHL1  H26A 2802   4.762   5.338   5.144 -1.4276  0.0390  0.8132
   22CHL1  H26B 2803   4.683   5.477   5.242 -0.0056  1.1302 -0.4313
   22CHL1  H26C 2804   4.797   5.513   5.103 -1.0676  1.1261  0.4877
   22CHL1   C27 2805   4.929   5.572   5.324 -0.0578  1.1156 -0.5297
   22CHL1  H27A 2806   5.026   5.584   5.376  0.1375 -0.0207 -0.5987
   22CHL1  H27B 2807   4.949   5.643   5.241 -1.5366  0.4264 -1.5315
   22CHL1  H27C 2808   4.841   5.616   5.376 -0.6762  0.6656 -1.1672
   23CHL1    C3 2809   3.004   5.782   7.077 -0.9292  0.2942  0.2550
   23CHL1    H3 2810   3.064   5.716   7.012 -1.4194 -0.3411  0.4412
   23CHL1    O3 2811   3.012   5.754   7.213  0.3036  0.5123  0.3762
   23CHL1   H3' 2812   2.942   5.808   7.250  0.1400  1.4751 -1.2413
   23CHL1    C4 2813   3.049   5.926   7.047  0.9091  0.9575 -0.3758
   23CHL1   H4A 2814   2.994   5.993   7.117 -0.6311 -1.4919  0.8732
   23CHL1   H4B 2815   3.158   5.926   7.069  0.7066 -0.2753  0.7484
   23CHL1    C5 2816   3.025   5.981   6.906  0.1073  0.2009 -0.7248
   23CHL1    C6 2817   3.119   6.034   6.833  0.1903  0.0389 -0.2230
   23CHL1    H6 2818   3.221   6.050   6.869 -0.7517 -0.5398  3.0169
   23CHL1    C7 2819   3.101   6.073   6.692  0.6879  0.0526 -0.1325
   23CHL1   H7A 2820   3.148   6.173   6.677  0.1528  0.0365 -2.1830
   23CHL1   H7B 2821   3.153   6.009   6.618  0.9587  0.1356 -0.0151
   23CHL1    C8 2822   2.958   6.066   6.634  0.9691  0.8276  0.2590
   23CHL1    H8 2823   2.918   6.156   6.684  2.3245  0.8520  1.3684
   23CHL1   C14 2824   2.958   6.072   6.481  0.1684  0.7208 -0.2735
   23CHL1   H14 2825   2.993   5.970   6.455 -1.3990  0.1257 -0.1540
   23CHL1   C15 2826   3.033   6.186   6.415 -0.0633 -0.2795 -0.1467
   23CHL1  H15A 2827   3.005   6.277   6.472 -0.0772  0.4217 -1.2499
   23CHL1  H15B 2828   3.142   6.167   6.426  0.2088  1.7927  1.2341
   23CHL1   C16 2829   2.986   6.185   6.272  0.1472  0.2407 -0.3711
   23CHL1  H16A 2830   2.946   6.285   6.245 -0.4891 -0.6793 -3.1516
   23CHL1  H16B 2831   3.054   6.150   6.192  0.9542  2.9354 -0.9637
   23CHL1   C17 2832   2.859   6.094   6.272  0.4532  0.3008 -0.5063
   23CHL1   H17 2833   2.889   5.994   6.236  1.8317  0.3371  0.4871
   23CHL1   C13 2834   2.822   6.083   6.424 -0.2840 -0.0431  0.0626
   23CHL1   C18 2835   2.751   6.216   6.463  0.1775 -0.6224 -0.5804
   23CHL1  H18A 2836   2.804   6.302   6.416  1.3029 -1.7082 -1.3542
   23CHL1  H18B 2837   2.647   6.222   6.423  0.2695  2.7179 -0.6010
   23CHL1  H18C 2838   2.739   6.223   6.573 -1.1399  0.9732 -0.7786
   23CHL1   C12 2839   2.739   5.963   6.477  0.8490 -0.6248 -0.1735
   23CHL1  H12A 2840   2.635   5.972   6.440  0.3465 -0.7356  1.1446
   23CHL1  H12B 2841   2.794   5.879   6.428  1.3056 -0.3253 -0.1810
   23CHL1   C11 2842   2.739   5.935   6.624  0.6868 -0.4314  0.2421
   23CHL1  H11A 2843   2.674   6.011   6.672 -2.1797 -2.6691  0.1731
   23CHL1  H11B 2844   2.696   5.834   6.641 -3.3222  1.0640  0.0323
   23CHL1    C9 2845   2.876   5.949   6.694 -0.4898 -0.1279 -0.6756
   23CHL1    H9 2846   2.941   5.864   6.665 -0.2523  0.1958 -1.1093
   23CHL1   C10 2847   2.888   5.947   6.844 -0.5781 -0.0694 -0.3415
   23CHL1   C19 2848   2.783   6.036   6.909 -0.4820  0.1812 -0.4148
   23CHL1  H19A 2849   2.789   6.054   7.018 -0.0582  1.7746 -0.6735
   23CHL1  H19B 2850   2.786   6.140   6.870 -0.9421  0.7561  1.0207
   23CHL1  H19C 2851   2.683   5.989   6.895 -0.8081 -0.0544  2.1962
   23CHL1    C1 2852   2.854   5.799   6.885 -0.5846 -0.2879  0.9545
   23CHL1   H1A 2853   2.751   5.772   6.850  0.0701  0.4259 -1.7910
   23CHL1   H1B 2854   2.921   5.728   6.831 -0.7309 -1.1211  1.8420
   23CHL1    C2 2855   2.859   5.761   7.034  0.3521  0.7664  0.5148
   23CHL1   H2A 2856   2.843   5.651   7.043  0.5874  0.7918  1.3307
   23CHL1   H2B 2857   2.787   5.811   7.101  1.1588  0.4386  1.6563
   23CHL1   C20 2858   2.754   6.149   6.174 -0.1330 -0.3772 -0.2551
   23CHL1   H20 2859   2.727   6.250   6.212 -0.4044 -0.6489  0.2710
   23CHL1   C21 2860   2.633   6.065   6.168  0.4071  0.6838  0.4437
   23CHL1  H21A 2861   2.557   6.093   6.092  1.5119 -0.1651 -1.0295
   23CHL1  H21B 2862   2.576   6.071   6.264  1.5726  0.2561  1.1800
   23CHL1  H21C 2863   2.660   5.961   6.140 -0.7829  0.6793 -0.8018
   23CHL1   C22 2864   2.820   6.150   6.025 -0.0755  0.1480 -0.0242
   23CHL1  H22A 2865   2.886   6.240   6.022 -0.1674  0.2166  0.0378
   23CHL1  H22B 2866   2.884   6.063   5.997 -1.2579 -1.1198  1.1030
   23CHL1   C23 2867   2.723   6.159   5.905 -0.0568  0.0851 -0.5226
   23CHL1  H23A 2868   2.691   6.053   5.900  1.8637 -0.5617 -0.0720
   23CHL1  H23B 2869   2.634   6.223   5.923 -1.5684 -2.1974  0.6637
   23CHL1   C24 2870   2.787   6.199   5.767 -0.6035 -0.1866  0.1248
   23CHL1  H24A 2871   2.803   6.308   5.769 -1.8689  0.0962 -2.0466
   23CHL1  H24B 2872   2.886   6.149   5.770 -1.5473 -2.3001 -1.2852
   23CHL1   C25 2873   2.710   6.154   5.642 -0.6433  0.6307 -0.1556
   23CHL1   H25 2874   2.714   6.043   5.654  1.1601  0.8029  1.3046
   23CHL1   C26 2875   2.567   6.198   5.646  0.6649 -0.3761 -1.0090
   23CHL1  H26A 2876   2.510   6.148   5.727  0.2537  1.0090 -0.4077
   23CHL1  H26B 2877   2.547   6.305   5.667 -2.4100 -1.2750  1.4132
   23CHL1  H26C 2878   2.527   6.183   5.543  0.9311 -0.9656 -1.0307
   23CHL1   C27 2879   2.789   6.200   5.517 -0.2796  0.1050  0.5042
   23CHL1  H27A 2880   2.814   6.307   5.532 -1.6714  0.4136  0.6958
   23CHL1  H27B 2881   2.883   6.141   5.503 -1.0163 -0.8945 -0.3881
   23CHL1  H27C 2882   2.731   6.189   5.423 -0.1687  1.2975  0.2840
   24CHL1    C3 2883   3.985   6.716   7.076  0.3841  0.3902  0.8595
   24CHL1    H3 2884   4.091   6.732   7.047  0.3052  2.1012  1.3386
   24CHL1    O3 2885   3.970   6.736   7.213 -0.7293  0.0099  0.1699
   24CHL1   H3' 2886   3.885   6.691   7.224 -0.7311 -0.9762 -2.7910
   24CHL1    C4 2887   3.906   6.831   7.017 -0.1825  0.5552  0.1335
   24CHL1   H4A 2888   3.810   6.834   7.072  1.2497  0.5411  2.8473
   24CHL1   H4B 2889   3.947   6.929   7.051 -1.7246  1.4952 -0.6311
   24CHL1    C5 2890   3.897   6.816   6.867  0.2795 -0.0987 -0.3923
   24CHL1    C6 2891   3.951   6.911   6.790 -0.5810 -0.4389 -0.5558
   24CHL1    H6 2892   4.009   6.992   6.836 -3.7544  1.1025  0.9953
   24CHL1    C7 2893   3.958   6.904   6.643  0.2461  0.2001  0.1512
   24CHL1   H7A 2894   3.946   7.004   6.597 -0.4369 -0.9192 -2.2369
   24CHL1   H7B 2895   4.060   6.876   6.610  0.8975  0.6962  1.6538
   24CHL1    C8 2896   3.854   6.806   6.585 -0.0146  0.2599 -0.3888
   24CHL1    H8 2897   3.753   6.850   6.599 -1.1081 -2.2021 -0.0568
   24CHL1   C14 2898   3.883   6.779   6.435  0.0726 -0.5954 -0.2040
   24CHL1   H14 2899   3.985   6.736   6.431 -0.0110 -1.2887  2.7071
   24CHL1   C15 2900   3.886   6.898   6.336  0.2166 -0.5459  0.2437
   24CHL1  H15A 2901   3.814   6.981   6.356  3.1339  1.9311  1.2085
   24CHL1  H15B 2902   3.984   6.950   6.330 -0.5790  0.9104 -0.8686
   24CHL1   C16 2903   3.854   6.834   6.201  0.6915  0.0979 -0.0843
   24CHL1  H16A 2904   3.772   6.897   6.159  1.1097  1.8479  1.5693
   24CHL1  H16B 2905   3.945   6.831   6.138  0.0242 -1.5161 -1.0098
   24CHL1   C17 2906   3.818   6.686   6.225 -0.9969 -0.2778  0.4506
   24CHL1   H17 2907   3.915   6.632   6.223 -0.4819  0.6427 -0.2188
   24CHL1   C13 2908   3.779   6.674   6.371 -0.5802  0.5727 -0.0320
   24CHL1   C18 2909   3.630   6.705   6.394  0.2359 -0.5441  0.0399
   24CHL1  H18A 2910   3.607   6.801   6.343 -0.8001  0.3810  2.1313
   24CHL1  H18B 2911   3.566   6.623   6.353 -0.4490 -0.5346  1.0552
   24CHL1  H18C 2912   3.606   6.730   6.500 -2.2264 -0.1010 -0.5479
   24CHL1   C12 2913   3.808   6.533   6.449 -0.3902  0.4114  0.1992
   24CHL1  H12A 2914   3.743   6.453   6.409  1.4051 -1.2969  0.5066
   24CHL1  H12B 2915   3.915   6.519   6.423 -0.3558 -2.9436  1.6062
   24CHL1   C11 2916   3.793   6.556   6.596 -0.0886  0.1558  0.4975
   24CHL1  H11A 2917   3.684   6.570   6.607 -0.3419  0.8949 -2.2568
   24CHL1  H11B 2918   3.836   6.471   6.652  0.4718 -0.6249 -1.0694
   24CHL1    C9 2919   3.866   6.674   6.660 -0.0133  0.2039  0.6793
   24CHL1    H9 2920   3.972   6.643   6.660  0.1708  0.8131  0.0137
   24CHL1   C10 2921   3.839   6.686   6.808 -0.8596  0.2158 -0.8221
   24CHL1   C19 2922   3.690   6.674   6.835 -0.1776 -0.8194  0.9179
   24CHL1  H19A 2923   3.657   6.569   6.823  0.1578 -0.6781 -2.0387
   24CHL1  H19B 2924   3.659   6.708   6.936 -0.3231 -1.4137  1.0741
   24CHL1  H19C 2925   3.633   6.736   6.763  1.8154  0.3497  0.2730
   24CHL1    C1 2926   3.913   6.571   6.891  0.0197  0.6068 -0.4112
   24CHL1   H1A 2927   3.869   6.473   6.862  2.7901 -0.6122 -0.8202
   24CHL1   H1B 2928   4.015   6.572   6.848 -0.4529 -1.7269 -1.7911
   24CHL1    C2 2929   3.921   6.581   7.040  0.4651 -0.8463 -0.4124
   24CHL1   H2A 2930   3.974   6.494   7.083  0.3150 -0.7482 -0.0250
   24CHL1   H2B 2931   3.822   6.579   7.091 -0.0833 -0.8977 -1.4598
   24CHL1   C20 2932   3.736   6.625   6.109  0.1537 -0.5815 -1.1064
   24CHL1   H20 2933   3.640   6.680   6.098 -0.1414 -0.7431  0.4217
   24CHL1   C21 2934   3.703   6.477   6.142 -0.1679 -0.3581  0.0651
   24CHL1  H21A 2935   3.639   6.461   6.231 -1.3380 -0.0210 -0.6962
   24CHL1  H21B 2936   3.788   6.406   6.151  0.5947  0.1018 -2.6372
   24CHL1  H21C 2937   3.655   6.433   6.052 -1.1078  1.4815 -0.3840
   24CHL1   C22 2938   3.799   6.637   5.965 -0.5203  0.0837 -0.0489
   24CHL1  H22A 2939   3.801   6.747   5.948 -0.3463  0.1004  0.0780
   24CHL1  H22B 2940   3.905   6.605   5.970 -0.9481 -1.5779 -0.9143
   24CHL1   C23 2941   3.733   6.566   5.848 -0.8901 -0.3200  1.0532
   24CHL1  H23A 2942   3.728   6.457   5.867 -1.1092 -0.5222 -0.1050
   24CHL1  H23B 2943   3.629   6.605   5.840  0.4200  3.3132 -0.3044
   24CHL1   C24 2944   3.801   6.588   5.712  0.0975 -0.7579 -0.2429
   24CHL1  H24A 2945   3.789   6.695   5.684  0.3448 -0.3635  1.0741
   24CHL1  H24B 2946   3.910   6.570   5.727  1.0736  2.8016 -2.0433
   24CHL1   C25 2947   3.749   6.495   5.600  0.2532  0.3566 -0.1867
   24CHL1   H25 2948   3.797   6.398   5.625  1.7757  1.1764  0.1484
   24CHL1   C26 2949   3.589   6.491   5.593  0.2320 -0.1956  0.1819
   24CHL1  H26A 2950   3.543   6.457   5.688  1.3519 -0.9699  0.4726
   24CHL1  H26B 2951   3.551   6.593   5.568  0.2736 -0.4569 -1.0149
   24CHL1  H26C 2952   3.544   6.426   5.515  0.8237 -3.2732  2.2479
   24CHL1   C27 2953   3.816   6.519   5.462  0.5723 -0.2682 -0.2742
   24CHL1  H27A 2954   3.805   6.441   5.383 -0.6223  0.3250 -0.7197
   24CHL1  H27B 2955   3.800   6.623   5.427 -0.2742 -0.9605 -2.0622
   24CHL1  H27C 2956   3.923   6.511   5.490  0.6292  3.5157  1.0964
   25CHL1    C3 2957   0.030   1.836   6.761  0.7447  0.2204  0.5336
   25CHL1    H3 2958   0.096   1.925   6.750  3.1826 -1.7319 -2.1323
   25CHL1    O3 2959  -0.035   1.839   6.890  0.7240  0.3079  0.2091
   25CHL1   H3' 2960  -0.117   1.883   6.868 -0.1171 -2.0315 -1.7648
   25CHL1    C4 2961  -0.077   1.843   6.640 -0.2099  0.2582  0.4512
   25CHL1   H4A 2962  -0.130   1.747   6.655 -0.3635  0.2338 -0.2410
   25CHL1   H4B 2963  -0.156   1.919   6.658 -0.0113  0.0588  2.3290
   25CHL1    C5 2964  -0.023   1.846   6.500  0.1186  0.4225  0.5737
   25CHL1    C6 2965  -0.062   1.939   6.408 -0.8575  0.3990 -0.0615
   25CHL1    H6 2966  -0.138   2.014   6.433 -0.3799  0.2976  1.8753
   25CHL1    C7 2967  -0.029   1.937   6.260  0.1962 -0.0515  0.1190
   25CHL1   H7A 2968  -0.117   1.961   6.197  0.9633 -0.5979 -1.2017
   25CHL1   H7B 2969   0.050   2.013   6.242  1.1765 -1.1264 -0.2344
   25CHL1    C8 2970   0.033   1.797   6.223 -0.7509  0.4002 -0.0192
   25CHL1    H8 2971  -0.054   1.730   6.206  0.8359 -1.9228  0.6684
   25CHL1   C14 2972   0.104   1.810   6.084 -1.1862  0.7102 -0.0177
   25CHL1   H14 2973   0.184   1.886   6.091  0.6641 -0.7785 -3.1108
   25CHL1   C15 2974   0.008   1.850   5.973 -0.4368 -0.6901 -0.9711
   25CHL1  H15A 2975  -0.082   1.785   5.976 -0.4126 -0.6849  1.4074
   25CHL1  H15B 2976   0.002   1.960   5.988  0.4090 -0.9573  2.0213
   25CHL1   C16 2977   0.094   1.818   5.847  0.2736 -0.1902  0.0339
   25CHL1  H16A 2978   0.032   1.763   5.773  1.5661  0.6663 -1.7678
   25CHL1  H16B 2979   0.134   1.912   5.803 -0.3501 -0.3655 -0.9510
   25CHL1   C17 2980   0.223   1.746   5.896 -0.2481 -0.1441 -0.5940
   25CHL1   H17 2981   0.298   1.825   5.917  0.6058 -1.1587  0.3410
   25CHL1   C13 2982   0.176   1.683   6.031  0.3801 -0.3689  0.4791
   25CHL1   C18 2983   0.065   1.575   6.015 -0.3162  0.4252  0.2992
   25CHL1  H18A 2984   0.115   1.475   6.008 -0.7460  0.3067 -4.3335
   25CHL1  H18B 2985  -0.001   1.567   6.104 -1.6991  0.3974 -0.7093
   25CHL1  H18C 2986   0.008   1.575   5.920 -0.9559  0.0886  0.6768
   25CHL1   C12 2987   0.278   1.639   6.131 -0.5794  0.4801 -0.8440
   25CHL1  H12A 2988   0.315   1.538   6.104  0.0994  0.6212 -0.4517
   25CHL1  H12B 2989   0.358   1.716   6.133  0.7408 -0.8580  0.2804
   25CHL1   C11 2990   0.226   1.624   6.273  0.3565 -0.4902 -0.3325
   25CHL1  H11A 2991   0.173   1.526   6.267  0.7099 -0.7707  0.8137
   25CHL1  H11B 2992   0.309   1.613   6.347  1.8838  2.4808 -1.4707
   25CHL1    C9 2993   0.133   1.740   6.336  0.5768 -0.2421 -0.1277
   25CHL1    H9 2994   0.204   1.825   6.345 -1.4598  1.8258 -2.2757
   25CHL1   C10 2995   0.063   1.721   6.473 -0.1064 -0.6000  0.3805
   25CHL1   C19 2996  -0.020   1.591   6.466 -0.4016  0.0374  0.5961
   25CHL1  H19A 2997  -0.088   1.592   6.378 -1.7418  1.4526  1.5937
   25CHL1  H19B 2998   0.052   1.508   6.450  0.2585  0.8787 -1.0073
   25CHL1  H19C 2999  -0.082   1.565   6.554 -0.4569  1.0139  0.8549
   25CHL1    C1 3000   0.170   1.706   6.596  0.6047 -0.1700  0.8372
   25CHL1   H1A 3001   0.224   1.610   6.585 -0.5699 -0.7117 -0.4329
   25CHL1   H1B 3002   0.242   1.791   6.587  0.5984 -0.1746  0.7386
   25CHL1    C2 3003   0.110   1.705   6.737 -0.0400 -0.0128  0.0757
   25CHL1   H2A 3004   0.199   1.706   6.804 -0.5872 -0.7998  0.8348
   25CHL1   H2B 3005   0.043   1.616   6.739  0.8130 -0.7392 -1.4284
   25CHL1   C20 3006   0.274   1.650   5.786 -0.5939  0.0633 -0.2561
   25CHL1   H20 3007   0.213   1.557   5.782  0.6530 -0.8794  1.2971
   25CHL1   C21 3008   0.418   1.607   5.825  0.7108 -0.1675  0.3191
   25CHL1  H21A 3009   0.493   1.653   5.757 -1.5640 -0.3241 -2.4969
   25CHL1  H21B 3010   0.424   1.497   5.812 -1.7365 -0.2938 -0.2024
   25CHL1  H21C 3011   0.448   1.632   5.929  2.0607 -0.8244  0.1182
   25CHL1   C22 3012   0.277   1.706   5.642 -0.1961 -0.7649  0.0773
   25CHL1  H22A 3013   0.175   1.736   5.610 -0.4333 -0.1217  1.3730
   25CHL1  H22B 3014   0.346   1.794   5.647 -0.0656 -0.9197  1.2470
   25CHL1   C23 3015   0.306   1.596   5.541 -0.2480 -0.4146  0.4028
   25CHL1  H23A 3016   0.398   1.543   5.572  0.1957 -0.2178 -0.5290
   25CHL1  H23B 3017   0.232   1.517   5.566 -1.5415  1.2167  2.1236
   25CHL1   C24 3018   0.309   1.641   5.393  0.5160  0.3334 -0.5272
   25CHL1  H24A 3019   0.285   1.553   5.330  0.7373  0.6367 -1.0465
   25CHL1  H24B 3020   0.225   1.713   5.380  1.1752  1.1693 -0.2748
   25CHL1   C25 3021   0.438   1.698   5.337 -0.8964 -0.1740 -0.7908
   25CHL1   H25 3022   0.474   1.770   5.413 -1.9687  0.9720 -1.3392
   25CHL1   C26 3023   0.544   1.582   5.324 -0.2282 -0.8443  0.3550
   25CHL1  H26A 3024   0.636   1.625   5.279 -0.4298 -0.5622  0.2027
   25CHL1  H26B 3025   0.555   1.527   5.419 -0.1061  0.3175  1.0384
   25CHL1  H26C 3026   0.514   1.506   5.249 -1.3035  0.7335 -0.8985
   25CHL1   C27 3027   0.422   1.747   5.194 -1.2474 -0.2692  0.2743
   25CHL1  H27A 3028   0.520   1.779   5.151 -0.8299 -1.7933  0.0321
   25CHL1  H27B 3029   0.387   1.663   5.130 -0.4699 -0.9707  0.7529
   25CHL1  H27C 3030   0.352   1.833   5.185 -1.4787 -0.5489 -0.7359
   26CHL1    C3 3031   4.647   6.397   6.919  0.6626 -0.2423  0.2651
   26CHL1    H3 3032   4.536   6.397   6.905  0.8691 -1.8075 -1.7391
   26CHL1    O3 3033   4.678   6.417   7.054 -0.3093  0.5108 -0.2323
   26CHL1   H3' 3034   4.748   6.352   7.064 -1.1549 -0.4242 -0.2589
   26CHL1    C4 3035   4.706   6.267   6.860 -0.1947  0.3219 -0.0000
   26CHL1   H4A 3036   4.816   6.276   6.875 -0.4497  0.4480  2.0460
   26CHL1   H4B 3037   4.666   6.197   6.936  1.1216  1.4361  1.7871
   26CHL1    C5 3038   4.661   6.257   6.713 -0.3958  0.3254  0.0549
   26CHL1    C6 3039   4.601   6.148   6.668 -0.6963 -0.2575 -0.1678
   26CHL1    H6 3040   4.590   6.060   6.731  1.6302 -1.5467 -1.4141
   26CHL1    C7 3041   4.565   6.125   6.528  0.0675  0.1930  0.3764
   26CHL1   H7A 3042   4.596   6.022   6.498 -0.5352 -0.3352  1.4803
   26CHL1   H7B 3043   4.456   6.140   6.521  0.3429  1.7330 -1.3691
   26CHL1    C8 3044   4.627   6.225   6.428 -0.0115  0.2769 -0.2327
   26CHL1    H8 3045   4.731   6.192   6.407 -0.1844  1.3702 -3.3041
   26CHL1   C14 3046   4.560   6.217   6.293 -0.1033 -0.6117  0.4664
   26CHL1   H14 3047   4.458   6.261   6.293  0.5568  1.0759  2.5114
   26CHL1   C15 3048   4.535   6.074   6.234 -0.2881  1.2310 -0.6213
   26CHL1  H15A 3049   4.631   6.018   6.237 -0.3414  1.1676  1.1427
   26CHL1  H15B 3050   4.453   6.019   6.285  0.9696 -0.5028 -0.3585
   26CHL1   C16 3051   4.500   6.108   6.088  0.0529 -0.0816  0.2900
   26CHL1  H16A 3052   4.556   6.035   6.026  0.1057 -0.5836  0.9205
   26CHL1  H16B 3053   4.391   6.098   6.069  0.0301  0.9529 -0.2156
   26CHL1   C17 3054   4.547   6.255   6.057  0.4591 -0.2862  0.2415
   26CHL1   H17 3055   4.450   6.309   6.061  0.0887 -1.0076  2.0891
   26CHL1   C13 3056   4.623   6.305   6.182 -0.2313 -0.1898 -0.4091
   26CHL1   C18 3057   4.771   6.274   6.172 -0.6433 -0.0700  0.0681
   26CHL1  H18A 3058   4.776   6.166   6.147 -1.3630 -0.5918  1.9659
   26CHL1  H18B 3059   4.812   6.339   6.092 -1.0790  0.2021  0.0657
   26CHL1  H18C 3060   4.822   6.290   6.269  0.9263 -1.6641 -0.4343
   26CHL1   C12 3061   4.610   6.452   6.233  0.6214  0.1394  0.1223
   26CHL1  H12A 3062   4.644   6.536   6.168 -2.0111  1.5079  0.3993
   26CHL1  H12B 3063   4.501   6.466   6.222  0.6062 -0.3051 -0.3595
   26CHL1   C11 3064   4.653   6.477   6.378 -0.3714 -0.9858  0.0354
   26CHL1  H11A 3065   4.763   6.465   6.363 -0.2736 -0.1906  0.0924
   26CHL1  H11B 3066   4.638   6.584   6.403 -0.0535 -0.4090 -2.0103
   26CHL1    C9 3067   4.616   6.368   6.481 -0.4512  0.5655 -0.2415
   26CHL1    H9 3068   4.508   6.378   6.505 -0.7108 -4.4252  1.6913
   26CHL1   C10 3069   4.692   6.381   6.621  0.6264  0.2034  0.0523
   26CHL1   C19 3070   4.848   6.379   6.604  0.0969 -0.3946 -0.2263
   26CHL1  H19A 3071   4.872   6.466   6.540  1.7871 -0.1741  0.6476
   26CHL1  H19B 3072   4.901   6.373   6.702  0.9294 -0.2445 -0.6620
   26CHL1  H19C 3073   4.886   6.289   6.551 -0.8430  0.3790 -2.3032
   26CHL1    C1 3074   4.652   6.509   6.695 -0.0881 -0.3795  0.3182
   26CHL1   H1A 3075   4.705   6.596   6.652 -0.6004 -0.2223 -0.0005
   26CHL1   H1B 3076   4.548   6.547   6.689  0.4729  1.4548  1.4571
   26CHL1    C2 3077   4.700   6.516   6.842  0.7988  0.4761 -0.9780
   26CHL1   H2A 3078   4.660   6.608   6.889  1.5640 -0.2859  1.3065
   26CHL1   H2B 3079   4.809   6.521   6.864  0.2242  1.6575  2.0730
   26CHL1   C20 3080   4.619   6.277   5.923  0.6017  0.9290  0.5598
   26CHL1   H20 3081   4.724   6.242   5.929  0.8456  1.6846  0.8819
   26CHL1   C21 3082   4.620   6.422   5.889 -0.1404  0.3646  0.1250
   26CHL1  H21A 3083   4.681   6.437   5.798  0.4621 -1.1044  0.2613
   26CHL1  H21B 3084   4.663   6.487   5.968  0.4157  0.0178  0.1099
   26CHL1  H21C 3085   4.513   6.451   5.880 -0.6315 -1.6622 -1.3766
   26CHL1   C22 3086   4.550   6.190   5.803 -0.1427 -0.2321  0.0798
   26CHL1  H22A 3087   4.561   6.081   5.821 -3.2607 -0.7180 -0.4817
   26CHL1  H22B 3088   4.440   6.200   5.805 -0.1037  0.4158 -0.3042
   26CHL1   C23 3089   4.606   6.219   5.666  0.0453  0.4793 -0.3025
   26CHL1  H23A 3090   4.565   6.319   5.638  0.4920  1.0060  0.8791
   26CHL1  H23B 3091   4.716   6.223   5.672 -0.0306  1.0138  1.0528
   26CHL1   C24 3092   4.566   6.116   5.562 -0.3252 -0.1477  0.2913
   26CHL1  H24A 3093   4.591   6.014   5.600 -1.1477 -0.2727  0.5098
   26CHL1  H24B 3094   4.455   6.116   5.553 -0.1873 -1.1489 -2.2952
   26CHL1   C25 3095   4.631   6.115   5.424  0.0446 -0.1943 -0.1501
   26CHL1   H25 3096   4.590   6.028   5.369  0.6250  0.5781 -1.8920
   26CHL1   C26 3097   4.580   6.252   5.355 -0.5248  0.6656 -0.4473
   26CHL1  H26A 3098   4.639   6.336   5.399 -1.9096  0.7378  1.3747
   26CHL1  H26B 3099   4.598   6.240   5.246 -1.0289 -1.8172 -0.3166
   26CHL1  H26C 3100   4.472   6.264   5.374 -0.5967  0.8171 -0.9389
   26CHL1   C27 3101   4.780   6.100   5.401  0.0313  0.2868 -0.0614
   26CHL1  H27A 3102   4.799   6.102   5.292  0.0955 -0.0396 -0.0586
   26CHL1  H27B 3103   4.839   6.182   5.448  1.3850 -1.7601  2.0676
   26CHL1  H27C 3104   4.808   5.999   5.439  0.0278 -1.4130 -4.1108
   27CHL1    C3 3105   3.679   5.437   6.513 -0.0512 -0.3078 -0.2836
   27CHL1    H3 3106   3.596   5.510   6.524  0.4289  0.2671 -0.3690
   27CHL1    O3 3107   3.695   5.382   6.646  0.6015 -0.1562 -0.2646
   27CHL1   H3' 3108   3.761   5.431   6.695 -0.6278  0.9355  0.3925
   27CHL1    C4 3109   3.654   5.310   6.411  0.1116  0.1929 -0.2877
   27CHL1   H4A 3110   3.738   5.240   6.431  0.6749  0.7768 -0.5731
   27CHL1   H4B 3111   3.570   5.247   6.448  1.0586 -1.3419 -0.6556
   27CHL1    C5 3112   3.651   5.353   6.272 -0.1493 -0.8014  0.0806
   27CHL1    C6 3113   3.536   5.339   6.199 -0.0111 -0.2921 -0.0792
   27CHL1    H6 3114   3.450   5.289   6.246  0.6669  0.1182  1.7201
   27CHL1    C7 3115   3.526   5.384   6.058 -0.4650 -0.4250  0.2158
   27CHL1   H7A 3116   3.475   5.302   6.004 -1.6162 -1.5182  2.8141
   27CHL1   H7B 3117   3.473   5.481   6.045  2.3028  0.9144 -2.4775
   27CHL1    C8 3118   3.664   5.405   5.992  0.1161 -0.3417  0.0694
   27CHL1    H8 3119   3.715   5.309   5.968 -0.2317  0.0532 -2.6059
   27CHL1   C14 3120   3.653   5.486   5.861  0.1429  0.0310 -0.6982
   27CHL1   H14 3121   3.599   5.579   5.888 -0.5424 -0.4023 -0.5444
   27CHL1   C15 3122   3.575   5.423   5.746 -0.0865  0.5889 -0.1703
   27CHL1  H15A 3123   3.614   5.320   5.728 -1.2658  0.1120 -0.0953
   27CHL1  H15B 3124   3.466   5.422   5.767  0.2848  0.1826  2.0277
   27CHL1   C16 3125   3.604   5.507   5.624 -0.4206 -0.2886 -0.7659
   27CHL1  H16A 3126   3.627   5.443   5.536 -1.2798 -1.8016  0.0476
   27CHL1  H16B 3127   3.524   5.581   5.603 -1.4218 -0.8718  0.8120
   27CHL1   C17 3128   3.730   5.588   5.665 -0.7895 -0.0678  0.0127
   27CHL1   H17 3129   3.675   5.681   5.693 -0.9897 -0.0629 -0.3848
   27CHL1   C13 3130   3.787   5.531   5.793 -1.0703 -0.0194 -0.6963
   27CHL1   C18 3131   3.875   5.410   5.757  0.0653 -0.0315  0.5821
   27CHL1  H18A 3132   3.889   5.346   5.847 -0.6407 -1.3548 -0.2075
   27CHL1  H18B 3133   3.837   5.346   5.675  0.7793 -0.5365  0.6388
   27CHL1  H18C 3134   3.974   5.452   5.729 -1.2891  1.8863 -1.7034
   27CHL1   C12 3135   3.854   5.620   5.894  0.8383 -0.7615  0.4373
   27CHL1  H12A 3136   3.948   5.658   5.850  0.9510 -0.6684  0.7511
   27CHL1  H12B 3137   3.790   5.710   5.911 -0.6323 -1.6505 -0.1925
   27CHL1   C11 3138   3.879   5.562   6.031 -0.0124  0.1091  0.3118
   27CHL1  H11A 3139   3.965   5.493   6.016  0.0228  0.1251  0.4430
   27CHL1  H11B 3140   3.898   5.649   6.097 -2.0989 -0.6744  2.0620
   27CHL1    C9 3141   3.750   5.498   6.087  0.9755 -0.2095 -0.0375
   27CHL1    H9 3142   3.686   5.587   6.103  0.1116 -0.7628 -0.3260
   27CHL1   C10 3143   3.775   5.433   6.222  0.1211  0.3320  0.6572
   27CHL1   C19 3144   3.884   5.329   6.208 -0.8934 -0.0258 -0.1315
   27CHL1  H19A 3145   3.893   5.261   6.295  1.8627  0.8304  0.3206
   27CHL1  H19B 3146   3.877   5.257   6.124  2.4162  0.3521 -0.8639
   27CHL1  H19C 3147   3.980   5.384   6.203 -1.5106  1.4217  2.1961
   27CHL1    C1 3148   3.816   5.545   6.328 -0.2646 -0.0539  1.7890
   27CHL1   H1A 3149   3.919   5.575   6.300 -0.8968  0.7370  0.1702
   27CHL1   H1B 3150   3.748   5.631   6.310 -1.8532 -1.5431  0.2927
   27CHL1    C2 3151   3.812   5.501   6.477 -0.2927  0.2862  0.1001
   27CHL1   H2A 3152   3.824   5.594   6.537 -1.5333  1.3077 -1.1601
   27CHL1   H2B 3153   3.896   5.430   6.489  0.7891  1.6234  0.7634
   27CHL1   C20 3154   3.824   5.610   5.540  0.5742  0.2094  0.5334
   27CHL1   H20 3155   3.864   5.511   5.509  0.5879  0.1161  0.8484
   27CHL1   C21 3156   3.943   5.696   5.574 -0.1470  0.2281 -0.1275
   27CHL1  H21A 3157   3.906   5.793   5.613 -0.5815 -0.1160  0.3171
   27CHL1  H21B 3158   4.006   5.719   5.486  1.6162  0.1838  1.0645
   27CHL1  H21C 3159   4.003   5.641   5.650 -0.1660 -0.9910 -0.9759
   27CHL1   C22 3160   3.753   5.656   5.414  0.0061 -0.8989  0.1367
   27CHL1  H22A 3161   3.662   5.598   5.389 -0.4235  0.1233 -0.7538
   27CHL1  H22B 3162   3.713   5.757   5.440  0.2679 -1.2266  1.9745
   27CHL1   C23 3163   3.834   5.670   5.286  0.3569  0.0867 -0.1786
   27CHL1  H23A 3164   3.910   5.749   5.301  1.3120 -0.2855 -2.6350
   27CHL1  H23B 3165   3.874   5.572   5.252  1.3430  1.1655 -2.3171
   27CHL1   C24 3166   3.748   5.712   5.172  0.7930  0.1396  0.5329
   27CHL1  H24A 3167   3.674   5.632   5.151  1.3654 -0.3721  0.4335
   27CHL1  H24B 3168   3.687   5.803   5.189 -0.2831  0.0082 -2.2396
   27CHL1   C25 3169   3.834   5.742   5.044 -0.3440 -1.0289 -0.9133
   27CHL1   H25 3170   3.923   5.677   5.038  0.1099 -0.4131 -0.8673
   27CHL1   C26 3171   3.753   5.737   4.920  0.6501 -0.1444  0.4993
   27CHL1  H26A 3172   3.674   5.815   4.918 -1.3027 -2.0162  0.7429
   27CHL1  H26B 3173   3.820   5.750   4.833  0.1453 -0.7603  0.0087
   27CHL1  H26C 3174   3.697   5.641   4.913 -0.1646  0.3992 -0.6869
   27CHL1   C27 3175   3.883   5.888   5.051 -0.2279 -0.2993 -0.0277
   27CHL1  H27A 3176   3.798   5.956   5.028  0.9516  1.5816  0.9806
   27CHL1  H27B 3177   3.967   5.905   4.981 -0.0829 -2.2428 -0.3949
   27CHL1  H27C 3178   3.927   5.902   5.152  1.8661 -1.2654 -0.7445
   28CHL1    C3 3179   6.438   4.931   6.800  0.3739  0.3617  0.5816
   28CHL1    H3 3180   6.345   4.939   6.740  1.9575  1.7993 -1.8778
   28CHL1    O3 3181   6.409   4.885   6.929  0.0012 -0.1703  0.5711
   28CHL1   H3' 3182   6.341   4.948   6.954 -2.9753 -2.8203 -0.2706
   28CHL1    C4 3183   6.513   4.825   6.727 -0.2078 -0.4033 -0.3160
   28CHL1   H4A 3184   6.604   4.813   6.790 -0.2664  0.0589 -0.1361
   28CHL1   H4B 3185   6.446   4.737   6.734 -1.8927  0.6388 -2.3380
   28CHL1    C5 3186   6.543   4.866   6.580  0.0010  0.0770  0.2267
   28CHL1    C6 3187   6.508   4.785   6.485  0.2787 -0.5933 -0.4251
   28CHL1    H6 3188   6.449   4.695   6.511 -2.8154  1.1565 -0.8762
   28CHL1    C7 3189   6.534   4.815   6.341  0.5194 -0.2171 -0.7317
   28CHL1   H7A 3190   6.581   4.722   6.304  0.6427  0.0965 -1.3623
   28CHL1   H7B 3191   6.438   4.832   6.288  0.9207  0.6636 -1.1882
   28CHL1    C8 3192   6.638   4.928   6.316  0.0281  0.5583  0.0107
   28CHL1    H8 3193   6.737   4.888   6.348 -0.1771 -1.4240 -1.6392
   28CHL1   C14 3194   6.630   4.965   6.163  0.3649 -0.6583 -0.6705
   28CHL1   H14 3195   6.529   5.011   6.151  1.6109  2.0951 -1.2174
   28CHL1   C15 3196   6.645   4.847   6.056  0.1054  0.1344  0.1759
   28CHL1  H15A 3197   6.727   4.773   6.057 -0.9581 -1.0700  0.7522
   28CHL1  H15B 3198   6.554   4.783   6.050  0.1107  0.2285 -4.4360
   28CHL1   C16 3199   6.657   4.928   5.930  0.4388  0.1048  0.2926
   28CHL1  H16A 3200   6.736   4.876   5.871 -1.3690 -1.0402 -1.2107
   28CHL1  H16B 3201   6.564   4.912   5.872  1.2891 -2.5558 -0.5060
   28CHL1   C17 3202   6.691   5.079   5.976 -0.2811 -0.0681 -0.0047
   28CHL1   H17 3203   6.594   5.133   5.974  0.1748  0.7480 -0.5434
   28CHL1   C13 3204   6.729   5.076   6.126 -0.2976  0.5077  0.5378
   28CHL1   C18 3205   6.875   5.011   6.134 -0.5495 -0.0455  0.3470
   28CHL1  H18A 3206   6.957   5.082   6.107 -0.1700 -0.9900 -1.1237
   28CHL1  H18B 3207   6.886   4.991   6.243 -0.6504  2.0488  0.7908
   28CHL1  H18C 3208   6.900   4.929   6.064  1.6957  2.8502 -2.5632
   28CHL1   C12 3209   6.700   5.199   6.214 -0.0406 -0.0404 -0.2839
   28CHL1  H12A 3210   6.786   5.266   6.193  0.2140 -0.1729  0.3071
   28CHL1  H12B 3211   6.609   5.252   6.178 -0.7213 -1.1443 -0.2220
   28CHL1   C11 3212   6.689   5.173   6.369 -0.2792 -0.5635 -0.4452
   28CHL1  H11A 3213   6.796   5.152   6.390  0.4380  3.4222  0.7378
   28CHL1  H11B 3214   6.664   5.273   6.410  0.0213 -0.7003  0.0837
   28CHL1    C9 3215   6.605   5.047   6.407 -0.7570 -0.6276 -0.0687
   28CHL1    H9 3216   6.499   5.073   6.384 -0.3308  0.5167 -0.8541
   28CHL1   C10 3217   6.611   5.005   6.553  0.1889 -0.2434 -0.0362
   28CHL1   C19 3218   6.757   4.994   6.606 -0.9621  0.5129 -0.4672
   28CHL1  H19A 3219   6.814   5.090   6.598 -1.6368  0.9095 -0.6153
   28CHL1  H19B 3220   6.763   4.962   6.712  2.3147 -2.4659 -1.3611
   28CHL1  H19C 3221   6.820   4.916   6.558 -1.3455 -0.8999  1.2592
   28CHL1    C1 3222   6.528   5.109   6.640  0.6983  0.2801  0.3311
   28CHL1   H1A 3223   6.574   5.209   6.623  1.3894 -0.1338 -0.2539
   28CHL1   H1B 3224   6.430   5.094   6.589  1.4347 -1.6771 -0.5999
   28CHL1    C2 3225   6.504   5.072   6.786 -0.1646  0.7469 -0.0547
   28CHL1   H2A 3226   6.442   5.150   6.835 -0.0751  1.7410 -1.4443
   28CHL1   H2B 3227   6.602   5.071   6.837  0.2457  0.9904 -0.8133
   28CHL1   C20 3228   6.779   5.150   5.874  0.5955 -0.2938  0.7832
   28CHL1   H20 3229   6.875   5.095   5.862  1.9703  1.9127  0.9035
   28CHL1   C21 3230   6.809   5.288   5.919 -0.3542 -0.7446  0.0406
   28CHL1  H21A 3231   6.840   5.351   5.833  1.6214 -1.3036  0.3013
   28CHL1  H21B 3232   6.887   5.290   5.998 -1.8106  0.9204  1.5187
   28CHL1  H21C 3233   6.716   5.336   5.957 -0.4923 -1.4413  0.6195
   28CHL1   C22 3234   6.721   5.160   5.725 -0.4921  0.2589  0.3273
   28CHL1  H22A 3235   6.645   5.080   5.713 -0.3397  0.2209 -0.4369
   28CHL1  H22B 3236   6.679   5.259   5.699 -1.0358 -0.5094 -1.9354
   28CHL1   C23 3237   6.837   5.127   5.626  0.1771 -0.3124 -0.0096
   28CHL1  H23A 3238   6.917   5.198   5.653 -1.3169  1.2211  0.5550
   28CHL1  H23B 3239   6.893   5.033   5.649 -1.5814 -1.0884  1.3611
   28CHL1   C24 3240   6.794   5.142   5.482  0.9159  0.4601  0.1259
   28CHL1  H24A 3241   6.748   5.242   5.469  2.3020  1.0447 -0.4498
   28CHL1  H24B 3242   6.888   5.146   5.422  0.2514  3.1280 -0.8765
   28CHL1   C25 3243   6.711   5.024   5.423  0.4853  0.3003 -0.0922
   28CHL1   H25 3244   6.614   4.999   5.472  0.3524 -0.9741 -0.9413
   28CHL1   C26 3245   6.659   5.063   5.285 -0.3997 -0.0701 -0.3952
   28CHL1  H26A 3246   6.586   4.990   5.244 -0.9455  1.0995 -1.5552
   28CHL1  H26B 3247   6.617   5.166   5.291 -0.1155 -0.0005  0.6002
   28CHL1  H26C 3248   6.741   5.062   5.211  0.9873 -0.7920  1.0922
   28CHL1   C27 3249   6.793   4.888   5.423  0.1861 -0.1629  0.3001
   28CHL1  H27A 3250   6.730   4.814   5.370 -1.7266  1.3792  0.3167
   28CHL1  H27B 3251   6.897   4.901   5.386  0.9260 -3.0409  1.0872
   28CHL1  H27C 3252   6.803   4.858   5.530 -0.8852 -1.2514  0.1211
   29CHL1    C3 3253   1.732   5.948   6.946  0.5618 -0.6860  0.3459
   29CHL1    H3 3254   1.754   6.054   6.923  0.8263 -0.3075  2.1679
   29CHL1    O3 3255   1.744   5.940   7.087 -0.2619  0.2107 -0.4940
   29CHL1   H3' 3256   1.747   5.845   7.100 -0.8117 -0.0965 -2.3810
   29CHL1    C4 3257   1.595   5.916   6.893 -0.2185  0.0297 -0.1918
   29CHL1   H4A 3258   1.561   5.815   6.922  0.7618 -0.0377  0.7712
   29CHL1   H4B 3259   1.521   5.990   6.931  0.6144  0.0412  1.4804
   29CHL1    C5 3260   1.596   5.936   6.738 -0.9567  0.0764 -0.3425
   29CHL1    C6 3261   1.515   6.025   6.673  0.2580  0.1055 -0.1751
   29CHL1    H6 3262   1.440   6.081   6.732 -0.1220 -0.3705 -0.2005
   29CHL1    C7 3263   1.503   6.035   6.524 -1.0175  0.4073  0.4266
   29CHL1   H7A 3264   1.400   6.035   6.482 -1.1919  0.9999  0.8392
   29CHL1   H7B 3265   1.542   6.133   6.490 -0.6934  0.8810  2.0715
   29CHL1    C8 3266   1.577   5.923   6.443 -0.5805 -0.0643 -0.1377
   29CHL1    H8 3267   1.515   5.832   6.431  0.0248 -0.5179  0.1097
   29CHL1   C14 3268   1.597   5.961   6.300  0.2725 -1.3058 -0.0813
   29CHL1   H14 3269   1.660   6.053   6.299 -3.1118  1.2489  1.3272
   29CHL1   C15 3270   1.470   6.009   6.224 -0.5771  0.9812 -0.4433
   29CHL1  H15A 3271   1.382   5.943   6.236  1.2812 -1.7674 -0.7903
   29CHL1  H15B 3272   1.445   6.114   6.247 -0.8451  0.6174  1.0282
   29CHL1   C16 3273   1.517   5.996   6.081 -0.0584 -0.4361 -1.0172
   29CHL1  H16A 3274   1.461   5.909   6.042 -0.0702 -2.9149  3.7382
   29CHL1  H16B 3275   1.501   6.094   6.032  1.6970  0.3778 -0.0714
   29CHL1   C17 3276   1.663   5.953   6.072 -0.4853 -0.8044 -0.0534
   29CHL1   H17 3277   1.721   6.049   6.068 -1.3390 -0.3171 -2.0150
   29CHL1   C13 3278   1.683   5.877   6.205  0.0699  0.0063 -0.0061
   29CHL1   C18 3279   1.613   5.740   6.194 -0.4315  0.1786 -0.5747
   29CHL1  H18A 3280   1.517   5.741   6.138 -0.5570 -0.6790 -0.3850
   29CHL1  H18B 3281   1.679   5.677   6.132  0.3232 -0.6578  1.0070
   29CHL1  H18C 3282   1.589   5.693   6.292  0.6732  0.6558 -0.0480
   29CHL1   C12 3283   1.818   5.853   6.269 -0.2067 -0.4655 -0.3806
   29CHL1  H12A 3284   1.880   5.777   6.216 -0.9779 -0.0091 -2.0054
   29CHL1  H12B 3285   1.870   5.950   6.253 -1.2462 -0.1702 -2.2958
   29CHL1   C11 3286   1.820   5.814   6.421  0.7892  0.4607  0.1471
   29CHL1  H11A 3287   1.799   5.705   6.415 -1.1949  0.8864 -2.8671
   29CHL1  H11B 3288   1.921   5.837   6.461  0.6496 -0.9152  1.3796
   29CHL1    C9 3289   1.715   5.895   6.510 -0.2518 -0.2833  0.7627
   29CHL1    H9 3290   1.754   5.999   6.508  0.0428 -0.3981 -0.5335
   29CHL1   C10 3291   1.700   5.861   6.657  0.2856 -0.4633 -0.5314
   29CHL1   C19 3292   1.644   5.724   6.664  0.1699  1.2176 -0.0285
   29CHL1  H19A 3293   1.635   5.675   6.763 -1.4813  1.6611  0.0708
   29CHL1  H19B 3294   1.547   5.710   6.611  0.5589  1.8494 -0.9309
   29CHL1  H19C 3295   1.709   5.647   6.617  0.5552  0.3570  1.8144
   29CHL1    C1 3296   1.838   5.872   6.725  0.4577  0.1445  0.3012
   29CHL1   H1A 3297   1.898   5.786   6.689 -0.7667 -0.8732  0.6307
   29CHL1   H1B 3298   1.876   5.971   6.691 -1.2410  1.6771  2.5634
   29CHL1    C2 3299   1.836   5.861   6.882 -0.5207 -0.4449  0.4249
   29CHL1   H2A 3300   1.936   5.889   6.920 -0.4709 -2.6633  2.1241
   29CHL1   H2B 3301   1.821   5.755   6.913 -0.1454 -0.5562  0.2385
   29CHL1   C20 3302   1.699   5.893   5.936 -0.0984  0.6302  0.5198
   29CHL1   H20 3303   1.662   5.788   5.934 -0.0768  0.5904  1.6340
   29CHL1   C21 3304   1.848   5.888   5.919 -0.4256 -0.1408  0.2274
   29CHL1  H21A 3305   1.902   5.984   5.929 -0.3477 -0.3377  2.1094
   29CHL1  H21B 3306   1.862   5.850   5.816 -0.1065  3.1880 -1.0857
   29CHL1  H21C 3307   1.891   5.816   5.992  0.4680  1.9008  1.7984
   29CHL1   C22 3308   1.632   5.962   5.818 -0.9300  0.1076 -0.4598
   29CHL1  H22A 3309   1.644   5.893   5.731  0.1356 -0.3962  0.0745
   29CHL1  H22B 3310   1.521   5.967   5.830 -1.1914 -0.9763 -2.0036
   29CHL1   C23 3311   1.680   6.105   5.784  0.5756  0.1140  0.1687
   29CHL1  H23A 3312   1.678   6.176   5.869  2.2552  0.7079 -0.2450
   29CHL1  H23B 3313   1.788   6.111   5.760  0.2938  2.5433 -0.7165
   29CHL1   C24 3314   1.604   6.150   5.657 -0.1192  0.0696  0.0853
   29CHL1  H24A 3315   1.620   6.092   5.563 -2.4638  0.5682 -0.6791
   29CHL1  H24B 3316   1.497   6.144   5.683 -0.1500 -1.2634 -0.2358
   29CHL1   C25 3317   1.623   6.300   5.606  0.2728  0.3785 -0.1845
   29CHL1   H25 3318   1.729   6.334   5.607  0.1989  0.6450 -0.7763
   29CHL1   C26 3319   1.581   6.325   5.459 -0.1760  0.6356  0.2816
   29CHL1  H26A 3320   1.472   6.311   5.445 -0.2811  0.6791  0.9897
   29CHL1  H26B 3321   1.618   6.423   5.425 -0.1349 -0.2617 -2.4748
   29CHL1  H26C 3322   1.624   6.245   5.394  0.7605  0.1139  1.4939
   29CHL1   C27 3323   1.537   6.401   5.684  0.0730  0.5809  0.5899
   29CHL1  H27A 3324   1.544   6.501   5.636 -1.8416 -0.2899 -1.6884
   29CHL1  H27B 3325   1.430   6.374   5.672 -0.2931  0.8048  2.9604
   29CHL1  H27C 3326   1.559   6.403   5.793 -1.7835 -1.8361  1.0966
   30CHL1    C3 3327   4.330   0.236   7.068 -0.6460  0.3683  1.1828
   30CHL1    H3 3328   4.219   0.240   7.062 -0.6341  0.1955  0.8479
   30CHL1    O3 3329   4.378   0.250   7.200 -0.4538  0.4063  0.0999
   30CHL1   H3' 3330   4.469   0.221   7.194 -1.0879 -1.7341  0.2884
   30CHL1    C4 3331   4.392   0.101   7.025 -0.3537  0.2767  0.0974
   30CHL1   H4A 3332   4.502   0.102   7.042 -0.2870  0.9819 -0.3231
   30CHL1   H4B 3333   4.346   0.034   7.101 -3.3791  0.2501 -1.6162
   30CHL1    C5 3334   4.369   0.060   6.882 -0.5323 -0.2487 -0.2125
   30CHL1    C6 3335   4.306  -0.057   6.845 -0.1940 -0.6129 -0.7205
   30CHL1    H6 3336   4.274  -0.116   6.933  1.4014  1.1450  1.1472
   30CHL1    C7 3337   4.286  -0.097   6.702 -0.7424  0.3955 -0.1041
   30CHL1   H7A 3338   4.330  -0.198   6.694  2.0005  1.5910 -1.7028
   30CHL1   H7B 3339   4.180  -0.102   6.669 -0.3451 -0.5416 -1.3196
   30CHL1    C8 3340   4.367  -0.007   6.593  0.4550  0.9639  0.4928
   30CHL1    H8 3341   4.474  -0.036   6.587 -0.1880 -1.7319  0.7967
   30CHL1   C14 3342   4.303  -0.022   6.453  0.1784 -0.2941  0.1750
   30CHL1   H14 3343   4.207   0.031   6.471  0.7017  0.5609  0.4929
   30CHL1   C15 3344   4.273  -0.148   6.393  0.1575  0.9497  0.6389
   30CHL1  H15A 3345   4.367  -0.207   6.400 -1.1192 -1.2716  0.0973
   30CHL1  H15B 3346   4.186  -0.203   6.433  0.3779 -1.0059 -1.3539
   30CHL1   C16 3347   4.245  -0.123   6.236 -0.1440 -0.0169  0.5121
   30CHL1  H16A 3348   4.313  -0.191   6.181  0.5338  0.1246  1.1733
   30CHL1  H16B 3349   4.135  -0.138   6.226 -0.2756  0.6451  0.9028
   30CHL1   C17 3350   4.275   0.034   6.222 -0.1921 -0.5889  0.7843
   30CHL1   H17 3351   4.176   0.084   6.233  0.7197  1.7086 -0.6311
   30CHL1   C13 3352   4.358   0.075   6.344 -0.7930  0.4518  0.2591
   30CHL1   C18 3353   4.511   0.037   6.320  0.7004  0.0621  0.3568
   30CHL1  H18A 3354   4.553   0.127   6.270 -0.9142  1.8338  2.0316
   30CHL1  H18B 3355   4.576   0.015   6.407  1.1508  0.3081  0.0840
   30CHL1  H18C 3356   4.520  -0.053   6.256  0.6906  0.7705 -0.6735
   30CHL1   C12 3357   4.347   0.227   6.387  0.4060 -0.4125  0.3743
   30CHL1  H12A 3358   4.413   0.282   6.317  0.6768 -0.1274  0.8478
   30CHL1  H12B 3359   4.241   0.258   6.374  0.1656 -2.1134 -2.7290
   30CHL1   C11 3360   4.407   0.237   6.526  0.0072 -0.2567 -0.3838
   30CHL1  H11A 3361   4.515   0.220   6.506 -0.3960  0.2394 -3.4506
   30CHL1  H11B 3362   4.384   0.338   6.565 -0.6026 -0.5030 -0.0842
   30CHL1    C9 3363   4.353   0.138   6.634 -0.3544  0.6036 -1.1636
   30CHL1    H9 3364   4.243   0.153   6.632 -0.7500 -1.7851 -0.9302
   30CHL1   C10 3365   4.410   0.166   6.778 -0.3943  0.7100 -0.3387
   30CHL1   C19 3366   4.569   0.170   6.766 -0.5654  0.5587  0.0849
   30CHL1  H19A 3367   4.603   0.065   6.753  2.3084  1.5624 -1.4173
   30CHL1  H19B 3368   4.600   0.231   6.678 -0.6159 -0.3397 -0.5746
   30CHL1  H19C 3369   4.614   0.201   6.863 -0.8026 -1.3191  0.8437
   30CHL1    C1 3370   4.353   0.310   6.824  0.8067  0.1010 -0.2715
   30CHL1   H1A 3371   4.387   0.392   6.757 -0.0600  0.6075 -0.1137
   30CHL1   H1B 3372   4.242   0.314   6.816  0.6852  0.8308  1.3663
   30CHL1    C2 3373   4.386   0.345   6.974  0.4182 -0.4412  0.7871
   30CHL1   H2A 3374   4.356   0.446   7.009 -0.9762 -0.0731 -1.2830
   30CHL1   H2B 3375   4.495   0.360   6.991 -0.1235  3.1696  1.9348
   30CHL1   C20 3376   4.321   0.064   6.079 -0.2051 -0.3785  0.2825
   30CHL1   H20 3377   4.416   0.008   6.064 -0.5800 -1.2439  1.0635
   30CHL1   C21 3378   4.356   0.214   6.048 -0.3424  0.0009 -0.9128
   30CHL1  H21A 3379   4.275   0.287   6.067  1.1486  1.3428  0.5871
   30CHL1  H21B 3380   4.375   0.248   5.944 -1.9635  1.2042 -0.8446
   30CHL1  H21C 3381   4.447   0.248   6.102 -1.1197  1.3193 -0.3846
   30CHL1   C22 3382   4.211   0.013   5.969  0.7777 -0.6631 -0.2166
   30CHL1  H22A 3383   4.142  -0.063   6.010 -0.5242 -0.0207 -1.1606
   30CHL1  H22B 3384   4.151   0.104   5.948  1.4456 -0.0425  0.5044
   30CHL1   C23 3385   4.283  -0.034   5.843 -0.2174  0.0947  0.0328
   30CHL1  H23A 3386   4.359   0.043   5.817 -0.6020  1.1357  1.7972
   30CHL1  H23B 3387   4.344  -0.125   5.861  0.3911  0.7451  1.4531
   30CHL1   C24 3388   4.197  -0.060   5.718 -0.8177 -0.7294 -0.2962
   30CHL1  H24A 3389   4.128  -0.145   5.735  0.3887 -1.3921  1.7031
   30CHL1  H24B 3390   4.126   0.024   5.732  0.6106  0.3358  0.9272
   30CHL1   C25 3391   4.270  -0.055   5.583  0.3560 -0.6400  0.2720
   30CHL1   H25 3392   4.357   0.014   5.586  0.5068 -0.5464 -2.9473
   30CHL1   C26 3393   4.319  -0.194   5.545 -0.4153 -0.4194  0.0952
   30CHL1  H26A 3394   4.364  -0.203   5.444  0.3736 -0.3090  0.4261
   30CHL1  H26B 3395   4.401  -0.235   5.607  0.2212  1.7134  0.7515
   30CHL1  H26C 3396   4.233  -0.264   5.552  2.2080 -3.9516 -0.2340
   30CHL1   C27 3397   4.182   0.003   5.468  0.0453  0.0138 -0.6418
   30CHL1  H27A 3398   4.102  -0.071   5.445  1.0460 -2.1066  2.1326
   30CHL1  H27B 3399   4.142   0.103   5.494  0.8222  0.3033 -0.5136
   30CHL1  H27C 3400   4.254   0.021   5.385  0.9327  1.6492  0.4315
   31CHL1    C3 3401   3.091   6.483   7.025  0.0501 -0.0484 -0.0105
   31CHL1    H3 3402   3.167   6.403   7.009 -0.1008  0.1723 -2.1232
   31CHL1    O3 3403   3.052   6.475   7.159  0.1508 -0.0312  0.4480
   31CHL1   H3' 3404   3.107   6.521   7.222  0.0929  1.7886 -0.7597
   31CHL1    C4 3405   3.146   6.617   6.996  0.0319  0.1802 -0.2130
   31CHL1   H4A 3406   3.097   6.703   7.046  0.7060  1.5563 -1.8138
   31CHL1   H4B 3407   3.252   6.627   7.029  0.6693  1.9276 -2.4570
   31CHL1    C5 3408   3.144   6.657   6.843  1.0424 -0.3303 -0.4068
   31CHL1    C6 3409   3.253   6.710   6.787 -0.0401 -0.0353 -0.4362
   31CHL1    H6 3410   3.339   6.739   6.850  1.1925 -0.3090 -1.9517
   31CHL1    C7 3411   3.276   6.752   6.645 -0.0881  0.0420 -0.2631
   31CHL1   H7A 3412   3.326   6.852   6.635 -0.2363 -0.1062 -3.6999
   31CHL1   H7B 3413   3.359   6.687   6.611  1.1949  0.4928  1.8205
   31CHL1    C8 3414   3.143   6.738   6.570 -0.4232 -0.2003 -0.2532
   31CHL1    H8 3415   3.083   6.830   6.589 -1.4018 -1.1075  1.2228
   31CHL1   C14 3416   3.173   6.731   6.416  0.8999 -0.0875  0.3554
   31CHL1   H14 3417   3.224   6.634   6.396  0.7200  0.5385 -3.9787
   31CHL1   C15 3418   3.268   6.828   6.350  0.5766  0.4069 -0.8891
   31CHL1  H15A 3419   3.251   6.921   6.409 -0.5923  0.4862 -1.3050
   31CHL1  H15B 3420   3.375   6.800   6.351 -0.2308 -3.0149 -0.4525
   31CHL1   C16 3421   3.229   6.838   6.203  0.1412  0.0147 -0.0468
   31CHL1  H16A 3422   3.181   6.938   6.196  0.1112 -0.0001 -0.0518
   31CHL1  H16B 3423   3.307   6.839   6.124 -1.1924 -0.1899 -1.4116
   31CHL1   C17 3424   3.115   6.732   6.185 -1.3632 -0.8136  0.1689
   31CHL1   H17 3425   3.174   6.639   6.172 -0.3861 -0.3300  1.0143
   31CHL1   C13 3426   3.051   6.718   6.321  0.0910  0.3522  0.6394
   31CHL1   C18 3427   2.961   6.842   6.343 -0.1263  0.7967  0.3957
   31CHL1  H18A 3428   2.866   6.823   6.289  1.1243 -1.0268 -1.3255
   31CHL1  H18B 3429   2.923   6.848   6.447 -2.3912 -4.2621  0.1404
   31CHL1  H18C 3430   3.005   6.939   6.311  0.8129 -0.1266 -1.2713
   31CHL1   C12 3431   2.974   6.589   6.356  0.6481  0.4184  0.0127
   31CHL1  H12A 3432   2.881   6.574   6.298  0.5557 -0.1411  0.2998
   31CHL1  H12B 3433   3.044   6.504   6.342  1.6321  1.6123 -3.3466
   31CHL1   C11 3434   2.938   6.593   6.504 -0.3125  0.2898  0.5788
   31CHL1  H11A 3435   2.849   6.660   6.508  1.6310  3.0796  0.6293
   31CHL1  H11B 3436   2.906   6.491   6.534  0.0965  0.4045  1.4425
   31CHL1    C9 3437   3.058   6.622   6.606 -0.1762  0.0891  0.7646
   31CHL1    H9 3438   3.123   6.533   6.595 -1.0459 -0.8390  2.6855
   31CHL1   C10 3439   3.024   6.619   6.758  0.1050  0.3096 -0.6796
   31CHL1   C19 3440   2.912   6.715   6.797  0.4410 -0.0626  0.2886
   31CHL1  H19A 3441   2.826   6.685   6.734 -1.1876 -1.2552  2.8859
   31CHL1  H19B 3442   2.873   6.705   6.901 -0.6859 -0.7898 -0.1931
   31CHL1  H19C 3443   2.928   6.823   6.774  0.5381  0.3358  2.0406
   31CHL1    C1 3444   2.994   6.471   6.784  0.7556  0.3486  0.1893
   31CHL1   H1A 3445   2.902   6.447   6.726 -0.6120  2.0064  1.5645
   31CHL1   H1B 3446   3.074   6.404   6.747  1.1794  1.2422 -0.5663
   31CHL1    C2 3447   2.972   6.440   6.935 -0.4151  0.4782 -0.3897
   31CHL1   H2A 3448   2.949   6.331   6.941 -1.1997  0.5226 -2.1491
   31CHL1   H2B 3449   2.885   6.491   6.980 -1.7460 -0.6168 -1.6258
   31CHL1   C20 3450   3.027   6.758   6.063 -0.5305  0.0578 -0.5747
   31CHL1   H20 3451   2.971   6.853   6.079 -1.4931 -0.5788 -0.0778
   31CHL1   C21 3452   2.935   6.636   6.044 -0.5014  0.4773  0.6295
   31CHL1  H21A 3453   2.846   6.636   6.109 -3.2442 -0.2228 -2.8483
   31CHL1  H21B 3454   2.996   6.545   6.060  0.9848  1.0521 -1.3308
   31CHL1  H21C 3455   2.886   6.640   5.945  0.2810 -2.0191  0.0844
   31CHL1   C22 3456   3.117   6.775   5.938  0.0134  0.4822 -0.2914
   31CHL1  H22A 3457   3.209   6.834   5.957  1.2609 -1.5768  0.4789
   31CHL1  H22B 3458   3.157   6.676   5.907 -0.7115  0.7483 -2.1518
   31CHL1   C23 3459   3.043   6.842   5.815 -0.3967  0.3311 -0.5417
   31CHL1  H23A 3460   2.964   6.770   5.784  1.1320 -0.9854 -1.5654
   31CHL1  H23B 3461   3.005   6.937   5.859 -0.8336 -0.2927  0.4915
   31CHL1   C24 3462   3.148   6.876   5.706  0.5082 -0.3025  0.0148
   31CHL1  H24A 3463   3.088   6.932   5.631 -0.3054 -0.1811  0.7370
   31CHL1  H24B 3464   3.232   6.940   5.738 -1.2310  2.0259  0.1928
   31CHL1   C25 3465   3.221   6.759   5.637  0.4325  0.1472  0.6843
   31CHL1   H25 3466   3.279   6.707   5.717  1.9354  1.1739  0.3134
   31CHL1   C26 3467   3.129   6.653   5.575 -0.7703 -0.0857 -0.3089
   31CHL1  H26A 3468   3.066   6.690   5.491 -2.4873 -0.9317  0.5554
   31CHL1  H26B 3469   3.194   6.573   5.534 -1.6238  0.2477 -2.4492
   31CHL1  H26C 3470   3.072   6.623   5.666 -1.3020  1.5316 -0.0783
   31CHL1   C27 3471   3.319   6.817   5.534 -0.3550 -0.5770 -0.8727
   31CHL1  H27A 3472   3.402   6.758   5.490  0.7186  1.9221 -2.4048
   31CHL1  H27B 3473   3.263   6.857   5.447  0.5151 -0.1953 -1.2699
   31CHL1  H27C 3474   3.373   6.894   5.593 -0.3467 -1.4774  0.3355
   32CHL1    C3 3475   4.447   4.504   6.553  0.6014  0.2279 -0.3541
   32CHL1    H3 3476   4.496   4.410   6.518 -1.3254 -0.9022 -0.1908
   32CHL1    O3 3477   4.431   4.508   6.690 -0.1343 -0.1393 -1.1186
   32CHL1   H3' 3478   4.370   4.437   6.714 -0.8188  0.7269 -0.1916
   32CHL1    C4 3479   4.523   4.626   6.513  0.1971  0.1559  0.1577
   32CHL1   H4A 3480   4.462   4.715   6.542 -0.3059  0.1952 -0.9644
   32CHL1   H4B 3481   4.620   4.619   6.566  0.8674  0.2940 -1.0197
   32CHL1    C5 3482   4.538   4.641   6.360  0.0142  0.0978  0.1666
   32CHL1    C6 3483   4.650   4.626   6.299 -0.2632 -0.0629 -0.2066
   32CHL1    H6 3484   4.744   4.605   6.352  0.0948 -1.6229 -1.3556
   32CHL1    C7 3485   4.666   4.625   6.149 -0.1493  0.1945  0.1623
   32CHL1   H7A 3486   4.762   4.669   6.115  0.5179 -0.9103  0.5562
   32CHL1   H7B 3487   4.679   4.520   6.117 -0.1049 -0.1487  1.2717
   32CHL1    C8 3488   4.538   4.687   6.074 -0.1580 -0.2202 -0.6184
   32CHL1    H8 3489   4.551   4.798   6.077 -0.4179 -0.2057  1.6092
   32CHL1   C14 3490   4.528   4.660   5.923 -0.2658  0.4664 -0.8406
   32CHL1   H14 3491   4.524   4.549   5.918 -1.3898  0.4443  0.1902
   32CHL1   C15 3492   4.651   4.713   5.852  0.6908  0.6408  0.4668
   32CHL1  H15A 3493   4.686   4.809   5.896 -0.2735  0.2919  2.0804
   32CHL1  H15B 3494   4.748   4.659   5.851  0.7630  0.7721  0.2243
   32CHL1   C16 3495   4.604   4.724   5.699 -0.3140  0.9566  0.6122
   32CHL1  H16A 3496   4.628   4.828   5.667  1.3585 -0.0497 -1.6646
   32CHL1  H16B 3497   4.648   4.650   5.629  1.5642  1.9588  0.6680
   32CHL1   C17 3498   4.446   4.704   5.701  0.4397 -0.7027  0.4313
   32CHL1   H17 3499   4.426   4.597   5.679  2.2795 -1.4911  2.2957
   32CHL1   C13 3500   4.409   4.725   5.846  0.1308  0.1158  0.1780
   32CHL1   C18 3501   4.411   4.871   5.870 -0.2731 -0.4989 -0.1636
   32CHL1  H18A 3502   4.501   4.917   5.825  0.2981  0.4266  1.7870
   32CHL1  H18B 3503   4.318   4.911   5.824 -0.5095  1.2642  1.7104
   32CHL1  H18C 3504   4.404   4.912   5.973 -0.5438  1.9868 -1.1033
   32CHL1   C12 3505   4.292   4.651   5.900  0.4932 -0.0594  0.1148
   32CHL1  H12A 3506   4.197   4.664   5.844  0.3775  0.3794  0.4104
   32CHL1  H12B 3507   4.302   4.540   5.899 -1.3604 -0.2667  1.4857
   32CHL1   C11 3508   4.279   4.691   6.055  0.0627 -0.2900 -0.4127
   32CHL1  H11A 3509   4.259   4.800   6.066  1.9306  0.1221 -0.6136
   32CHL1  H11B 3510   4.193   4.641   6.104  0.3177  0.1478  0.4904
   32CHL1    C9 3511   4.405   4.635   6.130 -0.5730 -0.0127  0.2886
   32CHL1    H9 3512   4.406   4.525   6.112 -1.1314  0.1400 -0.7312
   32CHL1   C10 3513   4.404   4.641   6.283  0.3627  0.2024 -0.5580
   32CHL1   C19 3514   4.331   4.772   6.317  0.2898 -0.4221  0.8977
   32CHL1  H19A 3515   4.222   4.775   6.295  0.0537 -0.3141  2.0378
   32CHL1  H19B 3516   4.328   4.793   6.426  0.4070  2.5261  0.4261
   32CHL1  H19C 3517   4.382   4.860   6.271  1.6557 -0.3815  2.4245
   32CHL1    C1 3518   4.321   4.521   6.331  0.5259  0.0165 -0.4103
   32CHL1   H1A 3519   4.222   4.534   6.284  0.8945 -1.6659 -1.7453
   32CHL1   H1B 3520   4.355   4.425   6.288 -0.1980 -0.1658 -0.5704
   32CHL1    C2 3521   4.311   4.514   6.481 -0.1810  0.0510 -0.4907
   32CHL1   H2A 3522   4.245   4.430   6.511  0.5783 -0.3322  0.1460
   32CHL1   H2B 3523   4.255   4.604   6.513 -1.1938 -1.3013  1.7847
   32CHL1   C20 3524   4.384   4.790   5.592  0.0224 -0.2152  0.3155
   32CHL1   H20 3525   4.395   4.898   5.614 -0.2642 -0.2122  0.4478
   32CHL1   C21 3526   4.234   4.761   5.585 -0.1782  0.3410 -0.4068
   32CHL1  H21A 3527   4.198   4.776   5.689 -0.5224  0.6150 -0.5644
   32CHL1  H21B 3528   4.215   4.655   5.556 -3.4019  0.7410 -0.0591
   32CHL1  H21C 3529   4.182   4.820   5.506  3.5599  2.2115 -1.7276
   32CHL1   C22 3530   4.439   4.752   5.452 -0.7021  0.3559 -0.5376
   32CHL1  H22A 3531   4.550   4.752   5.450 -0.6596 -0.1677  0.6366
   32CHL1  H22B 3532   4.402   4.650   5.429  3.9461 -1.7654  0.1892
   32CHL1   C23 3533   4.390   4.844   5.338  0.4621  0.0819 -0.2672
   32CHL1  H23A 3534   4.437   4.818   5.241 -0.8417 -1.1170 -0.6040
   32CHL1  H23B 3535   4.282   4.837   5.314  0.5832 -2.2029 -0.3668
   32CHL1   C24 3536   4.425   4.991   5.358  0.2344  0.8097  0.3631
   32CHL1  H24A 3537   4.361   5.031   5.439 -0.9347 -2.1935  1.0641
   32CHL1  H24B 3538   4.528   4.994   5.397  0.4260  0.2485 -0.0840
   32CHL1   C25 3539   4.417   5.093   5.246 -0.8287 -0.6915  0.2252
   32CHL1   H25 3540   4.310   5.104   5.219  0.1900  0.7835 -3.7613
   32CHL1   C26 3541   4.478   5.230   5.285 -0.2299  0.1505 -0.5448
   32CHL1  H26A 3542   4.420   5.282   5.364  3.1046  0.2973  2.0132
   32CHL1  H26B 3543   4.576   5.198   5.326  0.0383 -0.5000 -1.6550
   32CHL1  H26C 3544   4.487   5.290   5.192  0.8892 -0.2226 -0.6923
   32CHL1   C27 3545   4.477   5.051   5.111  0.7578  0.4837  0.8181
   32CHL1  H27A 3546   4.472   5.137   5.040 -1.1119 -1.3160 -1.4010
   32CHL1  H27B 3547   4.574   4.998   5.109  0.8066  0.5864  0.1871
   32CHL1  H27C 3548   4.401   4.979   5.073  2.3976 -0.9031  0.0308
   33CHL1    C3 3549   2.674   4.738   6.376  0.0979 -0.1270 -0.4645
   33CHL1    H3 3550   2.564   4.756   6.380 -0.2685 -1.2234 -3.2239
   33CHL1    O3 3551   2.740   4.737   6.501  0.0764  0.3409 -0.9500
   33CHL1   H3' 3552   2.713   4.662   6.554  1.1133  0.8566  0.3615
   33CHL1    C4 3553   2.703   4.600   6.318 -0.2319 -0.6576  0.3107
   33CHL1   H4A 3554   2.808   4.567   6.335  0.7849  1.8312 -0.6461
   33CHL1   H4B 3555   2.648   4.518   6.367 -1.9170  0.2216 -0.0447
   33CHL1    C5 3556   2.683   4.587   6.163 -0.9994  0.6788  0.4223
   33CHL1    C6 3557   2.618   4.481   6.105  0.2813  0.1819 -0.8225
   33CHL1    H6 3558   2.564   4.409   6.168 -0.2862  0.5281 -0.9070
   33CHL1    C7 3559   2.602   4.470   5.956 -0.1446 -0.1056  0.0343
   33CHL1   H7A 3560   2.606   4.366   5.916  0.5908  0.8326 -2.4945
   33CHL1   H7B 3561   2.498   4.498   5.932 -0.1718 -1.8593 -2.2580
   33CHL1    C8 3562   2.688   4.556   5.872 -0.5304 -0.0648  0.3176
   33CHL1    H8 3563   2.788   4.510   5.886 -0.8917 -0.6774  0.8952
   33CHL1   C14 3564   2.659   4.555   5.722 -0.3238  0.3563  0.3505
   33CHL1   H14 3565   2.559   4.602   5.712 -0.7326 -0.3683  1.0045
   33CHL1   C15 3566   2.644   4.426   5.647 -0.6735  0.1836  1.0344
   33CHL1  H15A 3567   2.725   4.355   5.676  0.6634  1.1764 -0.0745
   33CHL1  H15B 3568   2.547   4.376   5.666 -1.8956  3.4197  4.4683
   33CHL1   C16 3569   2.652   4.466   5.498 -0.4006 -0.4913  0.3277
   33CHL1  H16A 3570   2.738   4.418   5.447 -0.6017 -0.2411 -0.2526
   33CHL1  H16B 3571   2.567   4.428   5.437  0.9843 -1.5353 -0.9983
   33CHL1   C17 3572   2.677   4.624   5.496 -0.1731 -0.2014 -0.3649
   33CHL1   H17 3573   2.574   4.664   5.501  0.1129  0.3912  2.7022
   33CHL1   C13 3574   2.745   4.646   5.632  0.3525 -0.4979  0.5262
   33CHL1   C18 3575   2.890   4.599   5.626 -0.7472  0.8575 -0.0835
   33CHL1  H18A 3576   2.931   4.604   5.729  0.8863 -1.8843 -0.4930
   33CHL1  H18B 3577   2.904   4.494   5.591  2.6605  0.6220  1.5787
   33CHL1  H18C 3578   2.954   4.662   5.561  1.5777 -0.4907  0.7585
   33CHL1   C12 3579   2.738   4.789   5.688  0.5311 -0.4725  0.6236
   33CHL1  H12A 3580   2.803   4.847   5.618 -0.3777 -2.8067 -2.3859
   33CHL1  H12B 3581   2.635   4.832   5.683  0.7460  0.0495  0.5746
   33CHL1   C11 3582   2.791   4.793   5.831  0.1446 -0.1221 -0.2111
   33CHL1  H11A 3583   2.897   4.760   5.836  0.0197 -0.3724  1.9787
   33CHL1  H11B 3584   2.787   4.900   5.859 -0.3325 -0.0112 -0.6814
   33CHL1    C9 3585   2.705   4.705   5.924  0.4990 -0.5078  0.4357
   33CHL1    H9 3586   2.606   4.755   5.922  1.4346  1.4569  0.6469
   33CHL1   C10 3587   2.753   4.706   6.080  0.1339 -0.2814  0.0737
   33CHL1   C19 3588   2.904   4.689   6.085 -0.1975 -0.1228  0.1517
   33CHL1  H19A 3589   2.950   4.665   6.184 -0.4349 -1.4208 -0.0450
   33CHL1  H19B 3590   2.933   4.610   6.014  1.0224  0.1667  0.2928
   33CHL1  H19C 3591   2.951   4.787   6.058 -0.8244 -0.4963 -2.4952
   33CHL1    C1 3592   2.700   4.833   6.149  0.2484 -0.2756  0.0235
   33CHL1   H1A 3593   2.726   4.917   6.081 -1.6950  1.1639  0.9527
   33CHL1   H1B 3594   2.590   4.841   6.138 -0.0429  0.5339  2.7515
   33CHL1    C2 3595   2.739   4.844   6.297 -0.4776  0.4576 -0.1682
   33CHL1   H2A 3596   2.703   4.944   6.329  2.1218  0.8553  1.9687
   33CHL1   H2B 3597   2.850   4.843   6.304 -0.3433  2.5206 -1.3203
   33CHL1   C20 3598   2.734   4.682   5.371 -0.0495  0.3389  0.2781
   33CHL1   H20 3599   2.845   4.684   5.376 -0.1066  0.9038  1.4836
   33CHL1   C21 3600   2.685   4.827   5.348 -0.2278  0.1151  1.0996
   33CHL1  H21A 3601   2.745   4.885   5.274  0.0494  3.6755  3.8280
   33CHL1  H21B 3602   2.674   4.893   5.436 -1.5376  1.3220  0.0831
   33CHL1  H21C 3603   2.581   4.814   5.312 -0.5060  1.0519  1.5297
   33CHL1   C22 3604   2.698   4.609   5.233  0.4516  1.1966 -0.8299
   33CHL1  H22A 3605   2.716   4.499   5.235  2.1421  1.4492 -1.1233
   33CHL1  H22B 3606   2.587   4.614   5.231  0.3851  0.0083 -0.6302
   33CHL1   C23 3607   2.767   4.659   5.108  0.0079 -0.8983 -0.1731
   33CHL1  H23A 3608   2.764   4.770   5.100 -0.1958 -0.8487  0.5354
   33CHL1  H23B 3609   2.874   4.634   5.123  0.2130  0.6362  1.1139
   33CHL1   C24 3610   2.714   4.584   4.984 -0.2026  0.1386  1.3438
   33CHL1  H24A 3611   2.740   4.476   4.988  3.4702  0.8039 -0.2669
   33CHL1  H24B 3612   2.604   4.589   5.002 -0.0611  1.4103  2.0360
   33CHL1   C25 3613   2.757   4.641   4.849 -0.0474  0.3898  0.5242
   33CHL1   H25 3614   2.866   4.661   4.852 -0.1439  0.8199  3.0029
   33CHL1   C26 3615   2.715   4.546   4.735 -0.1702  0.4219 -0.1204
   33CHL1  H26A 3616   2.785   4.560   4.649 -0.0555  1.4773  0.1217
   33CHL1  H26B 3617   2.715   4.439   4.763 -2.2452 -0.1718 -2.0473
   33CHL1  H26C 3618   2.614   4.569   4.693 -0.3375  1.6453  0.8822
   33CHL1   C27 3619   2.704   4.777   4.821 -0.1153 -0.1296 -0.5093
   33CHL1  H27A 3620   2.593   4.768   4.819 -0.1500  0.4340 -1.6443
   33CHL1  H27B 3621   2.738   4.849   4.898  0.7149 -0.5621 -0.4572
   33CHL1  H27C 3622   2.740   4.827   4.729 -2.0713  0.9270 -0.7607
   34CHL1    C3 3623   4.028   0.568   7.112  0.9480 -0.1643 -0.0315
   34CHL1    H3 3624   4.126   0.520   7.090  0.1878 -0.9205 -1.9920
   34CHL1    O3 3625   3.995   0.568   7.251 -0.1303 -0.4833  0.7419
   34CHL1   H3' 3626   4.073   0.529   7.291  0.6436  0.6961  0.4339
   34CHL1    C4 3627   4.038   0.712   7.058 -0.2124 -0.7194  0.1500
   34CHL1   H4A 3628   3.933   0.747   7.069 -0.7160 -2.6311  2.2496
   34CHL1   H4B 3629   4.101   0.781   7.117  0.2066 -0.3789 -0.6861
   34CHL1    C5 3630   4.077   0.709   6.912 -0.4419  0.4254  0.8866
   34CHL1    C6 3631   4.187   0.764   6.865 -1.0061 -0.2808  0.4761
   34CHL1    H6 3632   4.254   0.821   6.930 -0.5137  0.6293 -0.7953
   34CHL1    C7 3633   4.215   0.766   6.716  0.0882 -0.3785 -0.0571
   34CHL1   H7A 3634   4.260   0.861   6.679 -1.8043  0.1620 -1.1086
   34CHL1   H7B 3635   4.302   0.698   6.718 -0.6491 -1.4209  3.0085
   34CHL1    C8 3636   4.107   0.723   6.614 -0.5085 -0.5587 -0.2418
   34CHL1    H8 3637   4.029   0.801   6.600  0.4578  0.5737  0.4290
   34CHL1   C14 3638   4.165   0.681   6.481 -0.3837  0.8921  0.4954
   34CHL1   H14 3639   4.233   0.595   6.500  0.6577  1.4805 -0.4905
   34CHL1   C15 3640   4.251   0.783   6.403  0.2351 -0.6835 -0.2771
   34CHL1  H15A 3641   4.206   0.884   6.397  0.1676 -0.7052 -0.1364
   34CHL1  H15B 3642   4.357   0.778   6.435  0.5601 -2.8305 -1.4640
   34CHL1   C16 3643   4.257   0.725   6.253  0.3640  0.3048 -0.4417
   34CHL1  H16A 3644   4.230   0.807   6.183  2.8108  1.6970  0.1420
   34CHL1  H16B 3645   4.360   0.685   6.242  0.2930 -0.1831  0.5848
   34CHL1   C17 3646   4.156   0.607   6.251 -0.0617 -0.8037 -0.4822
   34CHL1   H17 3647   4.210   0.511   6.270  0.2740 -0.3883  0.8020
   34CHL1   C13 3648   4.068   0.632   6.378  0.3479  0.1206  0.5120
   34CHL1   C18 3649   3.967   0.746   6.343  0.1378 -0.5724  0.7149
   34CHL1  H18A 3650   3.916   0.794   6.429  0.4166  1.6336 -0.3021
   34CHL1  H18B 3651   4.015   0.831   6.290  0.6217 -2.0955 -1.4253
   34CHL1  H18C 3652   3.883   0.697   6.289  1.2641  0.1963 -1.9204
   34CHL1   C12 3653   3.996   0.511   6.442 -0.2812  0.6749  0.4054
   34CHL1  H12A 3654   3.905   0.483   6.385 -1.4678 -0.0011  2.5114
   34CHL1  H12B 3655   4.071   0.428   6.440 -0.5974  0.3605 -2.3213
   34CHL1   C11 3656   3.940   0.540   6.577 -0.0208 -0.1703  0.1366
   34CHL1  H11A 3657   3.848   0.601   6.564 -0.6801 -0.8541  1.4115
   34CHL1  H11B 3658   3.911   0.440   6.617  0.4980  0.1249  1.2892
   34CHL1    C9 3659   4.034   0.608   6.675 -0.5495  0.5199 -0.3249
   34CHL1    H9 3660   4.115   0.532   6.683 -0.0069  0.9871 -1.2401
   34CHL1   C10 3661   3.981   0.629   6.815  0.4347 -0.3909  0.0246
   34CHL1   C19 3662   3.843   0.705   6.799 -0.5532 -0.1368  0.4224
   34CHL1  H19A 3663   3.794   0.725   6.896 -0.9933  1.6104 -0.1268
   34CHL1  H19B 3664   3.854   0.803   6.749 -0.3304  0.0909  0.9143
   34CHL1  H19C 3665   3.767   0.646   6.744 -0.3988  0.8998 -0.9813
   34CHL1    C1 3666   3.947   0.492   6.883  0.1352  0.1144 -0.7252
   34CHL1   H1A 3667   3.858   0.451   6.829 -0.1235  0.0593 -0.2669
   34CHL1   H1B 3668   4.034   0.428   6.857  0.7054  0.7703 -0.4674
   34CHL1    C2 3669   3.911   0.500   7.030  0.2214 -1.1004  0.1208
   34CHL1   H2A 3670   3.890   0.405   7.084 -1.6804  1.2304  3.8667
   34CHL1   H2B 3671   3.818   0.558   7.048  1.0621  1.3360 -2.5235
   34CHL1   C20 3672   4.082   0.580   6.117 -0.1288  0.2609 -0.4787
   34CHL1   H20 3673   4.001   0.656   6.113 -3.0909 -2.6568  0.1990
   34CHL1   C21 3674   4.015   0.439   6.120 -0.2225  0.4605 -0.5624
   34CHL1  H21A 3675   3.968   0.427   6.020 -1.7299  0.7775  0.0704
   34CHL1  H21B 3676   3.923   0.436   6.184 -1.6710 -4.5838 -2.3789
   34CHL1  H21C 3677   4.082   0.354   6.145 -0.2942  0.3231 -0.8377
   34CHL1   C22 3678   4.179   0.584   5.990 -0.3243 -0.7220 -0.5048
   34CHL1  H22A 3679   4.209   0.691   5.981 -2.2336  0.0524  1.4754
   34CHL1  H22B 3680   4.263   0.519   6.022 -1.3664 -0.1647  4.0769
   34CHL1   C23 3681   4.118   0.551   5.853 -0.0356  0.3650  0.5952
   34CHL1  H23A 3682   4.112   0.441   5.842 -0.4836  0.6233 -2.4576
   34CHL1  H23B 3683   4.018   0.595   5.874 -0.7650 -1.1804  0.4225
   34CHL1   C24 3684   4.166   0.621   5.731 -0.0219  0.4972 -0.5691
   34CHL1  H24A 3685   4.165   0.730   5.756 -2.4302 -0.1676  2.8658
   34CHL1  H24B 3686   4.270   0.585   5.714  0.0394  0.1670  0.4606
   34CHL1   C25 3687   4.087   0.586   5.602  0.4670  0.5429  0.5156
   34CHL1   H25 3688   4.052   0.480   5.608 -0.0659  0.7297  0.8250
   34CHL1   C26 3689   3.965   0.672   5.585  0.1327 -0.3148 -0.2654
   34CHL1  H26A 3690   3.903   0.667   5.678 -2.4108  0.3403 -1.8050
   34CHL1  H26B 3691   3.980   0.779   5.562  0.4500  0.0486  1.4674
   34CHL1  H26C 3692   3.894   0.640   5.506  0.1645  2.5971 -1.5800
   34CHL1   C27 3693   4.168   0.601   5.477  0.6886 -0.1520  0.3352
   34CHL1  H27A 3694   4.115   0.558   5.389  1.9029 -0.7090 -0.1455
   34CHL1  H27B 3695   4.192   0.709   5.471 -1.7224  0.5719  2.1415
   34CHL1  H27C 3696   4.264   0.546   5.485 -0.2770 -1.9168  0.3026
   35CHL1    C3 3697   5.880   0.651   6.795  0.8474  0.7601 -0.9649
   35CHL1    H3 3698   5.879   0.761   6.812 -1.2655  0.5479  0.7085
   35CHL1    O3 3699   5.938   0.594   6.914  0.8459 -0.6041 -0.1304
   35CHL1   H3' 3700   5.943   0.500   6.898 -0.1587 -0.6643 -0.2074
   35CHL1    C4 3701   5.737   0.604   6.778 -0.2530  0.1082  0.0713
   35CHL1   H4A 3702   5.728   0.494   6.789 -1.2364  0.0880 -0.7936
   35CHL1   H4B 3703   5.683   0.655   6.860 -0.2540 -0.8002  0.6520
   35CHL1    C5 3704   5.690   0.648   6.640 -0.6637 -0.6792 -0.2663
   35CHL1    C6 3705   5.580   0.724   6.630  0.3836  0.1897 -0.7461
   35CHL1    H6 3706   5.528   0.759   6.721  2.0994  1.3986 -0.1840
   35CHL1    C7 3707   5.510   0.748   6.504 -0.5942 -0.4504  0.4208
   35CHL1   H7A 3708   5.400   0.736   6.514 -0.7698 -0.4410 -1.2297
   35CHL1   H7B 3709   5.524   0.856   6.484  0.9386 -0.1967  2.5481
   35CHL1    C8 3710   5.572   0.674   6.379  0.5327 -0.6098 -0.1029
   35CHL1    H8 3711   5.532   0.571   6.385  1.5828 -0.9674  1.1728
   35CHL1   C14 3712   5.533   0.742   6.252  0.0441 -0.1038 -0.4516
   35CHL1   H14 3713   5.572   0.844   6.267  1.3101 -0.4782 -1.0569
   35CHL1   C15 3714   5.384   0.772   6.227  0.0250  0.1309  0.9924
   35CHL1  H15A 3715   5.325   0.678   6.225  0.4895 -0.1517 -0.5210
   35CHL1  H15B 3716   5.347   0.847   6.301 -3.1024  0.6901 -0.9794
   35CHL1   C16 3717   5.380   0.828   6.077  0.0587  0.0878 -0.7071
   35CHL1  H16A 3718   5.298   0.773   6.025 -0.1522  1.4043 -1.8110
   35CHL1  H16B 3719   5.346   0.933   6.073  0.0836  0.0862 -0.9647
   35CHL1   C17 3720   5.523   0.809   6.024 -0.1077 -0.0732  0.8177
   35CHL1   H17 3721   5.575   0.906   6.040 -0.4111  0.5639 -1.7425
   35CHL1   C13 3722   5.588   0.705   6.118  0.1194  0.8799 -0.4660
   35CHL1   C18 3723   5.535   0.564   6.084 -0.1232 -0.6339  0.3931
   35CHL1  H18A 3724   5.558   0.498   6.171  0.8314 -2.6727 -1.2953
   35CHL1  H18B 3725   5.424   0.555   6.076 -0.2060  0.9771 -0.5969
   35CHL1  H18C 3726   5.590   0.519   5.998  0.4037 -0.7980  0.8094
   35CHL1   C12 3727   5.741   0.710   6.129 -0.4174  0.4099 -0.4752
   35CHL1  H12A 3728   5.786   0.670   6.036 -1.3622 -0.5179 -0.5384
   35CHL1  H12B 3729   5.768   0.818   6.131 -0.6518  0.4621  0.5059
   35CHL1   C11 3730   5.790   0.631   6.255  1.0743 -0.3379 -0.6430
   35CHL1  H11A 3731   5.773   0.521   6.247  2.9951 -0.6678 -0.7817
   35CHL1  H11B 3732   5.901   0.642   6.257  0.9619  0.7906  0.5957
   35CHL1    C9 3733   5.726   0.675   6.388  0.0046 -0.1597  0.2816
   35CHL1    H9 3734   5.754   0.782   6.389 -0.7296  0.1013 -1.6690
   35CHL1   C10 3735   5.773   0.604   6.515  0.1560 -0.3031  0.8393
   35CHL1   C19 3736   5.756   0.446   6.506  0.6237  0.2266  0.4579
   35CHL1  H19A 3737   5.647   0.431   6.499 -0.0622  4.2846 -0.2012
   35CHL1  H19B 3738   5.804   0.406   6.414  0.3663 -0.9906  0.8403
   35CHL1  H19C 3739   5.788   0.397   6.601  2.9610 -4.1504 -2.2575
   35CHL1    C1 3740   5.926   0.640   6.546  0.5889  0.1404  0.0124
   35CHL1   H1A 3741   5.990   0.602   6.463  0.6135 -2.0063  0.9463
   35CHL1   H1B 3742   5.935   0.750   6.538  0.3048  0.0569 -2.2893
   35CHL1    C2 3743   5.973   0.609   6.684  0.2523 -0.8080  0.2017
   35CHL1   H2A 3744   6.058   0.679   6.701  0.2659 -1.0888  1.4357
   35CHL1   H2B 3745   6.002   0.502   6.693 -0.0490 -0.9331 -0.3201
   35CHL1   C20 3746   5.530   0.774   5.875 -1.2865  0.2573 -0.3261
   35CHL1   H20 3747   5.482   0.677   5.851  1.2835 -0.8833 -1.1768
   35CHL1   C21 3748   5.675   0.767   5.822  0.4047 -0.1709  0.1780
   35CHL1  H21A 3749   5.672   0.784   5.712  2.8747 -0.0442  0.0818
   35CHL1  H21B 3750   5.720   0.666   5.833  2.9756  0.4218 -3.3828
   35CHL1  H21C 3751   5.743   0.843   5.867  0.1837  1.8465 -2.6051
   35CHL1   C22 3752   5.454   0.877   5.793 -0.3108  0.2283 -0.4078
   35CHL1  H22A 3753   5.461   0.845   5.687  0.6797  0.4589 -0.4194
   35CHL1  H22B 3754   5.347   0.859   5.818 -0.2487 -1.9085 -1.4733
   35CHL1   C23 3755   5.500   1.019   5.788  0.3906 -0.5426  0.5712
   35CHL1  H23A 3756   5.509   1.060   5.891 -0.1948 -0.7349  0.7010
   35CHL1  H23B 3757   5.598   1.038   5.739 -0.6932  2.1402 -0.7977
   35CHL1   C24 3758   5.394   1.110   5.718 -0.4427  0.0097 -0.5654
   35CHL1  H24A 3759   5.371   1.051   5.627 -1.1901  0.3687 -0.6142
   35CHL1  H24B 3760   5.299   1.129   5.772  0.1510  0.3086  0.4054
   35CHL1   C25 3761   5.450   1.244   5.670 -0.9626 -0.0504  0.4829
   35CHL1   H25 3762   5.547   1.223   5.621 -2.1417 -0.5294 -1.7991
   35CHL1   C26 3763   5.356   1.315   5.572  0.0918 -0.0905  0.3790
   35CHL1  H26A 3764   5.322   1.263   5.480 -1.9652  2.2774 -0.3144
   35CHL1  H26B 3765   5.260   1.341   5.621 -0.3342  1.7500 -1.3260
   35CHL1  H26C 3766   5.395   1.413   5.538  0.5985  0.6771  2.9910
   35CHL1   C27 3767   5.472   1.337   5.789  0.6462  0.4241  0.8037
   35CHL1  H27A 3768   5.379   1.355   5.847 -0.2963 -0.7141 -0.3053
   35CHL1  H27B 3769   5.535   1.290   5.867 -0.6055 -0.0742  1.5413
   35CHL1  H27C 3770   5.519   1.432   5.753  1.7693 -0.4407 -0.0846
   36CHL1    C3 3771   2.805   5.428   6.677 -0.6039  0.4623 -0.2333
   36CHL1    H3 3772   2.905   5.462   6.643  0.5818 -3.9769 -1.8690
   36CHL1    O3 3773   2.783   5.420   6.821  0.3463 -0.4659 -0.5330
   36CHL1   H3' 3774   2.703   5.370   6.839 -0.0588 -0.2755 -1.7486
   36CHL1    C4 3775   2.690   5.505   6.614 -1.3290 -0.4874  0.5723
   36CHL1   H4A 3776   2.592   5.466   6.646 -2.5270 -0.4198 -2.6509
   36CHL1   H4B 3777   2.686   5.609   6.654 -1.1148 -0.1507 -0.2469
   36CHL1    C5 3778   2.686   5.504   6.461  0.1910  0.3661 -0.7172
   36CHL1    C6 3779   2.677   5.613   6.380  1.3433 -0.0917 -0.2079
   36CHL1    H6 3780   2.666   5.710   6.431  1.0519 -1.6309  2.8324
   36CHL1    C7 3781   2.661   5.611   6.229  0.0703  0.0958 -0.1168
   36CHL1   H7A 3782   2.576   5.676   6.197 -1.5966 -0.7630  2.2639
   36CHL1   H7B 3783   2.762   5.636   6.190  0.1978  0.3031  0.3480
   36CHL1    C8 3784   2.630   5.469   6.178  0.0154  1.2751  0.0136
   36CHL1    H8 3785   2.523   5.442   6.195  0.6466 -0.3457  1.6903
   36CHL1   C14 3786   2.657   5.466   6.030 -0.2232 -0.4372 -0.3134
   36CHL1   H14 3787   2.766   5.485   6.024 -0.3934  0.6359 -0.1936
   36CHL1   C15 3788   2.596   5.581   5.943 -0.0927 -0.4542 -0.2488
   36CHL1  H15A 3789   2.488   5.578   5.968 -0.7335  2.5605 -2.1687
   36CHL1  H15B 3790   2.639   5.682   5.961  0.8601 -0.3256 -2.8350
   36CHL1   C16 3791   2.608   5.529   5.798  0.7312 -1.0061 -0.1630
   36CHL1  H16A 3792   2.508   5.526   5.750  0.1428  1.0268  0.7769
   36CHL1  H16B 3793   2.680   5.594   5.744  0.0170 -0.4014 -0.4073
   36CHL1   C17 3794   2.657   5.378   5.810 -0.2225 -0.2066  0.3191
   36CHL1   H17 3795   2.767   5.390   5.799 -0.2073  0.4829  1.0938
   36CHL1   C13 3796   2.635   5.336   5.954  0.5202  0.0144 -0.0360
   36CHL1   C18 3797   2.490   5.286   5.975  0.4581  0.9326 -0.0192
   36CHL1  H18A 3798   2.454   5.273   6.080  1.4476  2.0824  0.4921
   36CHL1  H18B 3799   2.413   5.345   5.921 -1.7689 -3.3574 -2.0210
   36CHL1  H18C 3800   2.481   5.183   5.936  2.2596  1.6637 -2.6188
   36CHL1   C12 3801   2.732   5.235   6.022 -0.0826 -0.0894  0.0213
   36CHL1  H12A 3802   2.721   5.141   5.964  1.2421  0.1509 -0.6833
   36CHL1  H12B 3803   2.836   5.271   6.006 -0.1632  0.0584 -0.1823
   36CHL1   C11 3804   2.704   5.220   6.176  0.1907 -0.1517  0.5325
   36CHL1  H11A 3805   2.603   5.175   6.184 -0.1272  0.5572  0.5834
   36CHL1  H11B 3806   2.781   5.153   6.221 -0.7842 -1.2896  0.5543
   36CHL1    C9 3807   2.715   5.362   6.241  0.3716 -0.0235  0.2107
   36CHL1    H9 3808   2.816   5.406   6.233  1.0351 -1.3987  0.7172
   36CHL1   C10 3809   2.696   5.364   6.400 -0.3171  0.0071  0.2577
   36CHL1   C19 3810   2.581   5.270   6.426 -0.3202  0.7774  0.8754
   36CHL1  H19A 3811   2.486   5.295   6.372 -0.4171  1.9390  1.5492
   36CHL1  H19B 3812   2.608   5.165   6.403  1.3626  1.3325  0.2060
   36CHL1  H19C 3813   2.547   5.264   6.532  1.5889 -2.2029  1.4201
   36CHL1    C1 3814   2.818   5.289   6.470 -0.3207 -0.3621 -0.2138
   36CHL1   H1A 3815   2.816   5.188   6.425 -1.8872 -0.5564  0.2341
   36CHL1   H1B 3816   2.910   5.340   6.435 -0.6195 -0.7578 -1.6616
   36CHL1    C2 3817   2.805   5.279   6.619  0.2862 -0.4173 -0.3129
   36CHL1   H2A 3818   2.904   5.235   6.646 -0.2418 -1.6407 -0.3151
   36CHL1   H2B 3819   2.726   5.211   6.655  1.5644 -0.7945  1.9372
   36CHL1   C20 3820   2.602   5.300   5.689 -0.1719  0.0614  0.9036
   36CHL1   H20 3821   2.491   5.292   5.698 -0.5692 -0.5085 -2.9291
   36CHL1   C21 3822   2.654   5.153   5.710  0.4640 -0.0064 -0.7797
   36CHL1  H21A 3823   2.764   5.158   5.724  0.0809  0.9556  2.8519
   36CHL1  H21B 3824   2.638   5.089   5.621 -1.0961 -0.7625  0.0129
   36CHL1  H21C 3825   2.608   5.093   5.791 -0.3188  1.1759 -0.3241
   36CHL1   C22 3826   2.649   5.361   5.559 -0.2653 -0.0980  0.3238
   36CHL1  H22A 3827   2.628   5.470   5.561  1.1806  0.3528 -2.9178
   36CHL1  H22B 3828   2.759   5.351   5.562 -0.1239  1.3208  2.3238
   36CHL1   C23 3829   2.603   5.296   5.434  0.4342  1.1007  0.2923
   36CHL1  H23A 3830   2.625   5.187   5.425 -1.1805  0.8744 -1.3015
   36CHL1  H23B 3831   2.493   5.304   5.424  0.1752 -1.2477  0.6873
   36CHL1   C24 3832   2.647   5.373   5.314 -0.6942  0.6169  0.2247
   36CHL1  H24A 3833   2.614   5.477   5.330 -1.5299  0.1782  1.4788
   36CHL1  H24B 3834   2.758   5.373   5.309 -0.6314 -0.8510  1.0272
   36CHL1   C25 3835   2.592   5.316   5.185  0.5480  0.3708 -0.7975
   36CHL1   H25 3836   2.486   5.298   5.213  0.3183  0.8747 -1.3296
   36CHL1   C26 3837   2.594   5.412   5.066  0.0236 -0.1065 -0.2568
   36CHL1  H26A 3838   2.529   5.499   5.090 -0.9754 -0.6663 -0.8613
   36CHL1  H26B 3839   2.700   5.441   5.053 -0.0831 -0.0369 -1.0214
   36CHL1  H26C 3840   2.557   5.356   4.977 -0.1871  0.9279 -0.8424
   36CHL1   C27 3841   2.662   5.176   5.149  0.1463  0.3590  0.2926
   36CHL1  H27A 3842   2.611   5.136   5.058  1.0055  0.5991 -0.3082
   36CHL1  H27B 3843   2.769   5.189   5.122 -0.1582  2.9048  0.1232
   36CHL1  H27C 3844   2.667   5.103   5.233 -0.0104  1.6616  1.4724
   37CHL1    C3 3845   5.164   3.472   6.513  0.2384 -0.4875  0.3016
   37CHL1    H3 3846   5.215   3.569   6.499  0.7024 -0.5075  1.6487
   37CHL1    O3 3847   5.158   3.448   6.652 -0.0539 -0.5277  0.2715
   37CHL1   H3' 3848   5.252   3.458   6.670  0.5175  1.8667 -3.1567
   37CHL1    C4 3849   5.022   3.487   6.469  0.2213  0.6593  0.0844
   37CHL1   H4A 3850   4.967   3.396   6.504 -0.0746  0.8348  0.0805
   37CHL1   H4B 3851   4.985   3.579   6.518  3.4554  2.4266 -0.5645
   37CHL1    C5 3852   4.999   3.501   6.312 -0.3639  0.7500  0.8508
   37CHL1    C6 3853   4.916   3.599   6.269 -0.1954  0.0230 -1.2224
   37CHL1    H6 3854   4.858   3.660   6.340 -0.5479 -1.0694 -0.5491
   37CHL1    C7 3855   4.904   3.642   6.120  0.1479 -0.0470  0.0106
   37CHL1   H7A 3856   4.798   3.661   6.091  0.5237  2.0104 -0.1202
   37CHL1   H7B 3857   4.959   3.735   6.095 -2.1038  1.4059  0.1269
   37CHL1    C8 3858   4.956   3.517   6.026  0.6383  0.0555  0.0108
   37CHL1    H8 3859   4.879   3.439   6.042 -1.4298  2.2244  1.3562
   37CHL1   C14 3860   4.962   3.562   5.882 -0.1343  0.2616 -0.1640
   37CHL1   H14 3861   5.046   3.634   5.890  1.6768 -1.8930  1.3945
   37CHL1   C15 3862   4.845   3.637   5.821  0.1267 -0.0712  0.7644
   37CHL1  H15A 3863   4.749   3.584   5.840  0.5613 -1.8135 -1.4547
   37CHL1  H15B 3864   4.851   3.741   5.859 -0.1351 -0.4373  1.8341
   37CHL1   C16 3865   4.884   3.642   5.677  0.4711 -0.1260  0.4421
   37CHL1  H16A 3866   4.804   3.592   5.619  0.3965  1.2758 -0.7247
   37CHL1  H16B 3867   4.897   3.743   5.633 -0.6676  0.4273  1.3190
   37CHL1   C17 3868   5.014   3.552   5.650  0.5261  0.4635 -0.3588
   37CHL1   H17 3869   5.095   3.627   5.657  2.6641 -1.7091 -0.4438
   37CHL1   C13 3870   5.021   3.464   5.783  0.5304  0.0416  0.2777
   37CHL1   C18 3871   4.924   3.342   5.755  0.5664 -0.3758 -0.5903
   37CHL1  H18A 3872   4.955   3.282   5.666 -2.8013 -0.5930 -1.7326
   37CHL1  H18B 3873   4.924   3.270   5.840 -2.3105  0.3409  0.1076
   37CHL1  H18C 3874   4.819   3.373   5.739 -0.1946 -1.3671  1.9639
   37CHL1   C12 3875   5.162   3.427   5.831 -0.5479  0.3774 -0.2083
   37CHL1  H12A 3876   5.190   3.349   5.757 -0.5766 -0.0905  0.2669
   37CHL1  H12B 3877   5.228   3.516   5.822  0.4192 -0.3307 -0.2012
   37CHL1   C11 3878   5.160   3.372   5.972 -0.5897  0.5517 -0.5024
   37CHL1  H11A 3879   5.114   3.272   5.977  2.2364 -0.8370  0.0419
   37CHL1  H11B 3880   5.264   3.359   6.010 -1.2604  2.0236  2.0138
   37CHL1    C9 3881   5.092   3.475   6.078  0.6033 -0.1378 -0.2155
   37CHL1    H9 3882   5.155   3.567   6.074  0.9158 -0.3704 -0.7277
   37CHL1   C10 3883   5.101   3.415   6.224  0.3182 -0.8301 -0.6655
   37CHL1   C19 3884   5.030   3.278   6.226  0.2140 -0.2679  0.3215
   37CHL1  H19A 3885   5.002   3.250   6.330 -2.4038 -1.0421 -0.5291
   37CHL1  H19B 3886   4.935   3.268   6.170 -0.6782  1.2023  1.4842
   37CHL1  H19C 3887   5.098   3.201   6.184 -1.7902 -1.0073 -1.7783
   37CHL1    C1 3888   5.247   3.399   6.283  0.4386  0.5363  0.2381
   37CHL1   H1A 3889   5.295   3.306   6.245  1.4712  0.0665  2.5418
   37CHL1   H1B 3890   5.307   3.491   6.266 -1.2235  1.4833 -0.8408
   37CHL1    C2 3891   5.245   3.367   6.438  0.6759 -0.1589  0.4667
   37CHL1   H2A 3892   5.346   3.363   6.483  1.4623 -0.5258 -1.2749
   37CHL1   H2B 3893   5.190   3.271   6.454 -0.9474  0.1759 -2.3911
   37CHL1   C20 3894   5.014   3.481   5.513  0.6624 -0.0134  0.0688
   37CHL1   H20 3895   4.932   3.406   5.509  0.7180 -0.0615 -0.2691
   37CHL1   C21 3896   5.148   3.415   5.485  0.0070  0.3760  0.9931
   37CHL1  H21A 3897   5.160   3.324   5.548  0.5169  0.7237  1.4063
   37CHL1  H21B 3898   5.224   3.496   5.493 -0.4752  1.6829 -3.9972
   37CHL1  H21C 3899   5.159   3.390   5.377  1.9717 -0.5121  1.3559
   37CHL1   C22 3900   4.967   3.564   5.388 -0.2195  0.4620  0.3836
   37CHL1  H22A 3901   4.986   3.505   5.296 -1.1853  0.7509 -0.0193
   37CHL1  H22B 3902   4.856   3.576   5.392 -0.1207  1.0539  1.9533
   37CHL1   C23 3903   5.032   3.703   5.365 -0.0455  0.6859 -0.8905
   37CHL1  H23A 3904   5.036   3.757   5.462  0.8363 -0.4150 -0.2818
   37CHL1  H23B 3905   5.140   3.694   5.337  0.2843  2.3705 -0.2881
   37CHL1   C24 3906   4.954   3.778   5.259 -0.1892 -0.4188 -0.6027
   37CHL1  H24A 3907   4.936   3.697   5.185  0.4921 -2.9279  1.7910
   37CHL1  H24B 3908   4.855   3.808   5.298 -0.3769 -2.9970  1.1371
   37CHL1   C25 3909   5.022   3.906   5.211  0.0324  0.6618 -0.3018
   37CHL1   H25 3910   5.131   3.886   5.202  0.1391  1.8348 -2.0059
   37CHL1   C26 3911   4.977   3.942   5.070  0.6148 -0.2135  0.0107
   37CHL1  H26A 3912   5.048   4.020   5.038  3.1029 -1.3641  2.3316
   37CHL1  H26B 3913   4.981   3.852   5.005 -1.9673  1.2344 -2.3946
   37CHL1  H26C 3914   4.868   3.960   5.060  0.6460 -0.3889 -0.7149
   37CHL1   C27 3915   5.000   4.025   5.309 -0.2288  0.0555 -0.2663
   37CHL1  H27A 3916   4.901   4.074   5.293  1.0138  2.5295 -0.9193
   37CHL1  H27B 3917   5.021   3.999   5.414 -0.7801  1.5684  0.2524
   37CHL1  H27C 3918   5.081   4.098   5.289  0.4994 -0.7554 -0.3118
   38CHL1    C3 3919   4.548   3.732   6.419  0.8556  0.1333  0.2260
   38CHL1    H3 3920   4.646   3.782   6.402  0.2083  1.4102  0.1401
   38CHL1    O3 3921   4.564   3.667   6.540  0.3250  0.2976 -0.0428
   38CHL1   H3' 3922   4.477   3.661   6.579  0.7607  3.3463  1.7081
   38CHL1    C4 3923   4.423   3.827   6.420 -0.2074  0.3752  0.1878
   38CHL1   H4A 3924   4.335   3.766   6.452  1.5050 -1.4472  1.6760
   38CHL1   H4B 3925   4.440   3.901   6.501 -0.0110  0.4550  0.0723
   38CHL1    C5 3926   4.405   3.892   6.287 -0.2628  0.1088  0.2621
   38CHL1    C6 3927   4.398   4.027   6.282 -0.1628  0.1223 -0.6899
   38CHL1    H6 3928   4.404   4.095   6.368 -1.7543  0.7411 -1.0279
   38CHL1    C7 3929   4.379   4.095   6.154 -0.4208 -0.7782 -0.0821
   38CHL1   H7A 3930   4.310   4.181   6.157  0.3360 -0.0843 -1.4125
   38CHL1   H7B 3931   4.481   4.131   6.126 -0.2197  3.4286  4.6996
   38CHL1    C8 3932   4.333   4.008   6.034 -0.4209 -0.0278  0.6766
   38CHL1    H8 3933   4.226   3.987   6.059 -1.0617  1.7988 -0.3347
   38CHL1   C14 3934   4.330   4.085   5.900  0.0706 -0.2559  0.2081
   38CHL1   H14 3935   4.440   4.099   5.896  0.2141 -0.8371  1.6707
   38CHL1   C15 3936   4.266   4.219   5.890  0.8469 -0.5506  0.0173
   38CHL1  H15A 3937   4.164   4.207   5.933  1.3781  0.6680  1.7385
   38CHL1  H15B 3938   4.305   4.304   5.951 -0.6484  1.2081 -1.3689
   38CHL1   C16 3939   4.262   4.248   5.741  0.6709 -0.1128  0.1996
   38CHL1  H16A 3940   4.159   4.276   5.711  0.3704 -1.6514 -0.2880
   38CHL1  H16B 3941   4.327   4.332   5.709 -1.0530  0.5116 -1.8835
   38CHL1   C17 3942   4.304   4.116   5.668 -0.6498 -0.5706  0.5492
   38CHL1   H17 3943   4.413   4.126   5.649 -1.0185  0.1972 -1.3915
   38CHL1   C13 3944   4.290   4.006   5.779 -0.1671  0.6991  0.7250
   38CHL1   C18 3945   4.143   3.961   5.801  0.2720  0.7095  0.0179
   38CHL1  H18A 3946   4.122   3.907   5.896 -2.1258 -1.9640 -1.8505
   38CHL1  H18B 3947   4.074   4.048   5.802 -2.8836 -1.5622  2.2667
   38CHL1  H18C 3948   4.107   3.902   5.714 -3.8688  1.4562  0.9923
   38CHL1   C12 3949   4.380   3.877   5.775 -0.3893 -0.2431 -0.1016
   38CHL1  H12A 3950   4.363   3.809   5.689  4.0960 -0.1348 -1.3377
   38CHL1  H12B 3951   4.483   3.907   5.744 -1.2213  0.7710 -2.0188
   38CHL1   C11 3952   4.375   3.790   5.904 -0.1129 -0.0434 -0.6924
   38CHL1  H11A 3953   4.278   3.736   5.908 -0.1846  0.1440  0.9079
   38CHL1  H11B 3954   4.448   3.708   5.891 -0.7799 -0.7988  0.2153
   38CHL1    C9 3955   4.410   3.874   6.032 -0.1240 -0.3070 -0.0975
   38CHL1    H9 3956   4.519   3.895   6.033  0.1133 -1.4790 -0.1018
   38CHL1   C10 3957   4.393   3.798   6.162  0.0613 -0.2767  0.0301
   38CHL1   C19 3958   4.259   3.717   6.169  0.0677 -0.5659  0.0585
   38CHL1  H19A 3959   4.254   3.639   6.090  1.9896  0.4266 -1.1005
   38CHL1  H19B 3960   4.253   3.675   6.272 -1.5725  1.4744  0.8689
   38CHL1  H19C 3961   4.169   3.782   6.169  0.4940  0.2193  3.1334
   38CHL1    C1 3962   4.511   3.692   6.167  0.1441 -0.3689  0.2179
   38CHL1   H1A 3963   4.494   3.613   6.091  1.8090  0.3815 -1.0011
   38CHL1   H1B 3964   4.598   3.748   6.126 -0.8443  0.8569 -0.2647
   38CHL1    C2 3965   4.528   3.627   6.309 -0.4170 -0.2112 -0.3072
   38CHL1   H2A 3966   4.614   3.558   6.322 -2.5166 -3.2913 -1.4418
   38CHL1   H2B 3967   4.433   3.569   6.320 -0.1569 -0.4148  1.0815
   38CHL1   C20 3968   4.256   4.098   5.523 -0.7331 -0.2024  0.7534
   38CHL1   H20 3969   4.145   4.094   5.528 -0.7623 -1.7472 -0.4039
   38CHL1   C21 3970   4.300   3.966   5.461 -0.9054 -0.1300 -0.6694
   38CHL1  H21A 3971   4.411   3.971   5.464 -0.7163  0.6078 -4.1346
   38CHL1  H21B 3972   4.268   3.953   5.355  1.8536 -0.5708 -1.5306
   38CHL1  H21C 3973   4.272   3.871   5.511 -2.0912  0.8007  0.4861
   38CHL1   C22 3974   4.299   4.212   5.435  0.6193 -0.0576 -0.5101
   38CHL1  H22A 3975   4.381   4.263   5.491 -1.6059  1.2696  1.7640
   38CHL1  H22B 3976   4.338   4.177   5.337  0.3768 -4.1044  0.6277
   38CHL1   C23 3977   4.193   4.330   5.406  0.2528 -1.0394  0.3006
   38CHL1  H23A 3978   4.157   4.386   5.495  1.5773 -0.0101  0.2234
   38CHL1  H23B 3979   4.244   4.409   5.345 -2.0977  0.5897  0.2825
   38CHL1   C24 3980   4.072   4.280   5.324  0.0234 -0.3863 -0.0801
   38CHL1  H24A 3981   4.109   4.240   5.227  2.9709 -1.5563  1.4135
   38CHL1  H24B 3982   4.020   4.200   5.381  0.0169 -0.4956 -0.2402
   38CHL1   C25 3983   3.967   4.395   5.290  0.1900 -0.4391 -0.1784
   38CHL1   H25 3984   3.926   4.435   5.384 -0.1880  0.1119 -0.5727
   38CHL1   C26 3985   4.019   4.504   5.207  0.2786 -0.1201 -0.5783
   38CHL1  H26A 3986   4.047   4.467   5.106 -1.7874  1.0366 -1.6527
   38CHL1  H26B 3987   3.949   4.590   5.199  0.6694  0.2402 -0.1232
   38CHL1  H26C 3988   4.111   4.548   5.250  0.9288 -0.2710 -1.7646
   38CHL1   C27 3989   3.849   4.338   5.206  0.1322  0.1442 -0.8718
   38CHL1  H27A 3990   3.786   4.424   5.175 -3.2861 -1.5506  0.7627
   38CHL1  H27B 3991   3.885   4.285   5.116 -4.3218 -1.5412 -1.9034
   38CHL1  H27C 3992   3.791   4.258   5.256  1.1158 -0.8674 -1.3171
   39CHL1    C3 3993   5.112   4.129   6.421 -0.3794  0.6432  0.2613
   39CHL1    H3 3994   5.199   4.097   6.359 -1.1911 -0.6155 -0.2704
   39CHL1    O3 3995   5.146   4.116   6.558  0.6956  0.4047  0.3456
   39CHL1   H3' 3996   5.062   4.135   6.601  1.3771  1.5145  1.2326
   39CHL1    C4 3997   5.074   4.276   6.388 -0.0166  0.1948  0.3712
   39CHL1   H4A 3998   4.995   4.316   6.455 -0.6729  0.4503 -0.5423
   39CHL1   H4B 3999   5.173   4.323   6.409  2.0264 -3.1342 -0.9254
   39CHL1    C5 4000   5.042   4.281   6.240  0.1591 -0.0658 -0.0196
   39CHL1    C6 4001   5.103   4.371   6.164  0.0284  0.3302 -0.5044
   39CHL1    H6 4002   5.174   4.439   6.213  0.3340 -0.4111  0.0987
   39CHL1    C7 4003   5.069   4.393   6.021 -0.5949  0.4957 -0.0969
   39CHL1   H7A 4004   5.070   4.502   5.999 -3.9042  0.3828 -1.3422
   39CHL1   H7B 4005   5.157   4.346   5.971 -0.3609 -1.1135  1.6866
   39CHL1    C8 4006   4.929   4.338   5.975  0.0347 -0.4741 -0.1768
   39CHL1    H8 4007   4.851   4.412   6.002  0.4984  0.6018 -1.6153
   39CHL1   C14 4008   4.916   4.328   5.828 -0.3595  0.2530  0.8810
   39CHL1   H14 4009   5.005   4.266   5.803  0.3409  1.6781 -0.3460
   39CHL1   C15 4010   4.941   4.451   5.735  0.1792 -0.3518 -0.4826
   39CHL1  H15A 4011   4.891   4.540   5.778 -1.5677 -1.7980  0.6121
   39CHL1  H15B 4012   5.048   4.468   5.714  0.1362  0.7275  0.1262
   39CHL1   C16 4013   4.882   4.416   5.597  0.9511  0.1769 -0.0423
   39CHL1  H16A 4014   4.802   4.488   5.569 -0.9535 -1.0297  2.0482
   39CHL1  H16B 4015   4.967   4.420   5.525  2.2157 -2.8085  1.1537
   39CHL1   C17 4016   4.819   4.281   5.615  0.3140 -0.0044  0.2003
   39CHL1   H17 4017   4.897   4.206   5.591  1.9639  1.7620 -0.1838
   39CHL1   C13 4018   4.791   4.263   5.768 -0.3688 -0.7815  0.3971
   39CHL1   C18 4019   4.662   4.339   5.800  0.2523  0.1806 -0.1821
   39CHL1  H18A 4020   4.661   4.441   5.756 -1.6784  0.3509  0.1791
   39CHL1  H18B 4021   4.572   4.286   5.763 -0.4580  1.9133 -1.0509
   39CHL1  H18C 4022   4.649   4.343   5.910  2.8305 -0.8724  0.2355
   39CHL1   C12 4023   4.790   4.122   5.831  0.0391  0.1198 -0.5487
   39CHL1  H12A 4024   4.708   4.054   5.801 -0.4593  0.1327  0.7112
   39CHL1  H12B 4025   4.880   4.061   5.809 -0.7950 -1.0468 -0.7677
   39CHL1   C11 4026   4.786   4.126   5.991  0.0761  0.0019  0.0502
   39CHL1  H11A 4027   4.694   4.182   6.019  0.1427  0.2863 -0.2822
   39CHL1  H11B 4028   4.774   4.023   6.029  0.6673  0.0213  0.2974
   39CHL1    C9 4029   4.915   4.197   6.034 -0.9047 -0.1612  0.1106
   39CHL1    H9 4030   4.996   4.142   5.981 -2.3839 -0.6968 -1.6692
   39CHL1   C10 4031   4.939   4.188   6.187  1.1750  0.1795  0.4910
   39CHL1   C19 4032   4.814   4.242   6.262  0.1306  0.0696 -0.7276
   39CHL1  H19A 4033   4.799   4.348   6.234  2.3844  0.9113  0.9964
   39CHL1  H19B 4034   4.713   4.197   6.246  0.5009 -1.7380  1.3949
   39CHL1  H19C 4035   4.822   4.229   6.373  1.1500 -2.9333 -1.0643
   39CHL1    C1 4036   4.975   4.039   6.227 -0.1764 -0.4597 -0.4143
   39CHL1   H1A 4037   4.889   3.980   6.189  0.5911 -1.3173 -0.8477
   39CHL1   H1B 4038   5.067   4.006   6.174  0.1318 -2.1749  1.0958
   39CHL1    C2 4039   5.007   4.030   6.383 -0.0518  0.0949  0.7455
   39CHL1   H2A 4040   5.056   3.932   6.398  0.3634 -0.0470 -1.2675
   39CHL1   H2B 4041   4.911   4.050   6.437 -0.0240  3.6352 -0.2473
   39CHL1   C20 4042   4.699   4.250   5.513 -0.9233  0.3300 -0.1512
   39CHL1   H20 4043   4.607   4.301   5.548 -1.6801 -0.1747 -1.3574
   39CHL1   C21 4044   4.672   4.104   5.511 -0.1830  0.3015  0.3620
   39CHL1  H21A 4045   4.771   4.054   5.526 -0.3190 -0.3238 -0.7317
   39CHL1  H21B 4046   4.626   4.063   5.419  1.3853 -1.2548  0.2131
   39CHL1  H21C 4047   4.608   4.078   5.598  0.4225  1.2373  1.1062
   39CHL1   C22 4048   4.711   4.317   5.371  0.4308  0.6813 -0.2985
   39CHL1  H22A 4049   4.762   4.415   5.363  1.7013  0.1394  0.7814
   39CHL1  H22B 4050   4.769   4.250   5.303 -0.4110 -1.7609  1.2507
   39CHL1   C23 4051   4.577   4.344   5.302  0.4857  0.1197 -0.6936
   39CHL1  H23A 4052   4.520   4.249   5.301 -0.1088  0.3702  1.8461
   39CHL1  H23B 4053   4.527   4.425   5.360  0.6555 -0.1589 -0.1563
   39CHL1   C24 4054   4.596   4.386   5.154  0.0371 -0.2504 -0.0979
   39CHL1  H24A 4055   4.648   4.484   5.144  2.1743 -1.2933  0.3451
   39CHL1  H24B 4056   4.657   4.306   5.107  0.4630 -0.6627  1.1072
   39CHL1   C25 4057   4.466   4.382   5.077  0.4321  0.1661 -0.3772
   39CHL1   H25 4058   4.402   4.311   5.133 -0.3585  2.6873  2.1876
   39CHL1   C26 4059   4.397   4.519   5.083 -0.2057  0.2614  0.1145
   39CHL1  H26A 4060   4.378   4.539   5.191 -2.1486  0.2460 -0.1981
   39CHL1  H26B 4061   4.452   4.602   5.034 -2.0204  0.3893 -1.8403
   39CHL1  H26C 4062   4.294   4.513   5.041  0.2967 -0.9432 -1.0253
   39CHL1   C27 4063   4.485   4.318   4.936 -0.2969 -0.3934 -0.5535
   39CHL1  H27A 4064   4.537   4.385   4.864  2.5244  0.1503  1.7959
   39CHL1  H27B 4065   4.544   4.226   4.955 -0.5372  0.1176  3.8246
   39CHL1  H27C 4066   4.383   4.296   4.900 -1.3927  0.3993  1.8733
   40CHL1    C3 4067   6.314   0.973   6.798 -0.1916 -0.6195  0.1776
   40CHL1    H3 4068   6.395   0.902   6.769  1.6990  2.6363 -3.6662
   40CHL1    O3 4069   6.276   0.954   6.931  0.7369 -0.2306  0.0021
   40CHL1   H3' 4070   6.234   1.036   6.959 -1.2646 -1.5175  0.9462
   40CHL1    C4 4071   6.370   1.118   6.777  0.1743  0.7462  0.2965
   40CHL1   H4A 4072   6.297   1.192   6.817  1.0278  2.2196 -0.7480
   40CHL1   H4B 4073   6.465   1.134   6.832  2.1612  0.0448 -2.7012
   40CHL1    C5 4074   6.395   1.155   6.630 -0.5448 -0.0441 -0.0207
   40CHL1    C6 4075   6.516   1.201   6.587  0.7405  0.3171 -0.1844
   40CHL1    H6 4076   6.596   1.218   6.660 -0.0991  0.5323  0.7029
   40CHL1    C7 4077   6.540   1.252   6.446 -0.1755 -0.0051 -0.3541
   40CHL1   H7A 4078   6.579   1.356   6.442  3.7381 -1.3117  0.1164
   40CHL1   H7B 4079   6.608   1.185   6.390 -1.7390 -1.7366 -0.2733
   40CHL1    C8 4080   6.412   1.261   6.357  0.1507 -0.6216  0.0791
   40CHL1    H8 4081   6.363   1.354   6.391  0.4571 -0.9425  1.4924
   40CHL1   C14 4082   6.444   1.261   6.206  0.2710  0.1920 -0.7978
   40CHL1   H14 4083   6.478   1.156   6.191  0.9552  0.3283 -0.2556
   40CHL1   C15 4084   6.551   1.352   6.161  0.7012 -0.1226 -0.0103
   40CHL1  H15A 4085   6.537   1.448   6.215 -2.8470 -2.2826  3.4670
   40CHL1  H15B 4086   6.657   1.318   6.163  1.0467  0.8481 -1.2315
   40CHL1   C16 4087   6.520   1.376   6.010  0.0825  0.2360 -0.3034
   40CHL1  H16A 4088   6.500   1.482   5.986 -0.8002 -0.4724 -3.2178
   40CHL1  H16B 4089   6.599   1.340   5.940 -0.1170  1.0903 -0.9766
   40CHL1   C17 4090   6.388   1.297   5.985 -0.6190  0.2526  0.9659
   40CHL1   H17 4091   6.415   1.200   5.939 -0.7276  0.6100  0.1285
   40CHL1   C13 4092   6.317   1.277   6.114 -0.5098  0.5312 -1.3726
   40CHL1   C18 4093   6.246   1.411   6.157  0.3788  0.2285  0.3131
   40CHL1  H18A 4094   6.333   1.478   6.172  1.1591 -1.0062  1.5842
   40CHL1  H18B 4095   6.177   1.461   6.087  0.4908 -0.0650 -0.0133
   40CHL1  H18C 4096   6.216   1.401   6.264  1.1456  1.9941  0.7227
   40CHL1   C12 4097   6.225   1.156   6.139 -0.7409 -0.1150 -0.4180
   40CHL1  H12A 4098   6.138   1.153   6.071  1.2226 -0.3035 -3.0611
   40CHL1  H12B 4099   6.281   1.063   6.115 -0.6463  0.0824 -0.9608
   40CHL1   C11 4100   6.192   1.141   6.288  0.4299  0.4024  0.2233
   40CHL1  H11A 4101   6.119   1.221   6.312 -0.1439 -0.1494  0.3712
   40CHL1  H11B 4102   6.130   1.049   6.295 -2.1201  2.1022  2.0443
   40CHL1    C9 4103   6.317   1.139   6.385 -0.0375 -0.6886 -0.1335
   40CHL1    H9 4104   6.370   1.045   6.360  0.2613 -0.3997 -0.6046
   40CHL1   C10 4105   6.280   1.124   6.532 -0.0353 -0.7400 -0.7079
   40CHL1   C19 4106   6.156   1.224   6.558  0.0336  0.1850 -0.2688
   40CHL1  H19A 4107   6.111   1.218   6.660  0.9677 -2.3217  0.0661
   40CHL1  H19B 4108   6.186   1.329   6.538  0.3588  0.1771  0.1608
   40CHL1  H19C 4109   6.068   1.196   6.495  0.9156  0.3975 -1.6256
   40CHL1    C1 4110   6.234   0.978   6.558  0.0460 -0.9384 -0.0710
   40CHL1   H1A 4111   6.152   0.952   6.488 -1.3344  2.0439  0.3098
   40CHL1   H1B 4112   6.317   0.912   6.524 -0.3939 -1.4237 -0.2150
   40CHL1    C2 4113   6.197   0.945   6.701  0.0277 -0.6858 -0.8995
   40CHL1   H2A 4114   6.173   0.836   6.702 -2.2086 -0.2927 -3.0243
   40CHL1   H2B 4115   6.112   1.005   6.738  0.3176  0.5725 -2.1776
   40CHL1   C20 4116   6.311   1.376   5.873 -0.5045  0.6310  0.5863
   40CHL1   H20 4117   6.279   1.473   5.916  0.8442  1.3654  0.0082
   40CHL1   C21 4118   6.184   1.289   5.844 -0.1081 -0.4062 -0.3916
   40CHL1  H21A 4119   6.142   1.317   5.745  1.9824  0.0558 -1.1893
   40CHL1  H21B 4120   6.115   1.304   5.930  2.1971  2.6193  1.1229
   40CHL1  H21C 4121   6.212   1.181   5.843  1.2129 -0.0812 -0.1688
   40CHL1   C22 4122   6.383   1.399   5.735 -0.8140  0.3647 -0.8071
   40CHL1  H22A 4123   6.309   1.438   5.662 -0.2075  0.8118 -1.1915
   40CHL1  H22B 4124   6.472   1.466   5.747  0.5556 -1.4031 -0.7489
   40CHL1   C23 4125   6.443   1.274   5.668  0.8402  0.1182 -0.5453
   40CHL1  H23A 4126   6.524   1.217   5.718  0.9348 -1.7744 -2.6691
   40CHL1  H23B 4127   6.362   1.197   5.672  1.8385 -0.9336  3.0112
   40CHL1   C24 4128   6.509   1.315   5.540 -0.1980  0.2580 -0.2110
   40CHL1  H24A 4129   6.439   1.327   5.454 -1.5920  2.1672  1.0964
   40CHL1  H24B 4130   6.549   1.416   5.563 -0.4836  0.2103  0.5281
   40CHL1   C25 4131   6.635   1.231   5.505 -0.5663  0.4629  0.5015
   40CHL1   H25 4132   6.697   1.215   5.595  0.0800 -1.0681 -0.1625
   40CHL1   C26 4133   6.589   1.089   5.466 -0.5494 -0.4182  0.4659
   40CHL1  H26A 4134   6.495   1.099   5.409 -0.7921 -0.5814  0.8303
   40CHL1  H26B 4135   6.668   1.029   5.417 -1.0381  0.0548 -0.9636
   40CHL1  H26C 4136   6.563   1.035   5.560 -1.3849  0.8523  0.9867
   40CHL1   C27 4137   6.712   1.297   5.394 -0.3321  0.1303 -0.2766
   40CHL1  H27A 4138   6.812   1.250   5.378 -0.0889  0.7950 -0.7961
   40CHL1  H27B 4139   6.664   1.263   5.300 -0.5293 -2.4511  0.6733
   40CHL1  H27C 4140   6.721   1.405   5.417  1.6135 -0.3810  1.7192
   41CHL1    C3 4141   1.706   1.415   6.979 -1.0121 -0.5802 -0.5513
   41CHL1    H3 4142   1.760   1.318   6.977 -1.1499 -0.6576 -0.5231
   41CHL1    O3 4143   1.665   1.438   7.114 -0.7070  0.1017 -0.7050
   41CHL1   H3' 4144   1.581   1.393   7.125  0.7419 -2.6757  0.2507
   41CHL1    C4 4145   1.803   1.522   6.923  0.6171 -0.0382 -0.6509
   41CHL1   H4A 4146   1.762   1.625   6.934 -0.0949 -0.4006  0.1577
   41CHL1   H4B 4147   1.889   1.531   6.993 -0.1376  0.6117  0.2305
   41CHL1    C5 4148   1.836   1.506   6.778  0.4591  0.4013 -0.1539
   41CHL1    C6 4149   1.957   1.514   6.732 -0.3961 -0.4091 -0.3744
   41CHL1    H6 4150   2.033   1.543   6.806 -0.9470 -0.1469  0.0992
   41CHL1    C7 4151   2.006   1.509   6.595  0.3353 -0.1099 -0.0227
   41CHL1   H7A 4152   2.084   1.586   6.573  0.4260 -0.6396 -1.6125
   41CHL1   H7B 4153   2.058   1.411   6.592  0.2879 -0.2261  1.8485
   41CHL1    C8 4154   1.886   1.519   6.496  0.7324 -0.0168  1.3124
   41CHL1    H8 4155   1.869   1.629   6.495 -0.0760 -0.1369  1.1082
   41CHL1   C14 4156   1.930   1.466   6.351 -0.0209  0.0786  0.0153
   41CHL1   H14 4157   1.956   1.358   6.349 -0.2618  0.0244 -1.4422
   41CHL1   C15 4158   2.064   1.522   6.291  0.2073 -0.4403 -0.8552
   41CHL1  H15A 4159   2.070   1.625   6.332 -0.8195 -0.5479 -0.3928
   41CHL1  H15B 4160   2.152   1.470   6.335  0.8296  1.6200  0.4686
   41CHL1   C16 4161   2.046   1.506   6.135 -0.4251  0.3943 -0.1501
   41CHL1  H16A 4162   2.052   1.612   6.104  3.1820  1.2144  2.7068
   41CHL1  H16B 4163   2.128   1.443   6.094 -0.2620 -0.9491  2.0746
   41CHL1   C17 4164   1.898   1.443   6.120  0.5542  0.3690 -0.7590
   41CHL1   H17 4165   1.913   1.333   6.132 -0.0955  0.3352 -0.1857
   41CHL1   C13 4166   1.826   1.485   6.244  0.9268  0.1938  0.4841
   41CHL1   C18 4167   1.792   1.635   6.229 -0.1466  0.8978  0.3352
   41CHL1  H18A 4168   1.768   1.684   6.326  0.9506  0.7557  0.6956
   41CHL1  H18B 4169   1.887   1.687   6.204  0.8566 -0.1324  1.8293
   41CHL1  H18C 4170   1.714   1.659   6.154  0.1894 -0.0145 -0.3286
   41CHL1   C12 4171   1.714   1.393   6.295 -0.0004  0.6203 -0.1066
   41CHL1  H12A 4172   1.625   1.382   6.229  0.0088 -2.1780  0.2383
   41CHL1  H12B 4173   1.755   1.290   6.309 -2.0721 -0.2406  0.0053
   41CHL1   C11 4174   1.660   1.429   6.431 -0.2250  0.1279 -0.0446
   41CHL1  H11A 4175   1.600   1.522   6.419 -1.4304 -0.6649 -0.3250
   41CHL1  H11B 4176   1.586   1.352   6.461 -0.2906  0.5572  0.9396
   41CHL1    C9 4177   1.767   1.429   6.544  0.3557  0.3675  0.4079
   41CHL1    H9 4178   1.810   1.328   6.554 -0.1531  0.0168 -0.8078
   41CHL1   C10 4179   1.716   1.483   6.685  0.5204 -0.3289  0.1901
   41CHL1   C19 4180   1.647   1.624   6.668  0.2759  0.9359  0.8024
   41CHL1  H19A 4181   1.626   1.654   6.773 -0.4028 -2.1872  1.6659
   41CHL1  H19B 4182   1.714   1.694   6.614  1.1844 -0.4758  0.0395
   41CHL1  H19C 4183   1.543   1.616   6.628  0.1149  2.5654  0.8138
   41CHL1    C1 4184   1.628   1.378   6.746  0.3837  0.3847  0.2322
   41CHL1   H1A 4185   1.535   1.359   6.688 -1.2489  1.9271  2.2043
   41CHL1   H1B 4186   1.672   1.276   6.753  0.2084  0.2972  0.0982
   41CHL1    C2 4187   1.582   1.398   6.891 -0.9660 -0.1387  0.8539
   41CHL1   H2A 4188   1.515   1.311   6.910 -3.0676  1.2176 -0.0092
   41CHL1   H2B 4189   1.512   1.484   6.895 -0.7846  0.1075 -0.7064
   41CHL1   C20 4190   1.825   1.461   5.974 -0.0083 -0.7054 -0.5889
   41CHL1   H20 4191   1.817   1.572   5.971  0.6045 -0.6582 -0.6578
   41CHL1   C21 4192   1.696   1.395   5.977  0.9750 -0.0551  0.0300
   41CHL1  H21A 4193   1.701   1.286   5.996  0.7479 -0.5049 -2.2252
   41CHL1  H21B 4194   1.664   1.384   5.871  1.6424 -1.9742  0.0029
   41CHL1  H21C 4195   1.625   1.457   6.036 -1.0005 -2.2487  0.1087
   41CHL1   C22 4196   1.912   1.399   5.864  0.3455 -0.0523  0.4407
   41CHL1  H22A 4197   2.017   1.432   5.883  0.2909 -0.0514  0.7479
   41CHL1  H22B 4198   1.913   1.288   5.868 -1.1522 -0.1008  0.0665
   41CHL1   C23 4199   1.879   1.448   5.720  0.4367  0.1012 -0.2966
   41CHL1  H23A 4200   1.788   1.390   5.694  1.0282 -1.6346  1.2914
   41CHL1  H23B 4201   1.852   1.555   5.737  0.8106 -0.0487  1.3904
   41CHL1   C24 4202   1.997   1.442   5.621 -0.8688  0.3066 -0.4649
   41CHL1  H24A 4203   2.095   1.472   5.665 -0.4179  0.1998 -1.3607
   41CHL1  H24B 4204   2.013   1.334   5.597 -0.7819  0.6007 -1.8407
   41CHL1   C25 4205   1.984   1.492   5.470  0.0606 -0.1189 -0.2521
   41CHL1   H25 4206   1.885   1.450   5.442  0.6295 -0.5490 -1.7472
   41CHL1   C26 4207   1.989   1.644   5.454 -0.5480  0.2453 -0.1152
   41CHL1  H26A 4208   1.970   1.673   5.348 -0.1435  0.9643  0.0045
   41CHL1  H26B 4209   1.911   1.684   5.523 -0.3938  0.6454 -0.1724
   41CHL1  H26C 4210   2.087   1.677   5.492 -0.6617 -2.1377  2.5927
   41CHL1   C27 4211   2.090   1.424   5.385 -0.5093  0.4392  0.1530
   41CHL1  H27A 4212   2.069   1.439   5.277 -3.4891 -3.5778 -0.0571
   41CHL1  H27B 4213   2.190   1.469   5.402  0.3364 -0.8011 -1.3727
   41CHL1  H27C 4214   2.089   1.313   5.389  3.0469  0.3273  0.9507
   42CHL1    C3 4215   1.411   2.235   6.714 -0.8563  0.7106 -0.4789
   42CHL1    H3 4216   1.316   2.184   6.687 -0.4373  0.6047 -1.7957
   42CHL1    O3 4217   1.404   2.267   6.850 -0.3571  0.1632 -0.3182
   42CHL1   H3' 4218   1.378   2.185   6.892  2.5708 -0.9563 -0.4369
   42CHL1    C4 4219   1.527   2.140   6.692  0.4954 -0.4042  0.2114
   42CHL1   H4A 4220   1.623   2.185   6.724  1.4081 -1.5228 -0.8262
   42CHL1   H4B 4221   1.516   2.046   6.750 -0.4455  0.7194  1.9534
   42CHL1    C5 4222   1.532   2.114   6.540 -0.4734 -0.1856  0.0980
   42CHL1    C6 4223   1.516   1.989   6.493 -0.4732 -0.3255 -0.2253
   42CHL1    H6 4224   1.510   1.902   6.561 -0.4458 -0.9841 -1.0455
   42CHL1    C7 4225   1.535   1.958   6.345 -0.3436 -0.6409 -0.0167
   42CHL1   H7A 4226   1.610   1.876   6.341  1.8179  1.2799 -1.0355
   42CHL1   H7B 4227   1.434   1.933   6.305 -0.6437  0.6164 -0.0684
   42CHL1    C8 4228   1.597   2.072   6.263 -0.8849  0.4281  1.4467
   42CHL1    H8 4229   1.701   2.074   6.302 -1.0328 -1.5925  2.0513
   42CHL1   C14 4230   1.589   2.038   6.111  0.7175  0.2316 -0.1223
   42CHL1   H14 4231   1.481   2.027   6.088  0.8982  1.3114 -1.6861
   42CHL1   C15 4232   1.650   1.907   6.068 -0.1791  0.2141  0.6627
   42CHL1  H15A 4233   1.746   1.869   6.109  0.9025 -0.7778 -2.5281
   42CHL1  H15B 4234   1.575   1.826   6.084 -1.5193  1.4684  0.9472
   42CHL1   C16 4235   1.670   1.933   5.916 -0.1846 -0.6354 -0.0830
   42CHL1  H16A 4236   1.778   1.922   5.893  0.0069  1.8809 -0.6183
   42CHL1  H16B 4237   1.603   1.864   5.859 -1.6557 -0.3844  1.2686
   42CHL1   C17 4238   1.619   2.081   5.882 -0.6259 -0.2310  0.4583
   42CHL1   H17 4239   1.509   2.080   5.863 -0.5832  1.5037 -0.0572
   42CHL1   C13 4240   1.640   2.149   6.018 -0.1994 -0.1634  0.9541
   42CHL1   C18 4241   1.791   2.174   6.044 -0.2629  0.6427  0.1976
   42CHL1  H18A 4242   1.796   2.206   6.150 -3.5894 -2.1348  1.3779
   42CHL1  H18B 4243   1.854   2.085   6.022 -0.1646  1.3185 -2.6620
   42CHL1  H18C 4244   1.826   2.254   5.975 -3.2304  0.9282 -1.1164
   42CHL1   C12 4245   1.555   2.277   6.044 -0.0716 -0.2024  1.2910
   42CHL1  H12A 4246   1.585   2.367   5.985 -1.0311 -0.7888 -0.1253
   42CHL1  H12B 4247   1.452   2.262   6.006 -0.4221  0.8456  1.7890
   42CHL1   C11 4248   1.553   2.315   6.189  0.4928 -0.1166 -0.0744
   42CHL1  H11A 4249   1.656   2.352   6.210  0.8624 -1.6553  1.0365
   42CHL1  H11B 4250   1.489   2.406   6.200  1.2455  0.3698  0.4046
   42CHL1    C9 4251   1.524   2.204   6.293  0.3457  0.4933 -0.1054
   42CHL1    H9 4252   1.416   2.189   6.273  0.2836  0.9551 -0.1454
   42CHL1   C10 4253   1.535   2.240   6.442 -0.0580  1.0509 -0.2245
   42CHL1   C19 4254   1.675   2.313   6.474 -0.3581  0.1392 -0.1828
   42CHL1  H19A 4255   1.696   2.406   6.418  0.6734 -1.4028 -2.5329
   42CHL1  H19B 4256   1.674   2.340   6.582 -0.4959 -1.6142  0.2854
   42CHL1  H19C 4257   1.760   2.245   6.452 -0.0698  0.0208  1.1732
   42CHL1    C1 4258   1.411   2.331   6.483 -0.2547 -0.0906 -0.2866
   42CHL1   H1A 4259   1.420   2.420   6.416 -0.1904  0.4076  0.3814
   42CHL1   H1B 4260   1.318   2.275   6.459 -0.0004 -0.0040 -1.5534
   42CHL1    C2 4261   1.404   2.362   6.631 -1.0217  0.4036  0.2688
   42CHL1   H2A 4262   1.308   2.412   6.653 -2.1728 -1.5818  0.0032
   42CHL1   H2B 4263   1.490   2.430   6.648  1.9046 -1.7430 -4.0115
   42CHL1   C20 4264   1.694   2.146   5.763 -0.0325  0.2761  0.3207
   42CHL1   H20 4265   1.802   2.154   5.788  0.0106 -2.2591  1.2020
   42CHL1   C21 4266   1.641   2.299   5.745 -0.5029  0.5258  0.2923
   42CHL1  H21A 4267   1.649   2.331   5.639 -1.7290 -0.9513 -0.2873
   42CHL1  H21B 4268   1.695   2.370   5.811 -2.9266  0.3329  2.6569
   42CHL1  H21C 4269   1.533   2.286   5.769 -0.2960  2.1912  2.3192
   42CHL1   C22 4270   1.670   2.060   5.631 -0.3303 -0.2074  0.5224
   42CHL1  H22A 4271   1.652   1.954   5.656  0.2683 -0.3422  0.3989
   42CHL1  H22B 4272   1.576   2.083   5.577 -0.5790 -0.0235  1.0167
   42CHL1   C23 4273   1.791   2.067   5.528 -0.1251  0.2305 -0.2811
   42CHL1  H23A 4274   1.785   2.169   5.485 -2.2428  0.0517 -0.5157
   42CHL1  H23B 4275   1.885   2.045   5.583 -0.5458  0.5797  0.5877
   42CHL1   C24 4276   1.778   1.959   5.419 -0.1516  0.7337  0.0089
   42CHL1  H24A 4277   1.826   1.870   5.464  0.2635  1.8035  1.7717
   42CHL1  H24B 4278   1.668   1.949   5.402 -0.0917  2.3184 -1.7077
   42CHL1   C25 4279   1.846   2.001   5.289  0.2621  0.1159  0.0167
   42CHL1   H25 4280   1.818   2.105   5.261  1.4099  0.2760 -0.6066
   42CHL1   C26 4281   2.001   2.004   5.311 -0.2176  0.2326  0.3750
   42CHL1  H26A 4282   2.034   2.090   5.371  0.1116  1.6989 -1.7797
   42CHL1  H26B 4283   2.040   1.916   5.368  2.5076  2.1317  1.6516
   42CHL1  H26C 4284   2.052   2.016   5.212 -1.2240  0.0137 -0.1859
   42CHL1   C27 4285   1.811   1.901   5.169 -0.5033 -0.0305  0.4027
   42CHL1  H27A 4286   1.867   1.926   5.076 -1.8733 -2.7515 -1.2766
   42CHL1  H27B 4287   1.848   1.797   5.181  0.4767  0.1189 -0.9932
   42CHL1  H27C 4288   1.703   1.900   5.146 -0.8948 -0.4504  2.0926
   43CHL1    C3 4289   0.293   6.099   7.027  0.0843  0.1647 -0.4786
   43CHL1    H3 4290   0.198   6.156   7.020  0.7804  1.5696  0.9947
   43CHL1    O3 4291   0.284   6.044   7.156  0.3664  0.0138  0.1745
   43CHL1   H3' 4292   0.208   5.986   7.151  0.4712 -0.1994  0.8802
   43CHL1    C4 4293   0.319   5.989   6.926 -0.0114  0.5187 -0.2135
   43CHL1   H4A 4294   0.399   5.919   6.958 -0.9136  0.2483  1.5857
   43CHL1   H4B 4295   0.226   5.927   6.923  0.8158 -0.8562  1.1746
   43CHL1    C5 4296   0.341   6.043   6.783  0.1164 -0.5098 -0.6167
   43CHL1    C6 4297   0.268   6.005   6.675 -0.0562 -0.4254  0.1091
   43CHL1    H6 4298   0.190   5.928   6.682 -1.9561  1.5322  1.7456
   43CHL1    C7 4299   0.306   6.041   6.532  0.0319  0.0549  0.0966
   43CHL1   H7A 4300   0.313   5.946   6.476 -1.9655  1.0635 -2.0559
   43CHL1   H7B 4301   0.224   6.093   6.478 -0.6541 -1.4344 -0.3376
   43CHL1    C8 4302   0.438   6.127   6.519  1.1122  0.4669  0.0385
   43CHL1    H8 4303   0.521   6.054   6.506  0.4113 -0.1578 -1.1225
   43CHL1   C14 4304   0.446   6.206   6.389 -0.3559  0.2681  0.3456
   43CHL1   H14 4305   0.354   6.268   6.390 -0.3106  0.3327  1.5125
   43CHL1   C15 4306   0.421   6.132   6.256 -0.4161 -0.4460  0.0984
   43CHL1  H15A 4307   0.487   6.043   6.254  0.7803  0.4290 -1.3668
   43CHL1  H15B 4308   0.314   6.103   6.249 -0.5696  0.2076 -0.3010
   43CHL1   C16 4309   0.479   6.224   6.147 -0.2908 -0.4596 -0.2384
   43CHL1  H16A 4310   0.559   6.180   6.084  0.3074  1.5442 -0.9654
   43CHL1  H16B 4311   0.391   6.242   6.082 -0.3040 -1.3822 -0.4887
   43CHL1   C17 4312   0.533   6.352   6.222  1.0339 -0.7279 -1.1192
   43CHL1   H17 4313   0.452   6.424   6.247  2.4340  0.5563 -0.0948
   43CHL1   C13 4314   0.566   6.296   6.362 -0.4981 -0.9646 -0.5331
   43CHL1   C18 4315   0.700   6.216   6.350 -0.0636  0.2883  0.2450
   43CHL1  H18A 4316   0.693   6.136   6.273  2.3190 -1.6660  1.8882
   43CHL1  H18B 4317   0.775   6.297   6.338 -1.8581  1.9734 -0.2090
   43CHL1  H18C 4318   0.722   6.165   6.446  1.0128  2.3329  1.1521
   43CHL1   C12 4319   0.575   6.390   6.484  0.0252 -0.1706 -0.0138
   43CHL1  H12A 4320   0.668   6.451   6.478 -1.1590  1.7689  0.3392
   43CHL1  H12B 4321   0.493   6.465   6.478  1.1128  1.1990  1.2679
   43CHL1   C11 4322   0.571   6.313   6.613 -0.2132 -0.7416 -0.0520
   43CHL1  H11A 4323   0.666   6.255   6.617  0.5558  0.4392 -0.3847
   43CHL1  H11B 4324   0.562   6.385   6.697 -1.5237  1.1043 -1.7022
   43CHL1    C9 4325   0.453   6.225   6.634  0.1400 -0.0645  0.2246
   43CHL1    H9 4326   0.363   6.288   6.650  0.1813 -0.1719  0.9610
   43CHL1   C10 4327   0.455   6.139   6.776  0.4135  0.1571 -0.5371
   43CHL1   C19 4328   0.587   6.061   6.793 -0.3147  0.3941  0.1438
   43CHL1  H19A 4329   0.575   5.987   6.875  2.4309 -0.5669 -0.2406
   43CHL1  H19B 4330   0.603   6.001   6.701 -1.9558  0.5449 -0.2753
   43CHL1  H19C 4331   0.678   6.122   6.808 -0.3323  0.2340  0.9128
   43CHL1    C1 4332   0.439   6.253   6.884 -0.2807  0.2675 -0.0553
   43CHL1   H1A 4333   0.538   6.303   6.897  0.1021 -1.0675  3.4819
   43CHL1   H1B 4334   0.359   6.319   6.846 -0.8448 -0.4289 -0.0878
   43CHL1    C2 4335   0.404   6.201   7.023  0.7250  0.7244 -1.0216
   43CHL1   H2A 4336   0.383   6.292   7.082 -1.6066  0.9940 -2.1507
   43CHL1   H2B 4337   0.495   6.148   7.058  1.7227  1.7862 -1.9264
   43CHL1   C20 4338   0.644   6.429   6.139  0.2383  0.0658 -0.3713
   43CHL1   H20 4339   0.726   6.356   6.120  0.0683  0.1559 -1.5222
   43CHL1   C21 4340   0.699   6.551   6.218  0.3263 -0.3075 -1.0409
   43CHL1  H21A 4341   0.767   6.614   6.157 -0.4474 -0.0297 -1.6242
   43CHL1  H21B 4342   0.751   6.524   6.313 -0.9468  0.9650  0.0618
   43CHL1  H21C 4343   0.614   6.618   6.241 -0.2031 -1.0516 -0.7583
   43CHL1   C22 4344   0.594   6.480   6.000 -0.3968  0.2297 -0.1168
   43CHL1  H22A 4345   0.525   6.403   5.959 -0.1448 -1.3713  2.2667
   43CHL1  H22B 4346   0.532   6.571   6.017  1.5700  1.1695  2.6750
   43CHL1   C23 4347   0.701   6.523   5.899  0.1357 -0.1748 -0.9635
   43CHL1  H23A 4348   0.761   6.611   5.930 -1.2440  0.7502 -0.8179
   43CHL1  H23B 4349   0.768   6.438   5.874 -1.6616 -1.9907  0.0281
   43CHL1   C24 4350   0.629   6.548   5.764 -0.5179  0.0018  0.2245
   43CHL1  H24A 4351   0.582   6.455   5.727  2.1163 -1.3117 -0.0399
   43CHL1  H24B 4352   0.546   6.619   5.781 -1.1206 -0.2328 -1.5565
   43CHL1   C25 4353   0.727   6.608   5.656 -0.6430 -0.4843  0.4804
   43CHL1   H25 4354   0.795   6.690   5.689 -1.2598  0.1697  0.1494
   43CHL1   C26 4355   0.811   6.499   5.595 -0.4746  0.2927  0.2651
   43CHL1  H26A 4356   0.871   6.452   5.675  0.8871 -0.4115 -1.1095
   43CHL1  H26B 4357   0.746   6.417   5.556 -0.9437  1.0079 -0.4933
   43CHL1  H26C 4358   0.879   6.543   5.519  0.5161 -1.3299  0.1677
   43CHL1   C27 4359   0.635   6.686   5.545 -1.2586  0.0777 -0.3746
   43CHL1  H27A 4360   0.560   6.614   5.506  0.6410 -0.6339 -3.0274
   43CHL1  H27B 4361   0.595   6.779   5.590  1.7210  0.7245  1.1718
   43CHL1  H27C 4362   0.712   6.712   5.469  1.0553 -0.9970  1.4940
   44CHL1    C3 4363   2.064   5.519   6.693 -0.0153 -0.5147 -0.3375
   44CHL1    H3 4364   1.995   5.605   6.679 -0.8147 -1.2474 -1.0510
   44CHL1    O3 4365   2.091   5.503   6.833 -0.2517 -0.2015  0.5131
   44CHL1   H3' 4366   2.174   5.454   6.839 -0.3758 -0.3163  1.3142
   44CHL1    C4 4367   1.983   5.398   6.638 -0.2386 -0.0699  0.2201
   44CHL1   H4A 4368   2.047   5.313   6.672 -0.5731  0.3578  1.9869
   44CHL1   H4B 4369   1.894   5.393   6.704 -0.5444 -1.3985 -0.2670
   44CHL1    C5 4370   1.953   5.420   6.490 -0.2927  0.5557  0.0751
   44CHL1    C6 4371   1.833   5.419   6.441  0.2861 -0.6870 -0.7137
   44CHL1    H6 4372   1.757   5.390   6.515 -0.2098  1.1040 -0.4694
   44CHL1    C7 4373   1.807   5.432   6.295  0.1306  0.9145 -0.8868
   44CHL1   H7A 4374   1.731   5.359   6.260 -1.8890  1.9999  0.9625
   44CHL1   H7B 4375   1.772   5.535   6.271 -1.1206  0.8069  0.3401
   44CHL1    C8 4376   1.932   5.421   6.201 -0.8380  0.1275  0.2750
   44CHL1    H8 4377   1.955   5.313   6.204 -2.1226 -0.2943 -2.3715
   44CHL1   C14 4378   1.904   5.461   6.052  0.2074  0.2164 -0.0451
   44CHL1   H14 4379   1.878   5.569   6.062 -0.2632  0.2043 -1.0837
   44CHL1   C15 4380   1.791   5.390   5.977 -0.2392  0.0362  0.0975
   44CHL1  H15A 4381   1.786   5.279   5.984  1.1807 -0.0452  0.0644
   44CHL1  H15B 4382   1.690   5.419   6.012 -0.5608  0.3456 -1.0524
   44CHL1   C16 4383   1.824   5.436   5.829 -0.0412  0.1021 -0.2675
   44CHL1  H16A 4384   1.828   5.335   5.783 -1.8695  0.0231 -0.3555
   44CHL1  H16B 4385   1.746   5.502   5.785  1.7141  2.6913  0.3321
   44CHL1   C17 4386   1.958   5.513   5.825  0.1398 -0.2988 -0.0684
   44CHL1   H17 4387   1.938   5.620   5.847 -0.6293 -0.8638  2.2643
   44CHL1   C13 4388   2.029   5.467   5.957  0.2380  0.9120  0.1732
   44CHL1   C18 4389   2.075   5.319   5.937  0.4573  0.1057  0.1336
   44CHL1  H18A 4390   2.087   5.298   6.045 -0.9588  1.9439  0.6978
   44CHL1  H18B 4391   2.011   5.254   5.874  0.5398  1.9646 -1.9952
   44CHL1  H18C 4392   2.179   5.327   5.897  0.4932 -0.3762  0.1281
   44CHL1   C12 4393   2.133   5.562   6.019  0.4905 -0.3044  0.6377
   44CHL1  H12A 4394   2.225   5.558   5.957 -0.9974 -1.3449 -1.6272
   44CHL1  H12B 4395   2.090   5.664   6.029 -1.1320 -0.7790 -1.0548
   44CHL1   C11 4396   2.168   5.517   6.166  0.6305 -0.4971 -0.2037
   44CHL1  H11A 4397   2.215   5.417   6.158  2.0668  0.2771 -2.5084
   44CHL1  H11B 4398   2.240   5.592   6.206 -0.3350  0.0323  0.5858
   44CHL1    C9 4399   2.047   5.504   6.260  0.1702 -0.0694  0.4346
   44CHL1    H9 4400   2.003   5.607   6.265 -0.0634 -0.2148  1.5734
   44CHL1   C10 4401   2.079   5.452   6.404 -0.5694  0.4482 -0.2311
   44CHL1   C19 4402   2.169   5.320   6.400  0.9338  0.0849 -0.0282
   44CHL1  H19A 4403   2.192   5.282   6.502  1.5451  0.9313  0.1554
   44CHL1  H19B 4404   2.112   5.242   6.345  2.2317 -1.8660  1.2951
   44CHL1  H19C 4405   2.263   5.343   6.345 -0.0447 -0.0185 -1.8396
   44CHL1    C1 4406   2.166   5.564   6.473 -0.9999  0.5305 -0.0807
   44CHL1   H1A 4407   2.269   5.577   6.434 -1.2508 -0.6556 -1.1822
   44CHL1   H1B 4408   2.113   5.662   6.477 -1.8034  0.0632  2.1426
   44CHL1    C2 4409   2.191   5.546   6.625  0.5955 -0.2414  0.1052
   44CHL1   H2A 4410   2.239   5.640   6.660 -2.1452  0.4737  2.2990
   44CHL1   H2B 4411   2.268   5.468   6.641  1.0998 -0.1427 -1.6385
   44CHL1   C20 4412   2.028   5.502   5.689  0.2141  0.0721  0.3432
   44CHL1   H20 4413   2.086   5.407   5.680  0.5206  0.4279 -2.2365
   44CHL1   C21 4414   2.129   5.613   5.675  0.1631  0.0230 -0.6750
   44CHL1  H21A 4415   2.080   5.709   5.702 -1.0233 -0.6024 -0.5212
   44CHL1  H21B 4416   2.168   5.622   5.571 -1.0231 -0.1559 -1.1609
   44CHL1  H21C 4417   2.211   5.600   5.749 -2.3918 -2.9433  1.9402
   44CHL1   C22 4418   1.924   5.497   5.575 -0.1810 -0.4373  0.2156
   44CHL1  H22A 4419   1.853   5.413   5.591  0.6083 -1.0781  0.3980
   44CHL1  H22B 4420   1.850   5.579   5.591 -1.1420 -1.0714 -0.8393
   44CHL1   C23 4421   1.971   5.497   5.427  0.3898 -0.3022  0.0349
   44CHL1  H23A 4422   2.027   5.591   5.408 -0.5696 -0.2191 -2.7068
   44CHL1  H23B 4423   2.038   5.409   5.418  0.2113 -0.6194  1.4496
   44CHL1   C24 4424   1.851   5.482   5.332 -0.1911  0.5157  0.4144
   44CHL1  H24A 4425   1.790   5.398   5.369 -2.3740  0.8418 -2.1283
   44CHL1  H24B 4426   1.790   5.575   5.333  0.0404  0.6867 -0.4220
   44CHL1   C25 4427   1.893   5.449   5.184 -0.3580  0.0293 -0.0237
   44CHL1   H25 4428   1.955   5.533   5.145  2.1436 -2.3064 -1.4110
   44CHL1   C26 4429   1.981   5.325   5.164  0.4145 -0.0202  0.2191
   44CHL1  H26A 4430   2.052   5.305   5.247  1.2966  0.0531 -0.5041
   44CHL1  H26B 4431   1.904   5.247   5.146 -1.3106  2.0687 -2.1576
   44CHL1  H26C 4432   2.024   5.324   5.061 -1.2108  1.7221 -0.5370
   44CHL1   C27 4433   1.763   5.436   5.105  0.2284 -0.5912  0.6214
   44CHL1  H27A 4434   1.698   5.526   5.111 -0.7588 -1.2413 -0.0201
   44CHL1  H27B 4435   1.791   5.416   4.999 -1.9071  1.1216 -0.3451
   44CHL1  H27C 4436   1.696   5.353   5.136 -1.7510  1.1184  1.1883
   45CHL1    C3 4437   1.254   5.449   6.920  0.6729 -0.0219  0.5766
   45CHL1    H3 4438   1.147   5.465   6.894  0.8481 -0.2344 -0.3021
   45CHL1    O3 4439   1.279   5.480   7.057  0.0063  0.5763  0.1347
   45CHL1   H3' 4440   1.373   5.490   7.069 -0.0826  0.7432  0.7115
   45CHL1    C4 4441   1.302   5.301   6.904  0.1909  0.0529  0.5924
   45CHL1   H4A 4442   1.406   5.291   6.942  0.3518 -1.8499 -0.2678
   45CHL1   H4B 4443   1.239   5.238   6.971 -1.1331 -0.4912 -1.0914
   45CHL1    C5 4444   1.278   5.276   6.752 -0.1406  0.3299  0.7676
   45CHL1    C6 4445   1.194   5.172   6.719 -0.3259  0.4168  1.4753
   45CHL1    H6 4446   1.154   5.102   6.794 -0.4397  0.4309  1.4266
   45CHL1    C7 4447   1.191   5.131   6.569  0.6461 -0.9105  0.0367
   45CHL1   H7A 4448   1.204   5.021   6.556  1.2026 -0.8547  0.1041
   45CHL1   H7B 4449   1.085   5.148   6.543 -0.1095 -0.8993  2.8663
   45CHL1    C8 4450   1.282   5.203   6.471 -0.0353 -1.0680 -0.7296
   45CHL1    H8 4451   1.380   5.150   6.475 -0.1099 -1.2652  3.5197
   45CHL1   C14 4452   1.234   5.192   6.325  0.0907 -0.5147  0.1192
   45CHL1   H14 4453   1.136   5.245   6.325  0.2051 -0.2966  1.0885
   45CHL1   C15 4454   1.199   5.053   6.265  0.5210  0.0589 -0.0832
   45CHL1  H15A 4455   1.275   4.973   6.278  0.9042 -0.1237 -2.8211
   45CHL1  H15B 4456   1.096   5.032   6.300  0.0796  0.4935 -1.0903
   45CHL1   C16 4457   1.200   5.081   6.114  0.2041 -0.4723  0.4083
   45CHL1  H16A 4458   1.278   5.010   6.079 -0.6479 -0.0269 -2.6785
   45CHL1  H16B 4459   1.102   5.067   6.065  1.1978  1.8772 -2.5615
   45CHL1   C17 4460   1.251   5.226   6.091  0.1725 -0.0550 -0.4989
   45CHL1   H17 4461   1.163   5.292   6.076 -0.6036 -1.3399 -1.9108
   45CHL1   C13 4462   1.323   5.262   6.225 -0.0143  0.1598 -0.5947
   45CHL1   C18 4463   1.464   5.199   6.228  0.3776  0.1911  0.4965
   45CHL1  H18A 4464   1.453   5.089   6.218  0.2078  0.2841 -0.4342
   45CHL1  H18B 4465   1.525   5.245   6.148 -1.5227  0.1217 -1.0630
   45CHL1  H18C 4466   1.522   5.222   6.320 -0.6426  0.8192  1.0020
   45CHL1   C12 4467   1.330   5.409   6.263 -0.1534 -0.2322 -0.0297
   45CHL1  H12A 4468   1.390   5.461   6.186  0.1782 -0.6610 -0.0606
   45CHL1  H12B 4469   1.222   5.437   6.266 -0.5013 -1.3426  3.9030
   45CHL1   C11 4470   1.390   5.436   6.402 -0.6119 -0.3994 -0.6883
   45CHL1  H11A 4471   1.497   5.407   6.410 -0.2537  0.8706 -0.6738
   45CHL1  H11B 4472   1.380   5.542   6.434 -0.0507 -0.3428 -0.6909
   45CHL1    C9 4473   1.311   5.355   6.510  0.4577  0.1654 -0.8054
   45CHL1    H9 4474   1.208   5.397   6.508  0.5680  0.5925  0.8673
   45CHL1   C10 4475   1.349   5.381   6.655  0.5966 -0.6070 -0.3766
   45CHL1   C19 4476   1.497   5.362   6.673 -0.4828  0.8739 -0.2831
   45CHL1  H19A 4477   1.559   5.440   6.625 -0.7095  2.0656  1.2971
   45CHL1  H19B 4478   1.512   5.366   6.783 -2.0420  0.6607 -0.0476
   45CHL1  H19C 4479   1.533   5.263   6.636  0.8643  0.6377  1.5056
   45CHL1    C1 4480   1.317   5.525   6.695  0.6728  0.1010  0.1171
   45CHL1   H1A 4481   1.375   5.602   6.638 -0.8770  1.3092  0.0926
   45CHL1   H1B 4482   1.210   5.540   6.671  0.9995 -0.8794 -2.2173
   45CHL1    C2 4483   1.333   5.555   6.848 -0.4116  0.3013  0.8943
   45CHL1   H2A 4484   1.282   5.651   6.868 -1.6123 -0.1584  0.1693
   45CHL1   H2B 4485   1.440   5.562   6.876 -0.5029 -0.8669  1.5981
   45CHL1   C20 4486   1.340   5.232   5.953 -0.1899 -0.1101 -0.5227
   45CHL1   H20 4487   1.431   5.168   5.957 -0.8499 -1.1216 -1.1416
   45CHL1   C21 4488   1.389   5.378   5.917 -0.2799 -0.1432 -1.0228
   45CHL1  H21A 4489   1.293   5.434   5.927 -1.9539 -2.7982 -1.1364
   45CHL1  H21B 4490   1.430   5.379   5.814 -0.4920 -2.3105 -1.1925
   45CHL1  H21C 4491   1.475   5.402   5.982  1.5026 -0.2242 -3.2582
   45CHL1   C22 4492   1.255   5.176   5.830 -0.3317 -0.2601  0.1239
   45CHL1  H22A 4493   1.228   5.070   5.849  2.1825 -1.3871 -1.9380
   45CHL1  H22B 4494   1.156   5.226   5.827  0.1523  0.7015 -1.2363
   45CHL1   C23 4495   1.315   5.193   5.691 -0.1401 -0.3558 -0.4871
   45CHL1  H23A 4496   1.294   5.297   5.658 -0.7914 -0.3738 -0.1372
   45CHL1  H23B 4497   1.425   5.174   5.697  0.4490  2.2801 -1.5915
   45CHL1   C24 4498   1.257   5.094   5.584 -0.3426  0.1615  0.2793
   45CHL1  H24A 4499   1.299   4.991   5.591 -0.7285 -0.4644 -3.9286
   45CHL1  H24B 4500   1.147   5.101   5.599 -0.4365  2.6897 -0.9816
   45CHL1   C25 4501   1.293   5.135   5.438 -0.0338  0.8769 -0.7479
   45CHL1   H25 4502   1.250   5.238   5.434 -1.4834  0.4979  2.2670
   45CHL1   C26 4503   1.444   5.146   5.405  0.1341  0.1169 -0.1767
   45CHL1  H26A 4504   1.489   5.203   5.489 -1.0174  1.1074 -0.1991
   45CHL1  H26B 4505   1.486   5.043   5.403 -1.7491 -0.7347  1.1688
   45CHL1  H26C 4506   1.463   5.213   5.319  0.2384  3.3426  2.1728
   45CHL1   C27 4507   1.219   5.039   5.344  0.3888  0.0287  0.5528
   45CHL1  H27A 4508   1.112   5.068   5.348  0.7551  1.6003 -0.1689
   45CHL1  H27B 4509   1.263   5.045   5.243  0.8912  0.5214  0.7987
   45CHL1  H27C 4510   1.228   4.935   5.380  0.6030  0.4575  1.7834
   46CHL1    C3 4511   3.184   0.689   7.334  0.0648  0.1078  0.2151
   46CHL1    H3 4512   3.254   0.603   7.333  1.7870  1.4755 -0.7845
   46CHL1    O3 4513   3.117   0.686   7.460  0.4205  0.3909  0.2013
   46CHL1   H3' 4514   3.047   0.621   7.450  0.8675  0.1281 -1.6271
   46CHL1    C4 4515   3.274   0.821   7.326  0.0010  0.0373  0.7531
   46CHL1   H4A 4516   3.206   0.907   7.344 -1.1024 -0.8720  1.0482
   46CHL1   H4B 4517   3.342   0.809   7.413  0.6196 -1.0182  0.1417
   46CHL1    C5 4518   3.343   0.833   7.190 -0.0009  0.0108  0.0648
   46CHL1    C6 4519   3.473   0.857   7.181  0.2752 -1.0771  0.2165
   46CHL1    H6 4520   3.537   0.870   7.269  0.3604 -0.3906  0.0620
   46CHL1    C7 4521   3.537   0.889   7.046  0.0218 -0.3586  0.7103
   46CHL1   H7A 4522   3.598   0.981   7.061 -0.9960  0.7578 -1.6309
   46CHL1   H7B 4523   3.604   0.804   7.020 -1.1346 -1.4583  1.1949
   46CHL1    C8 4524   3.441   0.916   6.935 -0.1940  0.1252  0.0920
   46CHL1    H8 4525   3.400   1.019   6.940 -0.6624  0.1499 -2.8444
   46CHL1   C14 4526   3.514   0.904   6.809 -0.8706  0.7975 -0.7108
   46CHL1   H14 4527   3.552   0.800   6.806  0.1259  1.0987  0.5906
   46CHL1   C15 4528   3.641   0.987   6.790 -0.1456 -0.0627 -0.8127
   46CHL1  H15A 4529   3.614   1.082   6.840  2.1221 -0.1408  0.6991
   46CHL1  H15B 4530   3.729   0.945   6.843 -0.2645  1.7030  0.9095
   46CHL1   C16 4531   3.654   0.992   6.638  0.2193  0.8568 -0.0932
   46CHL1  H16A 4532   3.647   1.097   6.602 -1.9337  1.3872  1.6923
   46CHL1  H16B 4533   3.746   0.938   6.606  0.9116  1.3559  1.0076
   46CHL1   C17 4534   3.535   0.907   6.572 -0.0862 -0.5262 -0.0474
   46CHL1   H17 4535   3.566   0.800   6.576  0.9733 -0.2434  3.6474
   46CHL1   C13 4536   3.425   0.915   6.686 -0.1714 -0.0350  0.6554
   46CHL1   C18 4537   3.356   1.051   6.670  0.0313  0.2038 -0.0867
   46CHL1  H18A 4538   3.430   1.129   6.643  0.9259 -1.3820 -2.5801
   46CHL1  H18B 4539   3.273   1.053   6.596 -0.3308 -0.6537  0.2827
   46CHL1  H18C 4540   3.307   1.078   6.766 -2.2332 -2.1385 -0.4532
   46CHL1   C12 4541   3.316   0.805   6.690 -0.0398  0.0666  0.7177
   46CHL1  H12A 4542   3.255   0.814   6.597 -0.0344 -1.0093  0.5930
   46CHL1  H12B 4543   3.367   0.706   6.682  2.3604  1.3833 -1.8214
   46CHL1   C11 4544   3.237   0.816   6.815  0.4901  0.4563  0.1520
   46CHL1  H11A 4545   3.173   0.906   6.815 -2.7664 -1.7153 -0.4543
   46CHL1  H11B 4546   3.160   0.736   6.813 -1.2082  1.9774 -3.2937
   46CHL1    C9 4547   3.327   0.811   6.948  0.1266 -0.1958 -0.0099
   46CHL1    H9 4548   3.372   0.709   6.950  0.6234  0.0260  0.1244
   46CHL1   C10 4549   3.245   0.826   7.077 -0.1963 -0.0087  0.6828
   46CHL1   C19 4550   3.159   0.960   7.074  0.0409 -0.2569 -0.0532
   46CHL1  H19A 4551   3.227   1.048   7.081 -0.1392 -0.1889  1.0676
   46CHL1  H19B 4552   3.088   0.969   6.989  0.6484  1.8171 -0.3958
   46CHL1  H19C 4553   3.096   0.976   7.164  0.8793  0.4520  0.4251
   46CHL1    C1 4554   3.150   0.703   7.085  0.2424 -0.5683 -0.0555
   46CHL1   H1A 4555   3.067   0.710   7.012  0.0491  1.6885  0.3147
   46CHL1   H1B 4556   3.220   0.618   7.068  1.1000  0.5063 -2.2866
   46CHL1    C2 4557   3.079   0.685   7.225 -0.3312  0.5703  0.3786
   46CHL1   H2A 4558   3.026   0.587   7.235 -2.0329  1.5664  1.7468
   46CHL1   H2B 4559   3.008   0.767   7.247  0.8117  1.2972  1.5048
   46CHL1   C20 4560   3.504   0.938   6.420  0.3489 -0.3789 -0.3132
   46CHL1   H20 4561   3.455   1.037   6.413  0.0599 -0.3562  1.5762
   46CHL1   C21 4562   3.399   0.835   6.376 -1.1183  0.3830 -0.6707
   46CHL1  H21A 4563   3.301   0.865   6.420 -0.6334  1.8751 -0.5419
   46CHL1  H21B 4564   3.427   0.729   6.396 -5.0786 -0.4275  1.6588
   46CHL1  H21C 4565   3.389   0.828   6.266 -0.6205  0.7225 -0.7402
   46CHL1   C22 4566   3.634   0.956   6.332  0.2754 -0.4217  0.4151
   46CHL1  H22A 4567   3.708   1.013   6.392  1.2812 -0.8314 -0.4093
   46CHL1  H22B 4568   3.673   0.854   6.316  1.5687  0.0946  0.2117
   46CHL1   C23 4569   3.607   1.029   6.195 -0.5354 -0.2020 -0.1568
   46CHL1  H23A 4570   3.540   0.964   6.135  0.1371 -0.5585 -0.5221
   46CHL1  H23B 4571   3.554   1.124   6.218  0.0289 -0.2891  1.6505
   46CHL1   C24 4572   3.734   1.079   6.114  0.7195  0.2133  0.0243
   46CHL1  H24A 4573   3.687   1.134   6.030 -0.6133  3.5241  2.7410
   46CHL1  H24B 4574   3.784   1.162   6.168  1.1857  0.7990 -1.2482
   46CHL1   C25 4575   3.835   0.964   6.076  0.3846 -0.4312  0.2698
   46CHL1   H25 4576   3.846   0.887   6.155 -0.6519 -0.5198  0.3384
   46CHL1   C26 4577   3.786   0.883   5.955 -0.3374 -0.4738 -0.3815
   46CHL1  H26A 4578   3.869   0.811   5.938  0.9896  0.8792  0.1631
   46CHL1  H26B 4579   3.688   0.834   5.975 -2.5395  3.8958  0.6510
   46CHL1  H26C 4580   3.784   0.953   5.869 -2.7459  1.6759  1.2577
   46CHL1   C27 4581   3.984   1.020   6.037 -0.5414 -0.1190 -0.0284
   46CHL1  H27A 4582   4.046   0.933   6.005  1.0251  0.1274  2.0311
   46CHL1  H27B 4583   3.979   1.099   5.960 -0.3165  0.0057  0.0831
   46CHL1  H27C 4584   4.026   1.076   6.124 -0.0310  0.4515 -0.6305
   47CHL1    C3 4585   5.220   0.758   6.812 -0.6439 -0.0091 -0.8256
   47CHL1    H3 4586   5.307   0.718   6.755 -0.4132 -1.5336  0.5348
   47CHL1    O3 4587   5.226   0.724   6.949  0.1921  0.2104 -0.0239
   47CHL1   H3' 4588   5.166   0.777   7.002 -0.4270 -1.9853  1.6505
   47CHL1    C4 4589   5.211   0.907   6.808 -0.0100  0.3324 -0.3479
   47CHL1   H4A 4590   5.120   0.942   6.861 -1.2467 -3.2095  0.1734
   47CHL1   H4B 4591   5.304   0.953   6.848  1.4428 -1.5208 -1.4030
   47CHL1    C5 4592   5.191   0.945   6.661  0.4083  0.6849 -0.4610
   47CHL1    C6 4593   5.270   1.026   6.600 -0.0748 -0.3190 -0.3059
   47CHL1    H6 4594   5.354   1.068   6.658  0.2823  0.1621 -1.1643
   47CHL1    C7 4595   5.258   1.082   6.465  0.2147 -0.2332  0.0996
   47CHL1   H7A 4596   5.278   1.192   6.467  0.4341 -0.2808  2.2616
   47CHL1   H7B 4597   5.336   1.035   6.402 -0.5745  0.3285 -1.3471
   47CHL1    C8 4598   5.117   1.052   6.410  0.3020 -0.7366  1.5770
   47CHL1    H8 4599   5.050   1.130   6.452 -0.1162  0.7694 -1.6064
   47CHL1   C14 4600   5.110   1.061   6.257  0.0449 -0.1945 -0.2059
   47CHL1   H14 4601   5.181   0.986   6.214 -0.8311 -0.9599 -0.3583
   47CHL1   C15 4602   5.169   1.192   6.196 -0.3241 -0.0718  0.0706
   47CHL1  H15A 4603   5.127   1.282   6.246  0.7850  1.2778 -1.3074
   47CHL1  H15B 4604   5.278   1.202   6.216 -0.7682  3.3190  1.4263
   47CHL1   C16 4605   5.128   1.185   6.048  0.7192 -0.6437 -1.0122
   47CHL1  H16A 4606   5.087   1.276   5.999  1.5789 -0.9276 -2.3215
   47CHL1  H16B 4607   5.214   1.136   5.997 -0.4785 -1.8054 -1.9776
   47CHL1   C17 4608   5.006   1.083   6.044  0.1664 -0.0383 -0.7512
   47CHL1   H17 4609   5.050   0.989   6.004 -1.9861 -0.7944 -1.5034
   47CHL1   C13 4610   4.975   1.046   6.189  0.0697 -0.2776 -0.7478
   47CHL1   C18 4611   4.881   1.160   6.235 -0.4024  1.2462  0.2201
   47CHL1  H18A 4612   4.852   1.161   6.342  1.2505  1.7412  0.6958
   47CHL1  H18B 4613   4.913   1.262   6.205 -2.2199  1.8216  0.1302
   47CHL1  H18C 4614   4.788   1.153   6.174  0.6809 -0.5330 -1.3513
   47CHL1   C12 4615   4.913   0.907   6.225 -0.8729  0.1840  0.0133
   47CHL1  H12A 4616   4.807   0.904   6.193 -0.3285  1.4390 -2.1031
   47CHL1  H12B 4617   4.973   0.827   6.175 -1.1203 -0.6332  0.9817
   47CHL1   C11 4618   4.916   0.882   6.376 -1.0188 -0.4078  0.0249
   47CHL1  H11A 4619   4.841   0.942   6.433  0.1838 -0.6798  1.9727
   47CHL1  H11B 4620   4.876   0.779   6.389 -2.0997 -0.2139 -1.3990
   47CHL1    C9 4621   5.065   0.909   6.438 -1.2132  0.5445 -0.7949
   47CHL1    H9 4622   5.132   0.840   6.383 -1.5546 -0.9916  0.6362
   47CHL1   C10 4623   5.069   0.879   6.588 -0.3654  0.1497 -0.6817
   47CHL1   C19 4624   4.944   0.929   6.668  0.5514 -0.7331  0.1645
   47CHL1  H19A 4625   4.854   0.883   6.621  0.9517  0.0197 -1.4247
   47CHL1  H19B 4626   4.938   0.898   6.774  2.6061  0.4345  0.6569
   47CHL1  H19C 4627   4.938   1.040   6.662 -0.7689 -0.8228 -0.5684
   47CHL1    C1 4628   5.077   0.722   6.611 -0.1137  0.0057  0.0843
   47CHL1   H1A 4629   4.985   0.670   6.578  1.3242 -1.6870 -1.4090
   47CHL1   H1B 4630   5.157   0.672   6.552  0.5957 -0.7069  1.6046
   47CHL1    C2 4631   5.095   0.693   6.758 -0.4399 -0.1558 -0.3425
   47CHL1   H2A 4632   5.112   0.583   6.762 -0.1546 -0.0929  0.2326
   47CHL1   H2B 4633   5.008   0.715   6.823 -0.1805  0.8073 -0.3104
   47CHL1   C20 4634   4.902   1.126   5.942 -0.6791 -0.0063 -0.3067
   47CHL1   H20 4635   4.845   1.214   5.978  2.0932  0.8833  2.2630
   47CHL1   C21 4636   4.803   1.011   5.916 -0.0433  0.0583 -0.3169
   47CHL1  H21A 4637   4.730   1.041   5.839  0.4587 -0.0710 -0.8506
   47CHL1  H21B 4638   4.758   0.964   6.006  1.7631 -0.4910  0.3528
   47CHL1  H21C 4639   4.859   0.927   5.870 -0.9514 -0.7252 -0.0057
   47CHL1   C22 4640   4.968   1.171   5.805 -0.1256  0.2293  0.4386
   47CHL1  H22A 4641   4.994   1.278   5.823  1.8924 -0.0189 -0.7239
   47CHL1  H22B 4642   5.053   1.103   5.782  0.0491  0.7644 -0.5666
   47CHL1   C23 4643   4.877   1.183   5.678 -0.8727  0.0973  0.7309
   47CHL1  H23A 4644   4.845   1.081   5.647 -0.9778  0.6178 -0.9524
   47CHL1  H23B 4645   4.788   1.246   5.697 -0.0275  2.1346 -1.5421
   47CHL1   C24 4646   4.952   1.256   5.566  0.5151  0.4585 -0.1293
   47CHL1  H24A 4647   5.018   1.335   5.606 -0.1221  0.4273  1.0440
   47CHL1  H24B 4648   5.008   1.183   5.504  0.4422  1.0933 -0.9527
   47CHL1   C25 4649   4.866   1.331   5.459 -0.0031 -0.1545 -0.2554
   47CHL1   H25 4650   4.809   1.409   5.514 -0.0563  0.7172 -1.5059
   47CHL1   C26 4651   4.941   1.416   5.347 -0.4807  0.3314 -0.5191
   47CHL1  H26A 4652   4.870   1.491   5.306 -2.0670 -0.0358  1.3502
   47CHL1  H26B 4653   5.019   1.482   5.392  0.4896 -0.7067 -0.6446
   47CHL1  H26C 4654   4.985   1.342   5.277  0.6566  0.3769  0.1315
   47CHL1   C27 4655   4.778   1.234   5.390 -0.5006  0.0872  0.3560
   47CHL1  H27A 4656   4.707   1.287   5.323 -0.1165 -0.4631 -0.4940
   47CHL1  H27B 4657   4.828   1.166   5.318  0.2885  0.7222  0.3010
   47CHL1  H27C 4658   4.708   1.176   5.455 -2.0020  0.0177 -1.2393
   48CHL1    C3 4659   1.182   0.861   6.937  0.0405 -0.9542  0.3061
   48CHL1    H3 4660   1.118   0.774   6.912 -0.1140 -0.7072 -0.1616
   48CHL1    O3 4661   1.196   0.884   7.073  0.1471  0.1181  0.7828
   48CHL1   H3' 4662   1.276   0.937   7.080 -0.6319  1.8065 -1.6970
   48CHL1    C4 4663   1.320   0.835   6.870 -0.1319  1.1930  0.5514
   48CHL1   H4A 4664   1.392   0.905   6.918  0.3465  0.8643  0.3173
   48CHL1   H4B 4665   1.358   0.740   6.913 -1.5167 -0.3507 -1.4409
   48CHL1    C5 4666   1.340   0.836   6.716 -1.0334  0.3085 -0.0894
   48CHL1    C6 4667   1.407   0.745   6.642 -0.0540 -0.3110 -0.2804
   48CHL1    H6 4668   1.458   0.656   6.683 -0.2912 -0.1529  0.3813
   48CHL1    C7 4669   1.415   0.762   6.495  0.4037  0.7386  0.1954
   48CHL1   H7A 4670   1.517   0.735   6.462  0.3971 -2.1562  2.1852
   48CHL1   H7B 4671   1.334   0.700   6.449 -0.5280 -0.0015  2.6941
   48CHL1    C8 4672   1.394   0.907   6.448 -0.1104 -0.7653  0.6349
   48CHL1    H8 4673   1.478   0.977   6.470 -0.4320  1.0211 -3.1029
   48CHL1   C14 4674   1.372   0.899   6.296 -0.1114  0.0990  0.0250
   48CHL1   H14 4675   1.281   0.836   6.292 -0.0165 -0.0788  0.6409
   48CHL1   C15 4676   1.476   0.827   6.208 -0.3555 -0.2778  0.0095
   48CHL1  H15A 4677   1.570   0.853   6.261 -1.7641  2.9605  1.1900
   48CHL1  H15B 4678   1.456   0.718   6.217  1.2410 -0.5567  0.5549
   48CHL1   C16 4679   1.439   0.873   6.072  0.4746 -0.6281 -0.2354
   48CHL1  H16A 4680   1.534   0.918   6.034  0.7081 -1.7726 -1.0400
   48CHL1  H16B 4681   1.403   0.796   6.001  1.2347  0.2699 -1.6615
   48CHL1   C17 4682   1.337   0.990   6.083  0.5144  0.5082 -0.6146
   48CHL1   H17 4683   1.238   0.941   6.091  0.8720  0.0372  1.9607
   48CHL1   C13 4684   1.351   1.036   6.230 -0.0076  0.5958  0.8358
   48CHL1   C18 4685   1.469   1.135   6.251 -0.4723  1.1263 -0.1284
   48CHL1  H18A 4686   1.470   1.156   6.360 -0.3118 -0.4326  0.1836
   48CHL1  H18B 4687   1.561   1.093   6.206 -0.8379 -0.3864  0.5044
   48CHL1  H18C 4688   1.453   1.234   6.202  0.0120  1.4420  0.3413
   48CHL1   C12 4689   1.228   1.097   6.295  0.4034 -0.5137  0.6450
   48CHL1  H12A 4690   1.214   1.202   6.261 -1.9260 -1.0601 -0.2838
   48CHL1  H12B 4691   1.139   1.038   6.266 -0.3484  0.1632  1.5061
   48CHL1   C11 4692   1.230   1.099   6.443  0.0145  0.0969 -0.3653
   48CHL1  H11A 4693   1.302   1.179   6.474  0.7884 -0.9190  0.5296
   48CHL1  H11B 4694   1.128   1.132   6.472  0.4683 -0.2373  1.7323
   48CHL1    C9 4695   1.271   0.965   6.509 -0.1758 -0.1313  0.4088
   48CHL1    H9 4696   1.183   0.901   6.486 -1.5248  0.0049  4.5233
   48CHL1   C10 4697   1.274   0.965   6.659 -0.7176  0.2023 -0.0994
   48CHL1   C19 4698   1.357   1.088   6.708 -0.5720 -0.0190 -0.1352
   48CHL1  H19A 4699   1.463   1.090   6.675 -0.5165  0.4347  0.0583
   48CHL1  H19B 4700   1.306   1.180   6.672 -0.4169 -0.2150 -0.8709
   48CHL1  H19C 4701   1.350   1.091   6.819 -1.5640 -0.5471 -0.1720
   48CHL1    C1 4702   1.132   0.977   6.708 -0.5392  0.0576 -0.4457
   48CHL1   H1A 4703   1.082   1.067   6.667 -1.7111  0.4380  1.6738
   48CHL1   H1B 4704   1.064   0.898   6.670 -0.4014 -1.5737  2.3896
   48CHL1    C2 4705   1.115   0.978   6.862  0.6333  0.2852  0.4753
   48CHL1   H2A 4706   1.006   0.970   6.882  0.3593 -0.3568 -1.1029
   48CHL1   H2B 4707   1.150   1.074   6.905 -2.0573  0.3172  2.9192
   48CHL1   C20 4708   1.328   1.086   5.966  0.3316  0.0911  0.9483
   48CHL1   H20 4709   1.423   1.143   5.958  0.8269 -0.8928 -0.6059
   48CHL1   C21 4710   1.219   1.188   5.985  0.7524  0.0742 -0.9040
   48CHL1  H21A 4711   1.192   1.236   5.889  0.7634 -1.0869 -1.4968
   48CHL1  H21B 4712   1.127   1.141   6.026  2.0150 -0.5825  1.3722
   48CHL1  H21C 4713   1.253   1.272   6.049  0.5361  0.6816 -1.5717
   48CHL1   C22 4714   1.308   1.023   5.821  0.1034  0.1833 -0.5371
   48CHL1  H22A 4715   1.286   1.113   5.760 -1.7350  0.4168  0.4094
   48CHL1  H22B 4716   1.395   0.976   5.770 -0.6062 -2.7884  0.7721
   48CHL1   C23 4717   1.174   0.933   5.816 -1.1587 -0.1715 -0.6040
   48CHL1  H23A 4718   1.194   0.833   5.860  0.5833  0.3284 -0.1750
   48CHL1  H23B 4719   1.092   0.982   5.873  0.3226  1.2004  0.4348
   48CHL1   C24 4720   1.126   0.923   5.665  0.0503 -0.0406  0.0740
   48CHL1  H24A 4721   1.123   1.019   5.610  3.5257 -0.3511 -0.8627
   48CHL1  H24B 4722   1.184   0.854   5.601  1.5222  1.9677 -0.8637
   48CHL1   C25 4723   0.981   0.859   5.649  0.6015  0.5212 -0.8587
   48CHL1   H25 4724   0.914   0.917   5.715  0.8143 -0.7414  0.5170
   48CHL1   C26 4725   0.926   0.865   5.502  0.5633  0.3910  0.7365
   48CHL1  H26A 4726   0.835   0.803   5.489  1.7179 -0.9169 -1.6824
   48CHL1  H26B 4727   0.917   0.973   5.476  2.2749  0.3989  0.0413
   48CHL1  H26C 4728   1.005   0.832   5.433  1.9032 -0.3265  2.5339
   48CHL1   C27 4729   0.979   0.718   5.698 -0.4110  0.2016  0.3006
   48CHL1  H27A 4730   0.882   0.666   5.681  0.6102 -1.5871 -0.3837
   48CHL1  H27B 4731   1.051   0.645   5.655 -2.3214 -1.3026 -0.4992
   48CHL1  H27C 4732   0.998   0.704   5.807 -1.4410  0.3846  0.5180
   49CHL1    C3 4733   4.253   0.605   3.822  0.4520  0.1941  0.2022
   49CHL1    H3 4734   4.340   0.538   3.805 -0.8999 -1.8913  1.0153
   49CHL1    O3 4735   4.233   0.675   3.697  0.2521 -0.3404 -0.3832
   49CHL1   H3' 4736   4.144   0.712   3.698  0.9314  1.4794 -1.4436
   49CHL1    C4 4737   4.126   0.518   3.839 -0.2142 -0.0307  0.2406
   49CHL1   H4A 4738   4.033   0.577   3.824  0.8128  1.3085 -1.2374
   49CHL1   H4B 4739   4.114   0.451   3.752  2.7861 -0.3547 -0.0084
   49CHL1    C5 4740   4.131   0.453   3.978 -0.3848  0.4848  0.4635
   49CHL1    C6 4741   4.113   0.317   3.981  0.0355  0.1392  0.2876
   49CHL1    H6 4742   4.090   0.256   3.892 -4.1187 -1.6422  2.3200
   49CHL1    C7 4743   4.108   0.238   4.107 -0.1123  0.6707 -0.1439
   49CHL1   H7A 4744   4.021   0.169   4.103 -0.8392  1.5561 -0.2238
   49CHL1   H7B 4745   4.201   0.184   4.134  0.8933  3.6728  3.1642
   49CHL1    C8 4746   4.068   0.337   4.224  1.1244 -0.1378 -0.6699
   49CHL1    H8 4747   3.959   0.358   4.225  1.2339  0.4317  0.0916
   49CHL1   C14 4748   4.107   0.263   4.356  0.1425  0.6968 -0.1350
   49CHL1   H14 4749   4.217   0.247   4.356  0.0159 -0.2509 -0.4213
   49CHL1   C15 4750   4.044   0.119   4.370 -0.5356  0.1076 -0.3355
   49CHL1  H15A 4751   3.937   0.130   4.344 -0.8977 -2.1068  0.0387
   49CHL1  H15B 4752   4.099   0.048   4.304  1.2439  1.6571 -0.6221
   49CHL1   C16 4753   4.055   0.094   4.520 -0.3512  0.5789 -0.2132
   49CHL1  H16A 4754   3.952   0.081   4.558 -0.7187  0.7194 -1.1582
   49CHL1  H16B 4755   4.114   0.005   4.553 -0.6931  0.7142  0.7906
   49CHL1   C17 4756   4.118   0.217   4.581 -0.8997 -0.9418  0.1573
   49CHL1   H17 4757   4.228   0.201   4.572 -1.1753 -2.7888 -0.2957
   49CHL1   C13 4758   4.081   0.339   4.483 -0.1856 -0.1526 -0.5255
   49CHL1   C18 4759   3.926   0.370   4.496 -0.0632  0.8208  0.5558
   49CHL1  H18A 4760   3.893   0.442   4.419 -1.5570 -0.6806 -0.2689
   49CHL1  H18B 4761   3.867   0.277   4.487 -1.1049  1.5971 -1.2241
   49CHL1  H18C 4762   3.903   0.421   4.592  1.4998  0.3703  1.1998
   49CHL1   C12 4763   4.171   0.467   4.482 -0.2517 -0.2822  0.2725
   49CHL1  H12A 4764   4.156   0.523   4.577  0.7539 -0.9110  0.8257
   49CHL1  H12B 4765   4.277   0.434   4.482 -0.4126 -0.8673  1.8107
   49CHL1   C11 4766   4.145   0.551   4.358 -0.2407 -0.2338 -0.0407
   49CHL1  H11A 4767   4.042   0.582   4.384 -0.5864 -2.0174  0.8994
   49CHL1  H11B 4768   4.220   0.633   4.364 -0.5910  0.0701  0.1716
   49CHL1    C9 4769   4.156   0.468   4.229 -0.0636  0.6016 -0.3633
   49CHL1    H9 4770   4.256   0.420   4.232 -1.7124 -3.0926  0.0253
   49CHL1   C10 4771   4.154   0.545   4.101  0.3086 -0.2166  0.2355
   49CHL1   C19 4772   4.026   0.638   4.113  0.1010 -0.1676  0.0944
   49CHL1  H19A 4773   3.941   0.580   4.155  0.9328 -2.3302 -1.0785
   49CHL1  H19B 4774   4.047   0.720   4.185  0.2346 -0.9228  0.9356
   49CHL1  H19C 4775   3.999   0.681   4.014  1.0633  1.4782  0.4951
   49CHL1    C1 4776   4.278   0.630   4.078  0.3014  0.4005 -0.0284
   49CHL1   H1A 4777   4.282   0.715   4.149  0.2437  0.1708  0.2488
   49CHL1   H1B 4778   4.375   0.576   4.086  1.2998  2.3957  3.4448
   49CHL1    C2 4779   4.266   0.705   3.938 -0.3691 -0.3516 -0.1558
   49CHL1   H2A 4780   4.362   0.760   3.926 -0.0012 -0.1768  2.7027
   49CHL1   H2B 4781   4.176   0.771   3.933  0.1172  0.2425 -1.6116
   49CHL1   C20 4782   4.085   0.235   4.729  0.3573  0.0403 -0.0606
   49CHL1   H20 4783   3.975   0.249   4.737  0.4326  0.1897  0.8103
   49CHL1   C21 4784   4.156   0.351   4.798  0.5067  0.0557  0.4335
   49CHL1  H21A 4785   4.149   0.347   4.909  0.8908 -2.5581  0.4381
   49CHL1  H21B 4786   4.118   0.453   4.778 -0.3676  0.4072  3.3409
   49CHL1  H21C 4787   4.260   0.360   4.759 -0.5061 -0.9405 -2.8100
   49CHL1   C22 4788   4.115   0.104   4.806 -0.0648  0.2252 -0.2732
   49CHL1  H22A 4789   4.062   0.017   4.759  0.1294  0.6851 -1.3779
   49CHL1  H22B 4790   4.225   0.089   4.800  0.0418  0.4529  0.9975
   49CHL1   C23 4791   4.067   0.085   4.951 -0.0049 -0.4593 -0.0680
   49CHL1  H23A 4792   4.120   0.156   5.018  0.4636  1.4613 -2.3460
   49CHL1  H23B 4793   3.961   0.115   4.962  0.7697  2.9981 -0.8455
   49CHL1   C24 4794   4.081  -0.059   5.001 -0.5201 -0.7675 -0.4995
   49CHL1  H24A 4795   4.024  -0.130   4.936 -1.4286 -1.5495  1.0947
   49CHL1  H24B 4796   4.187  -0.092   4.999 -0.8782 -2.2058  1.2879
   49CHL1   C25 4797   4.038  -0.080   5.142 -0.3777 -0.3519 -0.1165
   49CHL1   H25 4798   4.083  -0.005   5.210 -0.5201  0.6071 -1.0613
   49CHL1   C26 4799   3.890  -0.061   5.148  0.7587 -0.1918  0.2308
   49CHL1  H26A 4800   3.843  -0.113   5.062 -0.3167 -1.4526  1.5282
   49CHL1  H26B 4801   3.845  -0.114   5.235  0.1448  0.7847  0.5348
   49CHL1  H26C 4802   3.862   0.046   5.158  0.9917 -0.1721  0.7256
   49CHL1   C27 4803   4.061  -0.229   5.196 -0.5192 -0.2825 -0.3560
   49CHL1  H27A 4804   4.014  -0.303   5.129 -0.6915 -1.2846  0.8280
   49CHL1  H27B 4805   4.170  -0.252   5.195 -0.9561 -2.6639 -2.7100
   49CHL1  H27C 4806   4.031  -0.225   5.303  3.0612  2.1813  0.7396
   50CHL1    C3 4807   4.133   3.336   3.307 -0.1963  0.0474 -0.2645
   50CHL1    H3 4808   4.028   3.302   3.323  0.2132 -0.9256  0.4667
   50CHL1    O3 4809   4.167   3.310   3.172 -0.0044 -0.4423 -0.1092
   50CHL1   H3' 4810   4.117   3.376   3.124 -1.1348 -1.6546 -0.6649
   50CHL1    C4 4811   4.148   3.486   3.339  0.6205 -0.2952  0.2378
   50CHL1   H4A 4812   4.248   3.528   3.316  1.3011 -0.8124  2.1061
   50CHL1   H4B 4813   4.075   3.526   3.265 -0.0814 -3.4724 -0.9148
   50CHL1    C5 4814   4.100   3.519   3.484  0.2316  0.3045  0.8423
   50CHL1    C6 4815   4.015   3.617   3.513  0.0670  0.1127  0.2903
   50CHL1    H6 4816   3.979   3.676   3.426  0.4506  1.0762  0.7658
   50CHL1    C7 4817   3.974   3.657   3.653  0.0783 -0.4953 -0.5321
   50CHL1   H7A 4818   3.964   3.767   3.669  1.3313 -0.3241 -0.8155
   50CHL1   H7B 4819   3.870   3.622   3.669  0.4670 -1.2610  0.4483
   50CHL1    C8 4820   4.067   3.593   3.764 -0.1852  0.0096  0.3265
   50CHL1    H8 4821   4.157   3.657   3.748 -0.1500 -0.4489 -1.5747
   50CHL1   C14 4822   4.015   3.612   3.904 -0.5100 -0.6160  0.3601
   50CHL1   H14 4823   3.933   3.537   3.900  0.0031 -1.1595 -0.0298
   50CHL1   C15 4824   3.950   3.745   3.936  0.4608  0.3531  1.0140
   50CHL1  H15A 4825   4.010   3.825   3.888 -1.7383 -0.0736 -2.8835
   50CHL1  H15B 4826   3.849   3.745   3.889  1.4074 -0.9717 -1.1842
   50CHL1   C16 4827   3.961   3.760   4.086 -0.0590  0.1824  0.3230
   50CHL1  H16A 4828   4.035   3.839   4.114 -0.4064  0.3171  0.8875
   50CHL1  H16B 4829   3.864   3.797   4.126 -0.5692  1.5628 -2.0280
   50CHL1   C17 4830   4.018   3.616   4.142  0.1769 -0.6138  0.2870
   50CHL1   H17 4831   3.934   3.545   4.156 -0.0126 -0.5624 -0.5319
   50CHL1   C13 4832   4.101   3.566   4.023  0.4202 -0.1235 -0.4905
   50CHL1   C18 4833   4.234   3.646   4.017 -0.2388 -0.1538  0.7760
   50CHL1  H18A 4834   4.301   3.620   4.102 -1.1908 -0.0371  1.5798
   50CHL1  H18B 4835   4.295   3.629   3.926 -1.1741 -0.6743  0.2484
   50CHL1  H18C 4836   4.220   3.756   4.023  0.7730 -0.0367  1.3591
   50CHL1   C12 4837   4.124   3.417   3.999 -0.1386 -0.1116 -0.2327
   50CHL1  H12A 4838   4.190   3.372   4.076  1.1316  1.3249 -0.4525
   50CHL1  H12B 4839   4.027   3.366   4.021  0.3343 -1.5349 -1.2464
   50CHL1   C11 4840   4.163   3.381   3.856  0.6154  0.3773  0.2218
   50CHL1  H11A 4841   4.273   3.394   3.851  0.8868 -1.8362 -0.9993
   50CHL1  H11B 4842   4.133   3.274   3.843 -1.5224  1.0593 -0.9158
   50CHL1    C9 4843   4.099   3.451   3.732 -0.6686 -0.5632 -0.2815
   50CHL1    H9 4844   4.004   3.394   3.724 -0.8472 -0.3442  0.2410
   50CHL1   C10 4845   4.155   3.423   3.587 -0.6569  0.2358  0.5038
   50CHL1   C19 4846   4.304   3.467   3.589 -0.5173 -0.1887  0.0655
   50CHL1  H19A 4847   4.352   3.459   3.489 -0.3269  1.8729 -0.0435
   50CHL1  H19B 4848   4.326   3.568   3.630  1.6258  0.6060 -2.7567
   50CHL1  H19C 4849   4.358   3.400   3.659  3.4495  3.5641  1.0321
   50CHL1    C1 4850   4.156   3.270   3.543 -0.6660 -1.0232  0.1011
   50CHL1   H1A 4851   4.214   3.208   3.615  0.6923  0.2819  0.1815
   50CHL1   H1B 4852   4.050   3.237   3.547 -1.0958  0.3106  3.2306
   50CHL1    C2 4853   4.211   3.249   3.399  0.4204 -0.0445 -0.2706
   50CHL1   H2A 4854   4.197   3.140   3.379 -0.6191 -0.0159  0.2312
   50CHL1   H2B 4855   4.321   3.260   3.396  0.3979  0.5135  0.5577
   50CHL1   C20 4856   4.093   3.628   4.279  0.1813 -0.2652 -0.0949
   50CHL1   H20 4857   4.184   3.689   4.262 -0.4220  0.2031 -1.8541
   50CHL1   C21 4858   4.138   3.492   4.328 -0.6460 -0.5786 -0.9009
   50CHL1  H21A 4859   4.178   3.494   4.432 -1.0840  0.0083 -0.7393
   50CHL1  H21B 4860   4.217   3.451   4.262 -0.2085 -1.3428  0.0616
   50CHL1  H21C 4861   4.048   3.427   4.339 -0.0664 -1.4839 -1.3410
   50CHL1   C22 4862   4.016   3.715   4.384 -0.4117 -0.3145  0.2895
   50CHL1  H22A 4863   3.925   3.766   4.345 -1.0433 -0.8426  1.0131
   50CHL1  H22B 4864   3.993   3.646   4.468  1.8392 -0.8417  0.5350
   50CHL1   C23 4865   4.103   3.816   4.457 -0.0426  0.0499 -0.4134
   50CHL1  H23A 4866   4.191   3.763   4.499 -0.0779  1.0453  0.9923
   50CHL1  H23B 4867   4.147   3.882   4.379  1.7452 -0.9951 -0.3497
   50CHL1   C24 4868   4.036   3.898   4.565  0.2137  0.3770 -0.3350
   50CHL1  H24A 4869   3.943   3.945   4.526  0.6682  0.1297 -1.7848
   50CHL1  H24B 4870   4.011   3.825   4.645  0.1428  1.6371  0.8385
   50CHL1   C25 4871   4.123   4.005   4.623 -0.0513 -0.1207 -0.1063
   50CHL1   H25 4872   4.173   4.051   4.535  2.4559 -0.3605  1.1113
   50CHL1   C26 4873   4.058   4.127   4.702  0.6610  0.3453  0.3161
   50CHL1  H26A 4874   3.972   4.173   4.649 -0.3060 -2.7580 -1.0259
   50CHL1  H26B 4875   4.016   4.085   4.796  0.3276  0.6342  0.2973
   50CHL1  H26C 4876   4.137   4.198   4.736  1.3623 -0.1169 -0.3001
   50CHL1   C27 4877   4.238   3.953   4.710 -0.3390  1.0160 -0.0798
   50CHL1  H27A 4878   4.202   3.919   4.809  0.8878 -0.2517 -0.0400
   50CHL1  H27B 4879   4.297   3.879   4.652 -2.0026  0.6174 -1.3286
   50CHL1  H27C 4880   4.315   4.030   4.733 -0.4744  0.7829  1.2506
   51CHL1    C3 4881   3.177   5.905   3.084  0.3367  0.0582 -0.7179
   51CHL1    H3 4882   3.071   5.899   3.119  0.7215 -0.6038  0.3902
   51CHL1    O3 4883   3.181   5.922   2.945  0.0367  0.5234  0.4471
   51CHL1   H3' 4884   3.254   5.982   2.927 -0.5693  1.4606  1.0537
   51CHL1    C4 4885   3.256   6.028   3.150 -0.4155 -0.2721 -0.1631
   51CHL1   H4A 4886   3.358   6.039   3.108 -1.0547  1.8244 -1.3088
   51CHL1   H4B 4887   3.201   6.123   3.134  1.0295  0.8039  1.0339
   51CHL1    C5 4888   3.273   6.007   3.296  0.1602  0.3158 -0.4952
   51CHL1    C6 4889   3.230   6.094   3.384 -1.2209 -0.3036 -0.3209
   51CHL1    H6 4890   3.189   6.190   3.352  1.6604  1.4953  0.9669
   51CHL1    C7 4891   3.247   6.075   3.533  0.2091 -0.4187 -0.2858
   51CHL1   H7A 4892   3.276   6.174   3.575 -2.4967  0.5445 -0.4675
   51CHL1   H7B 4893   3.150   6.070   3.587  0.4924 -1.3052  0.1629
   51CHL1    C8 4894   3.342   5.964   3.578 -0.1976 -0.2967  0.0368
   51CHL1    H8 4895   3.447   5.997   3.562  0.3151 -2.2477 -0.8499
   51CHL1   C14 4896   3.321   5.922   3.725 -0.2604  0.1904  0.7573
   51CHL1   H14 4897   3.222   5.872   3.720  0.7826 -1.8497 -1.2727
   51CHL1   C15 4898   3.311   6.036   3.825  0.3329 -0.5074 -0.1159
   51CHL1  H15A 4899   3.377   6.120   3.795 -1.9323  2.2509  1.9752
   51CHL1  H15B 4900   3.207   6.073   3.842  0.2575 -1.3312  1.4389
   51CHL1   C16 4901   3.361   5.978   3.956  0.7231  0.1306 -0.4885
   51CHL1  H16A 4902   3.451   6.042   3.968  0.1855  0.5817  1.5945
   51CHL1  H16B 4903   3.297   5.995   4.045  0.5120 -1.1946 -0.3745
   51CHL1   C17 4904   3.386   5.827   3.934 -0.1273  0.3750 -0.2186
   51CHL1   H17 4905   3.294   5.766   3.946 -0.3353  1.1234  2.8434
   51CHL1   C13 4906   3.419   5.823   3.780  0.5936 -0.4510 -0.5661
   51CHL1   C18 4907   3.569   5.879   3.779 -0.2528  0.6461  0.0922
   51CHL1  H18A 4908   3.586   5.956   3.857 -0.4888  2.3800 -1.4703
   51CHL1  H18B 4909   3.636   5.790   3.780 -0.3313  0.5888  0.1881
   51CHL1  H18C 4910   3.592   5.929   3.682  3.0322 -1.3035 -0.2476
   51CHL1   C12 4911   3.402   5.695   3.699 -0.3692 -0.7413  0.0287
   51CHL1  H12A 4912   3.477   5.623   3.739 -1.0812 -1.7008 -0.3286
   51CHL1  H12B 4913   3.305   5.652   3.732 -0.8080 -0.8665 -1.3365
   51CHL1   C11 4914   3.408   5.724   3.550 -0.9080  0.2684 -1.1061
   51CHL1  H11A 4915   3.514   5.753   3.535 -0.6505 -1.2353 -2.4872
   51CHL1  H11B 4916   3.377   5.629   3.501 -0.4847 -0.9544  0.9041
   51CHL1    C9 4917   3.315   5.839   3.496 -0.1707  0.7071 -0.0038
   51CHL1    H9 4918   3.211   5.804   3.512  0.4120 -0.9119  0.4189
   51CHL1   C10 4919   3.332   5.868   3.342  0.1480  0.5105  1.4302
   51CHL1   C19 4920   3.481   5.874   3.312  0.6470 -0.0877  0.2361
   51CHL1  H19A 4921   3.501   5.901   3.206  0.1750 -0.9911 -0.0882
   51CHL1  H19B 4922   3.530   5.965   3.354 -0.5663  1.0853 -0.7671
   51CHL1  H19C 4923   3.536   5.785   3.347 -0.4952 -0.7683  0.3497
   51CHL1    C1 4924   3.263   5.759   3.261  0.0449  0.3780 -0.1576
   51CHL1   H1A 4925   3.300   5.655   3.269 -1.1666 -0.1203 -0.6429
   51CHL1   H1B 4926   3.160   5.747   3.302  0.4636  1.2373  1.1783
   51CHL1    C2 4927   3.263   5.782   3.109  0.2590  0.2307  0.7276
   51CHL1   H2A 4928   3.207   5.698   3.060  0.5245 -0.0500  0.9026
   51CHL1   H2B 4929   3.366   5.784   3.068 -0.0242  1.1817  0.0146
   51CHL1   C20 4930   3.480   5.764   4.036  0.4939 -0.4929  0.3567
   51CHL1   H20 4931   3.576   5.819   4.041 -0.7322  1.8844 -0.6483
   51CHL1   C21 4932   3.507   5.616   4.006  0.4081  0.4263 -0.2640
   51CHL1  H21A 4933   3.575   5.576   4.084  1.0603  0.7133 -0.6728
   51CHL1  H21B 4934   3.559   5.599   3.910  1.1130 -1.6430  0.4360
   51CHL1  H21C 4935   3.409   5.566   3.990 -0.3561  2.1839 -1.3716
   51CHL1   C22 4936   3.413   5.768   4.173  0.0764  0.3913 -0.2652
   51CHL1  H22A 4937   3.382   5.871   4.201  1.8076  0.7075  0.6311
   51CHL1  H22B 4938   3.327   5.698   4.176 -0.3124  0.8925  0.7247
   51CHL1   C23 4939   3.507   5.728   4.291 -0.4442 -0.5437 -0.0816
   51CHL1  H23A 4940   3.523   5.619   4.302  0.6223 -0.3952 -0.0388
   51CHL1  H23B 4941   3.612   5.759   4.269 -0.6134  0.8855  0.9812
   51CHL1   C24 4942   3.447   5.772   4.428  0.7375  0.1604 -0.2490
   51CHL1  H24A 4943   3.437   5.882   4.437 -0.7530 -0.0431  1.3077
   51CHL1  H24B 4944   3.346   5.726   4.426  0.4420  0.7392 -3.3660
   51CHL1   C25 4945   3.528   5.721   4.551  0.1181  0.7559 -0.3370
   51CHL1   H25 4946   3.522   5.610   4.557 -0.9870  0.8313  0.1283
   51CHL1   C26 4947   3.680   5.751   4.538  0.2000  0.0897  0.1041
   51CHL1  H26A 4948   3.735   5.696   4.616  0.7096  1.5426  0.8150
   51CHL1  H26B 4949   3.722   5.714   4.442  0.2154  1.2545 -0.3668
   51CHL1  H26C 4950   3.692   5.861   4.553  0.5749 -0.2309  2.4853
   51CHL1   C27 4951   3.471   5.784   4.676 -0.5633  0.0855  0.3536
   51CHL1  H27A 4952   3.491   5.892   4.659  0.0336 -0.1972 -0.8291
   51CHL1  H27B 4953   3.360   5.774   4.682 -0.8232  1.0361 -1.9141
   51CHL1  H27C 4954   3.518   5.750   4.770 -2.6609 -2.3356  0.6381
   52CHL1    C3 4955   2.592   0.573   3.784 -0.3309 -0.1969 -0.1002
   52CHL1    H3 4956   2.646   0.658   3.831 -0.3197 -0.9064  1.2204
   52CHL1    O3 4957   2.602   0.587   3.642 -0.1079  0.3349 -0.4652
   52CHL1   H3' 4958   2.584   0.499   3.607  1.6784 -0.0950 -0.4079
   52CHL1    C4 4959   2.663   0.443   3.825 -0.5805  0.3233  0.1235
   52CHL1   H4A 4960   2.621   0.355   3.772  2.0291 -1.2795  0.5753
   52CHL1   H4B 4961   2.766   0.455   3.784 -0.4228  0.1203  0.4615
   52CHL1    C5 4962   2.665   0.430   3.974 -0.3495 -0.1232 -0.0024
   52CHL1    C6 4963   2.777   0.429   4.048  0.6118  0.2381 -0.0258
   52CHL1    H6 4964   2.867   0.442   3.987  0.6851  0.5678  0.1490
   52CHL1    C7 4965   2.785   0.407   4.197 -0.0933  0.1237  0.1320
   52CHL1   H7A 4966   2.866   0.334   4.218 -1.1291 -1.3997 -0.9973
   52CHL1   H7B 4967   2.800   0.506   4.244  1.7594 -1.5875  3.4955
   52CHL1    C8 4968   2.652   0.340   4.247  0.9006 -0.2937  0.1989
   52CHL1    H8 4969   2.645   0.237   4.206  0.9377 -0.1813 -0.0964
   52CHL1   C14 4970   2.656   0.338   4.396 -0.4973  0.2271  0.0737
   52CHL1   H14 4971   2.676   0.439   4.437 -0.7147  0.5651 -0.6427
   52CHL1   C15 4972   2.764   0.248   4.466  0.2220 -0.9236 -0.0621
   52CHL1  H15A 4973   2.764   0.143   4.428 -0.4638 -0.9792  0.0691
   52CHL1  H15B 4974   2.862   0.299   4.456 -0.0449 -0.5740 -0.9602
   52CHL1   C16 4975   2.709   0.256   4.611 -0.5091 -0.1647 -0.1548
   52CHL1  H16A 4976   2.716   0.152   4.650 -0.0280  0.4219  1.3799
   52CHL1  H16B 4977   2.767   0.335   4.663  0.0188 -0.0047 -0.9729
   52CHL1   C17 4978   2.567   0.301   4.609 -0.3956  0.5447  0.0029
   52CHL1   H17 4979   2.567   0.410   4.627  3.5755  0.6846  0.1301
   52CHL1   C13 4980   2.526   0.286   4.463  0.5022  0.0653 -0.7608
   52CHL1   C18 4981   2.492   0.137   4.424  0.1368 -0.3008 -0.3995
   52CHL1  H18A 4982   2.488   0.132   4.313 -0.9272  2.5314 -0.5612
   52CHL1  H18B 4983   2.570   0.072   4.470 -0.3719  1.0288  2.5999
   52CHL1  H18C 4984   2.396   0.097   4.462  0.2548  0.3993  0.6867
   52CHL1   C12 4985   2.414   0.385   4.422  0.0753  0.1522 -0.2232
   52CHL1  H12A 4986   2.319   0.340   4.458 -0.5007  1.7804  0.3756
   52CHL1  H12B 4987   2.430   0.481   4.474  0.2704  1.1352 -2.0263
   52CHL1   C11 4988   2.400   0.409   4.271 -0.0142 -0.2794 -0.4293
   52CHL1  H11A 4989   2.340   0.321   4.239 -2.2922  0.9839  0.1769
   52CHL1  H11B 4990   2.338   0.498   4.244 -0.5823 -0.4647  0.2447
   52CHL1    C9 4991   2.536   0.430   4.202 -0.2998 -0.1409  0.2923
   52CHL1    H9 4992   2.563   0.533   4.231  0.2465 -1.0969  3.5047
   52CHL1   C10 4993   2.526   0.426   4.042 -0.1609 -0.0270  0.2352
   52CHL1   C19 4994   2.460   0.289   4.008 -0.0430  0.5433 -0.2482
   52CHL1  H19A 4995   2.360   0.277   4.054  0.3888  1.0133  0.8615
   52CHL1  H19B 4996   2.449   0.280   3.898  1.8642 -2.8529 -0.3130
   52CHL1  H19C 4997   2.531   0.208   4.038 -1.6180 -0.7290  0.1767
   52CHL1    C1 4998   2.450   0.549   3.989  0.0971  0.1224  0.3529
   52CHL1   H1A 4999   2.348   0.545   4.031 -1.2704 -1.5348 -2.7933
   52CHL1   H1B 5000   2.493   0.641   4.034 -0.3605  0.3763  0.2784
   52CHL1    C2 5001   2.442   0.561   3.830 -0.0135  0.3155 -0.2389
   52CHL1   H2A 5002   2.387   0.650   3.790 -1.5725 -1.8677 -3.4220
   52CHL1   H2B 5003   2.388   0.478   3.779  0.3020  0.5224 -0.9296
   52CHL1   C20 5004   2.483   0.231   4.716  0.3026 -0.3305 -0.4461
   52CHL1   H20 5005   2.478   0.122   4.693  1.3875 -0.8006  1.2824
   52CHL1   C21 5006   2.338   0.272   4.714  0.7168  0.2556 -0.8544
   52CHL1  H21A 5007   2.322   0.381   4.725 -1.7291 -0.0033 -1.2301
   52CHL1  H21B 5008   2.287   0.228   4.803  0.2686  0.5475 -0.9633
   52CHL1  H21C 5009   2.275   0.235   4.631  0.3702 -1.9785  0.3272
   52CHL1   C22 5010   2.541   0.217   4.862 -0.4429 -0.5319  0.2181
   52CHL1  H22A 5011   2.474   0.148   4.916 -2.3112  0.0529 -1.2213
   52CHL1  H22B 5012   2.646   0.180   4.866  0.2322  1.3797  1.9107
   52CHL1   C23 5013   2.533   0.346   4.942  1.0256 -0.3101 -0.5408
   52CHL1  H23A 5014   2.603   0.408   4.882 -1.8866  1.3977 -2.4185
   52CHL1  H23B 5015   2.431   0.386   4.958  0.7167 -1.8622  1.7982
   52CHL1   C24 5016   2.599   0.334   5.088 -0.6727 -0.0161  0.6582
   52CHL1  H24A 5017   2.700   0.290   5.077 -0.1454  0.6887  2.3711
   52CHL1  H24B 5018   2.599   0.441   5.119 -0.4578 -0.2799  1.6064
   52CHL1   C25 5019   2.513   0.261   5.195  0.7803  0.2359  1.0851
   52CHL1   H25 5020   2.474   0.164   5.156 -1.2680  2.0991 -1.8782
   52CHL1   C26 5021   2.602   0.234   5.315  0.3697 -0.0545 -0.4615
   52CHL1  H26A 5022   2.552   0.171   5.391 -0.1199  1.2515  0.3336
   52CHL1  H26B 5023   2.703   0.195   5.291  0.1622 -2.2897  1.8905
   52CHL1  H26C 5024   2.615   0.333   5.364 -0.4753 -0.7158  1.1603
   52CHL1   C27 5025   2.379   0.333   5.236  0.3709  0.5165  0.7008
   52CHL1  H27A 5026   2.317   0.355   5.147  0.3620  1.3961  0.9211
   52CHL1  H27B 5027   2.316   0.269   5.302  0.4168  0.2293  0.4701
   52CHL1  H27C 5028   2.399   0.434   5.277 -1.3523  0.4918  1.7053
   53CHL1    C3 5029   1.757   0.068   3.804  0.4304 -0.5457  0.0577
   53CHL1    H3 5030   1.855   0.110   3.833 -0.4121  0.9296  0.8980
   53CHL1    O3 5031   1.732   0.088   3.659 -0.4575 -0.2377 -0.2459
   53CHL1   H3' 5032   1.712   0.181   3.644  0.3508 -0.0202 -0.0397
   53CHL1    C4 5033   1.754  -0.078   3.845  0.4813  0.3317  0.5869
   53CHL1   H4A 5034   1.676  -0.134   3.788  1.2988 -0.1294 -0.1214
   53CHL1   H4B 5035   1.850  -0.117   3.803  0.2651  0.9210 -0.4890
   53CHL1    C5 5036   1.749  -0.113   3.995  0.2512 -0.0239  0.3506
   53CHL1    C6 5037   1.843  -0.184   4.051 -0.8682 -1.3000  0.6295
   53CHL1    H6 5038   1.923  -0.234   3.994  0.4802 -0.1311  1.4403
   53CHL1    C7 5039   1.847  -0.223   4.200  0.0492 -0.1231 -0.0367
   53CHL1   H7A 5040   1.868  -0.331   4.213  1.5453  0.3397  1.9979
   53CHL1   H7B 5041   1.937  -0.166   4.232 -1.5668  1.7733  1.4666
   53CHL1    C8 5042   1.718  -0.178   4.278  0.0250 -0.0935  0.3883
   53CHL1    H8 5043   1.644  -0.258   4.257  0.0957 -0.4342  1.3752
   53CHL1   C14 5044   1.753  -0.156   4.424  0.0444 -0.3011 -0.2809
   53CHL1   H14 5045   1.824  -0.070   4.423 -0.3407  0.0323  0.6128
   53CHL1   C15 5046   1.839  -0.255   4.507  0.3563 -0.1628  0.1149
   53CHL1  H15A 5047   1.802  -0.354   4.473  1.5315 -0.0746 -1.5682
   53CHL1  H15B 5048   1.947  -0.250   4.479  0.7678 -0.6412  1.5617
   53CHL1   C16 5049   1.810  -0.228   4.651  0.2250 -0.1620 -0.1128
   53CHL1  H16A 5050   1.767  -0.322   4.690  2.0256 -1.2928 -0.7453
   53CHL1  H16B 5051   1.903  -0.191   4.699 -1.4740  4.1647  0.2926
   53CHL1   C17 5052   1.713  -0.107   4.661 -0.2239  0.2095  0.0618
   53CHL1   H17 5053   1.773  -0.013   4.662 -0.1294  0.1772 -1.1531
   53CHL1   C13 5054   1.641  -0.113   4.522 -0.0377 -0.4735 -0.3365
   53CHL1   C18 5055   1.529  -0.217   4.525  0.2609  0.4911  0.1199
   53CHL1  H18A 5056   1.445  -0.170   4.580 -0.3734 -1.6250  1.0859
   53CHL1  H18B 5057   1.503  -0.246   4.421  0.3279  2.2422 -0.4154
   53CHL1  H18C 5058   1.557  -0.308   4.583  2.0436  1.8676  1.5580
   53CHL1   C12 5059   1.600   0.028   4.462 -0.0583 -0.0991 -0.1265
   53CHL1  H12A 5060   1.513   0.077   4.512 -0.0158  2.2271 -2.1348
   53CHL1  H12B 5061   1.689   0.094   4.468  0.5760 -0.6698 -2.2443
   53CHL1   C11 5062   1.563   0.021   4.316 -0.5667  0.0845 -0.2468
   53CHL1  H11A 5063   1.471  -0.041   4.308 -1.1674  0.9378 -0.1508
   53CHL1  H11B 5064   1.529   0.121   4.282  1.3403  1.4833  1.7130
   53CHL1    C9 5065   1.673  -0.039   4.224  0.1474 -0.6121 -0.1715
   53CHL1    H9 5066   1.764   0.022   4.243  2.4546 -3.7754 -0.2132
   53CHL1   C10 5067   1.640  -0.027   4.075 -0.1520  0.6926 -0.6411
   53CHL1   C19 5068   1.503  -0.094   4.052 -1.1232 -0.3889 -0.3118
   53CHL1  H19A 5069   1.478  -0.106   3.944  1.7731 -1.8815 -0.9102
   53CHL1  H19B 5070   1.493  -0.193   4.101  0.6010 -0.9605 -1.0262
   53CHL1  H19C 5071   1.430  -0.025   4.101 -0.0892  0.8268 -0.4446
   53CHL1    C1 5072   1.641   0.123   4.027 -0.1810  0.4804 -0.1318
   53CHL1   H1A 5073   1.550   0.171   4.068 -1.8510 -1.4670 -1.3575
   53CHL1   H1B 5074   1.734   0.162   4.074  0.6128 -1.3412 -0.0832
   53CHL1    C2 5075   1.640   0.138   3.874 -0.8588  0.1325 -0.3011
   53CHL1   H2A 5076   1.650   0.248   3.856 -0.1501  0.0665 -0.3577
   53CHL1   H2B 5077   1.541   0.109   3.834 -0.4032  1.3887 -2.5227
   53CHL1   C20 5078   1.631  -0.093   4.790  0.5652 -0.1390 -0.2019
   53CHL1   H20 5079   1.536  -0.148   4.773  1.1174 -0.8244 -1.1328
   53CHL1   C21 5080   1.598   0.057   4.817 -0.7709 -0.6026  0.1690
   53CHL1  H21A 5081   1.691   0.114   4.834 -0.8538 -0.2396 -0.5300
   53CHL1  H21B 5082   1.520   0.060   4.896 -1.8579  0.7528 -0.9020
   53CHL1  H21C 5083   1.543   0.085   4.724  0.7422 -0.4191 -0.7145
   53CHL1   C22 5084   1.696  -0.150   4.929  1.2243 -0.3229  0.0177
   53CHL1  H22A 5085   1.726  -0.255   4.908 -0.0508 -0.0794 -3.6296
   53CHL1  H22B 5086   1.783  -0.091   4.963  1.4842  0.1874 -1.4743
   53CHL1   C23 5087   1.604  -0.140   5.056 -0.2784  0.1330 -0.0844
   53CHL1  H23A 5088   1.661  -0.181   5.141  1.9167 -0.1902 -1.6164
   53CHL1  H23B 5089   1.591  -0.030   5.067 -0.7558 -0.1520  3.0130
   53CHL1   C24 5090   1.478  -0.216   5.044  0.2017  0.2459 -0.1780
   53CHL1  H24A 5091   1.433  -0.185   4.947 -0.1250 -1.2501 -0.5276
   53CHL1  H24B 5092   1.486  -0.326   5.052 -2.8113 -0.0973 -0.5316
   53CHL1   C25 5093   1.381  -0.182   5.164  0.2070  0.1803  0.7204
   53CHL1   H25 5094   1.445  -0.174   5.254 -0.4212 -2.3067  1.4654
   53CHL1   C26 5095   1.320  -0.044   5.138 -0.4596 -0.3522  0.2424
   53CHL1  H26A 5096   1.254  -0.012   5.222 -0.5334  1.6416 -0.5251
   53CHL1  H26B 5097   1.392   0.040   5.135 -0.1732 -0.6161 -2.3789
   53CHL1  H26C 5098   1.270  -0.045   5.039  0.5463  1.2995 -0.3078
   53CHL1   C27 5099   1.279  -0.284   5.191  0.1415 -0.6548  0.6515
   53CHL1  H27A 5100   1.209  -0.244   5.267 -0.1101 -0.1906  0.1753
   53CHL1  H27B 5101   1.223  -0.317   5.101 -0.8274 -1.1545  1.4259
   53CHL1  H27C 5102   1.324  -0.371   5.245  1.4215  0.4239  1.3793
   54CHL1    C3 5103   2.080   0.479   3.867  0.5489  0.2132 -0.4029
   54CHL1    H3 5104   2.190   0.470   3.882  0.3549 -0.6282  0.6654
   54CHL1    O3 5105   2.060   0.494   3.727 -0.4628  0.4483 -0.0645
   54CHL1   H3' 5106   2.094   0.418   3.680 -1.1330  0.3862 -0.4667
   54CHL1    C4 5107   1.993   0.360   3.900 -0.1304 -0.1541 -0.7081
   54CHL1   H4A 5108   1.893   0.385   3.859 -0.5528 -1.2425 -0.3738
   54CHL1   H4B 5109   2.022   0.267   3.848  1.2329  0.1317 -0.4926
   54CHL1    C5 5110   1.981   0.341   4.049 -0.4503  0.6111 -0.0495
   54CHL1    C6 5111   2.017   0.221   4.108  0.1880  0.1917  0.3196
   54CHL1    H6 5112   2.046   0.144   4.034 -1.5296  1.7850 -2.1594
   54CHL1    C7 5113   2.011   0.197   4.255 -0.1259 -0.3721 -0.6634
   54CHL1   H7A 5114   1.963   0.102   4.286 -0.5913  0.5708  1.7036
   54CHL1   H7B 5115   2.116   0.179   4.289  0.1376 -0.5530 -1.5378
   54CHL1    C8 5116   1.952   0.310   4.343 -0.0146  0.5931  0.2800
   54CHL1    H8 5117   1.846   0.278   4.337  0.7914 -2.1720 -0.8962
   54CHL1   C14 5118   1.999   0.303   4.484 -0.2015  0.3167 -0.2798
   54CHL1   H14 5119   2.107   0.330   4.487  0.0710 -0.8698  1.2042
   54CHL1   C15 5120   1.993   0.163   4.560  0.0790  0.2116 -0.5361
   54CHL1  H15A 5121   1.897   0.113   4.536 -0.5823  1.8566 -1.4764
   54CHL1  H15B 5122   2.080   0.099   4.533 -0.5045 -0.6852 -0.3664
   54CHL1   C16 5123   1.995   0.208   4.710 -0.6523  0.2393  0.0991
   54CHL1  H16A 5124   1.899   0.178   4.758 -0.5365 -0.9309 -0.3666
   54CHL1  H16B 5125   2.071   0.152   4.767 -1.3327  0.5427  1.3567
   54CHL1   C17 5126   1.989   0.365   4.712  0.1881 -0.6252  0.7120
   54CHL1   H17 5127   2.092   0.408   4.719 -0.2999  0.4326  1.7266
   54CHL1   C13 5128   1.930   0.406   4.575  0.6620 -0.2059 -0.1349
   54CHL1   C18 5129   1.777   0.376   4.570  0.6064 -0.2752  0.0717
   54CHL1  H18A 5130   1.742   0.406   4.469  1.6309 -0.1877 -0.2780
   54CHL1  H18B 5131   1.755   0.269   4.593  1.8074 -0.8051 -1.0547
   54CHL1  H18C 5132   1.722   0.430   4.649 -0.8592  1.6052 -2.1216
   54CHL1   C12 5133   1.972   0.540   4.520 -0.3337  0.3714 -0.0151
   54CHL1  H12A 5134   1.949   0.621   4.592  0.3239  1.2097 -0.7360
   54CHL1  H12B 5135   2.082   0.524   4.517 -0.5569 -1.3042 -0.2556
   54CHL1   C11 5136   1.923   0.560   4.379 -0.5472 -0.2625 -0.4757
   54CHL1  H11A 5137   1.812   0.572   4.380 -0.3378  2.4383 -1.1762
   54CHL1  H11B 5138   1.972   0.657   4.355 -1.7465  0.6822  0.7303
   54CHL1    C9 5139   1.978   0.450   4.284  0.4384 -0.3460 -0.5583
   54CHL1    H9 5140   2.087   0.466   4.299  0.3020 -1.2346  1.6642
   54CHL1   C10 5141   1.955   0.469   4.135  1.1986 -0.3827  0.3597
   54CHL1   C19 5142   1.797   0.495   4.106 -0.7819  0.1953 -0.7516
   54CHL1  H19A 5143   1.748   0.404   4.147  2.1695 -0.7254  1.0136
   54CHL1  H19B 5144   1.776   0.580   4.173  0.9025  0.0389  0.0238
   54CHL1  H19C 5145   1.786   0.517   3.998  0.4649 -0.9265 -1.1398
   54CHL1    C1 5146   2.051   0.582   4.087 -0.7412  0.1993 -0.2138
   54CHL1   H1A 5147   2.023   0.677   4.137 -1.3211  0.0635 -0.2662
   54CHL1   H1B 5148   2.155   0.553   4.112  0.3624  4.0514  0.3605
   54CHL1    C2 5149   2.038   0.610   3.938 -0.9597 -0.0735  0.2806
   54CHL1   H2A 5150   2.107   0.693   3.909 -2.0030  1.0007  0.7897
   54CHL1   H2B 5151   1.942   0.652   3.903 -0.3430  1.5801  0.4711
   54CHL1   C20 5152   1.914   0.407   4.838 -0.0490 -0.1870 -0.1678
   54CHL1   H20 5153   1.814   0.359   4.845  1.1219 -2.5026  2.0368
   54CHL1   C21 5154   1.904   0.559   4.851  0.0896 -0.4701  0.0262
   54CHL1  H21A 5155   2.000   0.611   4.834 -0.5858  1.5204  1.9181
   54CHL1  H21B 5156   1.840   0.595   4.934  1.1577  1.0205  0.2499
   54CHL1  H21C 5157   1.842   0.594   4.766 -1.0532 -1.4718  0.4187
   54CHL1   C22 5158   1.975   0.350   4.975  0.4225 -0.4911 -0.4081
   54CHL1  H22A 5159   1.991   0.241   4.966 -0.9034 -0.6923 -0.4534
   54CHL1  H22B 5160   2.073   0.404   4.977 -0.5960  1.5564 -1.8300
   54CHL1   C23 5161   1.892   0.378   5.103  0.1351  0.3384  0.2002
   54CHL1  H23A 5162   1.962   0.368   5.188 -0.7420 -0.8469  0.8081
   54CHL1  H23B 5163   1.860   0.485   5.107 -1.9234 -0.2340  0.3435
   54CHL1   C24 5164   1.777   0.276   5.132 -0.1352 -0.5426 -0.1849
   54CHL1  H24A 5165   1.696   0.295   5.058  0.6297  1.2798 -0.5961
   54CHL1  H24B 5166   1.814   0.172   5.117  3.5868  0.2796  2.0845
   54CHL1   C25 5167   1.717   0.281   5.276 -0.2427 -0.4045  0.3795
   54CHL1   H25 5168   1.795   0.307   5.351 -0.3005 -2.7074  1.3447
   54CHL1   C26 5169   1.615   0.392   5.293  0.4444 -0.6640 -0.1712
   54CHL1  H26A 5170   1.658   0.481   5.244  3.2171 -1.1381  1.1955
   54CHL1  H26B 5171   1.523   0.355   5.243  0.3031 -0.3148 -0.1682
   54CHL1  H26C 5172   1.602   0.424   5.398 -0.9672 -0.9964 -0.2271
   54CHL1   C27 5173   1.648   0.147   5.320 -0.3886 -0.2462 -0.8241
   54CHL1  H27A 5174   1.717   0.060   5.330 -0.6000 -0.2931  0.3181
   54CHL1  H27B 5175   1.602   0.170   5.418  1.3966 -0.5436  0.1221
   54CHL1  H27C 5176   1.572   0.124   5.242  1.3135 -1.4727 -2.2171
   55CHL1    C3 5177   5.399   3.387   3.453 -0.4670 -0.3452 -0.5832
   55CHL1    H3 5178   5.432   3.491   3.473  1.5477 -0.8160 -1.2526
   55CHL1    O3 5179   5.452   3.363   3.326 -0.1283 -0.1625  0.6967
   55CHL1   H3' 5180   5.384   3.408   3.275  0.5202  1.7916  1.4275
   55CHL1    C4 5181   5.465   3.295   3.554  0.8063 -0.1539  0.0696
   55CHL1   H4A 5182   5.458   3.191   3.515  0.3545  0.5645 -1.8772
   55CHL1   H4B 5183   5.574   3.315   3.559  0.4738  1.6063  1.5976
   55CHL1    C5 5184   5.408   3.312   3.690 -0.0961 -0.4950 -0.0376
   55CHL1    C6 5185   5.488   3.344   3.792  0.1160 -0.0332 -0.1121
   55CHL1    H6 5186   5.596   3.367   3.785 -0.2395  1.3946 -1.2521
   55CHL1    C7 5187   5.448   3.345   3.939  0.7075  0.2265  0.0880
   55CHL1   H7A 5188   5.528   3.312   4.008  0.5363  1.4474  0.8948
   55CHL1   H7B 5189   5.446   3.453   3.962  0.1545  0.4098 -0.7648
   55CHL1    C8 5190   5.303   3.284   3.960  0.6420 -0.1427 -0.5040
   55CHL1    H8 5191   5.301   3.174   3.949  0.0343 -0.1004 -0.8637
   55CHL1   C14 5192   5.255   3.326   4.098  0.3780 -0.0546 -0.1724
   55CHL1   H14 5193   5.268   3.436   4.110  2.1021  0.2605 -3.5733
   55CHL1   C15 5194   5.337   3.270   4.214 -0.0299 -0.0848 -0.6204
   55CHL1  H15A 5195   5.368   3.165   4.197 -0.2505 -0.2134 -0.2323
   55CHL1  H15B 5196   5.428   3.330   4.235 -0.5460  0.4884 -0.0021
   55CHL1   C16 5197   5.234   3.276   4.331 -0.7755 -0.3833  0.2138
   55CHL1  H16A 5198   5.219   3.170   4.362 -1.2322 -0.0899  1.0243
   55CHL1  H16B 5199   5.291   3.339   4.403 -1.0815  3.0665 -2.3037
   55CHL1   C17 5200   5.097   3.331   4.274  0.4988 -0.7788 -0.2350
   55CHL1   H17 5201   5.111   3.441   4.278 -0.0575 -0.7061 -0.2392
   55CHL1   C13 5202   5.110   3.287   4.125 -0.9057  0.6941  0.0642
   55CHL1   C18 5203   5.090   3.130   4.108  0.2787 -0.2041  0.1962
   55CHL1  H18A 5204   5.136   3.077   4.194 -0.4601  1.2586  1.5418
   55CHL1  H18B 5205   4.980   3.114   4.117  0.2639  0.1792  0.7972
   55CHL1  H18C 5206   5.138   3.093   4.015 -0.8585 -0.6211 -0.2556
   55CHL1   C12 5207   5.026   3.371   4.026  0.4094 -0.2615 -0.5767
   55CHL1  H12A 5208   4.917   3.349   4.031  0.1985  1.0589  2.3658
   55CHL1  H12B 5209   5.026   3.477   4.058  1.0012 -0.3568 -0.2373
   55CHL1   C11 5210   5.064   3.344   3.881 -0.0458 -0.2027 -0.0033
   55CHL1  H11A 5211   5.016   3.249   3.851 -0.3880  0.3432 -1.2600
   55CHL1  H11B 5212   5.014   3.424   3.822 -2.4902 -1.0859  0.7536
   55CHL1    C9 5213   5.215   3.348   3.848  0.4238 -0.0131  0.3659
   55CHL1    H9 5214   5.238   3.456   3.853  0.3032 -0.0353  3.1053
   55CHL1   C10 5215   5.252   3.302   3.701  0.4232 -0.1746 -0.0952
   55CHL1   C19 5216   5.217   3.143   3.686 -0.3170 -0.5358 -0.1712
   55CHL1  H19A 5217   5.107   3.125   3.678 -0.3184 -1.4123  1.3874
   55CHL1  H19B 5218   5.275   3.106   3.599 -0.0577  0.5110 -0.4480
   55CHL1  H19C 5219   5.246   3.085   3.776 -1.3325 -1.4688 -0.4165
   55CHL1    C1 5220   5.178   3.385   3.595 -1.2010 -0.6698  0.1935
   55CHL1   H1A 5221   5.071   3.356   3.597 -1.2114 -0.5792  2.1015
   55CHL1   H1B 5222   5.176   3.495   3.613 -3.9400 -0.4141 -1.1193
   55CHL1    C2 5223   5.246   3.368   3.452  0.1394 -0.1516 -0.6151
   55CHL1   H2A 5224   5.193   3.439   3.384  0.6549  0.6581 -0.1866
   55CHL1   H2B 5225   5.222   3.267   3.412 -1.5443  0.2291 -0.6456
   55CHL1   C20 5226   4.978   3.285   4.361  0.2114  0.1912 -0.7476
   55CHL1   H20 5227   4.966   3.175   4.350  3.0873 -0.2005 -0.7232
   55CHL1   C21 5228   4.848   3.357   4.312 -0.0089  0.7679  0.5668
   55CHL1  H21A 5229   4.821   3.308   4.216 -0.3729 -0.7456  1.4035
   55CHL1  H21B 5230   4.862   3.466   4.299 -2.6309  0.9605 -1.6865
   55CHL1  H21C 5231   4.769   3.348   4.390 -0.9511 -2.0084 -0.5844
   55CHL1   C22 5232   4.981   3.322   4.513 -0.5022  0.5898 -0.0562
   55CHL1  H22A 5233   5.088   3.306   4.538 -0.7091  1.6011  1.6379
   55CHL1  H22B 5234   4.942   3.424   4.533 -1.0882  0.8517 -2.2593
   55CHL1   C23 5235   4.910   3.227   4.611 -0.0812  0.6058  0.6515
   55CHL1  H23A 5236   4.800   3.229   4.590  0.0154  1.0313  0.1735
   55CHL1  H23B 5237   4.936   3.120   4.594  1.6797  0.4703  3.5724
   55CHL1   C24 5238   4.929   3.250   4.760  0.0210 -0.2360 -0.5149
   55CHL1  H24A 5239   5.032   3.224   4.795 -0.7992 -0.2833  2.0447
   55CHL1  H24B 5240   4.913   3.360   4.758 -0.2893 -0.2759 -0.2715
   55CHL1   C25 5241   4.825   3.191   4.853  0.4330  0.4520  0.5783
   55CHL1   H25 5242   4.732   3.226   4.804  0.3983 -1.4168 -0.7878
   55CHL1   C26 5243   4.828   3.042   4.845  0.1236 -1.0132  0.3812
   55CHL1  H26A 5244   4.739   3.017   4.907 -0.5138  2.1462  0.9329
   55CHL1  H26B 5245   4.805   3.013   4.741 -1.6797 -0.1145  0.4898
   55CHL1  H26C 5246   4.926   3.003   4.881  0.1075 -1.7270 -0.3313
   55CHL1   C27 5247   4.841   3.240   4.997  0.0027 -0.3788  0.5154
   55CHL1  H27A 5248   4.768   3.189   5.063 -1.0433  1.0449  0.5168
   55CHL1  H27B 5249   4.938   3.212   5.043  0.3264  0.7036  0.5188
   55CHL1  H27C 5250   4.825   3.350   5.000 -1.0722 -0.3706 -2.1774
   56CHL1    C3 5251   5.414   3.879   3.287 -0.8398  0.4077  0.1685
   56CHL1    H3 5252   5.335   3.951   3.257  1.1140  1.4507 -2.8843
   56CHL1    O3 5253   5.483   3.855   3.164  0.3950  0.4532 -0.3652
   56CHL1   H3' 5254   5.574   3.833   3.187  1.1008  1.6716 -1.7356
   56CHL1    C4 5255   5.515   3.944   3.386 -0.1756 -0.4309  0.0011
   56CHL1   H4A 5256   5.595   3.868   3.402  0.6406  0.5371  0.5988
   56CHL1   H4B 5257   5.554   4.035   3.336  1.8454 -1.0326  0.3855
   56CHL1    C5 5258   5.446   3.967   3.514 -0.5348  0.1666 -0.3025
   56CHL1    C6 5259   5.440   4.099   3.561 -0.0392  0.5500  0.3249
   56CHL1    H6 5260   5.501   4.172   3.506 -1.1412  0.4697 -1.0878
   56CHL1    C7 5261   5.390   4.131   3.700  0.0471  0.0807  0.2871
   56CHL1   H7A 5262   5.469   4.181   3.760 -0.7267 -0.4225  1.7672
   56CHL1   H7B 5263   5.297   4.191   3.687 -0.3987 -0.6810 -0.1248
   56CHL1    C8 5264   5.359   4.006   3.786  0.6396 -0.6599  0.5036
   56CHL1    H8 5265   5.456   3.970   3.827  0.5509 -0.7867  0.6004
   56CHL1   C14 5266   5.266   4.036   3.902  0.4943 -0.3813 -0.1007
   56CHL1   H14 5267   5.165   4.061   3.864  1.1272 -1.1051 -2.3762
   56CHL1   C15 5268   5.311   4.150   3.997 -0.2282  1.0302 -0.1057
   56CHL1  H15A 5269   5.421   4.144   4.004 -0.2129 -0.7879 -1.1645
   56CHL1  H15B 5270   5.278   4.250   3.963  0.0999  1.4492  0.8024
   56CHL1   C16 5271   5.243   4.119   4.133  0.0456  0.1776 -0.7094
   56CHL1  H16A 5272   5.320   4.095   4.210 -0.7337 -1.6277 -0.4495
   56CHL1  H16B 5273   5.181   4.204   4.169 -0.4728  0.7971 -2.9459
   56CHL1   C17 5274   5.157   3.993   4.106  0.0233 -0.3530  0.0487
   56CHL1   H17 5275   5.059   4.027   4.069  0.6958  0.6656 -0.8289
   56CHL1   C13 5276   5.228   3.914   3.990 -0.1046 -0.0466 -0.3022
   56CHL1   C18 5277   5.359   3.849   4.046 -0.0797 -0.3266 -0.2571
   56CHL1  H18A 5278   5.436   3.811   3.975 -0.0336 -1.6507  0.4772
   56CHL1  H18B 5279   5.406   3.914   4.123  0.7377 -0.8151 -0.3267
   56CHL1  H18C 5280   5.336   3.762   4.112 -2.1788  1.0555  0.9365
   56CHL1   C12 5281   5.155   3.816   3.902  0.1241  1.1775 -0.3781
   56CHL1  H12A 5282   5.135   3.720   3.956 -2.1614 -0.0574 -3.1721
   56CHL1  H12B 5283   5.055   3.845   3.865 -0.3352 -1.3842 -1.3604
   56CHL1   C11 5284   5.250   3.771   3.782 -0.1665 -0.2675 -0.2170
   56CHL1  H11A 5285   5.333   3.708   3.821 -1.1068  0.7918  4.0287
   56CHL1  H11B 5286   5.193   3.694   3.725 -2.9804  0.6739  1.1299
   56CHL1    C9 5287   5.298   3.886   3.697  0.4922 -0.0295 -0.6051
   56CHL1    H9 5288   5.202   3.930   3.662 -0.1044  0.8675  1.9725
   56CHL1   C10 5289   5.394   3.841   3.590 -0.4817 -0.3512 -0.2362
   56CHL1   C19 5290   5.508   3.753   3.646 -0.2309  0.1243  0.6293
   56CHL1  H19A 5291   5.468   3.654   3.677  1.6033 -0.1643  2.2245
   56CHL1  H19B 5292   5.580   3.720   3.567 -2.1495  1.1209 -1.6707
   56CHL1  H19C 5293   5.574   3.792   3.726  0.4844 -0.7010  0.4664
   56CHL1    C1 5294   5.312   3.771   3.482 -1.0078 -0.0443 -0.3253
   56CHL1   H1A 5295   5.284   3.670   3.520  1.8536 -0.3035  1.3640
   56CHL1   H1B 5296   5.217   3.828   3.472 -0.1647  1.5843  0.5267
   56CHL1    C2 5297   5.379   3.746   3.349  0.2940 -0.5035  0.3144
   56CHL1   H2A 5298   5.296   3.702   3.289 -2.3439  2.1398  1.7907
   56CHL1   H2B 5299   5.465   3.675   3.346 -0.6199 -1.6227 -0.2976
   56CHL1   C20 5300   5.129   3.917   4.240 -0.1899 -0.7182  1.0618
   56CHL1   H20 5301   5.226   3.874   4.272  0.6430  0.5249  0.2798
   56CHL1   C21 5302   5.024   3.807   4.206 -0.3238  0.9466  0.0812
   56CHL1  H21A 5303   4.930   3.856   4.171 -1.8151 -1.7817  0.0053
   56CHL1  H21B 5304   4.996   3.760   4.302  1.0190 -0.6453 -0.2653
   56CHL1  H21C 5305   5.057   3.718   4.149  0.6347 -0.9056  3.2413
   56CHL1   C22 5306   5.076   4.013   4.357  0.2547  0.3326  0.6772
   56CHL1  H22A 5307   5.143   4.101   4.363  0.0071  0.7115 -1.2895
   56CHL1  H22B 5308   4.969   4.030   4.329  0.0309 -0.9587  0.7197
   56CHL1   C23 5309   5.088   3.942   4.497 -0.1973  0.2426 -0.5734
   56CHL1  H23A 5310   5.026   3.850   4.502 -1.9124  1.3132 -1.0412
   56CHL1  H23B 5311   5.195   3.919   4.516 -0.3356  0.0813  0.0040
   56CHL1   C24 5312   5.040   4.035   4.609 -0.3643  0.7185 -0.7930
   56CHL1  H24A 5313   5.077   3.992   4.705  2.0548  1.2498 -1.4230
   56CHL1  H24B 5314   5.090   4.134   4.610 -0.5483  0.8137 -1.2594
   56CHL1   C25 5315   4.892   4.068   4.621  0.1529  0.0861 -0.4237
   56CHL1   H25 5316   4.852   4.089   4.520 -1.2638 -1.1206 -0.1532
   56CHL1   C26 5317   4.809   3.955   4.680 -1.2434 -0.1813 -0.5031
   56CHL1  H26A 5318   4.827   3.861   4.624  0.5252 -1.1795  1.5857
   56CHL1  H26B 5319   4.848   3.936   4.783 -0.8115 -0.8076 -0.7759
   56CHL1  H26C 5320   4.700   3.973   4.688 -1.5541 -1.4240 -1.7140
   56CHL1   C27 5321   4.882   4.199   4.698 -0.6295 -1.5353 -1.0038
   56CHL1  H27A 5322   4.943   4.276   4.648 -1.1200 -0.3003  0.2360
   56CHL1  H27B 5323   4.779   4.239   4.699  0.0451  0.4136  1.3263
   56CHL1  H27C 5324   4.916   4.183   4.803  1.1920 -1.6271 -1.5662
   57CHL1    C3 5325   5.956   2.250   3.763 -1.1471 -0.0426  0.4559
   57CHL1    H3 5326   5.999   2.351   3.776  1.1043 -0.8507 -0.1772
   57CHL1    O3 5327   5.945   2.219   3.628  0.3331 -0.0433  0.3031
   57CHL1   H3' 5328   5.904   2.133   3.618  1.1852 -0.3748 -0.4243
   57CHL1    C4 5329   6.053   2.148   3.825 -0.2010  0.4396 -0.4058
   57CHL1   H4A 5330   6.030   2.046   3.787  0.3715  0.7764 -1.7337
   57CHL1   H4B 5331   6.154   2.167   3.783  0.8178 -2.9338  0.1833
   57CHL1    C5 5332   6.047   2.160   3.978 -0.3579 -0.2863  0.2138
   57CHL1    C6 5333   6.163   2.183   4.049 -0.8022  0.1126  0.2119
   57CHL1    H6 5334   6.263   2.173   4.003 -0.0025 -0.5051  1.9816
   57CHL1    C7 5335   6.174   2.206   4.201 -0.0346  0.5319  0.2351
   57CHL1   H7A 5336   6.251   2.140   4.245 -0.2579 -1.0524 -1.5996
   57CHL1   H7B 5337   6.205   2.310   4.227  1.5094 -0.2437  1.6767
   57CHL1    C8 5338   6.043   2.172   4.283  0.3834 -0.3798  0.3147
   57CHL1    H8 5339   6.039   2.062   4.296 -1.5891 -0.7336 -2.4370
   57CHL1   C14 5340   6.042   2.242   4.420  0.5152  0.1337 -0.5961
   57CHL1   H14 5341   6.031   2.350   4.395  1.8205  0.5003  0.2935
   57CHL1   C15 5342   6.153   2.231   4.527  0.0431  0.0237 -0.1908
   57CHL1  H15A 5343   6.191   2.127   4.526 -1.9920 -0.7632  0.5569
   57CHL1  H15B 5344   6.246   2.280   4.491  2.2168 -3.2384  0.5818
   57CHL1   C16 5345   6.099   2.267   4.658  0.3324 -0.0035  0.8454
   57CHL1  H16A 5346   6.128   2.181   4.723  0.6874  0.7448  1.6999
   57CHL1  H16B 5347   6.141   2.363   4.695 -2.5676  1.4318  0.7316
   57CHL1   C17 5348   5.945   2.291   4.634  0.4010 -0.0455  0.4999
   57CHL1   H17 5349   5.953   2.397   4.602  1.0341 -0.0402  0.6541
   57CHL1   C13 5350   5.921   2.211   4.509 -0.0945  0.0730 -0.0029
   57CHL1   C18 5351   5.923   2.059   4.545 -0.5921  0.9837 -0.2248
   57CHL1  H18A 5352   5.911   1.991   4.457 -0.8275  0.8761 -0.1098
   57CHL1  H18B 5353   6.025   2.026   4.577  0.2538 -0.4366 -3.8428
   57CHL1  H18C 5354   5.851   2.027   4.623  2.7829 -1.2322  2.3030
   57CHL1   C12 5355   5.796   2.258   4.431 -0.0602 -0.2083  1.0367
   57CHL1  H12A 5356   5.712   2.204   4.479  1.0713 -1.3477  1.7702
   57CHL1  H12B 5357   5.787   2.369   4.432 -1.5541 -0.3035  0.7181
   57CHL1   C11 5358   5.799   2.198   4.288 -0.1395 -0.5345  0.2024
   57CHL1  H11A 5359   5.780   2.090   4.304  1.1953 -0.7675  0.3410
   57CHL1  H11B 5360   5.718   2.250   4.233 -0.9079 -1.7058  0.1804
   57CHL1    C9 5361   5.921   2.220   4.200 -0.4475  0.1337  0.0894
   57CHL1    H9 5362   5.933   2.329   4.184 -1.1014  0.0131 -1.2931
   57CHL1   C10 5363   5.914   2.168   4.051 -0.3391 -0.1162  0.4711
   57CHL1   C19 5364   5.844   2.028   4.054 -0.3715 -0.2488  0.6424
   57CHL1  H19A 5365   5.741   2.051   4.087  0.2150  0.8331  1.8160
   57CHL1  H19B 5366   5.851   1.981   3.953  0.5173 -1.4207  1.2184
   57CHL1  H19C 5367   5.886   1.957   4.129 -2.8968 -3.0666 -0.4153
   57CHL1    C1 5368   5.831   2.278   3.974  0.4672 -0.1976 -0.0751
   57CHL1   H1A 5369   5.727   2.275   4.015  1.9416  0.0489  4.2480
   57CHL1   H1B 5370   5.873   2.380   3.990  1.6776 -0.7003  0.0619
   57CHL1    C2 5371   5.817   2.244   3.828  0.2111  0.2276  0.2322
   57CHL1   H2A 5372   5.754   2.321   3.779  0.3816  0.7349  0.7956
   57CHL1   H2B 5373   5.767   2.146   3.814 -2.6715  1.3458  1.7974
   57CHL1   C20 5374   5.862   2.266   4.760  0.2922 -0.3358 -0.7146
   57CHL1   H20 5375   5.836   2.161   4.783  1.5835 -0.1889  1.7531
   57CHL1   C21 5376   5.729   2.350   4.749  0.1596 -0.1582  0.4046
   57CHL1  H21A 5377   5.757   2.458   4.748  0.7067 -0.2219 -2.6200
   57CHL1  H21B 5378   5.648   2.347   4.826 -1.4643  1.5602 -1.1117
   57CHL1  H21C 5379   5.686   2.327   4.649 -1.7410 -0.6324  1.2846
   57CHL1   C22 5380   5.945   2.315   4.892  0.2834 -0.3974 -0.0997
   57CHL1  H22A 5381   6.042   2.263   4.908  2.3166  2.5408 -1.7748
   57CHL1  H22B 5382   5.975   2.419   4.865 -0.5156 -0.5580 -1.7701
   57CHL1   C23 5383   5.860   2.320   5.023 -0.7366 -0.0684  0.2424
   57CHL1  H23A 5384   5.769   2.380   5.004 -1.5613 -1.7619 -1.5854
   57CHL1  H23B 5385   5.823   2.217   5.046  0.7329 -1.7511 -3.8049
   57CHL1   C24 5386   5.929   2.382   5.151  0.1983 -0.4423 -0.2760
   57CHL1  H24A 5387   5.998   2.301   5.184  0.9814  0.5663  0.6153
   57CHL1  H24B 5388   5.983   2.471   5.113  0.4261 -1.2251 -1.8696
   57CHL1   C25 5389   5.838   2.413   5.270 -0.0302  0.3159  0.3064
   57CHL1   H25 5390   5.749   2.464   5.227 -0.0430 -0.2944 -0.3946
   57CHL1   C26 5391   5.764   2.301   5.343 -0.9029 -0.7865 -0.5300
   57CHL1  H26A 5392   5.728   2.228   5.267 -0.9058  0.7581 -2.0763
   57CHL1  H26B 5393   5.848   2.257   5.401  0.5255  0.3863 -1.6199
   57CHL1  H26C 5394   5.685   2.342   5.409 -0.9038 -0.7370 -0.5619
   57CHL1   C27 5395   5.894   2.515   5.368 -0.0818  0.2445 -0.3864
   57CHL1  H27A 5396   5.917   2.619   5.334  2.3313  0.2499  0.9779
   57CHL1  H27B 5397   5.826   2.533   5.455  0.6301 -1.2360  0.5195
   57CHL1  H27C 5398   5.986   2.475   5.415  0.5767  0.6180 -1.3241
   58CHL1    C3 5399   4.872   1.676   3.592 -0.0779  0.1198 -1.1986
   58CHL1    H3 5400   4.792   1.599   3.590 -1.3137  1.3330 -0.4153
   58CHL1    O3 5401   4.909   1.691   3.456 -0.1646 -0.2262 -0.0537
   58CHL1   H3' 5402   4.988   1.745   3.460 -1.1238  1.3926 -1.4557
   58CHL1    C4 5403   4.814   1.806   3.646 -0.0551  0.0772 -0.5889
   58CHL1   H4A 5404   4.879   1.882   3.598 -0.1879 -1.8807 -4.2173
   58CHL1   H4B 5405   4.711   1.804   3.605 -1.2466 -2.5384  2.0644
   58CHL1    C5 5406   4.807   1.820   3.794 -0.2374 -0.0031 -0.3145
   58CHL1    C6 5407   4.703   1.872   3.859 -0.6962 -0.1423  0.1643
   58CHL1    H6 5408   4.612   1.896   3.802 -2.2368 -1.4006  1.9840
   58CHL1    C7 5409   4.692   1.898   4.006  0.5068 -0.6523 -0.3715
   58CHL1   H7A 5410   4.661   2.003   4.025 -2.0727 -1.4120 -0.0118
   58CHL1   H7B 5411   4.610   1.839   4.051  1.2210 -0.9650  0.5400
   58CHL1    C8 5412   4.825   1.869   4.074  0.1916  0.3620 -0.7736
   58CHL1    H8 5413   4.887   1.961   4.068 -0.7797  1.4176  2.8893
   58CHL1   C14 5414   4.809   1.857   4.226  0.1700 -0.5712 -0.0787
   58CHL1   H14 5415   4.750   1.763   4.228 -1.2179  0.1892 -1.7198
   58CHL1   C15 5416   4.724   1.960   4.302  0.3040  0.4100  0.0111
   58CHL1  H15A 5417   4.754   2.066   4.287  1.2145 -0.1071 -2.4497
   58CHL1  H15B 5418   4.613   1.949   4.292  0.1419  0.0151  1.9397
   58CHL1   C16 5419   4.763   1.920   4.445 -0.1860 -0.2215 -0.0273
   58CHL1  H16A 5420   4.781   2.015   4.501 -3.8775  0.4374  0.2441
   58CHL1  H16B 5421   4.679   1.864   4.491  0.0905 -1.2561 -0.7456
   58CHL1   C17 5422   4.893   1.827   4.444  0.2110  0.1725 -0.1673
   58CHL1   H17 5423   4.842   1.731   4.465 -2.0956  0.6770 -2.9304
   58CHL1   C13 5424   4.944   1.833   4.298  0.0943 -0.1419  0.1702
   58CHL1   C18 5425   5.040   1.956   4.293 -0.2764  0.3654  0.0336
   58CHL1  H18A 5426   4.981   2.045   4.325  0.5175  0.9229 -0.0203
   58CHL1  H18B 5427   5.132   1.937   4.352  1.1382  0.9128 -1.8829
   58CHL1  H18C 5428   5.074   1.983   4.190 -1.6122 -1.0995 -0.8328
   58CHL1   C12 5429   5.002   1.701   4.250  1.1437 -0.1584  0.1405
   58CHL1  H12A 5430   5.101   1.685   4.298  1.5349  2.1533  0.1909
   58CHL1  H12B 5431   4.946   1.607   4.270  0.6544  0.4174  1.6402
   58CHL1   C11 5432   5.019   1.699   4.100 -0.0350  0.1472 -0.3913
   58CHL1  H11A 5433   5.099   1.770   4.071  1.2538 -0.3457  1.7044
   58CHL1  H11B 5434   5.054   1.600   4.063 -0.9683  0.6689 -2.8535
   58CHL1    C9 5435   4.895   1.747   4.023  0.0703  0.1730 -0.0084
   58CHL1    H9 5436   4.830   1.657   4.031  0.7453 -0.3085  0.1741
   58CHL1   C10 5437   4.928   1.761   3.870  0.2773  0.3416 -0.2216
   58CHL1   C19 5438   5.039   1.873   3.843  0.2892  0.4948  0.1469
   58CHL1  H19A 5439   5.041   1.906   3.737  1.1096 -0.5029 -0.1616
   58CHL1  H19B 5440   5.017   1.959   3.910 -1.3804  1.5734 -1.6860
   58CHL1  H19C 5441   5.142   1.831   3.846  0.3028  0.0729 -2.7707
   58CHL1    C1 5442   4.965   1.627   3.813 -0.0042  0.0970 -0.4409
   58CHL1   H1A 5443   5.056   1.580   3.857 -0.2634  0.5160  0.5702
   58CHL1   H1B 5444   4.883   1.559   3.842  0.7224 -0.8342 -0.5078
   58CHL1    C2 5445   4.992   1.632   3.665  0.2804  0.4291  0.4277
   58CHL1   H2A 5446   5.033   1.536   3.627  1.7372  0.9756  0.5865
   58CHL1   H2B 5447   5.073   1.706   3.658  0.2786  0.7073  2.6351
   58CHL1   C20 5448   4.984   1.857   4.564  0.7944  0.6155 -0.4709
   58CHL1   H20 5449   5.020   1.962   4.569  1.1169  0.4634  1.0064
   58CHL1   C21 5450   5.110   1.761   4.561  0.1362  0.1881  0.7743
   58CHL1  H21A 5451   5.082   1.654   4.549 -0.3697  0.4629 -0.6873
   58CHL1  H21B 5452   5.175   1.775   4.650  0.0240 -1.5897  1.1781
   58CHL1  H21C 5453   5.174   1.780   4.473  0.3632  0.5885  1.0210
   58CHL1   C22 5454   4.920   1.845   4.704 -0.1776  1.0667  0.0025
   58CHL1  H22A 5455   4.998   1.873   4.778 -0.0446  0.4020  0.1266
   58CHL1  H22B 5456   4.838   1.920   4.705  0.0938  1.3898  2.1889
   58CHL1   C23 5457   4.859   1.711   4.746  0.1462  0.6350  0.3520
   58CHL1  H23A 5458   4.777   1.677   4.678  1.9501 -0.4526 -1.3767
   58CHL1  H23B 5459   4.936   1.631   4.745  0.4275  0.9072  0.4578
   58CHL1   C24 5460   4.810   1.714   4.898  0.3603 -0.3981 -0.0637
   58CHL1  H24A 5461   4.893   1.721   4.972 -1.3895 -0.1384  2.0037
   58CHL1  H24B 5462   4.757   1.811   4.909 -1.3538 -1.4254  1.2110
   58CHL1   C25 5463   4.715   1.601   4.945  0.0703 -0.1797 -0.0486
   58CHL1   H25 5464   4.615   1.629   4.907 -0.5313  0.9775  2.2130
   58CHL1   C26 5465   4.761   1.458   4.905  0.3676  0.3390 -0.7777
   58CHL1  H26A 5466   4.678   1.388   4.931  0.0217  1.0287  0.0582
   58CHL1  H26B 5467   4.793   1.449   4.800  0.5581  1.1488 -0.7972
   58CHL1  H26C 5468   4.839   1.421   4.975 -1.6835 -1.9762  0.4872
   58CHL1   C27 5469   4.693   1.604   5.102  0.1081  0.2213 -0.3043
   58CHL1  H27A 5470   4.631   1.694   5.122 -0.4521 -0.2832  0.2612
   58CHL1  H27B 5471   4.638   1.515   5.139  1.3941  0.9431  3.8531
   58CHL1  H27C 5472   4.790   1.603   5.156 -1.6177 -4.8490  3.3976
   59CHL1    C3 5473   4.194   1.732   3.800  0.5668  0.2163  0.6048
   59CHL1    H3 5474   4.104   1.781   3.843  0.0989  0.3643 -0.5053
   59CHL1    O3 5475   4.193   1.774   3.661  0.6349 -0.3439  0.0927
   59CHL1   H3' 5476   4.098   1.768   3.653  0.3562  3.0732 -0.7588
   59CHL1    C4 5477   4.318   1.786   3.872 -0.6884  0.1703 -0.7825
   59CHL1   H4A 5478   4.411   1.764   3.815 -0.7115 -1.1228 -0.3484
   59CHL1   H4B 5479   4.314   1.896   3.854  0.9347  0.1938 -1.1538
   59CHL1    C5 5480   4.322   1.747   4.016  0.1466 -0.1466 -0.0219
   59CHL1    C6 5481   4.304   1.835   4.111 -0.2540 -0.0480  0.2305
   59CHL1    H6 5482   4.284   1.940   4.084 -1.0922 -0.1261  0.5194
   59CHL1    C7 5483   4.312   1.809   4.260 -0.1624 -0.2708 -0.3746
   59CHL1   H7A 5484   4.370   1.885   4.316 -1.7719  1.8667 -1.4889
   59CHL1   H7B 5485   4.210   1.813   4.305 -0.5175 -0.8546 -1.1058
   59CHL1    C8 5486   4.372   1.668   4.284 -0.0109 -0.1647  0.1394
   59CHL1    H8 5487   4.482   1.681   4.271  0.4525 -0.7766  2.8135
   59CHL1   C14 5488   4.339   1.617   4.427 -0.6074 -0.2567  0.6407
   59CHL1   H14 5489   4.232   1.587   4.418 -0.0047 -1.7442 -3.1863
   59CHL1   C15 5490   4.333   1.715   4.548  0.7213  0.0121  0.2403
   59CHL1  H15A 5491   4.418   1.786   4.539  0.5789  0.0180 -1.4609
   59CHL1  H15B 5492   4.246   1.783   4.546 -0.2155 -1.1524 -0.7566
   59CHL1   C16 5493   4.344   1.626   4.672 -0.0362 -0.3195 -0.0367
   59CHL1  H16A 5494   4.439   1.655   4.721  0.9226  0.6539 -2.3159
   59CHL1  H16B 5495   4.248   1.635   4.728  0.2083 -0.4976  0.4142
   59CHL1   C17 5496   4.361   1.488   4.621 -0.1680 -0.5472  0.3817
   59CHL1   H17 5497   4.263   1.435   4.619 -0.3830 -0.1257 -0.9326
   59CHL1   C13 5498   4.412   1.496   4.474  0.6732  0.2111 -0.5813
   59CHL1   C18 5499   4.565   1.528   4.465  0.7083  0.2966  0.6616
   59CHL1  H18A 5500   4.632   1.457   4.518  2.2771  0.3611 -1.1516
   59CHL1  H18B 5501   4.587   1.543   4.357 -2.0209  0.2994  0.0279
   59CHL1  H18C 5502   4.580   1.629   4.509  1.5084  1.5479 -2.2565
   59CHL1   C12 5503   4.371   1.378   4.379  0.3846 -0.2857 -0.4181
   59CHL1  H12A 5504   4.443   1.295   4.394 -1.2648 -1.9136 -1.1753
   59CHL1  H12B 5505   4.272   1.331   4.399  0.7494 -1.1842 -0.6899
   59CHL1   C11 5506   4.380   1.421   4.232  0.3584  0.1019 -0.3800
   59CHL1  H11A 5507   4.486   1.418   4.198  0.4967  0.0926  0.0540
   59CHL1  H11B 5508   4.330   1.343   4.170 -1.0452  0.2712  0.5150
   59CHL1    C9 5509   4.319   1.554   4.190 -0.0189  0.4330 -0.7432
   59CHL1    H9 5510   4.210   1.561   4.210 -0.3347  5.1699 -2.7607
   59CHL1   C10 5511   4.325   1.599   4.037 -1.1645  0.5306 -0.1547
   59CHL1   C19 5512   4.465   1.560   3.986 -0.0906  0.1590  0.1858
   59CHL1  H19A 5513   4.478   1.451   3.971  1.1360  0.4990 -1.5835
   59CHL1  H19B 5514   4.487   1.578   3.878  4.2106  0.2030  0.8880
   59CHL1  H19C 5515   4.549   1.601   4.047 -0.7766  0.0503  1.2199
   59CHL1    C1 5516   4.220   1.528   3.950 -0.1425 -0.3366  0.1050
   59CHL1   H1A 5517   4.260   1.424   3.947  0.3303 -0.1375 -0.7470
   59CHL1   H1B 5518   4.127   1.529   4.012 -0.5257  2.5900 -0.3718
   59CHL1    C2 5519   4.188   1.580   3.805  0.2980 -0.1337 -0.0716
   59CHL1   H2A 5520   4.087   1.551   3.769  0.2791  0.5580 -0.5842
   59CHL1   H2B 5521   4.259   1.530   3.736  0.6417 -0.4611  0.5126
   59CHL1   C20 5522   4.451   1.406   4.722 -0.3514 -0.1751  0.0086
   59CHL1   H20 5523   4.548   1.460   4.728 -0.5740  0.1154  1.3481
   59CHL1   C21 5524   4.471   1.260   4.681 -0.3009  0.7015 -0.5446
   59CHL1  H21A 5525   4.548   1.252   4.601  0.9282  0.0897  0.6617
   59CHL1  H21B 5526   4.377   1.218   4.641 -0.3734 -0.1778  0.5351
   59CHL1  H21C 5527   4.501   1.202   4.770 -0.7378  0.9053 -0.2644
   59CHL1   C22 5528   4.391   1.406   4.866 -0.0883  0.0429 -0.5579
   59CHL1  H22A 5529   4.455   1.337   4.924  1.0572  0.4100 -1.3370
   59CHL1  H22B 5530   4.388   1.509   4.907 -3.9998 -0.5941  1.2132
   59CHL1   C23 5531   4.248   1.344   4.867 -0.6409 -1.0068  0.2909
   59CHL1  H23A 5532   4.180   1.422   4.826 -0.4778 -0.8736  0.2706
   59CHL1  H23B 5533   4.250   1.249   4.810 -0.7651 -0.6266 -0.3502
   59CHL1   C24 5534   4.202   1.314   5.008 -0.0014  0.1928 -0.0616
   59CHL1  H24A 5535   4.269   1.244   5.063  0.6803  1.3487  0.6066
   59CHL1  H24B 5536   4.197   1.408   5.066  1.1613  0.9280 -1.1246
   59CHL1   C25 5537   4.061   1.254   5.010 -0.5482 -0.4286 -0.5869
   59CHL1   H25 5538   3.996   1.329   4.960 -1.4907 -1.2278 -0.5905
   59CHL1   C26 5539   4.041   1.132   4.919  0.1790 -0.3418 -0.4769
   59CHL1  H26A 5540   4.131   1.069   4.933 -1.1551 -2.3352 -0.4044
   59CHL1  H26B 5541   3.955   1.068   4.947  0.8193 -0.3038  1.8383
   59CHL1  H26C 5542   4.037   1.164   4.813 -1.9151  0.0777 -0.3222
   59CHL1   C27 5543   4.021   1.231   5.160  0.5187  0.6995  0.0794
   59CHL1  H27A 5544   4.078   1.141   5.193 -0.2544 -0.0990 -0.6967
   59CHL1  H27B 5545   4.039   1.312   5.233  2.2545 -0.5353  1.1024
   59CHL1  H27C 5546   3.914   1.200   5.163  1.5644 -3.6365  2.3131
   60CHL1    C3 5547   4.675   0.247   3.583  0.8454 -0.1669 -0.0632
   60CHL1    H3 5548   4.653   0.356   3.583 -2.7779 -0.7529 -2.5566
   60CHL1    O3 5549   4.693   0.194   3.455  0.5922 -0.7564  0.4313
   60CHL1   H3' 5550   4.601   0.204   3.429  0.5796  0.4786  0.8873
   60CHL1    C4 5551   4.801   0.209   3.661  0.5462 -0.2574 -0.1552
   60CHL1   H4A 5552   4.824   0.101   3.648 -1.1558 -0.5942 -0.5086
   60CHL1   H4B 5553   4.877   0.276   3.614  1.6507 -1.1369  0.3197
   60CHL1    C5 5554   4.788   0.246   3.809 -0.9625 -0.1007 -0.0125
   60CHL1    C6 5555   4.888   0.322   3.869 -0.3890  0.2133 -0.2165
   60CHL1    H6 5556   4.977   0.365   3.821  0.7444 -0.1943  1.4263
   60CHL1    C7 5557   4.885   0.351   4.015 -0.6532 -0.4203  0.9906
   60CHL1   H7A 5558   4.985   0.335   4.061 -0.1609  0.5175  0.2898
   60CHL1   H7B 5559   4.867   0.456   4.046  2.5405 -0.0198  1.8776
   60CHL1    C8 5560   4.782   0.275   4.099 -1.2454 -0.2115 -0.1182
   60CHL1    H8 5561   4.825   0.174   4.116  1.7008  0.8786 -0.5296
   60CHL1   C14 5562   4.767   0.354   4.229 -0.2363 -0.0933 -0.4446
   60CHL1   H14 5563   4.729   0.456   4.209  1.6672  0.5073 -1.2830
   60CHL1   C15 5564   4.890   0.406   4.318  0.6163 -0.2152  0.0625
   60CHL1  H15A 5565   4.971   0.330   4.313  0.0696 -0.7334 -1.5660
   60CHL1  H15B 5566   4.928   0.508   4.293  4.1970 -1.7985 -1.6161
   60CHL1   C16 5567   4.832   0.408   4.465 -0.2826 -0.1131  0.6807
   60CHL1  H16A 5568   4.885   0.324   4.514 -0.5440 -2.2602 -2.4026
   60CHL1  H16B 5569   4.851   0.502   4.522  0.9921  0.7640 -1.1026
   60CHL1   C17 5570   4.683   0.377   4.446 -0.2826  1.0278 -0.5869
   60CHL1   H17 5571   4.648   0.475   4.410  2.0980  1.8392 -0.8706
   60CHL1   C13 5572   4.676   0.282   4.330  0.5397  0.3283 -0.3200
   60CHL1   C18 5573   4.724   0.140   4.371  1.4611  0.6869  0.0458
   60CHL1  H18A 5574   4.817   0.143   4.431  1.0366  1.3803  0.6714
   60CHL1  H18B 5575   4.654   0.082   4.436  1.6891 -0.4284 -0.6687
   60CHL1  H18C 5576   4.745   0.072   4.285 -1.8523  0.3497 -0.6531
   60CHL1   C12 5577   4.538   0.266   4.261 -0.4155 -0.0996 -0.3073
   60CHL1  H12A 5578   4.476   0.203   4.328 -0.0364  0.3378  0.4745
   60CHL1  H12B 5579   4.482   0.360   4.243 -0.8282 -0.2246  0.2729
   60CHL1   C11 5580   4.545   0.202   4.122 -0.1284 -0.2351 -0.3144
   60CHL1  H11A 5581   4.568   0.094   4.137 -1.7625 -0.9761 -2.6232
   60CHL1  H11B 5582   4.441   0.199   4.083 -0.7875  0.5758  1.2917
   60CHL1    C9 5583   4.647   0.265   4.032  0.1022 -0.1359  0.6774
   60CHL1    H9 5584   4.610   0.368   4.016  0.5476 -0.3825 -2.8441
   60CHL1   C10 5585   4.660   0.202   3.888  0.3114  1.0712 -0.0645
   60CHL1   C19 5586   4.654   0.050   3.900  0.7524  0.1469  0.2001
   60CHL1  H19A 5587   4.675   0.000   3.803  2.5088  0.1425  0.5456
   60CHL1  H19B 5588   4.737   0.026   3.971  0.9926 -1.2746 -0.5239
   60CHL1  H19C 5589   4.561   0.001   3.935  0.8116 -1.2733 -1.4792
   60CHL1    C1 5590   4.540   0.256   3.799 -0.4120 -0.1033 -0.0392
   60CHL1   H1A 5591   4.442   0.230   3.845  1.5977 -1.4520  3.8450
   60CHL1   H1B 5592   4.556   0.366   3.803 -2.3496  0.1948  0.5608
   60CHL1    C2 5593   4.552   0.196   3.656 -0.2444  0.1298 -0.1881
   60CHL1   H2A 5594   4.459   0.221   3.600 -0.6238  1.3010  0.9225
   60CHL1   H2B 5595   4.544   0.085   3.657 -1.2979  0.1934 -0.0698
   60CHL1   C20 5596   4.602   0.340   4.580 -0.8002  0.4632  0.0604
   60CHL1   H20 5597   4.521   0.268   4.558 -0.4298  0.0958 -0.0954
   60CHL1   C21 5598   4.540   0.467   4.639  0.0479  0.2887 -0.2710
   60CHL1  H21A 5599   4.621   0.542   4.631 -0.5073  0.6856 -3.9768
   60CHL1  H21B 5600   4.491   0.448   4.737  0.0345  1.6929  0.0174
   60CHL1  H21C 5601   4.448   0.508   4.590  0.0499  0.7120  0.0804
   60CHL1   C22 5602   4.689   0.269   4.689  0.6650 -0.6934 -0.0764
   60CHL1  H22A 5603   4.735   0.179   4.643  0.5505 -0.6176 -0.3382
   60CHL1  H22B 5604   4.772   0.338   4.715  0.9725 -1.0135 -0.1975
   60CHL1   C23 5605   4.620   0.234   4.815 -0.3821 -0.4641  0.2459
   60CHL1  H23A 5606   4.586   0.327   4.865  0.0987 -1.9339  3.5534
   60CHL1  H23B 5607   4.518   0.194   4.795 -1.0659  0.0337  2.4541
   60CHL1   C24 5608   4.690   0.133   4.905 -1.2863  0.3502  0.2837
   60CHL1  H24A 5609   4.641   0.130   5.005 -1.3541  0.6270  0.2602
   60CHL1  H24B 5610   4.704   0.033   4.858  1.8114  0.2158  1.2963
   60CHL1   C25 5611   4.835   0.168   4.948 -0.1152 -0.1507  0.4864
   60CHL1   H25 5612   4.893   0.197   4.857 -0.1214  2.3161  1.2102
   60CHL1   C26 5613   4.841   0.295   5.030  0.3388 -0.9360  0.5861
   60CHL1  H26A 5614   4.799   0.387   4.983 -0.2403 -1.4806  0.0166
   60CHL1  H26B 5615   4.800   0.283   5.133  2.3181  1.1223  1.7100
   60CHL1  H26C 5616   4.950   0.309   5.047  1.4784  1.4220 -5.8440
   60CHL1   C27 5617   4.900   0.057   5.016 -0.8245  0.1279  0.9455
   60CHL1  H27A 5618   5.003   0.083   5.049 -0.1790 -0.0167 -0.8202
   60CHL1  H27B 5619   4.843   0.020   5.104 -1.3097  1.1162  1.0562
   60CHL1  H27C 5620   4.898  -0.035   4.954  0.9603 -0.7783  2.1356
   61CHL1    C3 5621   4.968   4.069   3.051 -0.7998  0.3877 -0.6893
   61CHL1    H3 5622   4.881   4.000   3.043 -1.6217  1.2388  0.6426
   61CHL1    O3 5623   5.051   4.069   2.935  0.2280 -0.7872 -0.8084
   61CHL1   H3' 5624   5.125   4.009   2.941 -0.2580 -1.6369 -2.6764
   61CHL1    C4 5625   4.903   4.209   3.082 -0.1677  1.0972 -0.2195
   61CHL1   H4A 5626   4.979   4.290   3.081 -2.2726  3.1792 -0.4068
   61CHL1   H4B 5627   4.829   4.232   3.002 -0.9016 -1.2957 -0.3115
   61CHL1    C5 5628   4.845   4.210   3.223  0.0512 -0.3149 -0.5213
   61CHL1    C6 5629   4.720   4.240   3.244 -0.8866  0.9977  0.6342
   61CHL1    H6 5630   4.651   4.247   3.158 -0.7881 -3.0582  0.0328
   61CHL1    C7 5631   4.653   4.251   3.369  0.1482 -0.0910  0.0938
   61CHL1   H7A 5632   4.581   4.336   3.373  1.3546  1.1527 -2.4217
   61CHL1   H7B 5633   4.593   4.157   3.378 -1.5507  1.0014  0.6686
   61CHL1    C8 5634   4.757   4.263   3.492  0.2611  0.1754  0.5697
   61CHL1    H8 5635   4.815   4.357   3.480 -0.0420  1.0196  4.3208
   61CHL1   C14 5636   4.686   4.256   3.635  0.2396  0.1511 -0.3143
   61CHL1   H14 5637   4.646   4.153   3.628 -0.7905  0.2247  2.8828
   61CHL1   C15 5638   4.570   4.346   3.667  0.1155 -0.0389  0.1009
   61CHL1  H15A 5639   4.594   4.452   3.645 -1.4089  0.6381  1.4408
   61CHL1  H15B 5640   4.479   4.324   3.606  0.8913  0.3356 -1.2299
   61CHL1   C16 5641   4.552   4.342   3.823  0.0874  0.9455  0.4438
   61CHL1  H16A 5642   4.554   4.447   3.860  1.5443  1.4731 -1.0157
   61CHL1  H16B 5643   4.461   4.286   3.854  0.5416 -2.0455 -2.9070
   61CHL1   C17 5644   4.678   4.263   3.870  0.1577  0.3715 -0.2466
   61CHL1   H17 5645   4.643   4.157   3.868 -0.6549  0.5931  1.0159
   61CHL1   C13 5646   4.782   4.264   3.755 -0.5386 -0.1631 -0.2322
   61CHL1   C18 5647   4.860   4.396   3.757  0.4800  0.3180 -0.1926
   61CHL1  H18A 5648   4.793   4.474   3.800  1.8142  1.2775  0.2315
   61CHL1  H18B 5649   4.945   4.395   3.828 -2.0071  0.5334  3.0348
   61CHL1  H18C 5650   4.902   4.421   3.657 -0.8931  0.9018 -0.6468
   61CHL1   C12 5651   4.870   4.136   3.742 -0.1599 -0.2170 -0.3923
   61CHL1  H12A 5652   4.943   4.133   3.826  1.3437  1.2655 -1.5615
   61CHL1  H12B 5653   4.801   4.050   3.752 -0.0990 -0.0981  1.4559
   61CHL1   C11 5654   4.947   4.130   3.604 -0.7357 -0.4592  0.2515
   61CHL1  H11A 5655   5.014   4.218   3.604 -1.9110  0.5292 -1.9728
   61CHL1  H11B 5656   5.024   4.051   3.598  1.2539  1.2800  1.6076
   61CHL1    C9 5657   4.860   4.151   3.478  0.2660  0.0223  0.1289
   61CHL1    H9 5658   4.795   4.061   3.475 -0.8461  0.8032  0.1655
   61CHL1   C10 5659   4.933   4.166   3.341  0.0943  0.2261  0.5640
   61CHL1   C19 5660   5.041   4.277   3.365 -1.0602  0.0715  0.6343
   61CHL1  H19A 5661   5.110   4.284   3.278 -0.4202  0.7221  1.1795
   61CHL1  H19B 5662   5.007   4.383   3.365  3.3634  1.7011  0.4105
   61CHL1  H19C 5663   5.118   4.263   3.444  1.0188  1.6326 -0.9853
   61CHL1    C1 5664   4.989   4.024   3.304 -0.0729  0.2566  0.1913
   61CHL1   H1A 5665   5.061   3.992   3.381  0.1581 -1.0007 -0.5227
   61CHL1   H1B 5666   4.909   3.947   3.301 -0.5670  0.7828 -1.1558
   61CHL1    C2 5667   5.062   4.016   3.165 -0.1871 -0.0775 -0.2000
   61CHL1   H2A 5668   5.104   3.914   3.150  2.8226  0.8645  1.0164
   61CHL1   H2B 5669   5.149   4.084   3.175 -0.9273  0.6870  1.3801
   61CHL1   C20 5670   4.715   4.293   4.021 -0.1086 -0.7809  0.0896
   61CHL1   H20 5671   4.771   4.389   4.027 -1.1020 -0.0733 -1.3706
   61CHL1   C21 5672   4.803   4.180   4.081 -0.6930 -0.2627 -0.1582
   61CHL1  H21A 5673   4.900   4.170   4.027 -0.7527 -0.6203 -0.1975
   61CHL1  H21B 5674   4.749   4.083   4.087  0.4430 -0.9370 -0.5445
   61CHL1  H21C 5675   4.842   4.217   4.179 -0.3403 -0.0330 -0.3820
   61CHL1   C22 5676   4.578   4.305   4.103 -0.4494  0.2729 -0.5107
   61CHL1  H22A 5677   4.512   4.391   4.079  1.1105  1.3143 -1.1680
   61CHL1  H22B 5678   4.526   4.209   4.083  1.2596 -0.7773 -0.1332
   61CHL1   C23 5679   4.605   4.307   4.261 -0.3890  1.1895 -0.3050
   61CHL1  H23A 5680   4.629   4.204   4.295 -0.4909  1.6408  1.2095
   61CHL1  H23B 5681   4.686   4.375   4.295  0.3038 -0.3230  1.2382
   61CHL1   C24 5682   4.470   4.333   4.338  0.3385  0.5317  0.1915
   61CHL1  H24A 5683   4.425   4.427   4.300  1.7600  0.0905 -2.9033
   61CHL1  H24B 5684   4.404   4.250   4.306 -1.0581  1.7680 -0.1915
   61CHL1   C25 5685   4.479   4.321   4.494  0.6007  0.6560 -0.1116
   61CHL1   H25 5686   4.571   4.368   4.533  0.0126  1.6286  0.1407
   61CHL1   C26 5687   4.349   4.385   4.552  0.7053 -0.5943 -0.1881
   61CHL1  H26A 5688   4.254   4.341   4.513 -1.5246  1.8485  2.0638
   61CHL1  H26B 5689   4.348   4.374   4.663  0.5188  2.6073  0.2237
   61CHL1  H26C 5690   4.335   4.492   4.528 -0.1047 -0.0351  2.3938
   61CHL1   C27 5691   4.496   4.173   4.539 -0.9082  0.1863 -0.3439
   61CHL1  H27A 5692   4.465   4.160   4.644  2.1011  1.0384  0.7434
   61CHL1  H27B 5693   4.444   4.109   4.464  0.9911  0.8320 -2.3137
   61CHL1  H27C 5694   4.605   4.155   4.525 -1.0958 -0.3942 -1.1837
   62CHL1    C3 5695   5.435   2.797   3.630 -1.2520  0.7199 -0.0611
   62CHL1    H3 5696   5.338   2.848   3.648 -1.3046  0.3890  0.6363
   62CHL1    O3 5697   5.504   2.817   3.499  0.6198 -0.1007  0.2307
   62CHL1   H3' 5698   5.581   2.760   3.504  0.3963 -0.2734  3.1594
   62CHL1    C4 5699   5.527   2.841   3.746  0.1387 -0.3561 -0.1415
   62CHL1   H4A 5700   5.626   2.795   3.727 -0.0488  0.1184 -2.5416
   62CHL1   H4B 5701   5.533   2.949   3.724 -1.7693 -0.0284  0.6937
   62CHL1    C5 5702   5.483   2.803   3.885  0.2558 -0.0480 -0.1507
   62CHL1    C6 5703   5.461   2.892   3.985  0.8078  0.7218 -1.0600
   62CHL1    H6 5704   5.484   2.999   3.971 -1.2701  1.4763  0.7255
   62CHL1    C7 5705   5.409   2.857   4.128  0.0952 -0.0186  0.1362
   62CHL1   H7A 5706   5.465   2.919   4.201  0.7854  0.8613 -1.0963
   62CHL1   H7B 5707   5.303   2.881   4.147  0.3012  0.5451  0.6248
   62CHL1    C8 5708   5.439   2.704   4.159  0.2088 -0.0038 -0.1228
   62CHL1    H8 5709   5.549   2.690   4.154  0.0626 -0.7257 -3.0151
   62CHL1   C14 5710   5.374   2.664   4.295  0.4775 -0.2220 -0.3196
   62CHL1   H14 5711   5.268   2.695   4.281 -0.0386  1.4527  4.8718
   62CHL1   C15 5712   5.417   2.739   4.424  0.3445 -0.2135  0.0182
   62CHL1  H15A 5713   5.525   2.763   4.436  0.3020 -0.8654  2.1544
   62CHL1  H15B 5714   5.374   2.841   4.422  2.2330  0.7598  2.7724
   62CHL1   C16 5715   5.363   2.653   4.533  0.4246  0.6299 -0.3087
   62CHL1  H16A 5716   5.457   2.625   4.585  0.5123 -0.0874 -0.8417
   62CHL1  H16B 5717   5.303   2.704   4.612 -2.1792 -0.1784 -1.6520
   62CHL1   C17 5718   5.312   2.523   4.474  0.0584 -0.2768  0.3429
   62CHL1   H17 5719   5.203   2.542   4.479  0.1143 -0.2543  1.7917
   62CHL1   C13 5720   5.378   2.518   4.334  0.8332  0.1962 -0.2928
   62CHL1   C18 5721   5.520   2.469   4.347  0.4715 -0.0740 -0.2099
   62CHL1  H18A 5722   5.517   2.361   4.371  1.9095 -0.0923 -0.0178
   62CHL1  H18B 5723   5.578   2.479   4.252 -2.0181  2.0397 -1.6339
   62CHL1  H18C 5724   5.583   2.517   4.425 -0.7087  1.1902  0.0173
   62CHL1   C12 5725   5.306   2.442   4.212 -0.2384 -0.1865 -0.4444
   62CHL1  H12A 5726   5.313   2.338   4.251 -2.6953 -0.5022 -0.7433
   62CHL1  H12B 5727   5.199   2.471   4.217  0.0414  0.7834  0.0554
   62CHL1   C11 5728   5.369   2.462   4.076 -1.3713 -0.6919  0.0831
   62CHL1  H11A 5729   5.467   2.411   4.062 -1.1002 -0.6700  1.6676
   62CHL1  H11B 5730   5.307   2.432   3.989 -0.6141  1.9529 -1.4738
   62CHL1    C9 5731   5.394   2.613   4.039 -0.5211  0.3266 -0.1969
   62CHL1    H9 5732   5.290   2.651   4.039 -0.3592  0.8007  0.5946
   62CHL1   C10 5733   5.450   2.652   3.895  0.0167  0.2809  0.4954
   62CHL1   C19 5734   5.592   2.577   3.881 -0.3219  0.1922  0.2540
   62CHL1  H19A 5735   5.654   2.619   3.799 -0.1086 -0.3460  0.1317
   62CHL1  H19B 5736   5.657   2.580   3.971 -0.7424  1.8773  0.5288
   62CHL1  H19C 5737   5.561   2.473   3.855 -3.3668  0.7274  1.3447
   62CHL1    C1 5738   5.355   2.608   3.777 -0.3331  0.2678  0.7907
   62CHL1   H1A 5739   5.330   2.500   3.774 -1.5098  0.5316  0.3888
   62CHL1   H1B 5740   5.260   2.664   3.790 -0.3337  0.7428 -0.9766
   62CHL1    C2 5741   5.405   2.642   3.637  0.6794 -0.9370  0.9082
   62CHL1   H2A 5742   5.326   2.617   3.563  0.3477 -0.3392  1.0564
   62CHL1   H2B 5743   5.499   2.592   3.604  1.0150  0.7986 -0.9475
   62CHL1   C20 5744   5.332   2.396   4.574  0.1517 -0.4343  0.3908
   62CHL1   H20 5745   5.441   2.376   4.582  0.6065  0.1648 -2.7921
   62CHL1   C21 5746   5.258   2.274   4.504 -0.2926  0.4580 -0.3576
   62CHL1  H21A 5747   5.201   2.219   4.582  1.0266 -0.8144 -0.2694
   62CHL1  H21B 5748   5.331   2.200   4.466 -1.9432 -0.5044 -1.8036
   62CHL1  H21C 5749   5.187   2.305   4.424  0.2588  2.4400 -0.1450
   62CHL1   C22 5750   5.276   2.418   4.719  0.2243 -0.1567  0.2817
   62CHL1  H22A 5751   5.318   2.513   4.758  1.0698  0.3344 -1.7198
   62CHL1  H22B 5752   5.165   2.424   4.726  0.0869 -1.5148 -0.3634
   62CHL1   C23 5753   5.310   2.305   4.821 -0.5829  0.0994 -0.5403
   62CHL1  H23A 5754   5.271   2.204   4.797  0.3483 -0.0577 -1.4625
   62CHL1  H23B 5755   5.422   2.305   4.819 -0.4648  2.8329  0.7826
   62CHL1   C24 5756   5.269   2.339   4.965  0.7093 -0.1204 -0.2962
   62CHL1  H24A 5757   5.312   2.436   4.999 -0.1666  1.3366 -3.0752
   62CHL1  H24B 5758   5.160   2.359   4.965  0.5747 -0.8311 -0.1491
   62CHL1   C25 5759   5.286   2.234   5.072 -1.0161  0.2060  0.3750
   62CHL1   H25 5760   5.293   2.138   5.017  0.8014  1.3980 -1.6138
   62CHL1   C26 5761   5.425   2.241   5.135  0.2606  0.5408 -0.2599
   62CHL1  H26A 5762   5.434   2.341   5.182  2.5212  1.2685 -2.0210
   62CHL1  H26B 5763   5.432   2.160   5.210 -0.4166  0.0808 -0.6876
   62CHL1  H26C 5764   5.510   2.239   5.064  0.8642 -0.5996  0.4560
   62CHL1   C27 5765   5.171   2.241   5.175 -0.8952  0.1382  0.1671
   62CHL1  H27A 5766   5.174   2.330   5.240  0.2261 -0.7817  1.4311
   62CHL1  H27B 5767   5.067   2.235   5.136 -0.9641 -1.8706  0.5102
   62CHL1  H27C 5768   5.178   2.150   5.239  0.7132  0.0487 -0.0846
   63CHL1    C3 5769   5.820   6.710   3.714  0.2026 -0.4543 -0.1409
   63CHL1    H3 5770   5.844   6.601   3.714  1.3197 -0.2557  1.7672
   63CHL1    O3 5771   5.788   6.749   3.586  0.8797  0.5310  0.5237
   63CHL1   H3' 5772   5.722   6.818   3.592 -0.2621 -0.6105  2.3182
   63CHL1    C4 5773   5.702   6.746   3.811 -0.2454 -0.1205 -0.6174
   63CHL1   H4A 5774   5.664   6.848   3.792  1.5038  0.3666 -1.8255
   63CHL1   H4B 5775   5.620   6.673   3.793 -0.6056  0.6741 -2.4693
   63CHL1    C5 5776   5.737   6.755   3.953 -0.1441  0.3242  0.4095
   63CHL1    C6 5777   5.665   6.679   4.044 -0.0815 -0.0270 -0.4756
   63CHL1    H6 5778   5.580   6.617   4.014  0.1534 -0.7165  0.2512
   63CHL1    C7 5779   5.692   6.667   4.195  0.2878  0.5639  0.2150
   63CHL1   H7A 5780   5.605   6.692   4.259 -0.4028  1.3835 -1.0041
   63CHL1   H7B 5781   5.732   6.566   4.220 -1.0470  0.5966  2.8716
   63CHL1    C8 5782   5.781   6.782   4.243  0.0469 -0.1828  0.7103
   63CHL1    H8 5783   5.723   6.877   4.252  1.9611  0.9688  1.6163
   63CHL1   C14 5784   5.848   6.747   4.378  0.6311 -0.1938 -0.1435
   63CHL1   H14 5785   5.912   6.659   4.354  0.1291 -0.2591 -1.3127
   63CHL1   C15 5786   5.747   6.711   4.487  1.1287  0.5991 -0.3364
   63CHL1  H15A 5787   5.684   6.802   4.483 -0.8877 -0.7321 -0.4534
   63CHL1  H15B 5788   5.680   6.623   4.476 -1.1982  2.2168  0.1296
   63CHL1   C16 5789   5.829   6.712   4.614  0.4484 -0.7857 -0.4271
   63CHL1  H16A 5790   5.764   6.749   4.696 -0.6025 -1.4664 -0.9427
   63CHL1  H16B 5791   5.867   6.611   4.640  1.3540  0.3313  3.2246
   63CHL1   C17 5792   5.959   6.797   4.586  0.4065  0.5639 -0.3003
   63CHL1   H17 5793   6.042   6.727   4.563  0.4667  0.7578 -0.6889
   63CHL1   C13 5794   5.939   6.860   4.442  0.0686 -0.7074 -0.8625
   63CHL1   C18 5795   5.854   6.993   4.459 -0.0557 -0.1827  0.1987
   63CHL1  H18A 5796   5.773   6.975   4.534  0.1055  0.2925  0.4903
   63CHL1  H18B 5797   5.913   7.084   4.484  0.6705 -1.4419  3.5903
   63CHL1  H18C 5798   5.800   7.014   4.364  1.6465 -1.4793 -1.1246
   63CHL1   C12 5799   6.055   6.875   4.342 -0.2675 -0.1671 -1.0160
   63CHL1  H12A 5800   6.125   6.954   4.377 -1.7595  0.7989 -0.1097
   63CHL1  H12B 5801   6.105   6.778   4.323  0.1878 -0.3787  1.0279
   63CHL1   C11 5802   6.007   6.906   4.196  0.4374 -0.4178 -0.1195
   63CHL1  H11A 5803   5.956   7.005   4.191 -0.2132 -0.7684 -0.5987
   63CHL1  H11B 5804   6.091   6.898   4.124  0.3682 -2.4712 -0.0240
   63CHL1    C9 5805   5.902   6.806   4.143  0.0847  0.5977 -0.2404
   63CHL1    H9 5806   5.953   6.708   4.134 -0.0656  0.5428 -0.4851
   63CHL1   C10 5807   5.858   6.834   3.993 -0.6865 -0.1588 -0.2007
   63CHL1   C19 5808   5.833   6.985   3.980  0.2613  0.4015  0.5872
   63CHL1  H19A 5809   5.806   7.008   3.875 -1.6985 -1.6550  0.5656
   63CHL1  H19B 5810   5.754   7.026   4.047 -0.5566  0.9946 -0.6879
   63CHL1  H19C 5811   5.931   7.035   3.991  0.3385  0.2453  0.6055
   63CHL1    C1 5812   5.973   6.786   3.896  0.0947  0.0163 -0.8658
   63CHL1   H1A 5813   6.064   6.842   3.927  0.0591  0.0945 -0.9043
   63CHL1   H1B 5814   5.990   6.678   3.918 -1.0794  0.1556  0.9069
   63CHL1    C2 5815   5.941   6.802   3.747 -0.0342  0.3427 -0.6819
   63CHL1   H2A 5816   6.019   6.784   3.670 -1.2405 -1.1064 -1.6404
   63CHL1   H2B 5817   5.903   6.906   3.747 -1.1466 -0.0035  1.7486
   63CHL1   C20 5818   5.999   6.880   4.701  0.7970 -0.1515 -0.4634
   63CHL1   H20 5819   5.922   6.958   4.718 -0.2566 -1.3952  0.7217
   63CHL1   C21 5820   6.133   6.940   4.674  0.3243 -0.3958 -0.4163
   63CHL1  H21A 5821   6.153   7.025   4.743  0.2601 -0.2529 -0.5729
   63CHL1  H21B 5822   6.139   6.985   4.573  0.1086  1.3821  0.3203
   63CHL1  H21C 5823   6.211   6.862   4.684  0.1507 -0.4580  0.6352
   63CHL1   C22 5824   6.011   6.804   4.836  0.1370  0.5792  0.1445
   63CHL1  H22A 5825   5.911   6.759   4.857 -0.0567  0.9812  0.0848
   63CHL1  H22B 5826   6.088   6.725   4.829  1.1693  1.6605 -0.9484
   63CHL1   C23 5827   6.047   6.901   4.950 -1.0665 -0.0526  0.4022
   63CHL1  H23A 5828   6.154   6.924   4.932 -0.8076 -0.4672  1.3508
   63CHL1  H23B 5829   5.990   6.995   4.936 -3.0110 -1.4692 -1.9322
   63CHL1   C24 5830   6.024   6.840   5.089  0.6769  0.5336  0.5096
   63CHL1  H24A 5831   5.923   6.794   5.087 -0.5165  2.9669 -2.1153
   63CHL1  H24B 5832   6.101   6.762   5.106  1.0881  1.0001  0.8022
   63CHL1   C25 5833   6.049   6.922   5.212  0.1130  0.2727  0.3962
   63CHL1   H25 5834   6.160   6.935   5.214  0.2557 -0.4593 -1.3513
   63CHL1   C26 5835   5.969   7.042   5.223  0.1436  0.1368  0.3014
   63CHL1  H26A 5836   5.990   7.100   5.315  0.2068  0.6974 -0.0579
   63CHL1  H26B 5837   5.998   7.117   5.146 -0.6211  1.5134  1.2998
   63CHL1  H26C 5838   5.860   7.028   5.203  0.4900 -0.7429 -1.0977
   63CHL1   C27 5839   6.018   6.830   5.333 -0.0766  0.4124  0.3793
   63CHL1  H27A 5840   6.108   6.779   5.373 -0.6334 -0.2772  0.7901
   63CHL1  H27B 5841   5.961   6.883   5.413 -0.9044 -1.3253  0.9937
   63CHL1  H27C 5842   5.957   6.743   5.301  0.6124  0.2867 -0.6494
   64CHL1    C3 5843   1.689   0.812   3.996 -0.3415 -0.2627 -0.2342
   64CHL1    H3 5844   1.759   0.730   4.026 -0.9967 -0.8821 -0.3560
   64CHL1    O3 5845   1.635   0.795   3.869  0.3346  0.5021  0.0883
   64CHL1   H3' 5846   1.577   0.871   3.857  3.5858  4.0995  3.8566
   64CHL1    C4 5847   1.572   0.806   4.101 -0.3255 -0.4702 -0.2700
   64CHL1   H4A 5848   1.499   0.881   4.060 -0.3553 -1.0495 -1.3250
   64CHL1   H4B 5849   1.507   0.716   4.100  0.8425 -1.3327 -0.7009
   64CHL1    C5 5850   1.622   0.834   4.238 -1.1221  0.0193 -0.6414
   64CHL1    C6 5851   1.609   0.746   4.346  0.2405  0.0413  0.2211
   64CHL1    H6 5852   1.546   0.657   4.335 -0.0996  0.3627 -0.5213
   64CHL1    C7 5853   1.649   0.762   4.485  0.4661  0.2151 -0.1557
   64CHL1   H7A 5854   1.566   0.743   4.556 -1.8800 -0.8767 -3.0237
   64CHL1   H7B 5855   1.734   0.694   4.506 -0.7757 -1.8211 -1.4482
   64CHL1    C8 5856   1.693   0.910   4.512 -0.7543  0.3902 -0.2866
   64CHL1    H8 5857   1.601   0.972   4.515 -0.3047  1.0355  0.7172
   64CHL1   C14 5858   1.760   0.908   4.654  0.3447 -0.9582  0.2290
   64CHL1   H14 5859   1.838   0.829   4.646  0.8759 -0.2578 -2.8625
   64CHL1   C15 5860   1.668   0.887   4.772  0.6384  0.6027  0.4609
   64CHL1  H15A 5861   1.581   0.956   4.767 -1.4904 -1.6561  3.2346
   64CHL1  H15B 5862   1.630   0.782   4.772 -1.0596  1.1445 -1.2687
   64CHL1   C16 5863   1.756   0.918   4.886  0.1952  0.5477  0.0090
   64CHL1  H16A 5864   1.699   0.974   4.964  0.4758  1.8139 -0.6730
   64CHL1  H16B 5865   1.803   0.825   4.923  0.5032  0.8398  0.3579
   64CHL1   C17 5866   1.879   1.002   4.830  0.4682  0.7117  0.7245
   64CHL1   H17 5867   1.959   0.932   4.796  1.4311  2.6535 -1.3610
   64CHL1   C13 5868   1.832   1.043   4.683  0.4098 -0.4885 -0.1070
   64CHL1   C18 5869   1.731   1.157   4.709 -0.1922 -0.9975 -0.3354
   64CHL1  H18A 5870   1.783   1.255   4.722 -1.4071 -0.1576 -1.5718
   64CHL1  H18B 5871   1.654   1.163   4.630  0.0673  0.3029 -0.5112
   64CHL1  H18C 5872   1.680   1.146   4.808 -2.0950 -1.0500 -1.2771
   64CHL1   C12 5873   1.925   1.073   4.569  0.1451  0.1574  0.1478
   64CHL1  H12A 5874   1.975   1.170   4.592  2.1498 -0.6656 -0.4876
   64CHL1  H12B 5875   1.993   0.985   4.564 -0.8112 -0.6538  0.9286
   64CHL1   C11 5876   1.856   1.088   4.433  0.4398  0.3455  0.1322
   64CHL1  H11A 5877   1.785   1.172   4.416 -0.3049 -0.6246 -1.8993
   64CHL1  H11B 5878   1.940   1.110   4.364 -0.1040 -0.5386 -0.8352
   64CHL1    C9 5879   1.785   0.964   4.397  0.0564  0.1796 -0.0560
   64CHL1    H9 5880   1.859   0.881   4.393 -1.3385 -1.0839 -1.3034
   64CHL1   C10 5881   1.713   0.962   4.257  0.0398 -0.1569 -0.4359
   64CHL1   C19 5882   1.609   1.081   4.246 -0.9166  0.0460 -0.2173
   64CHL1  H19A 5883   1.526   1.067   4.318 -0.3668 -0.7227  0.2776
   64CHL1  H19B 5884   1.665   1.176   4.254 -0.4344 -0.2153 -0.4701
   64CHL1  H19C 5885   1.573   1.084   4.140 -0.2792 -1.2892 -0.4926
   64CHL1    C1 5886   1.824   0.972   4.142  0.3033 -0.5594 -0.2231
   64CHL1   H1A 5887   1.872   1.072   4.142  1.7264 -1.1928 -1.4341
   64CHL1   H1B 5888   1.908   0.907   4.173  0.1246  0.1585  1.9217
   64CHL1    C2 5889   1.772   0.945   4.003 -0.5221 -0.5816  0.3641
   64CHL1   H2A 5890   1.846   0.933   3.921 -1.8985 -0.6529 -0.9068
   64CHL1   H2B 5891   1.705   1.029   3.976 -0.6018 -0.8831 -0.4067
   64CHL1   C20 5892   1.932   1.113   4.928 -0.7241 -0.1049 -0.0036
   64CHL1   H20 5893   1.852   1.186   4.951 -0.8954 -0.8234  1.8855
   64CHL1   C21 5894   2.054   1.178   4.857 -0.2754 -0.5201  0.0925
   64CHL1  H21A 5895   2.107   1.257   4.914 -1.0258 -0.2358  0.3950
   64CHL1  H21B 5896   2.019   1.234   4.767 -2.3732 -0.6150  0.8011
   64CHL1  H21C 5897   2.136   1.108   4.828  0.6276  0.4041  0.3904
   64CHL1   C22 5898   1.970   1.044   5.061 -0.2219  0.2597  0.5696
   64CHL1  H22A 5899   1.884   1.005   5.119 -0.1001 -1.1597 -0.1716
   64CHL1  H22B 5900   2.034   0.955   5.042  0.6158  0.8904  0.3244
   64CHL1   C23 5901   2.059   1.126   5.154  0.5784 -0.1206 -0.0971
   64CHL1  H23A 5902   2.147   1.152   5.091  0.0281  1.4987 -0.2491
   64CHL1  H23B 5903   2.003   1.210   5.200  0.6619 -0.6600  1.0314
   64CHL1   C24 5904   2.110   1.032   5.269 -0.1379 -0.3405  0.5319
   64CHL1  H24A 5905   2.160   0.937   5.239 -0.8943 -0.1121 -1.6723
   64CHL1  H24B 5906   2.186   1.097   5.318 -0.0187  0.7262 -0.9794
   64CHL1   C25 5907   2.001   1.005   5.374  0.1523  0.3853  0.3603
   64CHL1   H25 5908   1.920   1.081   5.372  2.6467  3.2416  1.1477
   64CHL1   C26 5909   1.933   0.869   5.358 -0.7025  0.5293 -0.8753
   64CHL1  H26A 5910   1.893   0.841   5.258 -1.7230 -1.4350  0.0212
   64CHL1  H26B 5911   2.007   0.791   5.389 -0.7522 -0.1598 -2.4117
   64CHL1  H26C 5912   1.845   0.870   5.426 -0.0302  1.4752  0.0173
   64CHL1   C27 5913   2.069   1.028   5.511  0.5385 -0.1970 -0.0187
   64CHL1  H27A 5914   2.171   0.983   5.513  0.8788  0.4578 -1.4364
   64CHL1  H27B 5915   2.076   1.136   5.535 -2.9608  0.3907 -1.0532
   64CHL1  H27C 5916   2.014   0.981   5.595 -0.2888  2.5444  1.0727
   65CHL1    C3 5917   1.025   5.473   3.348 -0.1400 -0.2532 -0.2243
   65CHL1    H3 5918   0.996   5.366   3.342  1.0529 -0.6820  1.1469
   65CHL1    O3 5919   1.057   5.516   3.215  0.0348  0.1770  0.2762
   65CHL1   H3' 5920   1.150   5.493   3.205  0.4923  0.4502  3.0714
   65CHL1    C4 5921   0.908   5.558   3.401  0.4353 -0.5903 -0.9644
   65CHL1   H4A 5922   0.926   5.664   3.371  0.6046 -1.0991 -2.7429
   65CHL1   H4B 5923   0.824   5.526   3.336 -0.3002 -2.9615  1.0089
   65CHL1    C5 5924   0.884   5.544   3.554 -0.1296 -0.2530 -0.0393
   65CHL1    C6 5925   0.768   5.511   3.608 -0.4829 -0.4340 -0.0517
   65CHL1    H6 5926   0.682   5.494   3.542 -0.3051  0.9286 -0.6768
   65CHL1    C7 5927   0.745   5.493   3.758  0.2375  0.5246  0.5846
   65CHL1   H7A 5928   0.640   5.526   3.769  0.0738  0.1317  0.2312
   65CHL1   H7B 5929   0.754   5.383   3.772 -1.9868  0.3127  0.6708
   65CHL1    C8 5930   0.849   5.565   3.844 -0.2937  0.1595 -0.3165
   65CHL1    H8 5931   0.841   5.676   3.843  1.6900  0.4009  2.0410
   65CHL1   C14 5932   0.842   5.510   3.989 -0.5315  0.4719  1.3794
   65CHL1   H14 5933   0.859   5.401   3.980 -1.1420  0.2201  2.9206
   65CHL1   C15 5934   0.707   5.510   4.060 -0.3688  0.2337  0.8016
   65CHL1  H15A 5935   0.665   5.613   4.053 -1.4011 -0.2678 -0.9870
   65CHL1  H15B 5936   0.636   5.438   4.013 -1.1279 -0.3088  2.6785
   65CHL1   C16 5937   0.746   5.480   4.203 -0.2497  0.5797  0.1042
   65CHL1  H16A 5938   0.710   5.569   4.260  2.0977  0.0406  2.6712
   65CHL1  H16B 5939   0.700   5.384   4.234  0.3797  1.0833  2.9839
   65CHL1   C17 5940   0.902   5.467   4.202  0.5667  0.4269 -0.5948
   65CHL1   H17 5941   0.933   5.362   4.181  1.5720  0.4013  0.8972
   65CHL1   C13 5942   0.949   5.550   4.086 -0.1337 -0.4830  0.7481
   65CHL1   C18 5943   0.934   5.704   4.112  0.1671  0.9151 -0.4635
   65CHL1  H18A 5944   1.019   5.748   4.168 -0.1567  1.1795 -0.1716
   65CHL1  H18B 5945   0.924   5.765   4.019 -1.1725 -1.6953 -2.1571
   65CHL1  H18C 5946   0.857   5.730   4.187  0.6251 -1.0931  0.7868
   65CHL1   C12 5947   1.086   5.497   4.031 -0.0634 -0.3035  0.8908
   65CHL1  H12A 5948   1.179   5.533   4.081 -0.7486  0.3821  1.6959
   65CHL1  H12B 5949   1.077   5.386   4.033  0.3625 -0.3903 -0.6799
   65CHL1   C11 5950   1.105   5.549   3.887 -0.2902  0.4798 -0.5985
   65CHL1  H11A 5951   1.117   5.659   3.895  2.3004  0.1478  1.2036
   65CHL1  H11B 5952   1.199   5.507   3.846  1.7996  3.0669  1.2506
   65CHL1    C9 5953   0.986   5.519   3.794  0.7131  0.1639  0.4503
   65CHL1    H9 5954   0.992   5.409   3.788 -1.2374  0.0622 -0.1948
   65CHL1   C10 5955   1.013   5.559   3.643  0.3327 -0.9259 -0.0650
   65CHL1   C19 5956   1.065   5.704   3.637 -0.0027 -0.9831  0.5944
   65CHL1  H19A 5957   1.171   5.708   3.668 -0.1687  1.5608  1.0691
   65CHL1  H19B 5958   1.069   5.744   3.533 -0.8273  0.6091  1.1499
   65CHL1  H19C 5959   0.996   5.774   3.688  1.7522  1.4341 -0.1820
   65CHL1    C1 5960   1.120   5.460   3.582  0.6075 -0.4072 -0.0539
   65CHL1   H1A 5961   1.212   5.466   3.644 -0.3748 -1.0258  1.5315
   65CHL1   H1B 5962   1.080   5.360   3.609 -3.4949  1.9189  4.0586
   65CHL1    C2 5963   1.152   5.481   3.431 -0.0110 -0.5267 -0.1057
   65CHL1   H2A 5964   1.219   5.398   3.399 -2.7929 -2.1808 -2.2115
   65CHL1   H2B 5965   1.208   5.576   3.416 -0.5974  0.1077  1.5401
   65CHL1   C20 5966   0.950   5.508   4.343  0.8770 -0.3485 -0.0295
   65CHL1   H20 5967   0.953   5.619   4.348  2.8899 -0.2967 -1.3540
   65CHL1   C21 5968   1.095   5.467   4.355 -0.3469 -0.8234  0.4435
   65CHL1  H21A 5969   1.101   5.356   4.345  1.4712 -0.5351 -3.4477
   65CHL1  H21B 5970   1.128   5.501   4.456 -2.4564  0.7577  0.6634
   65CHL1  H21C 5971   1.166   5.516   4.286 -1.0211 -0.6694 -0.1463
   65CHL1   C22 5972   0.867   5.448   4.447  0.3678 -0.2024 -0.1574
   65CHL1  H22A 5973   0.757   5.458   4.452  0.3107 -1.1896  3.0806
   65CHL1  H22B 5974   0.884   5.339   4.437  0.7468 -0.1005 -0.6381
   65CHL1   C23 5975   0.887   5.487   4.600  0.6248  0.5891 -0.2291
   65CHL1  H23A 5976   0.835   5.405   4.655  0.3863  0.9487  0.0860
   65CHL1  H23B 5977   0.997   5.487   4.615  0.3322  0.4533  2.4520
   65CHL1   C24 5978   0.824   5.623   4.627 -0.5030  0.8098  0.5931
   65CHL1  H24A 5979   0.860   5.692   4.548 -2.4920  1.9046  0.5689
   65CHL1  H24B 5980   0.715   5.620   4.605 -0.3660  3.7360 -1.0079
   65CHL1   C25 5981   0.849   5.693   4.755  0.6250  0.0995  0.4385
   65CHL1   H25 5982   0.955   5.718   4.777  0.2967  0.4048  1.7499
   65CHL1   C26 5983   0.767   5.827   4.759  0.1534  0.0437 -0.7258
   65CHL1  H26A 5984   0.662   5.804   4.787 -0.2197  1.8892 -0.4949
   65CHL1  H26B 5985   0.806   5.901   4.832  0.1642  1.0494 -1.7256
   65CHL1  H26C 5986   0.756   5.871   4.658 -4.4443 -2.0168 -1.3963
   65CHL1   C27 5987   0.798   5.603   4.870 -0.4836 -0.2832 -0.5405
   65CHL1  H27A 5988   0.844   5.501   4.867  0.8831  0.2674  0.7670
   65CHL1  H27B 5989   0.822   5.647   4.969 -1.2204  1.6878 -1.1921
   65CHL1  H27C 5990   0.690   5.578   4.862 -0.7856  0.5345  0.6983
   66CHL1    C3 5991   6.632   4.036   3.476 -0.6234 -0.3699 -0.1702
   66CHL1    H3 5992   6.709   4.108   3.510  0.1711 -0.8307 -0.9654
   66CHL1    O3 5993   6.657   3.997   3.342  0.1100 -0.2084 -0.0767
   66CHL1   H3' 5994   6.737   3.943   3.345  1.2521  1.3422 -1.1763
   66CHL1    C4 5995   6.637   3.908   3.561 -0.1018  0.2789 -1.2470
   66CHL1   H4A 5996   6.588   3.822   3.509  0.0216 -0.1797 -0.6152
   66CHL1   H4B 5997   6.742   3.878   3.575 -0.6688 -0.6299  1.5996
   66CHL1    C5 5998   6.575   3.931   3.701 -0.1008  0.4871  0.8146
   66CHL1    C6 5999   6.650   3.912   3.813  0.6262  0.2143 -0.0790
   66CHL1    H6 6000   6.754   3.874   3.814  0.0638 -1.4855  1.5700
   66CHL1    C7 6001   6.601   3.935   3.953  1.0944 -0.0359 -0.6495
   66CHL1   H7A 6002   6.629   3.863   4.033 -1.4437  0.2770  0.6313
   66CHL1   H7B 6003   6.660   4.024   3.986  1.3819  0.5182 -2.5143
   66CHL1    C8 6004   6.450   3.960   3.964  0.3916  0.6772 -0.0704
   66CHL1    H8 6005   6.411   3.856   3.963  0.0145  0.8143 -2.0970
   66CHL1   C14 6006   6.430   4.020   4.103 -0.2322 -0.4046 -0.1831
   66CHL1   H14 6007   6.489   4.114   4.096 -2.2501  0.8670 -1.0246
   66CHL1   C15 6008   6.496   3.952   4.224 -0.3201 -0.4422  0.1444
   66CHL1  H15A 6009   6.472   3.844   4.228 -1.5081 -0.2384 -0.8107
   66CHL1  H15B 6010   6.606   3.968   4.214 -0.5220  2.1042  1.3752
   66CHL1   C16 6011   6.429   4.019   4.344 -0.1250  1.2044  0.2694
   66CHL1  H16A 6012   6.377   3.941   4.403 -0.1475  1.9339  1.2508
   66CHL1  H16B 6013   6.500   4.080   4.404  1.1547  2.1854 -2.0778
   66CHL1   C17 6014   6.327   4.124   4.279  0.1865  1.3118 -0.3000
   66CHL1   H17 6015   6.381   4.220   4.263  2.6567 -0.0705 -0.6621
   66CHL1   C13 6016   6.291   4.072   4.142 -0.3662 -0.1380  0.4838
   66CHL1   C18 6017   6.199   3.945   4.153  0.7711  0.1175 -0.4013
   66CHL1  H18A 6018   6.207   3.895   4.054  2.9219 -0.0466 -0.2043
   66CHL1  H18B 6019   6.231   3.869   4.227  0.6337  0.8734  0.4565
   66CHL1  H18C 6020   6.090   3.956   4.167  0.7278  1.5700 -1.7333
   66CHL1   C12 6021   6.235   4.167   4.022 -0.2499 -0.0875 -0.1170
   66CHL1  H12A 6022   6.126   4.183   4.033 -0.4482 -0.0580 -1.8538
   66CHL1  H12B 6023   6.283   4.267   4.029 -1.4981  0.5285 -0.1469
   66CHL1   C11 6024   6.247   4.096   3.884 -0.6879  0.0395  0.6374
   66CHL1  H11A 6025   6.176   4.012   3.869 -0.0616 -0.5439  0.8826
   66CHL1  H11B 6026   6.228   4.176   3.809 -1.2256  0.4918  1.2453
   66CHL1    C9 6027   6.395   4.045   3.853  0.0344 -0.0119  0.8843
   66CHL1    H9 6028   6.457   4.137   3.858 -0.3394  0.3380 -0.4038
   66CHL1   C10 6029   6.433   3.996   3.706 -0.1304  0.6175 -0.4398
   66CHL1   C19 6030   6.323   3.900   3.669  0.2177  0.8049  0.5691
   66CHL1  H19A 6031   6.308   3.811   3.734  2.1270 -0.8232 -1.0943
   66CHL1  H19B 6032   6.227   3.956   3.679 -0.5429 -0.0049 -1.6340
   66CHL1  H19C 6033   6.333   3.876   3.561 -1.0020 -2.4744  1.0767
   66CHL1    C1 6034   6.433   4.118   3.613  0.6081  0.3644 -0.4867
   66CHL1   H1A 6035   6.325   4.141   3.600  0.4865 -0.5388 -1.1109
   66CHL1   H1B 6036   6.489   4.206   3.653  0.6858 -0.2747  0.8934
   66CHL1    C2 6037   6.489   4.094   3.474 -0.0679 -0.0050  0.0426
   66CHL1   H2A 6038   6.501   4.195   3.430  0.4464 -0.0008  0.1873
   66CHL1   H2B 6039   6.416   4.030   3.420 -0.3341 -0.3973  0.8405
   66CHL1   C20 6040   6.208   4.148   4.376  0.5202  0.5545  0.3837
   66CHL1   H20 6041   6.158   4.049   4.388  1.1541  0.1745 -0.0218
   66CHL1   C21 6042   6.101   4.245   4.317  0.3311 -0.0865 -0.0028
   66CHL1  H21A 6043   6.013   4.263   4.383  0.8166  1.1062  0.3504
   66CHL1  H21B 6044   6.076   4.204   4.217  0.2533 -0.8791  0.3299
   66CHL1  H21C 6045   6.144   4.346   4.298 -0.0399  0.3885  1.5297
   66CHL1   C22 6046   6.259   4.200   4.512  0.5617  0.1136  0.0326
   66CHL1  H22A 6047   6.165   4.220   4.568 -0.5644 -0.3764 -1.6206
   66CHL1  H22B 6048   6.319   4.119   4.560  1.2951  0.5550 -0.1317
   66CHL1   C23 6049   6.341   4.330   4.511  0.1385 -0.6106  0.4670
   66CHL1  H23A 6050   6.427   4.302   4.447 -0.2552 -1.5157  0.3081
   66CHL1  H23B 6051   6.298   4.412   4.450 -1.5143 -0.8088  1.2958
   66CHL1   C24 6052   6.392   4.391   4.642  0.2651 -0.0637  0.0393
   66CHL1  H24A 6053   6.422   4.301   4.700 -0.8184  0.3115  1.2340
   66CHL1  H24B 6054   6.480   4.458   4.635 -0.4395  1.1323  1.9189
   66CHL1   C25 6055   6.274   4.443   4.734 -0.4256  0.6619 -0.5659
   66CHL1   H25 6056   6.204   4.356   4.726  1.4001 -0.9494  0.1309
   66CHL1   C26 6057   6.318   4.462   4.882  0.0021  0.3543 -0.1754
   66CHL1  H26A 6058   6.240   4.512   4.943  1.7171  1.1005  1.4658
   66CHL1  H26B 6059   6.359   4.365   4.917 -1.0652 -0.8960 -2.1915
   66CHL1  H26C 6060   6.404   4.532   4.880 -0.0649  0.4316 -0.9085
   66CHL1   C27 6061   6.205   4.566   4.680 -0.4296 -0.2643 -0.3239
   66CHL1  H27A 6062   6.129   4.608   4.749 -0.0614 -0.5519  0.2667
   66CHL1  H27B 6063   6.165   4.553   4.578 -1.3597  0.6796 -0.0980
   66CHL1  H27C 6064   6.287   4.639   4.664 -0.8626  0.2061 -0.4050
   67CHL1    C3 6065   6.377   1.183   3.674  0.2097 -0.1628  0.7991
   67CHL1    H3 6066   6.481   1.146   3.687 -0.6907 -2.7021  1.2273
   67CHL1    O3 6067   6.322   1.175   3.546 -0.7167  0.1152  0.3281
   67CHL1   H3' 6068   6.229   1.192   3.563 -1.3198 -0.7261 -1.7769
   67CHL1    C4 6069   6.289   1.100   3.759  0.9375  0.0819 -0.2817
   67CHL1   H4A 6070   6.188   1.145   3.753  1.1546  0.4487 -1.3918
   67CHL1   H4B 6071   6.286   1.002   3.708  0.6423  0.0153 -0.1387
   67CHL1    C5 6072   6.326   1.101   3.908  0.5431  0.2579 -0.3975
   67CHL1    C6 6073   6.350   0.992   3.976  0.0013 -0.5066 -0.4484
   67CHL1    H6 6074   6.335   0.893   3.930 -0.0770 -1.0554  0.7311
   67CHL1    C7 6075   6.393   0.989   4.116  0.0111 -0.3146  0.1920
   67CHL1   H7A 6076   6.351   0.904   4.173 -0.0035 -0.6132 -0.2552
   67CHL1   H7B 6077   6.503   0.980   4.127  0.4883  5.0339  5.1134
   67CHL1    C8 6078   6.354   1.115   4.190 -0.6781  0.0355 -0.4823
   67CHL1    H8 6079   6.243   1.115   4.204 -0.8773  1.0869 -1.8928
   67CHL1   C14 6080   6.418   1.121   4.329 -0.3451 -0.4240  0.3014
   67CHL1   H14 6081   6.528   1.129   4.316 -0.5543  0.8482 -0.9086
   67CHL1   C15 6082   6.407   0.998   4.418  0.0496  0.2744  0.8426
   67CHL1  H15A 6083   6.301   0.969   4.431 -0.4193  0.9163 -1.1778
   67CHL1  H15B 6084   6.464   0.910   4.382 -1.6970 -2.1558  3.5349
   67CHL1   C16 6085   6.446   1.050   4.558 -0.3718  0.0953  0.5544
   67CHL1  H16A 6086   6.365   1.028   4.631 -0.2933 -0.0425  0.6002
   67CHL1  H16B 6087   6.535   0.997   4.598 -0.2039 -0.2422 -0.2362
   67CHL1   C17 6088   6.462   1.205   4.540  0.1645  0.0856  0.1258
   67CHL1   H17 6089   6.566   1.223   4.504 -0.6274  2.5162 -1.1707
   67CHL1   C13 6090   6.381   1.240   4.414  0.3826  0.0240 -0.6998
   67CHL1   C18 6091   6.236   1.227   4.457 -0.2571 -0.0003 -0.0559
   67CHL1  H18A 6092   6.209   1.315   4.519 -1.5159  0.1310 -0.7521
   67CHL1  H18B 6093   6.174   1.249   4.368  1.0378 -0.5270 -1.1218
   67CHL1  H18C 6094   6.197   1.142   4.517 -1.7258  0.6106 -0.0969
   67CHL1   C12 6095   6.416   1.371   4.338 -0.2468 -0.1973 -0.2816
   67CHL1  H12A 6096   6.381   1.461   4.393  0.5440  0.5764 -1.0163
   67CHL1  H12B 6097   6.528   1.369   4.336 -0.1923  1.0666  0.7707
   67CHL1   C11 6098   6.366   1.378   4.193 -0.3841 -0.0194  0.0485
   67CHL1  H11A 6099   6.257   1.397   4.210 -0.1501  0.1219  1.5296
   67CHL1  H11B 6100   6.412   1.461   4.137 -0.1421 -2.4214 -3.6091
   67CHL1    C9 6101   6.386   1.245   4.114  0.1467 -0.1150 -0.5711
   67CHL1    H9 6102   6.496   1.239   4.095 -0.0731 -1.9314 -1.5681
   67CHL1   C10 6103   6.319   1.242   3.970 -0.0324  0.5875 -0.1233
   67CHL1   C19 6104   6.175   1.302   3.977 -0.4018  0.3400 -0.0542
   67CHL1  H19A 6105   6.115   1.289   3.885  0.5696  2.0004 -0.9762
   67CHL1  H19B 6106   6.134   1.255   4.069 -0.8914  2.4688  0.8681
   67CHL1  H19C 6107   6.178   1.411   4.000 -0.7391  0.6218 -1.2832
   67CHL1    C1 6108   6.397   1.330   3.870  0.4940 -0.0413  0.4056
   67CHL1   H1A 6109   6.390   1.435   3.904  1.8889  0.5340 -0.9649
   67CHL1   H1B 6110   6.505   1.304   3.878  1.1775  2.4685  0.0967
   67CHL1    C2 6111   6.365   1.329   3.715  1.1592 -0.0361  0.0021
   67CHL1   H2A 6112   6.442   1.378   3.651  1.6563  1.2887  1.5565
   67CHL1   H2B 6113   6.264   1.374   3.718  0.2033 -2.1119  2.0308
   67CHL1   C20 6114   6.453   1.300   4.665 -0.2011  0.0755  0.1480
   67CHL1   H20 6115   6.351   1.287   4.707  0.7026 -0.8843  2.1890
   67CHL1   C21 6116   6.478   1.450   4.642 -0.2251  0.0565 -0.2936
   67CHL1  H21A 6117   6.512   1.485   4.742 -2.0900 -2.0992  1.1978
   67CHL1  H21B 6118   6.391   1.509   4.607  1.7530  3.5439  0.1171
   67CHL1  H21C 6119   6.564   1.467   4.573  0.1918  1.3438  0.4949
   67CHL1   C22 6120   6.552   1.252   4.774 -0.0138  0.0961 -0.0138
   67CHL1  H22A 6121   6.588   1.147   4.776  1.3428  0.5423  2.6586
   67CHL1  H22B 6122   6.647   1.304   4.752  0.0055 -0.3540 -1.0871
   67CHL1   C23 6123   6.504   1.286   4.920 -0.2048  0.0109 -0.3082
   67CHL1  H23A 6124   6.582   1.291   4.999 -0.4942  0.4708 -0.0483
   67CHL1  H23B 6125   6.458   1.387   4.919  0.3745  0.2954  0.5673
   67CHL1   C24 6126   6.381   1.197   4.970 -0.2018  0.1826  0.2472
   67CHL1  H24A 6127   6.352   1.229   5.072  0.6995  0.8757  0.2972
   67CHL1  H24B 6128   6.301   1.224   4.899  1.4561  0.5202 -1.5794
   67CHL1   C25 6129   6.404   1.040   4.966 -0.1898  0.5296  0.7918
   67CHL1   H25 6130   6.470   1.011   4.882 -1.9042 -1.0468 -0.0841
   67CHL1   C26 6131   6.491   1.007   5.084 -0.3062  0.0251 -0.1344
   67CHL1  H26A 6132   6.594   1.045   5.066 -0.4945  1.3555  1.3407
   67CHL1  H26B 6133   6.449   1.057   5.174  1.0925  0.7111  0.1733
   67CHL1  H26C 6134   6.492   0.899   5.111 -2.4471  0.5080  2.2871
   67CHL1   C27 6135   6.275   0.960   4.967  0.4113 -0.1643 -0.0313
   67CHL1  H27A 6136   6.261   0.883   4.888 -4.1150 -1.9016  2.1246
   67CHL1  H27B 6137   6.262   0.911   5.066 -1.1609  0.5233  0.1244
   67CHL1  H27C 6138   6.189   1.029   4.954  0.0930 -0.5115  0.2174
   68CHL1    C3 6139   3.279   2.269   4.092  0.1969 -0.8388  0.9603
   68CHL1    H3 6140   3.293   2.378   4.114  3.3351 -0.9321 -0.0454
   68CHL1    O3 6141   3.268   2.261   3.947  0.1963 -0.4791 -0.2852
   68CHL1   H3' 6142   3.215   2.184   3.928  2.2721 -1.9530 -0.4892
   68CHL1    C4 6143   3.417   2.198   4.133 -0.0018 -0.1161 -0.3026
   68CHL1   H4A 6144   3.396   2.093   4.101  2.6806 -1.0680  0.7776
   68CHL1   H4B 6145   3.502   2.236   4.074  0.1642 -0.9546 -0.6222
   68CHL1    C5 6146   3.439   2.190   4.286  0.2274  0.5007 -0.1968
   68CHL1    C6 6147   3.562   2.227   4.336  0.5770 -0.1921 -0.0542
   68CHL1    H6 6148   3.636   2.257   4.261 -0.2796  0.4296 -0.6622
   68CHL1    C7 6149   3.586   2.215   4.482  0.3673  0.1337 -0.0550
   68CHL1   H7A 6150   3.682   2.162   4.501 -0.4136 -0.9278  1.1532
   68CHL1   H7B 6151   3.606   2.316   4.522  1.2161  0.4468 -1.2150
   68CHL1    C8 6152   3.474   2.139   4.564 -0.0267 -0.8310 -0.7615
   68CHL1    H8 6153   3.470   2.030   4.544 -2.9205 -1.0382  0.4095
   68CHL1   C14 6154   3.498   2.172   4.711 -0.4448 -0.3880  0.1260
   68CHL1   H14 6155   3.480   2.281   4.723 -1.6652 -0.3944 -1.4164
   68CHL1   C15 6156   3.638   2.135   4.775  0.2831 -0.6032 -0.1319
   68CHL1  H15A 6157   3.667   2.032   4.748  0.8291 -0.9625  1.6580
   68CHL1  H15B 6158   3.716   2.205   4.738 -1.9667  1.9092 -0.4715
   68CHL1   C16 6159   3.617   2.135   4.925  0.0016 -0.0655  0.4546
   68CHL1  H16A 6160   3.678   2.051   4.965  3.6345  2.1559  0.0964
   68CHL1  H16B 6161   3.667   2.221   4.975  3.0442 -1.4152 -0.0035
   68CHL1   C17 6162   3.462   2.137   4.936 -0.8874 -0.4287 -0.1679
   68CHL1   H17 6163   3.431   2.244   4.939 -0.6561 -0.2575 -2.5050
   68CHL1   C13 6164   3.399   2.098   4.804  0.1594  0.0416  0.2898
   68CHL1   C18 6165   3.404   1.945   4.778 -0.1644 -0.4391 -0.8845
   68CHL1  H18A 6166   3.321   1.898   4.835 -1.1628  2.3612  0.1251
   68CHL1  H18B 6167   3.383   1.909   4.676 -0.0110  1.1253 -1.4958
   68CHL1  H18C 6168   3.499   1.900   4.817  0.7205  2.5776  0.7359
   68CHL1   C12 6169   3.258   2.154   4.770 -0.1599  0.0740 -0.2649
   68CHL1  H12A 6170   3.181   2.095   4.823  0.1700 -1.0047 -0.9521
   68CHL1  H12B 6171   3.247   2.259   4.803  0.6571 -0.4092  1.6656
   68CHL1   C11 6172   3.224   2.141   4.621 -0.7699  0.2844  0.0120
   68CHL1  H11A 6173   3.216   2.032   4.603  3.4717 -0.0493 -0.8833
   68CHL1  H11B 6174   3.129   2.187   4.585 -1.6740 -2.1266 -0.9243
   68CHL1    C9 6175   3.335   2.193   4.528  0.2024  0.1569  0.5874
   68CHL1    H9 6176   3.337   2.304   4.529  0.3164  0.1559  1.2163
   68CHL1   C10 6177   3.310   2.160   4.377 -0.1055  0.6676 -0.1049
   68CHL1   C19 6178   3.278   2.002   4.359 -0.1068  0.0524 -0.3636
   68CHL1  H19A 6179   3.375   1.950   4.371  0.6298  2.0053  3.7054
   68CHL1  H19B 6180   3.195   1.957   4.418  0.4273 -1.4139 -0.7089
   68CHL1  H19C 6181   3.257   1.991   4.250 -0.1663  1.6237 -0.5382
   68CHL1    C1 6182   3.187   2.238   4.320  0.3695 -0.8802 -1.1192
   68CHL1   H1A 6183   3.091   2.198   4.359  0.0139 -0.0143 -1.0933
   68CHL1   H1B 6184   3.187   2.344   4.351  0.1094 -1.8008  2.6348
   68CHL1    C2 6185   3.159   2.220   4.171  0.4830 -0.3058 -0.0471
   68CHL1   H2A 6186   3.087   2.285   4.116  1.5052  0.1593 -0.8635
   68CHL1   H2B 6187   3.124   2.116   4.150 -2.2245  0.2308  1.3391
   68CHL1   C20 6188   3.401   2.070   5.061 -0.0792  0.0711 -0.1083
   68CHL1   H20 6189   3.295   2.045   5.041 -0.0908  0.7619 -0.9349
   68CHL1   C21 6190   3.395   2.183   5.174  0.0037 -1.1313  0.1687
   68CHL1  H21A 6191   3.326   2.152   5.255 -2.7163  1.6392 -0.8834
   68CHL1  H21B 6192   3.343   2.272   5.133  1.7791  0.8013  1.8829
   68CHL1  H21C 6193   3.491   2.228   5.206 -0.2249 -1.6556  1.6823
   68CHL1   C22 6194   3.481   1.944   5.116 -0.0591 -0.3361 -0.4247
   68CHL1  H22A 6195   3.464   1.863   5.042  1.0644  0.6172 -1.7599
   68CHL1  H22B 6196   3.587   1.973   5.132 -0.5986  0.1163  3.1298
   68CHL1   C23 6197   3.425   1.880   5.253 -0.3973 -0.2465  0.0377
   68CHL1  H23A 6198   3.424   1.962   5.328 -1.9342  0.4936 -0.7322
   68CHL1  H23B 6199   3.318   1.859   5.229 -0.3189  0.0150 -0.5644
   68CHL1   C24 6200   3.504   1.757   5.291  0.0012  0.3491  0.2047
   68CHL1  H24A 6201   3.522   1.703   5.195 -0.2514  0.6735 -0.0284
   68CHL1  H24B 6202   3.598   1.790   5.340  0.1546  0.3068 -0.0563
   68CHL1   C25 6203   3.435   1.669   5.405 -0.3305 -0.2726 -0.6991
   68CHL1   H25 6204   3.420   1.750   5.480  0.5143  1.1585 -2.0173
   68CHL1   C26 6205   3.302   1.609   5.353  0.1163 -0.3714  0.6112
   68CHL1  H26A 6206   3.231   1.694   5.356  0.9125  0.5050 -2.1373
   68CHL1  H26B 6207   3.330   1.573   5.252 -0.0665 -2.0609  1.1307
   68CHL1  H26C 6208   3.279   1.515   5.407 -0.5895 -0.9035 -0.5708
   68CHL1   C27 6209   3.536   1.573   5.467 -0.2105  0.5577 -0.1555
   68CHL1  H27A 6210   3.571   1.496   5.395  1.1038  0.5300  0.4736
   68CHL1  H27B 6211   3.637   1.618   5.480  0.8063 -1.9956  2.0261
   68CHL1  H27C 6212   3.496   1.523   5.558 -2.8480 -1.3098 -2.1773
   69CHL1    C3 6213   1.086   1.042   3.887  0.3458 -0.6572  0.0433
   69CHL1    H3 6214   1.175   0.976   3.890 -0.7004 -2.0957  0.0690
   69CHL1    O3 6215   1.029   1.052   3.755  0.0469  0.2107 -0.3305
   69CHL1   H3' 6216   0.968   0.978   3.755  1.0410 -0.6303 -1.0410
   69CHL1    C4 6217   0.995   0.966   3.985 -0.6636  0.3435 -0.7984
   69CHL1   H4A 6218   0.895   1.013   3.992  0.1805  2.2101 -0.5842
   69CHL1   H4B 6219   0.976   0.868   3.936  0.4500 -0.7176  0.7890
   69CHL1    C5 6220   1.067   0.948   4.117  0.1307 -0.0598  0.4531
   69CHL1    C6 6221   1.080   0.827   4.176 -0.2900 -0.3209 -0.1425
   69CHL1    H6 6222   1.045   0.740   4.118 -0.0536  0.6735 -1.8541
   69CHL1    C7 6223   1.117   0.812   4.325  0.1096 -0.8006 -0.7174
   69CHL1   H7A 6224   1.047   0.743   4.377 -0.5219  0.3526  0.0189
   69CHL1   H7B 6225   1.218   0.769   4.340  0.7347  0.8208 -0.0997
   69CHL1    C8 6226   1.121   0.952   4.404 -0.0768 -0.3197 -0.2489
   69CHL1    H8 6227   1.013   0.974   4.420  0.2727  3.6852 -2.1897
   69CHL1   C14 6228   1.192   0.941   4.539 -0.2447 -0.4805 -0.4243
   69CHL1   H14 6229   1.298   0.910   4.525  0.9076  3.3356 -1.2909
   69CHL1   C15 6230   1.130   0.852   4.650 -0.1573  0.3325  0.8248
   69CHL1  H15A 6231   1.020   0.867   4.652 -0.0852  1.5432 -1.3349
   69CHL1  H15B 6232   1.156   0.746   4.628 -0.8307  0.4975 -0.9003
   69CHL1   C16 6233   1.187   0.903   4.786  0.2181 -0.6003  0.7355
   69CHL1  H16A 6234   1.097   0.916   4.849  0.7238 -0.2277  1.3896
   69CHL1  H16B 6235   1.257   0.834   4.837  2.1138  0.4187 -0.3425
   69CHL1   C17 6236   1.260   1.036   4.759  0.2001  0.2267  0.3183
   69CHL1   H17 6237   1.364   1.010   4.730  0.7374  1.5949  0.9404
   69CHL1   C13 6238   1.199   1.080   4.617  0.6490 -0.3714  0.0066
   69CHL1   C18 6239   1.056   1.130   4.643  0.2434 -0.6170  0.1714
   69CHL1  H18A 6240   0.993   1.143   4.552 -0.8284  1.0000  1.0892
   69CHL1  H18B 6241   1.004   1.066   4.717 -0.5943  0.1389  0.2501
   69CHL1  H18C 6242   1.060   1.233   4.685 -0.3831 -0.5898  0.1767
   69CHL1   C12 6243   1.287   1.174   4.531  0.6327  0.3009 -0.3310
   69CHL1  H12A 6244   1.308   1.273   4.576 -1.9068 -0.1961  2.2040
   69CHL1  H12B 6245   1.387   1.128   4.514  0.8809  0.0446  1.6609
   69CHL1   C11 6246   1.228   1.190   4.394 -0.4807 -0.3271  0.0054
   69CHL1  H11A 6247   1.133   1.248   4.406  0.1626  0.7610 -0.0207
   69CHL1  H11B 6248   1.296   1.243   4.324 -1.9968  0.0973 -1.2378
   69CHL1    C9 6249   1.192   1.057   4.317  0.3897 -0.2233 -0.1203
   69CHL1    H9 6250   1.286   1.009   4.280  0.0092 -0.5889 -0.6271
   69CHL1   C10 6251   1.106   1.085   4.189 -0.5584 -0.1060 -0.1425
   69CHL1   C19 6252   0.977   1.164   4.230 -0.3747 -0.1902 -0.0042
   69CHL1  H19A 6253   0.904   1.168   4.146  0.0819 -1.8173 -0.5287
   69CHL1  H19B 6254   0.920   1.134   4.321 -1.0937  3.3406  0.8397
   69CHL1  H19C 6255   1.007   1.268   4.250 -1.2863  0.0233  0.3248
   69CHL1    C1 6256   1.186   1.164   4.081  0.1934 -1.0517 -0.2855
   69CHL1   H1A 6257   1.216   1.263   4.121  1.5101 -1.4798 -0.1607
   69CHL1   H1B 6258   1.281   1.111   4.058  0.2614 -0.9568 -0.2223
   69CHL1    C2 6259   1.127   1.177   3.942 -0.0771 -0.6576 -0.6276
   69CHL1   H2A 6260   1.202   1.226   3.877  0.7679 -1.2758 -0.1375
   69CHL1   H2B 6261   1.030   1.229   3.954 -0.6961 -1.4533 -1.8783
   69CHL1   C20 6262   1.258   1.128   4.880  0.2527  0.1850 -0.4002
   69CHL1   H20 6263   1.154   1.145   4.915 -0.7026  0.1094 -2.9734
   69CHL1   C21 6264   1.319   1.264   4.840 -0.6910 -0.8321 -0.2352
   69CHL1  H21A 6265   1.322   1.330   4.930 -1.7664 -1.1612  0.0646
   69CHL1  H21B 6266   1.244   1.310   4.773 -1.5354 -0.3442  0.9953
   69CHL1  H21C 6267   1.417   1.230   4.801 -0.2083  1.2165 -0.8861
   69CHL1   C22 6268   1.332   1.063   4.995 -0.1295 -0.2688 -0.8851
   69CHL1  H22A 6269   1.283   0.971   5.034 -1.5491  1.2908  1.1724
   69CHL1  H22B 6270   1.430   1.027   4.956  0.3149  1.4976 -1.4860
   69CHL1   C23 6271   1.364   1.157   5.125  0.2624  0.3339  0.0369
   69CHL1  H23A 6272   1.430   1.093   5.188  2.3003  1.7041 -0.6124
   69CHL1  H23B 6273   1.434   1.235   5.089 -0.1727  0.4625 -0.5421
   69CHL1   C24 6274   1.243   1.214   5.189 -0.2736 -0.0275  0.8915
   69CHL1  H24A 6275   1.174   1.267   5.121 -0.8923 -1.3740  0.4317
   69CHL1  H24B 6276   1.180   1.126   5.214 -0.9714  0.2114  0.0206
   69CHL1   C25 6277   1.269   1.301   5.313 -0.5834 -0.4588  0.5494
   69CHL1   H25 6278   1.371   1.341   5.293 -0.9640 -0.5943 -1.9864
   69CHL1   C26 6279   1.181   1.423   5.315  0.4228 -0.9696  0.7446
   69CHL1  H26A 6280   1.076   1.391   5.330  0.2886 -0.7505  0.2980
   69CHL1  H26B 6281   1.204   1.497   5.395 -1.1974 -1.1282  1.3790
   69CHL1  H26C 6282   1.192   1.474   5.216 -0.4173 -1.3741  0.4389
   69CHL1   C27 6283   1.278   1.223   5.449  0.7535 -0.1717  0.0422
   69CHL1  H27A 6284   1.347   1.136   5.449  1.4386  0.3619  0.4321
   69CHL1  H27B 6285   1.321   1.287   5.529  0.7781 -0.6140  0.3932
   69CHL1  H27C 6286   1.180   1.199   5.496  1.6067  0.7544  2.4392
   70CHL1    C3 6287   2.586   5.043   3.118  1.0167  0.0212 -0.1661
   70CHL1    H3 6288   2.697   5.033   3.116  1.0130  0.1003 -0.9404
   70CHL1    O3 6289   2.538   5.030   2.989  0.2778  0.0207 -0.5291
   70CHL1   H3' 6290   2.509   4.940   2.978  3.2337 -1.1625  0.3151
   70CHL1    C4 6291   2.514   4.933   3.200 -0.0650  0.3903 -0.3416
   70CHL1   H4A 6292   2.404   4.929   3.188  0.1106 -1.9655 -1.7255
   70CHL1   H4B 6293   2.542   4.832   3.162 -0.8099 -0.2598  0.7821
   70CHL1    C5 6294   2.552   4.951   3.351 -0.2351 -0.7320 -0.2657
   70CHL1    C6 6295   2.607   4.853   3.417 -0.5821  0.4278 -0.1994
   70CHL1    H6 6296   2.625   4.759   3.362  1.8060 -0.6431  2.1702
   70CHL1    C7 6297   2.626   4.858   3.572 -0.1804  0.3530  0.1339
   70CHL1   H7A 6298   2.576   4.773   3.623 -0.6439  0.4322 -0.1785
   70CHL1   H7B 6299   2.729   4.867   3.611 -1.0918 -0.5281  2.9815
   70CHL1    C8 6300   2.570   4.988   3.632  0.1398  0.6477  0.2686
   70CHL1    H8 6301   2.462   4.964   3.640 -0.1765  1.6870 -0.5183
   70CHL1   C14 6302   2.629   5.002   3.770 -0.8591  0.0509  0.0173
   70CHL1   H14 6303   2.737   5.021   3.757 -0.2470 -0.3068  3.6640
   70CHL1   C15 6304   2.615   4.888   3.872 -0.1784 -0.4166 -0.5518
   70CHL1  H15A 6305   2.514   4.843   3.884 -0.4939 -0.1187 -1.9915
   70CHL1  H15B 6306   2.682   4.806   3.839 -1.9032 -1.3873 -1.8415
   70CHL1   C16 6307   2.650   4.948   4.004  0.1083  0.4705 -0.4762
   70CHL1  H16A 6308   2.575   4.910   4.076  1.7828  1.2744  1.7985
   70CHL1  H16B 6309   2.751   4.913   4.034  0.0462  0.7629  0.0822
   70CHL1   C17 6310   2.637   5.100   3.989  0.4259  0.1485 -0.4412
   70CHL1   H17 6311   2.739   5.135   3.965  0.6414 -0.6138 -0.6603
   70CHL1   C13 6312   2.575   5.121   3.849  0.3125  0.8837 -0.3153
   70CHL1   C18 6313   2.418   5.107   3.862 -0.1128 -0.1190  0.2531
   70CHL1  H18A 6314   2.363   5.098   3.766  0.4284 -1.5152  0.0492
   70CHL1  H18B 6315   2.386   5.016   3.917  0.0316  1.1493  2.5415
   70CHL1  H18C 6316   2.373   5.198   3.906 -0.2173  0.7126 -1.4785
   70CHL1   C12 6317   2.617   5.247   3.769 -0.6964  0.7375 -0.0314
   70CHL1  H12A 6318   2.591   5.341   3.820  0.5085  1.3960 -0.5846
   70CHL1  H12B 6319   2.728   5.241   3.764 -0.7817 -0.3540 -1.0137
   70CHL1   C11 6320   2.567   5.240   3.620  0.2580  0.4568 -0.6689
   70CHL1  H11A 6321   2.459   5.262   3.638  0.4862 -0.1157  1.7287
   70CHL1  H11B 6322   2.598   5.328   3.560  0.2167 -0.2759 -1.7968
   70CHL1    C9 6323   2.594   5.107   3.545 -0.0206  0.2497  0.1270
   70CHL1    H9 6324   2.705   5.113   3.534  0.0706  2.9146  1.7210
   70CHL1   C10 6325   2.516   5.097   3.408 -0.2481  0.3267 -0.1687
   70CHL1   C19 6326   2.370   5.121   3.430 -0.2483 -0.1937  0.1201
   70CHL1  H19A 6327   2.354   5.064   3.524  2.0604 -2.4732 -0.7444
   70CHL1  H19B 6328   2.344   5.227   3.447 -3.5779 -0.9735  0.6765
   70CHL1  H19C 6329   2.306   5.093   3.344  0.0564  1.6344 -0.7387
   70CHL1    C1 6330   2.583   5.207   3.317  0.8099 -0.3582  0.3131
   70CHL1   H1A 6331   2.542   5.306   3.344 -0.9449 -0.7206 -0.8437
   70CHL1   H1B 6332   2.694   5.210   3.314  0.7966  0.1028  0.1719
   70CHL1    C2 6333   2.550   5.181   3.163  0.8559 -0.7427 -0.5604
   70CHL1   H2A 6334   2.606   5.256   3.103 -0.0783  2.2692  2.0647
   70CHL1   H2B 6335   2.449   5.220   3.139  1.8204  2.3472 -0.0620
   70CHL1   C20 6336   2.588   5.167   4.117  0.1302 -0.0451  0.4248
   70CHL1   H20 6337   2.486   5.130   4.139  0.8252 -2.6646 -0.4932
   70CHL1   C21 6338   2.586   5.321   4.102 -0.8222 -0.4733 -0.4167
   70CHL1  H21A 6339   2.690   5.354   4.082 -1.0205 -0.4056 -1.4203
   70CHL1  H21B 6340   2.556   5.366   4.199 -1.9283  0.0522 -0.9819
   70CHL1  H21C 6341   2.524   5.354   4.016  1.3416 -0.7355 -2.1721
   70CHL1   C22 6342   2.683   5.138   4.241  0.2862 -0.2436 -0.7362
   70CHL1  H22A 6343   2.726   5.036   4.248 -0.4769 -0.4648  2.5115
   70CHL1  H22B 6344   2.779   5.194   4.237  0.7838 -1.0953 -1.0690
   70CHL1   C23 6345   2.611   5.167   4.381  0.5406 -0.9489  0.4641
   70CHL1  H23A 6346   2.597   5.277   4.382 -1.3569 -1.1631  0.9346
   70CHL1  H23B 6347   2.511   5.121   4.395  0.3186 -0.3763  0.8209
   70CHL1   C24 6348   2.709   5.137   4.495  1.1635  0.0835 -0.4580
   70CHL1  H24A 6349   2.719   5.029   4.516 -1.7472 -0.6475 -2.2784
   70CHL1  H24B 6350   2.806   5.184   4.466  1.7701 -1.6737 -1.3739
   70CHL1   C25 6351   2.660   5.202   4.624  0.2672  0.2232  0.5175
   70CHL1   H25 6352   2.662   5.312   4.610 -2.0478  0.1124 -1.4610
   70CHL1   C26 6353   2.510   5.172   4.653 -0.1102 -0.6338  0.0575
   70CHL1  H26A 6354   2.511   5.178   4.764 -1.3747 -2.8535  0.2487
   70CHL1  H26B 6355   2.443   5.241   4.596 -0.1360  0.7309  1.6480
   70CHL1  H26C 6356   2.490   5.066   4.626 -1.1532 -0.3464 -0.3783
   70CHL1   C27 6357   2.743   5.163   4.746  0.3378  0.3645  0.3677
   70CHL1  H27A 6358   2.722   5.217   4.840 -0.5176 -0.3290  0.5916
   70CHL1  H27B 6359   2.725   5.056   4.771  2.3223 -0.1951 -0.4188
   70CHL1  H27C 6360   2.851   5.175   4.724 -0.2642  0.4506 -3.0945
   71CHL1    C3 6361   1.701   3.586   3.597 -0.1524  0.0886  0.4490
   71CHL1    H3 6362   1.762   3.494   3.599  1.9573  1.3065 -1.6212
   71CHL1    O3 6363   1.721   3.635   3.469  0.1432 -0.1596  0.3897
   71CHL1   H3' 6364   1.712   3.731   3.477 -0.3532 -0.0966 -0.7344
   71CHL1    C4 6365   1.557   3.556   3.630 -0.5550  0.2998 -0.0331
   71CHL1   H4A 6366   1.506   3.654   3.640  0.6883  1.0946 -1.0760
   71CHL1   H4B 6367   1.497   3.507   3.550 -1.9235  2.7060 -0.5668
   71CHL1    C5 6368   1.545   3.493   3.769 -0.0578  0.6838  0.0424
   71CHL1    C6 6369   1.498   3.368   3.779 -0.0421  0.0403 -0.2915
   71CHL1    H6 6370   1.449   3.328   3.689  2.0614 -2.6675 -0.3611
   71CHL1    C7 6371   1.490   3.299   3.911  0.4365 -0.3013 -0.5348
   71CHL1   H7A 6372   1.386   3.259   3.915  0.4518 -0.3444  3.0773
   71CHL1   H7B 6373   1.572   3.226   3.920  3.0334  2.5521  0.8256
   71CHL1    C8 6374   1.506   3.396   4.036 -0.2043 -0.4110  0.5474
   71CHL1    H8 6375   1.419   3.465   4.038  1.8194  2.3294  0.6491
   71CHL1   C14 6376   1.526   3.309   4.160 -0.1997  0.5111  0.4190
   71CHL1   H14 6377   1.621   3.251   4.156  0.2402  1.2960 -1.3542
   71CHL1   C15 6378   1.415   3.214   4.192 -0.3131 -0.1432 -0.5671
   71CHL1  H15A 6379   1.319   3.270   4.183 -0.0980  0.6709  1.5261
   71CHL1  H15B 6380   1.408   3.127   4.123  1.9617 -1.1878  0.4224
   71CHL1   C16 6381   1.443   3.172   4.344 -0.1995  0.4288  0.3527
   71CHL1  H16A 6382   1.350   3.178   4.405 -0.5160  2.1755 -0.2551
   71CHL1  H16B 6383   1.497   3.075   4.336  0.1465  0.5947  0.6744
   71CHL1   C17 6384   1.545   3.283   4.393  0.3581 -0.2681 -0.0676
   71CHL1   H17 6385   1.642   3.230   4.399  0.0795 -0.6137  2.7663
   71CHL1   C13 6386   1.543   3.390   4.284 -0.1963 -0.0041  0.1766
   71CHL1   C18 6387   1.425   3.483   4.308  0.3877 -0.0198  0.5489
   71CHL1  H18A 6388   1.447   3.554   4.390 -1.6611  1.7085 -0.2824
   71CHL1  H18B 6389   1.401   3.528   4.209  1.0955  0.8984  0.7808
   71CHL1  H18C 6390   1.339   3.420   4.341 -0.4962 -0.2644 -1.9963
   71CHL1   C12 6391   1.674   3.474   4.266  0.4806 -0.1400 -0.9233
   71CHL1  H12A 6392   1.700   3.546   4.347  2.9043 -1.4923 -0.4026
   71CHL1  H12B 6393   1.758   3.403   4.249 -0.3542 -1.5080  0.4050
   71CHL1   C11 6394   1.670   3.564   4.141 -0.0723  0.0992 -0.0633
   71CHL1  H11A 6395   1.586   3.635   4.150  0.2222  0.3327  1.0433
   71CHL1  H11B 6396   1.764   3.621   4.125 -0.0029  1.1285  3.2455
   71CHL1    C9 6397   1.627   3.479   4.014 -0.1993  0.1678  0.5990
   71CHL1    H9 6398   1.709   3.405   3.999  0.2641  0.2403  2.4753
   71CHL1   C10 6399   1.614   3.568   3.888  0.7645 -0.3160 -0.2507
   71CHL1   C19 6400   1.523   3.692   3.915  0.5798 -0.2583 -0.2268
   71CHL1  H19A 6401   1.421   3.658   3.941  0.1246  0.4080 -1.0880
   71CHL1  H19B 6402   1.561   3.751   4.002  0.7120  0.1577 -0.5642
   71CHL1  H19C 6403   1.510   3.765   3.833  3.4313 -0.8059 -1.2617
   71CHL1    C1 6404   1.758   3.620   3.838  0.3658  0.3740 -0.3127
   71CHL1   H1A 6405   1.793   3.697   3.910 -1.8245 -0.3547  1.6359
   71CHL1   H1B 6406   1.830   3.535   3.839 -1.2711 -1.0583  0.6723
   71CHL1    C2 6407   1.762   3.684   3.699 -0.1063 -0.4006 -0.3204
   71CHL1   H2A 6408   1.864   3.716   3.669  0.2930 -1.1401  0.2043
   71CHL1   H2B 6409   1.703   3.778   3.700  0.5034 -0.0034  1.7669
   71CHL1   C20 6410   1.523   3.324   4.537  0.0872  1.3635  0.6943
   71CHL1   H20 6411   1.423   3.372   4.540  0.0712  1.3873 -0.0901
   71CHL1   C21 6412   1.627   3.432   4.577  0.4274  0.5522 -0.6154
   71CHL1  H21A 6413   1.632   3.432   4.688  1.0616  2.1851 -0.6136
   71CHL1  H21B 6414   1.603   3.532   4.534 -0.2497  0.3492 -0.7285
   71CHL1  H21C 6415   1.731   3.404   4.552  0.4424  1.4446 -1.6207
   71CHL1   C22 6416   1.520   3.213   4.649 -0.0706  0.3842  0.0947
   71CHL1  H22A 6417   1.474   3.119   4.610  0.6899 -0.2072  0.6063
   71CHL1  H22B 6418   1.623   3.190   4.682 -0.3802 -0.0981  0.7530
   71CHL1   C23 6419   1.437   3.259   4.771 -0.0174  0.3164  0.2030
   71CHL1  H23A 6420   1.488   3.345   4.818  0.3279 -1.3373  3.0630
   71CHL1  H23B 6421   1.345   3.303   4.725  1.1385 -1.0275 -3.8888
   71CHL1   C24 6422   1.407   3.141   4.864 -0.0698  0.7575 -1.0748
   71CHL1  H24A 6423   1.352   3.066   4.803  1.1922  1.0787 -2.6679
   71CHL1  H24B 6424   1.502   3.107   4.912 -1.0976  0.2102  0.6909
   71CHL1   C25 6425   1.321   3.184   4.984  0.0113 -0.4975 -0.3749
   71CHL1   H25 6426   1.353   3.286   5.013  0.6609 -0.3313 -1.6111
   71CHL1   C26 6427   1.170   3.205   4.957  0.1942  0.1772 -0.0675
   71CHL1  H26A 6428   1.142   3.260   4.864 -1.0624  1.8754  1.2532
   71CHL1  H26B 6429   1.140   3.102   4.930  2.4262 -0.3115 -0.8808
   71CHL1  H26C 6430   1.121   3.252   5.045  2.3085  0.5571  0.9445
   71CHL1   C27 6431   1.339   3.099   5.113 -0.2609 -0.3361 -0.2373
   71CHL1  H27A 6432   1.338   2.991   5.090 -0.1376 -0.9931  2.5139
   71CHL1  H27B 6433   1.430   3.132   5.167  0.2015 -2.7672  0.5749
   71CHL1  H27C 6434   1.250   3.118   5.176 -0.0369  1.2077 -0.3384
   72CHL1    C3 6435   0.998   6.218   3.947 -0.3108  0.3053 -0.3528
   72CHL1    H3 6436   0.899   6.184   3.985 -0.4454  1.7880  0.7108
   72CHL1    O3 6437   0.990   6.231   3.809  0.1553 -0.0572  0.1901
   72CHL1   H3' 6438   1.047   6.307   3.792 -1.7093  1.1284 -1.1703
   72CHL1    C4 6439   1.026   6.353   4.008  0.3327 -0.1292 -0.1747
   72CHL1   H4A 6440   1.121   6.396   3.968 -0.4083  1.3886 -0.3558
   72CHL1   H4B 6441   0.947   6.427   3.984  1.3574  0.7772 -0.8187
   72CHL1    C5 6442   1.024   6.334   4.156  0.3435 -0.9702 -0.1699
   72CHL1    C6 6443   0.931   6.413   4.228 -0.1332  0.3226  0.4124
   72CHL1    H6 6444   0.875   6.493   4.178  0.3370 -0.3565 -1.2552
   72CHL1    C7 6445   0.938   6.413   4.381 -0.4069 -0.3214  0.2591
   72CHL1   H7A 6446   0.940   6.514   4.427  0.4346  0.4987 -1.4859
   72CHL1   H7B 6447   0.845   6.367   4.422 -0.0119  0.7680  2.5277
   72CHL1    C8 6448   1.048   6.327   4.447 -0.9200  0.3214  1.2650
   72CHL1    H8 6449   1.142   6.386   4.441 -1.2434  1.1263  3.3496
   72CHL1   C14 6450   1.009   6.294   4.592  0.1279  0.0279 -1.2545
   72CHL1   H14 6451   0.922   6.226   4.579 -0.4503 -0.1223  2.3226
   72CHL1   C15 6452   0.961   6.409   4.700  0.9513  0.3194  0.5646
   72CHL1  H15A 6453   1.024   6.500   4.692  1.8673 -0.1014  2.4616
   72CHL1  H15B 6454   0.856   6.432   4.673  0.6268  2.1157  2.9837
   72CHL1   C16 6455   0.975   6.341   4.836  0.0742 -0.3730  0.2399
   72CHL1  H16A 6456   1.031   6.407   4.906 -0.7353 -0.6686  1.1975
   72CHL1  H16B 6457   0.870   6.336   4.873  0.4038 -1.9919  1.0651
   72CHL1   C17 6458   1.039   6.203   4.807  0.1735  0.4193  0.4602
   72CHL1   H17 6459   0.959   6.127   4.801  1.1658 -1.0695  3.7495
   72CHL1   C13 6460   1.109   6.213   4.666 -0.3792  0.3146  0.4042
   72CHL1   C18 6461   1.244   6.283   4.684 -0.0037  0.1154 -0.2421
   72CHL1  H18A 6462   1.287   6.309   4.585 -0.7780  1.7890 -0.1792
   72CHL1  H18B 6463   1.230   6.386   4.725  0.5435  1.1966 -2.6132
   72CHL1  H18C 6464   1.321   6.221   4.736 -0.4550  1.3858  2.0908
   72CHL1   C12 6465   1.131   6.082   4.591 -0.0525  0.9448  0.4184
   72CHL1  H12A 6466   1.201   6.004   4.627 -0.1336 -0.3016 -1.8866
   72CHL1  H12B 6467   1.032   6.032   4.578 -0.1395  1.6892 -2.3704
   72CHL1   C11 6468   1.175   6.111   4.449 -0.0253 -0.1293  0.4091
   72CHL1  H11A 6469   1.280   6.146   4.439 -0.7563  1.8121 -1.1241
   72CHL1  H11B 6470   1.177   6.014   4.395  2.7530  0.5296 -0.8424
   72CHL1    C9 6471   1.082   6.202   4.367 -0.2948 -0.3188 -0.2566
   72CHL1    H9 6472   0.981   6.155   4.370  0.3218 -1.7325 -0.7751
   72CHL1   C10 6473   1.121   6.232   4.221  0.2629 -0.3336 -0.3643
   72CHL1   C19 6474   1.266   6.298   4.209  0.2646  0.0913  0.0779
   72CHL1  H19A 6475   1.294   6.320   4.104  2.0093 -0.0605  0.4875
   72CHL1  H19B 6476   1.258   6.392   4.267  0.7827 -0.9195  1.8494
   72CHL1  H19C 6477   1.343   6.233   4.254  0.9659  0.0797 -1.0811
   72CHL1    C1 6478   1.121   6.109   4.135  0.0393 -0.2838 -0.5827
   72CHL1   H1A 6479   1.211   6.050   4.162  1.2044  1.5787 -0.1493
   72CHL1   H1B 6480   1.033   6.047   4.162 -1.8401  2.2301 -0.4777
   72CHL1    C2 6481   1.107   6.123   3.984 -0.1720  0.2587  0.0716
   72CHL1   H2A 6482   1.094   6.025   3.934  2.9615  0.1117 -0.7170
   72CHL1   H2B 6483   1.206   6.159   3.948  0.1676 -1.3962 -0.7209
   72CHL1   C20 6484   1.120   6.144   4.926  0.1453  0.1331 -0.3501
   72CHL1   H20 6485   1.213   6.202   4.941 -0.0334  0.6837 -1.2752
   72CHL1   C21 6486   1.146   5.995   4.900 -0.5989 -0.7059 -0.0120
   72CHL1  H21A 6487   1.053   5.954   4.856  0.1779 -1.5796 -0.8774
   72CHL1  H21B 6488   1.171   5.940   4.993  3.7349  2.6654  1.1697
   72CHL1  H21C 6489   1.230   5.989   4.827 -0.5573 -1.7271  0.1029
   72CHL1   C22 6490   1.023   6.159   5.054 -0.9986  0.4900 -0.0908
   72CHL1  H22A 6491   1.009   6.268   5.071  1.7146  0.7811  0.8004
   72CHL1  H22B 6492   0.937   6.095   5.026  0.7439 -2.4565  0.7478
   72CHL1   C23 6493   1.077   6.101   5.188  0.0035  0.1559  0.2754
   72CHL1  H23A 6494   1.086   5.991   5.177  0.2398  0.3303 -1.4902
   72CHL1  H23B 6495   1.177   6.150   5.189  0.3475 -0.2454 -3.0688
   72CHL1   C24 6496   1.008   6.148   5.320 -0.0756  0.3537 -0.0675
   72CHL1  H24A 6497   0.987   6.258   5.319 -1.8778  0.0681  1.4018
   72CHL1  H24B 6498   0.907   6.104   5.310  0.9900 -1.6876 -3.2968
   72CHL1   C25 6499   1.081   6.103   5.456 -0.2875  0.0256 -0.0388
   72CHL1   H25 6500   1.074   5.992   5.456 -0.4167  0.0337 -0.3386
   72CHL1   C26 6501   1.228   6.152   5.458  0.1065 -0.3095  0.1149
   72CHL1  H26A 6502   1.268   6.147   5.562  0.3552  2.6522  0.2370
   72CHL1  H26B 6503   1.289   6.108   5.377 -0.6508  1.8868 -1.7431
   72CHL1  H26C 6504   1.217   6.262   5.443  0.2714  0.0977  2.4985
   72CHL1   C27 6505   1.008   6.159   5.581  0.3488  0.8685 -0.1439
   72CHL1  H27A 6506   1.007   6.270   5.586  0.0230  0.8703 -0.2184
   72CHL1  H27B 6507   0.904   6.121   5.588  0.1874  1.0943 -1.1121
   72CHL1  H27C 6508   1.057   6.116   5.671  3.0141  0.6629 -1.5882
   73CHL1    C3 6509   1.758   3.242   3.310  0.6988 -0.2408 -0.0411
   73CHL1    H3 6510   1.783   3.340   3.357  0.6434 -0.5330  0.6074
   73CHL1    O3 6511   1.719   3.261   3.177 -0.0127 -0.2535 -0.0033
   73CHL1   H3' 6512   1.772   3.196   3.131 -0.2760  0.2763 -1.0747
   73CHL1    C4 6513   1.880   3.153   3.321 -0.2627  1.0646 -0.1153
   73CHL1   H4A 6514   1.869   3.050   3.279 -0.5396  2.6164 -4.2945
   73CHL1   H4B 6515   1.957   3.202   3.257 -0.0078 -1.8957 -2.3196
   73CHL1    C5 6516   1.934   3.130   3.462 -0.2183  0.3493 -0.5910
   73CHL1    C6 6517   2.053   3.184   3.499 -0.0894  0.1455  0.3609
   73CHL1    H6 6518   2.124   3.226   3.426 -0.2894 -2.5605 -1.5188
   73CHL1    C7 6519   2.102   3.193   3.641  0.1461  0.2322 -0.7662
   73CHL1   H7A 6520   2.210   3.168   3.651  0.0468  0.6021  1.8076
   73CHL1   H7B 6521   2.102   3.296   3.684  3.1295 -0.5311  1.3364
   73CHL1    C8 6522   2.019   3.108   3.740  0.5335  0.1640  0.3540
   73CHL1    H8 6523   2.062   3.007   3.721 -0.9485 -0.0947 -1.9024
   73CHL1   C14 6524   2.039   3.146   3.886 -0.0545  0.5742  0.2567
   73CHL1   H14 6525   1.995   3.247   3.900  1.6123  1.4754 -0.6892
   73CHL1   C15 6526   2.180   3.167   3.945 -0.6141  0.0199 -0.4713
   73CHL1  H15A 6527   2.247   3.092   3.898  0.5326  0.2691  0.6915
   73CHL1  H15B 6528   2.228   3.264   3.922 -0.7451 -0.2447 -1.9679
   73CHL1   C16 6529   2.174   3.157   4.096  0.6997  0.1486 -0.2884
   73CHL1  H16A 6530   2.244   3.082   4.141  1.9956  1.3965 -0.1489
   73CHL1  H16B 6531   2.176   3.250   4.157 -3.0892  0.3889 -0.3145
   73CHL1   C17 6532   2.021   3.124   4.124  0.0228  0.4920 -0.0147
   73CHL1   H17 6533   1.962   3.217   4.142 -0.5599  0.5045 -1.7222
   73CHL1   C13 6534   1.971   3.061   3.985  0.4251 -0.3619  0.2418
   73CHL1   C18 6535   2.027   2.915   3.975  0.4102 -0.1285  0.0060
   73CHL1  H18A 6536   2.008   2.877   3.872 -1.3451 -1.7909  0.8750
   73CHL1  H18B 6537   2.137   2.908   3.988  0.8603  1.2966 -2.3766
   73CHL1  H18C 6538   1.989   2.848   4.055  1.7465  0.5908  1.2828
   73CHL1   C12 6539   1.816   3.072   3.965  0.0572  0.3854 -0.2445
   73CHL1  H12A 6540   1.762   3.014   4.044  2.5141 -3.1586 -0.9390
   73CHL1  H12B 6541   1.780   3.173   3.993 -0.4922 -0.3757  2.1040
   73CHL1   C11 6542   1.781   3.032   3.819  0.2217  1.1053 -1.2232
   73CHL1  H11A 6543   1.805   2.924   3.806  1.1114  1.2818 -1.1625
   73CHL1  H11B 6544   1.673   3.053   3.809 -0.1834 -0.0572  0.3347
   73CHL1    C9 6545   1.870   3.106   3.710 -0.0881 -0.0535 -0.5982
   73CHL1    H9 6546   1.840   3.211   3.731  0.0669 -0.1464  0.1214
   73CHL1   C10 6547   1.824   3.081   3.565  0.3261 -0.0818 -0.1388
   73CHL1   C19 6548   1.801   2.936   3.536  0.0106 -0.4234 -0.0059
   73CHL1  H19A 6549   1.893   2.877   3.553 -0.8220 -2.1856 -1.2940
   73CHL1  H19B 6550   1.721   2.901   3.604  0.7485  0.9911  1.6856
   73CHL1  H19C 6551   1.768   2.919   3.431  0.8467 -0.1553 -0.3257
   73CHL1    C1 6552   1.681   3.147   3.538 -0.0435 -0.2159  0.3555
   73CHL1   H1A 6553   1.608   3.090   3.599  1.3408  0.0050  2.3192
   73CHL1   H1B 6554   1.699   3.248   3.581  2.4340  1.0891 -3.2168
   73CHL1    C2 6555   1.646   3.171   3.389  0.3247  0.5033  0.2838
   73CHL1   H2A 6556   1.554   3.233   3.387  1.2904  2.1573  2.8491
   73CHL1   H2B 6557   1.632   3.074   3.336  1.1888  1.4551 -1.7817
   73CHL1   C20 6558   2.013   3.033   4.252 -0.0329 -0.2134  0.7909
   73CHL1   H20 6559   2.077   2.946   4.226  1.0748 -0.3091  3.4986
   73CHL1   C21 6560   1.868   2.989   4.288 -0.8613 -0.0119  0.4443
   73CHL1  H21A 6561   1.816   2.934   4.206 -1.1388  1.3905 -0.3575
   73CHL1  H21B 6562   1.802   3.077   4.303 -1.5427  0.2951 -3.2256
   73CHL1  H21C 6563   1.856   2.930   4.381  2.1881 -1.8681 -0.2170
   73CHL1   C22 6564   2.083   3.092   4.384  0.7994 -0.8438  0.0209
   73CHL1  H22A 6565   2.080   3.019   4.468  1.6359 -0.5060  0.3521
   73CHL1  H22B 6566   2.190   3.112   4.361  0.5718 -1.2962 -1.5453
   73CHL1   C23 6567   2.015   3.225   4.434  0.3439  0.5582  1.8125
   73CHL1  H23A 6568   1.999   3.289   4.345  1.7012  0.9374  1.8127
   73CHL1  H23B 6569   1.916   3.218   4.483 -0.6487  0.8427 -0.0762
   73CHL1   C24 6570   2.104   3.292   4.530  0.0368 -0.3034  0.3183
   73CHL1  H24A 6571   2.202   3.324   4.489 -0.2656  1.2272  0.7259
   73CHL1  H24B 6572   2.053   3.387   4.558  1.2242  0.8533 -1.2654
   73CHL1   C25 6573   2.126   3.215   4.668 -0.3312 -0.3682 -0.2474
   73CHL1   H25 6574   2.173   3.119   4.639  1.5856 -0.1896  1.9948
   73CHL1   C26 6575   2.234   3.287   4.756 -0.0112 -0.0679  0.4939
   73CHL1  H26A 6576   2.191   3.383   4.791 -0.7479 -0.3807  0.4474
   73CHL1  H26B 6577   2.259   3.223   4.844  0.2379 -2.1953 -1.0342
   73CHL1  H26C 6578   2.328   3.303   4.698 -0.1218  0.4078  0.4428
   73CHL1   C27 6579   2.000   3.189   4.748  0.4323 -0.6682 -0.0187
   73CHL1  H27A 6580   2.020   3.127   4.839 -0.1106 -1.0141 -0.1322
   73CHL1  H27B 6581   1.959   3.283   4.789 -0.0420 -0.9810  0.2374
   73CHL1  H27C 6582   1.926   3.123   4.699 -0.9807 -2.1148  3.7136
   74CHL1    C3 6583   2.006   1.618   3.836  0.2507  0.2169 -0.8191
   74CHL1    H3 6584   2.089   1.686   3.807  0.6653 -0.5744 -1.5134
   74CHL1    O3 6585   1.913   1.607   3.731 -0.5376 -0.7277  0.0328
   74CHL1   H3' 6586   1.964   1.654   3.664  0.0395  0.0619  0.9879
   74CHL1    C4 6587   2.056   1.480   3.861 -0.1829 -0.0793  0.0331
   74CHL1   H4A 6588   1.971   1.412   3.881  0.8405 -1.3868  0.1004
   74CHL1   H4B 6589   2.112   1.441   3.773 -0.2452  0.2481 -0.1497
   74CHL1    C5 6590   2.157   1.479   3.977  0.3792  0.3019 -0.9312
   74CHL1    C6 6591   2.278   1.426   3.968  0.0270  0.2280 -0.6200
   74CHL1    H6 6592   2.313   1.383   3.873  1.4439  1.0137 -0.4891
   74CHL1    C7 6593   2.380   1.439   4.083  0.9701  0.5516  0.4472
   74CHL1   H7A 6594   2.451   1.355   4.079  0.3941 -0.0553  2.1170
   74CHL1   H7B 6595   2.436   1.531   4.057  0.5006  1.0150  1.0476
   74CHL1    C8 6596   2.314   1.461   4.223 -0.8650  0.6304  0.5231
   74CHL1    H8 6597   2.270   1.365   4.259 -1.2100  0.7818  0.5141
   74CHL1   C14 6598   2.416   1.504   4.326 -0.7302  0.0563  0.4510
   74CHL1   H14 6599   2.458   1.600   4.292 -0.5603 -0.4194 -0.7506
   74CHL1   C15 6600   2.551   1.424   4.341  0.1274 -0.2735  0.0802
   74CHL1  H15A 6601   2.537   1.314   4.332  1.6933 -0.3990 -1.2536
   74CHL1  H15B 6602   2.619   1.457   4.260  1.4714 -1.4953  0.6596
   74CHL1   C16 6603   2.600   1.463   4.479  0.2965 -0.2172  0.3366
   74CHL1  H16A 6604   2.597   1.364   4.530  0.6391  0.4930  1.7831
   74CHL1  H16B 6605   2.702   1.504   4.491  0.0394 -0.0028  2.0562
   74CHL1   C17 6606   2.492   1.550   4.541 -0.2716  0.1343 -0.6855
   74CHL1   H17 6607   2.512   1.652   4.503 -2.3944  0.9202  0.1518
   74CHL1   C13 6608   2.363   1.511   4.467 -0.8513  0.4614 -0.1154
   74CHL1   C18 6609   2.321   1.369   4.516 -0.6847  0.5321 -0.3720
   74CHL1  H18A 6610   2.291   1.371   4.623 -1.5743 -2.2860 -0.4878
   74CHL1  H18B 6611   2.231   1.335   4.461 -1.2997 -0.1329  0.9833
   74CHL1  H18C 6612   2.390   1.283   4.512 -0.8798  0.3631 -0.1619
   74CHL1   C12 6613   2.251   1.614   4.468 -0.1228  0.1372 -1.4884
   74CHL1  H12A 6614   2.206   1.602   4.569 -0.7363  0.1670 -1.7532
   74CHL1  H12B 6615   2.304   1.711   4.457  0.5164 -0.0334 -0.1745
   74CHL1   C11 6616   2.144   1.584   4.362  0.5625  0.4050  0.3182
   74CHL1  H11A 6617   2.094   1.490   4.392  1.0350 -0.7405 -2.2533
   74CHL1  H11B 6618   2.071   1.667   4.355 -0.3593 -0.5352 -2.1583
   74CHL1    C9 6619   2.206   1.563   4.216  0.1110  0.3522 -0.3813
   74CHL1    H9 6620   2.257   1.660   4.196  2.3745 -0.5960  0.5377
   74CHL1   C10 6621   2.094   1.535   4.107  0.4421  0.0035  0.7617
   74CHL1   C19 6622   2.009   1.411   4.158  0.5951  0.3446 -0.1834
   74CHL1  H19A 6623   2.077   1.323   4.168  1.1838  0.7837 -0.2684
   74CHL1  H19B 6624   1.960   1.429   4.256  1.5753 -1.0188  0.5905
   74CHL1  H19C 6625   1.928   1.385   4.086  0.0603 -0.3306  0.6484
   74CHL1    C1 6626   2.014   1.665   4.082 -0.0705  0.6389  0.4669
   74CHL1   H1A 6627   1.951   1.687   4.171 -1.5608  1.5501 -0.7566
   74CHL1   H1B 6628   2.094   1.741   4.082 -0.5981  1.2009  0.7859
   74CHL1    C2 6629   1.920   1.657   3.955 -0.3623 -0.3871  0.1431
   74CHL1   H2A 6630   1.872   1.756   3.943  1.6554  0.6464  0.0659
   74CHL1   H2B 6631   1.845   1.578   3.973 -1.2376  0.2228 -0.7219
   74CHL1   C20 6632   2.486   1.557   4.698 -0.2918 -0.2516 -0.2723
   74CHL1   H20 6633   2.379   1.575   4.720  0.8294  3.2141  3.8141
   74CHL1   C21 6634   2.546   1.693   4.744  0.5135 -0.0889 -0.1734
   74CHL1  H21A 6635   2.496   1.779   4.694  1.3082  0.3176 -0.2952
   74CHL1  H21B 6636   2.649   1.701   4.703  0.2926  0.8117 -0.5944
   74CHL1  H21C 6637   2.545   1.696   4.855  1.8488 -0.0092 -0.1492
   74CHL1   C22 6638   2.541   1.434   4.775  0.5809 -0.3996 -0.1433
   74CHL1  H22A 6639   2.510   1.345   4.717  0.4613  0.7875 -1.9756
   74CHL1  H22B 6640   2.652   1.430   4.789  0.3026 -3.2218  1.9864
   74CHL1   C23 6641   2.474   1.431   4.919  0.2270 -0.3569  0.1870
   74CHL1  H23A 6642   2.511   1.522   4.970  0.3505  0.0103 -0.5415
   74CHL1  H23B 6643   2.363   1.433   4.910  0.0604 -4.2454 -0.6941
   74CHL1   C24 6644   2.522   1.316   5.006 -0.4122  0.2121 -0.2017
   74CHL1  H24A 6645   2.508   1.217   4.957  2.6645  0.1974 -1.3148
   74CHL1  H24B 6646   2.633   1.313   5.001 -0.4629 -0.6143 -1.1808
   74CHL1   C25 6647   2.465   1.315   5.151  0.6953 -0.1158 -0.2632
   74CHL1   H25 6648   2.356   1.333   5.148  0.9997  1.8105 -1.0066
   74CHL1   C26 6649   2.487   1.182   5.221 -0.3021 -0.2568  0.0435
   74CHL1  H26A 6650   2.472   1.190   5.331 -1.6916 -0.5514 -0.1062
   74CHL1  H26B 6651   2.413   1.107   5.185 -2.1115  2.0396 -1.2761
   74CHL1  H26C 6652   2.591   1.148   5.199  0.1160  1.0476 -0.0454
   74CHL1   C27 6653   2.518   1.438   5.233  0.5045  0.4366 -0.5580
   74CHL1  H27A 6654   2.629   1.440   5.220  0.4349  3.2128 -1.2692
   74CHL1  H27B 6655   2.477   1.526   5.179  0.6744  1.6390  1.1759
   74CHL1  H27C 6656   2.498   1.436   5.342  2.3560 -0.5150 -0.1780
   75CHL1    C3 6657   2.661   1.128   3.618 -0.2760 -0.0654  0.2539
   75CHL1    H3 6658   2.577   1.199   3.629  0.5795  0.7146  2.4865
   75CHL1    O3 6659   2.710   1.129   3.483  0.7852  0.2446  0.4681
   75CHL1   H3' 6660   2.711   1.221   3.455 -1.0145  0.3581  0.6416
   75CHL1    C4 6661   2.776   1.183   3.705 -0.5037  1.5538  0.1552
   75CHL1   H4A 6662   2.871   1.139   3.669 -0.9058  1.3439 -0.6791
   75CHL1   H4B 6663   2.785   1.291   3.679  0.0306  1.2967 -0.7731
   75CHL1    C5 6664   2.755   1.162   3.852  0.1321 -0.5086  0.9209
   75CHL1    C6 6665   2.759   1.268   3.935 -0.6630  0.9672 -0.1078
   75CHL1    H6 6666   2.782   1.366   3.892  0.4175  1.2761  1.0970
   75CHL1    C7 6667   2.751   1.247   4.085 -0.5602  0.3137 -0.1623
   75CHL1   H7A 6668   2.812   1.327   4.133 -0.2511  1.0285 -1.7035
   75CHL1   H7B 6669   2.643   1.268   4.101 -0.6162  0.1853 -0.3695
   75CHL1    C8 6670   2.777   1.097   4.126  0.6127  0.3926  0.0006
   75CHL1    H8 6671   2.883   1.072   4.100  0.7087  0.7222  0.0753
   75CHL1   C14 6672   2.750   1.070   4.270  0.1750  0.5350  0.0420
   75CHL1   H14 6673   2.645   1.100   4.294 -0.0104 -0.4384  0.4771
   75CHL1   C15 6674   2.832   1.154   4.367  0.2587 -0.0916 -0.1950
   75CHL1  H15A 6675   2.940   1.167   4.342  0.4463  0.8574  0.9948
   75CHL1  H15B 6676   2.801   1.260   4.380 -0.7183 -0.4590  0.6610
   75CHL1   C16 6677   2.826   1.085   4.503  0.3989  0.8497  0.1611
   75CHL1  H16A 6678   2.930   1.065   4.535  1.0401  2.1516 -1.0054
   75CHL1  H16B 6679   2.781   1.145   4.585  0.3323  1.7970 -0.5425
   75CHL1   C17 6680   2.753   0.947   4.473 -0.1154 -0.0516 -0.2783
   75CHL1   H17 6681   2.645   0.960   4.495 -0.1069 -1.1473  0.4704
   75CHL1   C13 6682   2.764   0.930   4.321  0.9394  0.0371 -0.4837
   75CHL1   C18 6683   2.914   0.882   4.285  0.2341  0.1747 -0.3774
   75CHL1  H18A 6684   2.942   0.897   4.179  3.0567 -1.2771  0.0513
   75CHL1  H18B 6685   2.981   0.937   4.355 -0.1707 -0.3820  0.4558
   75CHL1  H18C 6686   2.928   0.774   4.308  0.8430  0.2230 -0.4934
   75CHL1   C12 6687   2.671   0.838   4.239 -0.2801 -0.1757 -0.0088
   75CHL1  H12A 6688   2.728   0.744   4.251 -2.1911 -1.2870  0.8796
   75CHL1  H12B 6689   2.572   0.814   4.283  0.4919 -4.7391 -0.2458
   75CHL1   C11 6690   2.676   0.862   4.087  0.9142 -0.3039  0.4898
   75CHL1  H11A 6691   2.757   0.804   4.039  2.4653  1.6493  0.6196
   75CHL1  H11B 6692   2.583   0.823   4.039  1.2675  0.4539 -0.8556
   75CHL1    C9 6693   2.685   1.007   4.039  0.0011 -0.4967  0.3159
   75CHL1    H9 6694   2.582   1.040   4.067  1.0471  1.1538  2.4915
   75CHL1   C10 6695   2.718   1.021   3.884  0.4891  0.4361 -0.3823
   75CHL1   C19 6696   2.841   0.930   3.852 -0.3895  0.6371  0.5272
   75CHL1  H19A 6697   2.921   0.953   3.925 -0.4845 -0.3791  0.9600
   75CHL1  H19B 6698   2.819   0.821   3.850 -1.1323  0.7760 -1.6291
   75CHL1  H19C 6699   2.879   0.955   3.750 -0.1392 -0.6126  0.2941
   75CHL1    C1 6700   2.593   0.983   3.801  0.8683 -0.1402  0.1168
   75CHL1   H1A 6701   2.567   0.876   3.817 -1.0501  0.2015 -0.4136
   75CHL1   H1B 6702   2.506   1.045   3.833  0.2061 -0.4228 -1.0750
   75CHL1    C2 6703   2.615   0.991   3.652  0.7632 -0.0154  0.3292
   75CHL1   H2A 6704   2.517   0.966   3.606  0.3881  1.4155  0.2892
   75CHL1   H2B 6705   2.678   0.915   3.601  0.3322  1.2795 -2.2584
   75CHL1   C20 6706   2.802   0.833   4.568 -0.2164 -0.0916 -1.1822
   75CHL1   H20 6707   2.902   0.800   4.533 -0.5729  1.6025 -4.1143
   75CHL1   C21 6708   2.709   0.714   4.555  0.1826 -0.2718 -0.2293
   75CHL1  H21A 6709   2.604   0.741   4.580  0.4172  0.7364 -0.2857
   75CHL1  H21B 6710   2.753   0.633   4.618  1.3695  0.4898 -0.0533
   75CHL1  H21C 6711   2.713   0.678   4.450  2.7819  1.6820 -0.9089
   75CHL1   C22 6712   2.822   0.870   4.724 -0.3370 -0.8734 -0.0024
   75CHL1  H22A 6713   2.857   0.782   4.783  0.3865  0.2031  1.2114
   75CHL1  H22B 6714   2.898   0.948   4.741 -1.2073 -0.6353  3.4351
   75CHL1   C23 6715   2.691   0.913   4.779 -0.4704 -0.7172 -0.0126
   75CHL1  H23A 6716   2.669   1.000   4.713  0.3173 -1.0152 -0.6766
   75CHL1  H23B 6717   2.613   0.834   4.774  0.9832 -2.2117  0.1346
   75CHL1   C24 6718   2.693   0.959   4.922  0.3338 -0.0404  0.1069
   75CHL1  H24A 6719   2.731   1.061   4.945 -1.0085  0.4540  0.2184
   75CHL1  H24B 6720   2.584   0.961   4.942  0.3682 -2.7384  0.9012
   75CHL1   C25 6721   2.760   0.868   5.029  0.5433 -0.4530  0.3887
   75CHL1   H25 6722   2.868   0.858   5.009  0.5177 -2.7191  1.1074
   75CHL1   C26 6723   2.740   0.930   5.172 -0.1602  0.0025  0.2556
   75CHL1  H26A 6724   2.814   0.898   5.248  1.2181 -0.0637 -1.0529
   75CHL1  H26B 6725   2.760   1.039   5.157 -0.5144  0.0177 -0.1198
   75CHL1  H26C 6726   2.638   0.921   5.213 -0.7727 -1.3459 -1.4276
   75CHL1   C27 6727   2.709   0.723   5.035  0.0738  0.5310 -0.6478
   75CHL1  H27A 6728   2.755   0.652   4.964 -2.0144 -1.2506 -0.2990
   75CHL1  H27B 6729   2.731   0.693   5.140 -0.0909  4.1912  0.5966
   75CHL1  H27C 6730   2.601   0.719   5.010  0.1881  0.9789 -1.2337
   76CHL1    C3 6731   1.676   1.848   3.248 -0.3112 -0.3151 -0.8108
   76CHL1    H3 6732   1.774   1.873   3.293 -1.2734  2.5670 -0.1312
   76CHL1    O3 6733   1.702   1.793   3.121  0.2805  0.4208 -0.0475
   76CHL1   H3' 6734   1.680   1.701   3.133 -3.2186  0.6449 -2.9402
   76CHL1    C4 6735   1.607   1.746   3.336  0.1382 -0.1828 -0.3069
   76CHL1   H4A 6736   1.509   1.721   3.289  1.0411 -0.1921 -2.2795
   76CHL1   H4B 6737   1.659   1.649   3.348  0.3463  0.1317  1.6866
   76CHL1    C5 6738   1.583   1.808   3.473 -0.6467  0.6162 -0.1020
   76CHL1    C6 6739   1.645   1.759   3.583  0.0641 -0.4281 -0.0904
   76CHL1    H6 6740   1.701   1.665   3.578  2.4017  0.6917  2.4364
   76CHL1    C7 6741   1.614   1.811   3.720  0.5843  0.2266  0.1737
   76CHL1   H7A 6742   1.592   1.722   3.783  1.2494 -0.6850 -0.8290
   76CHL1   H7B 6743   1.702   1.865   3.759  1.9991  0.1937 -2.7156
   76CHL1    C8 6744   1.492   1.907   3.720  0.3742 -0.6650 -0.1545
   76CHL1    H8 6745   1.397   1.854   3.698 -0.4234  1.3586 -1.8820
   76CHL1   C14 6746   1.478   1.974   3.853  0.0361 -0.2734 -1.0591
   76CHL1   H14 6747   1.579   2.017   3.870 -0.7589  1.1087  0.5199
   76CHL1   C15 6748   1.447   1.881   3.972 -0.1078  0.0804 -0.3689
   76CHL1  H15A 6749   1.371   1.804   3.947 -1.7870  1.3713  0.5654
   76CHL1  H15B 6750   1.544   1.841   4.010 -0.7273  1.0269  2.4877
   76CHL1   C16 6751   1.389   1.972   4.086 -0.2713 -0.2709 -0.2560
   76CHL1  H16A 6752   1.285   1.947   4.116 -0.9060  2.0233 -0.3163
   76CHL1  H16B 6753   1.449   1.958   4.179 -1.0742  1.2021  0.5236
   76CHL1   C17 6754   1.387   2.114   4.029  0.2757 -0.1150  0.2010
   76CHL1   H17 6755   1.487   2.161   4.042 -0.6390  1.8756  0.5051
   76CHL1   C13 6756   1.374   2.093   3.871 -1.2376 -1.1389 -0.4486
   76CHL1   C18 6757   1.236   2.041   3.848  0.8467 -0.3421  0.0274
   76CHL1  H18A 6758   1.213   1.996   3.749 -1.8008  3.3840 -1.2767
   76CHL1  H18B 6759   1.204   1.955   3.911  3.4324 -1.2235  0.2605
   76CHL1  H18C 6760   1.166   2.117   3.887  0.8057 -0.2322 -0.2609
   76CHL1   C12 6761   1.416   2.203   3.770  0.1033  0.3776 -0.0492
   76CHL1  H12A 6762   1.344   2.288   3.775  0.1057  0.3149  1.7580
   76CHL1  H12B 6763   1.517   2.242   3.794  0.1601  0.2146 -0.0255
   76CHL1   C11 6764   1.424   2.143   3.627 -0.5977  1.0600 -0.2453
   76CHL1  H11A 6765   1.323   2.125   3.584 -0.6693  0.9336 -0.0218
   76CHL1  H11B 6766   1.475   2.221   3.566  2.2270  0.8621  1.6810
   76CHL1    C9 6767   1.506   2.010   3.610  0.2244  1.1766  0.0300
   76CHL1    H9 6768   1.610   2.047   3.624  0.3147  1.0422 -0.2893
   76CHL1   C10 6769   1.510   1.945   3.469 -0.4009  0.4824  0.0021
   76CHL1   C19 6770   1.362   1.916   3.432 -0.1847  0.6212  0.2071
   76CHL1  H19A 6771   1.300   2.007   3.417 -0.9025  0.3727  1.5823
   76CHL1  H19B 6772   1.363   1.870   3.330  0.9545 -0.8029  0.8112
   76CHL1  H19C 6773   1.309   1.853   3.506  1.8953  0.7192  1.8829
   76CHL1    C1 6774   1.578   2.042   3.358  0.3653  0.5644 -0.1713
   76CHL1   H1A 6775   1.518   2.136   3.354  0.6630  0.7743  0.1754
   76CHL1   H1B 6776   1.684   2.069   3.374 -0.0706  2.0432  0.3569
   76CHL1    C2 6777   1.587   1.966   3.223 -0.6979  0.2249  0.6311
   76CHL1   H2A 6778   1.637   2.044   3.162 -0.3450  0.2905  0.9931
   76CHL1   H2B 6779   1.491   1.934   3.177  0.0856 -1.6480  0.1866
   76CHL1   C20 6780   1.296   2.208   4.105 -0.0026 -0.7748 -0.2742
   76CHL1   H20 6781   1.199   2.156   4.120 -1.2148  1.5123  0.2323
   76CHL1   C21 6782   1.272   2.347   4.022  0.5995 -0.0490  0.0521
   76CHL1  H21A 6783   1.371   2.393   4.003  2.0832 -1.7428  3.0768
   76CHL1  H21B 6784   1.206   2.414   4.081  0.3525 -1.6428  1.6585
   76CHL1  H21C 6785   1.232   2.319   3.922 -0.3354  0.8662  0.1499
   76CHL1   C22 6786   1.350   2.240   4.249  0.7039  0.5223  0.1078
   76CHL1  H22A 6787   1.397   2.150   4.293 -0.3680  0.1994  0.6391
   76CHL1  H22B 6788   1.439   2.307   4.244  0.9163  0.2206 -0.1259
   76CHL1   C23 6789   1.246   2.314   4.333  0.1877 -0.1865 -0.6543
   76CHL1  H23A 6790   1.209   2.404   4.280 -0.9327  1.2511  2.3464
   76CHL1  H23B 6791   1.156   2.254   4.357  0.6949 -1.2558 -1.3283
   76CHL1   C24 6792   1.302   2.375   4.461 -0.3494 -0.1657 -0.6159
   76CHL1  H24A 6793   1.400   2.421   4.434  1.4395 -3.0205  0.5172
   76CHL1  H24B 6794   1.232   2.445   4.511  0.1408 -1.5074  2.1605
   76CHL1   C25 6795   1.338   2.273   4.565  0.0025  0.7161 -1.3795
   76CHL1   H25 6796   1.377   2.180   4.520  1.8191  0.4188  0.5977
   76CHL1   C26 6797   1.464   2.323   4.657  0.6391  0.2324 -0.4021
   76CHL1  H26A 6798   1.500   2.249   4.732  1.1595  1.6950  0.8197
   76CHL1  H26B 6799   1.548   2.335   4.585  0.9192  3.3196  0.3294
   76CHL1  H26C 6800   1.454   2.412   4.723  1.1426 -1.3699  1.9743
   76CHL1   C27 6801   1.209   2.234   4.640  0.4682 -0.1557  0.7749
   76CHL1  H27A 6802   1.132   2.197   4.569  0.5638 -0.9490  1.0717
   76CHL1  H27B 6803   1.239   2.147   4.702  1.7125 -0.0599  0.3376
   76CHL1  H27C 6804   1.169   2.321   4.697 -1.5860 -1.1373  0.9190
   77SOPE     N 6805   5.252   6.707   7.351 -0.3936 -0.5653  0.0364
   77SOPE   HN1 6806   5.298   6.769   7.421 -1.8474  1.1983 -0.4700
   77SOPE   HN2 6807   5.153   6.695   7.381 -0.5922 -0.8638 -0.7175
   77SOPE   HN3 6808   5.295   6.613   7.356 -0.2275 -0.5557 -0.9547
   77SOPE   C12 6809   5.239   6.777   7.218 -0.3960 -1.2177  0.2261
   77SOPE  H12A 6810   5.206   6.704   7.142 -2.2231  0.1409 -0.3712
   77SOPE  H12B 6811   5.337   6.814   7.181 -1.6826  1.4187 -0.8766
   77SOPE   C11 6812   5.138   6.898   7.223  0.3281  0.4259  0.6032
   77SOPE  H11A 6813   5.037   6.862   7.251  0.3480  1.3449  1.9458
   77SOPE  H11B 6814   5.120   6.929   7.118 -0.2018  2.2000  1.1774
   77SOPE     P 6815   5.192   7.151   7.261 -0.0950 -0.4421 -0.2111
   77SOPE   O13 6816   5.305   7.144   7.174 -0.4084  0.5287  0.3567
   77SOPE   O14 6817   5.213   7.236   7.377  0.1314 -0.1438  0.0316
   77SOPE   O12 6818   5.173   7.002   7.315 -0.5324 -0.0506 -0.6088
   77SOPE   O11 6819   5.061   7.196   7.194  0.1751 -0.2140  0.2945
   77SOPE    C1 6820   4.933   7.175   7.249 -0.2804  0.0610 -0.5760
   77SOPE    HA 6821   4.910   7.240   7.335 -1.2729 -0.8934 -0.0939
   77SOPE    HB 6822   4.914   7.067   7.270  4.2041 -0.4093  2.5226
   77SOPE    C2 6823   4.839   7.227   7.139  0.5402  0.3885 -0.0948
   77SOPE    HS 6824   4.740   7.183   7.165  0.2777 -1.2450 -3.3398
   77SOPE   O21 6825   4.883   7.174   7.018 -0.6719 -0.0694 -0.1404
   77SOPE   C21 6826   4.861   7.055   6.991  0.1595 -0.2273  0.4574
   77SOPE   O22 6827   4.808   6.973   7.064 -0.1130  0.5916  0.7316
   77SOPE   C22 6828   4.925   7.022   6.858 -0.5562 -0.1299  0.8990
   77SOPE   H2R 6829   5.032   7.053   6.849 -1.1738  1.3904 -2.4507
   77SOPE   H2S 6830   4.853   7.071   6.790 -0.4511  0.8546  1.4770
   77SOPE    C3 6831   4.819   7.385   7.146  0.1231  0.2314  0.4199
   77SOPE    HX 6832   4.916   7.436   7.128 -0.4145  0.6392 -1.5362
   77SOPE    HY 6833   4.780   7.414   7.246 -0.3490  3.5607 -0.6375
   77SOPE   O31 6834   4.738   7.429   7.034  0.0231  0.4359  0.0277
   77SOPE   C31 6835   4.615   7.393   7.033 -0.2250 -0.2567  0.7322
   77SOPE   O32 6836   4.553   7.353   7.128  0.7656 -0.2427 -0.1515
   77SOPE   C32 6837   4.553   7.413   6.892  0.4744  0.3939 -0.1390
   77SOPE   H2X 6838   4.548   7.523   6.877  0.7879  0.5351  0.7270
   77SOPE   H2Y 6839   4.451   7.369   6.896  0.8003 -0.3580  2.8181
   77SOPE   C23 6840   4.932   6.868   6.844 -0.3054  0.3275  0.3061
   77SOPE   H3R 6841   4.830   6.825   6.834  0.5331 -1.3547 -1.7457
   77SOPE   H3S 6842   4.989   6.827   6.930  4.4553  3.3920 -1.0025
   77SOPE   C24 6843   5.000   6.819   6.716  0.4523 -0.0077  0.3891
   77SOPE   H4R 6844   5.099   6.869   6.704  0.5319 -0.0645  0.8122
   77SOPE   H4S 6845   5.011   6.709   6.712  2.8019  0.2050 -2.1222
   77SOPE   C25 6846   4.913   6.865   6.595  0.6117  0.3393 -0.1978
   77SOPE   H5R 6847   4.813   6.825   6.622  1.3531 -0.9862  0.6476
   77SOPE   H5S 6848   4.907   6.976   6.589  4.4616  0.6086 -2.9787
   77SOPE   C26 6849   4.948   6.796   6.461  0.3479 -0.4463  0.2782
   77SOPE   H6R 6850   5.059   6.796   6.454  0.3461 -1.5831  0.1575
   77SOPE   H6S 6851   4.918   6.689   6.462  1.7554 -0.8545  0.9119
   77SOPE   C27 6852   4.878   6.863   6.339  0.2686 -0.1476 -0.0686
   77SOPE   H7R 6853   4.767   6.855   6.344  0.1173 -0.8625 -2.8589
   77SOPE   H7S 6854   4.904   6.971   6.346 -1.6579  0.4345 -1.1831
   77SOPE   C28 6855   4.929   6.801   6.215 -0.1310 -0.7895 -0.1198
   77SOPE   H8R 6856   5.040   6.804   6.227 -0.2723 -1.1826  1.5500
   77SOPE   H8S 6857   4.905   6.694   6.202  0.5938 -0.8477 -1.1492
   77SOPE   C29 6858   4.893   6.888   6.092  0.0070 -1.0274  0.9457
   77SOPE   H91 6859   4.795   6.934   6.113 -0.7763 -2.2253  0.0267
   77SOPE  C210 6860   4.962   6.909   5.981  0.1550  0.4186 -0.4070
   77SOPE  H101 6861   4.923   6.972   5.900 -2.3694 -0.2704  0.1600
   77SOPE  C211 6862   5.093   6.834   5.954 -0.5072 -0.1707 -0.0383
   77SOPE  H11R 6863   5.141   6.809   6.051  1.3942  2.7104 -0.1011
   77SOPE  H11S 6864   5.157   6.900   5.892 -0.1889  2.7277  3.0565
   77SOPE  C212 6865   5.074   6.707   5.874  0.3084  0.3273  0.6287
   77SOPE  H12R 6866   5.015   6.632   5.931 -1.6130  0.5867 -0.9435
   77SOPE  H12S 6867   5.170   6.650   5.872  0.6144  0.8485 -0.1311
   77SOPE  C213 6868   5.007   6.727   5.733 -0.2267 -0.8406 -0.0895
   77SOPE  H13R 6869   5.068   6.807   5.685 -0.6259 -0.9458 -0.7828
   77SOPE  H13S 6870   4.900   6.753   5.740 -0.1057 -0.5679  0.7446
   77SOPE  C214 6871   5.019   6.595   5.664 -0.0742 -0.1259  0.2100
   77SOPE  H14R 6872   4.952   6.513   5.699 -0.1562 -0.9386 -1.7411
   77SOPE  H14S 6873   5.125   6.562   5.677  0.2959  0.8629 -0.2469
   77SOPE  C215 6874   4.985   6.595   5.512  0.1939  0.0805 -0.3151
   77SOPE  H15R 6875   5.008   6.495   5.471 -1.1901  0.1210 -1.2586
   77SOPE  H15S 6876   5.043   6.671   5.454  0.5522  0.2960  0.3181
   77SOPE  C216 6877   4.831   6.622   5.494  0.2308 -0.1055 -0.1669
   77SOPE  H16R 6878   4.780   6.562   5.573  3.4008 -3.1289 -0.1893
   77SOPE  H16S 6879   4.796   6.558   5.410 -0.7386 -0.1431  0.2560
   77SOPE  C217 6880   4.791   6.762   5.465  1.5643 -0.3966 -0.1920
   77SOPE  H17R 6881   4.850   6.804   5.381  3.3541  0.6274  1.5047
   77SOPE  H17S 6882   4.815   6.824   5.553  0.3261 -0.8822  0.5196
   77SOPE  C218 6883   4.640   6.775   5.437 -0.4070  0.0766  0.4855
   77SOPE  H18R 6884   4.588   6.704   5.505  0.2221  0.7130  1.6576
   77SOPE  H18S 6885   4.612   6.745   5.334 -0.1565  0.1361  0.4009
   77SOPE  H18T 6886   4.613   6.881   5.456 -2.3154 -0.3711  0.5404
   77SOPE   C33 6887   4.634   7.350   6.784 -0.4690  0.2448 -0.2486
   77SOPE   H3X 6888   4.639   7.241   6.807 -0.7504  0.7559  2.5326
   77SOPE   H3Y 6889   4.740   7.384   6.792  0.5935 -2.3180 -1.8488
   77SOPE   C34 6890   4.573   7.375   6.638 -0.5015  0.4347 -0.1664
   77SOPE   H4X 6891   4.579   7.485   6.624 -0.2394  0.5438  0.7657
   77SOPE   H4Y 6892   4.464   7.352   6.633 -0.0457 -1.9927  0.1462
   77SOPE   C35 6893   4.644   7.310   6.524  0.1025  0.1612  0.2716
   77SOPE   H5X 6894   4.673   7.205   6.546  1.1779  0.2582 -0.5534
   77SOPE   H5Y 6895   4.744   7.353   6.501  0.8906 -2.2631 -1.3168
   77SOPE   C36 6896   4.562   7.320   6.393 -0.1293  0.0370 -0.6479
   77SOPE   H6X 6897   4.539   7.427   6.378 -0.4218 -0.1123 -1.3148
   77SOPE   H6Y 6898   4.457   7.284   6.402  0.2382 -0.6281  1.6386
   77SOPE   C37 6899   4.631   7.244   6.278 -0.3353 -0.1428  0.0624
   77SOPE   H7X 6900   4.590   7.141   6.279 -1.5169  0.1791 -3.2151
   77SOPE   H7Y 6901   4.741   7.240   6.292 -0.3219  0.9162  0.3841
   77SOPE   C38 6902   4.600   7.321   6.151  0.0257 -0.2682 -0.8162
   77SOPE   H8X 6903   4.641   7.424   6.149  1.4016 -0.7874 -0.0390
   77SOPE   H8Y 6904   4.489   7.320   6.141  0.1501 -1.0366 -2.5697
   77SOPE   C39 6905   4.650   7.259   6.023  0.4971 -0.5547  0.1874
   77SOPE   H9X 6906   4.594   7.164   6.013 -1.8566  0.8095 -0.3830
   77SOPE   H9Y 6907   4.760   7.254   6.014  0.5089  1.2199 -1.0758
   77SOPE  C310 6908   4.599   7.338   5.897 -0.1188 -0.3009 -0.5598
   77SOPE  H10X 6909   4.652   7.435   5.907  0.2557 -0.6694  1.5277
   77SOPE  H10Y 6910   4.489   7.355   5.904 -0.4781 -2.5429  0.2626
   77SOPE  C311 6911   4.634   7.275   5.768 -0.5015  0.2356  0.8808
   77SOPE  H11X 6912   4.570   7.184   5.758  0.4799 -0.4714  0.8187
   77SOPE  H11Y 6913   4.741   7.243   5.762  0.0836  2.1773  0.3327
   77SOPE  C312 6914   4.602   7.374   5.658  0.4890 -0.0121 -0.2470
   77SOPE  H12X 6915   4.653   7.472   5.675 -1.6239  0.7059  2.8058
   77SOPE  H12Y 6916   4.494   7.403   5.657  0.4778  0.0102 -2.3393
   77SOPE  C313 6917   4.630   7.317   5.530  0.8706  0.1604  0.2140
   77SOPE  H13X 6918   4.736   7.316   5.499  1.4103  0.9123  1.9595
   77SOPE  H13Y 6919   4.582   7.380   5.451 -0.5871  0.3128  1.1813
   77SOPE  C314 6920   4.584   7.167   5.503  0.0098 -0.0744 -0.7750
   77SOPE  H14X 6921   4.486   7.155   5.552  0.1980  3.2282  0.6599
   77SOPE  H14Y 6922   4.650   7.092   5.552 -1.8877 -0.8297  0.7298
   77SOPE  C315 6923   4.577   7.135   5.346 -0.3880 -0.4768  0.0082
   77SOPE  H15X 6924   4.575   7.027   5.321 -1.2534 -0.2606 -0.9108
   77SOPE  H15Y 6925   4.662   7.181   5.292  0.1875 -3.1870 -1.5720
   77SOPE  C316 6926   4.461   7.199   5.274 -0.3526  0.1830  0.2305
   77SOPE  H16X 6927   4.495   7.304   5.275 -1.9705  0.7321 -0.3357
   77SOPE  H16Y 6928   4.368   7.208   5.334 -2.4257 -0.7643 -2.6080
   77SOPE  C317 6929   4.430   7.130   5.137  0.0082  0.1506 -0.0725
   77SOPE  H17X 6930   4.519   7.116   5.071 -0.7194 -0.4204 -0.9724
   77SOPE  H17Y 6931   4.363   7.198   5.079  2.5843  2.1278 -0.9098
   77SOPE  C318 6932   4.355   7.000   5.140  0.7899 -0.1933 -1.0369
   77SOPE  H18X 6933   4.346   6.964   5.035 -1.2212 -0.5001 -0.8061
   77SOPE  H18Y 6934   4.250   7.001   5.177  0.7273 -0.8910 -1.1764
   77SOPE  H18Z 6935   4.405   6.917   5.193  0.2322  1.9822  3.3293
   78SOPE     N 6936   4.598   5.038   7.191 -0.3751  0.1957  0.4272
   78SOPE   HN1 6937   4.505   4.993   7.199 -1.5836  2.4104 -0.1181
   78SOPE   HN2 6938   4.643   4.990   7.111 -1.0330 -0.9527  0.7296
   78SOPE   HN3 6939   4.659   5.022   7.274  0.6477 -0.0505 -0.3502
   78SOPE   C12 6940   4.595   5.183   7.160  0.3551  0.1897 -0.4745
   78SOPE  H12A 6941   4.586   5.182   7.049  2.5750  2.9978 -0.7693
   78SOPE  H12B 6942   4.697   5.217   7.186 -0.7721  1.6639  2.3761
   78SOPE   C11 6943   4.489   5.263   7.232  0.3032  0.0538 -0.6516
   78SOPE  H11A 6944   4.500   5.372   7.214  0.5652  0.0226 -0.6785
   78SOPE  H11B 6945   4.504   5.258   7.342 -1.7164 -3.3826 -0.3854
   78SOPE     P 6946   4.279   5.251   7.072  0.3728  0.1699 -0.0972
   78SOPE   O13 6947   4.137   5.219   7.110 -0.4163  0.0700 -0.3543
   78SOPE   O14 6948   4.321   5.177   6.955  0.0483 -0.6349  0.5471
   78SOPE   O12 6949   4.357   5.215   7.201 -0.2792  0.1999  0.4038
   78SOPE   O11 6950   4.292   5.403   7.054 -0.4034 -0.1045 -0.1639
   78SOPE    C1 6951   4.405   5.457   6.981 -0.7550 -0.1803 -0.7916
   78SOPE    HA 6952   4.497   5.395   6.970 -0.0673  0.9157 -1.3895
   78SOPE    HB 6953   4.460   5.539   7.032  0.3077 -1.4153  0.1159
   78SOPE    C2 6954   4.362   5.499   6.846 -0.0260 -0.1379  0.4702
   78SOPE    HS 6955   4.327   5.406   6.796 -0.7987  0.4562 -0.1093
   78SOPE   O21 6956   4.472   5.559   6.782 -0.4396  0.4046  0.3040
   78SOPE   C21 6957   4.567   5.477   6.739 -0.0603 -0.0468 -0.0028
   78SOPE   O22 6958   4.568   5.361   6.751  0.8140  0.3500 -0.3878
   78SOPE   C22 6959   4.671   5.558   6.662  0.3827 -0.0908 -0.1935
   78SOPE   H2R 6960   4.752   5.488   6.635  0.1209 -0.8372  0.8619
   78SOPE   H2S 6961   4.703   5.644   6.726 -0.6746  0.3451 -0.2324
   78SOPE    C3 6962   4.235   5.595   6.848 -0.1913 -0.6734 -0.1143
   78SOPE    HX 6963   4.239   5.686   6.913 -2.7199  0.6110 -1.5827
   78SOPE    HY 6964   4.161   5.534   6.904 -2.3507  1.7671 -0.1191
   78SOPE   O31 6965   4.175   5.636   6.717 -0.3752  0.0499 -0.0661
   78SOPE   C31 6966   4.232   5.738   6.660  0.3468 -1.1819 -0.4252
   78SOPE   O32 6967   4.307   5.816   6.718 -0.2686 -0.0294  0.1837
   78SOPE   C32 6968   4.171   5.767   6.524  0.1934 -0.4968  0.6473
   78SOPE   H2X 6969   4.172   5.878   6.521 -3.4246 -0.3194  1.0525
   78SOPE   H2Y 6970   4.061   5.749   6.522 -0.2413  1.9043 -0.0245
   78SOPE   C23 6971   4.616   5.616   6.531  0.3601  0.1198 -0.3365
   78SOPE   H3R 6972   4.533   5.690   6.545 -0.7564 -1.1556 -0.0462
   78SOPE   H3S 6973   4.563   5.540   6.470  1.6003  0.1986 -1.5472
   78SOPE   C24 6974   4.733   5.656   6.446 -0.0464  0.3493  0.2171
   78SOPE   H4R 6975   4.785   5.741   6.495 -0.8720  1.9144 -1.5373
   78SOPE   H4S 6976   4.808   5.573   6.448  1.2166  1.4220 -0.8593
   78SOPE   C25 6977   4.703   5.682   6.299 -0.2235 -0.1259  0.2059
   78SOPE   H5R 6978   4.664   5.586   6.259  0.2081  0.7106 -2.3841
   78SOPE   H5S 6979   4.627   5.763   6.287  1.5334  1.6386  0.5200
   78SOPE   C26 6980   4.828   5.722   6.229 -0.3624  0.7682  0.4050
   78SOPE   H6R 6981   4.878   5.804   6.286 -0.0618  0.0002  1.2781
   78SOPE   H6S 6982   4.909   5.646   6.223 -0.1404  1.1455 -2.4649
   78SOPE   C27 6983   4.788   5.775   6.098  0.2347  0.5113  0.6357
   78SOPE   H7R 6984   4.726   5.694   6.054 -0.6408  1.9739 -0.9478
   78SOPE   H7S 6985   4.724   5.866   6.104  0.0004  0.3103  1.2614
   78SOPE   C28 6986   4.895   5.800   5.991 -0.3903 -0.5112  0.1730
   78SOPE   H8R 6987   4.958   5.709   5.984 -1.3623 -1.2468  0.6410
   78SOPE   H8S 6988   4.853   5.805   5.888 -1.3324  0.4555  0.5779
   78SOPE   C29 6989   4.987   5.907   6.042  0.1604 -0.5283 -0.0311
   78SOPE   H91 6990   5.031   5.890   6.141 -1.5700 -2.7600  0.4313
   78SOPE  C210 6991   5.014   6.027   5.986  0.0139  0.1956  0.2706
   78SOPE  H101 6992   5.087   6.098   6.028  2.3543 -2.0680  0.2827
   78SOPE  C211 6993   4.947   6.081   5.856  0.6870 -0.2545 -0.2038
   78SOPE  H11R 6994   4.905   6.182   5.872 -0.5060 -0.7575 -0.0485
   78SOPE  H11S 6995   4.865   6.013   5.824  1.2543 -0.1521 -2.0158
   78SOPE  C212 6996   5.032   6.091   5.729  0.3978  0.2622  0.3275
   78SOPE  H12R 6997   4.970   6.107   5.638  2.5615  0.0405 -1.2831
   78SOPE  H12S 6998   5.088   5.999   5.701  2.5702  1.3593  0.8579
   78SOPE  C213 6999   5.135   6.203   5.737  0.1314  0.3391  0.2550
   78SOPE  H13R 7000   5.197   6.172   5.824 -0.3077 -2.4321 -0.3228
   78SOPE  H13S 7001   5.070   6.290   5.762 -0.6134 -0.0813 -0.1796
   78SOPE  C214 7002   5.222   6.235   5.612  0.6847  0.1293  0.4171
   78SOPE  H14R 7003   5.281   6.327   5.627  0.0914  0.3035  1.8941
   78SOPE  H14S 7004   5.156   6.262   5.526  1.4287 -0.0720 -0.2260
   78SOPE  C215 7005   5.306   6.125   5.566  0.3056 -0.7394  0.1612
   78SOPE  H15R 7006   5.236   6.049   5.525  0.1576  0.2405 -1.5138
   78SOPE  H15S 7007   5.354   6.082   5.656 -0.0026  0.7571  1.0800
   78SOPE  C216 7008   5.410   6.156   5.453  0.1249 -0.1474  0.4583
   78SOPE  H16R 7009   5.478   6.072   5.428  2.4846  2.0111 -0.7664
   78SOPE  H16S 7010   5.478   6.227   5.505 -1.3016  2.4655 -1.0950
   78SOPE  C217 7011   5.367   6.227   5.323  0.4057 -0.2975  1.1179
   78SOPE  H17R 7012   5.451   6.285   5.280  0.4319 -1.5942 -0.6933
   78SOPE  H17S 7013   5.285   6.296   5.350  0.3233 -0.1236  0.4356
   78SOPE  C218 7014   5.316   6.128   5.214 -0.0987 -0.3843 -0.3634
   78SOPE  H18R 7015   5.392   6.052   5.186  2.0550  1.3110  0.5766
   78SOPE  H18S 7016   5.277   6.184   5.127 -2.3554  1.1686  1.5125
   78SOPE  H18T 7017   5.232   6.078   5.267  0.3599  0.5446  1.3170
   78SOPE   C33 7018   4.255   5.717   6.401 -0.2445 -0.5414  0.6110
   78SOPE   H3X 7019   4.290   5.613   6.416  1.7873  0.3017  2.1408
   78SOPE   H3Y 7020   4.344   5.784   6.399  1.1412 -2.3406 -0.4212
   78SOPE   C34 7021   4.178   5.743   6.272 -0.0264  0.2451  0.3099
   78SOPE   H4X 7022   4.131   5.843   6.281 -1.5922 -0.5430  1.4832
   78SOPE   H4Y 7023   4.103   5.660   6.265  2.0489 -1.6886 -0.2096
   78SOPE   C35 7024   4.272   5.738   6.149  0.8280  0.1572 -0.2703
   78SOPE   H5X 7025   4.278   5.629   6.129 -0.9601 -0.2683  1.2204
   78SOPE   H5Y 7026   4.373   5.774   6.176  1.0064 -0.8763  0.5373
   78SOPE   C36 7027   4.200   5.813   6.030  0.1740 -0.5527  0.0061
   78SOPE   H6X 7028   4.228   5.920   6.032  1.4786 -0.7737 -2.7393
   78SOPE   H6Y 7029   4.089   5.801   6.034 -0.0925  1.6664  0.4212
   78SOPE   C37 7030   4.240   5.764   5.895 -1.1270 -0.2088  0.1633
   78SOPE   H7X 7031   4.200   5.834   5.818  2.0946  0.5082 -1.0360
   78SOPE   H7Y 7032   4.202   5.661   5.879 -0.9193 -0.1183 -1.0136
   78SOPE   C38 7033   4.392   5.752   5.885  0.5779 -0.4348 -0.3319
   78SOPE   H8X 7034   4.452   5.723   5.974  0.6890 -0.6162 -0.4659
   78SOPE   H8Y 7035   4.435   5.853   5.870 -0.7535  0.0484 -1.0748
   78SOPE   C39 7036   4.438   5.662   5.762  0.1950 -0.9986 -0.2351
   78SOPE   H9X 7037   4.419   5.557   5.794  1.6613 -1.2367 -0.0602
   78SOPE   H9Y 7038   4.549   5.669   5.752  0.0165  1.5837 -0.9775
   78SOPE  C310 7039   4.378   5.697   5.627  0.4990  0.3219  0.6537
   78SOPE  H10X 7040   4.411   5.800   5.602  0.1701  0.0390 -1.0627
   78SOPE  H10Y 7041   4.267   5.688   5.622  0.5786 -0.2209 -0.5821
   78SOPE  C311 7042   4.427   5.604   5.513 -0.7581 -0.3378 -0.1830
   78SOPE  H11X 7043   4.410   5.502   5.553  1.3932 -0.8223 -0.3795
   78SOPE  H11Y 7044   4.538   5.607   5.514 -0.7272  0.4077 -1.8535
   78SOPE  C312 7045   4.373   5.638   5.374 -0.4109 -0.5337 -0.4466
   78SOPE  H12X 7046   4.267   5.672   5.368  0.2738  1.4176 -3.0770
   78SOPE  H12Y 7047   4.385   5.542   5.319  1.1496 -0.4074 -0.3626
   78SOPE  C313 7048   4.466   5.734   5.298 -0.1483  0.2499 -0.4208
   78SOPE  H13X 7049   4.563   5.680   5.293  0.2581  0.9185 -0.0008
   78SOPE  H13Y 7050   4.489   5.835   5.338  0.6012  0.6281 -1.7258
   78SOPE  C314 7051   4.416   5.757   5.155 -0.9020  1.1631 -0.7165
   78SOPE  H14X 7052   4.355   5.850   5.153  0.8103  2.4489  1.6790
   78SOPE  H14Y 7053   4.350   5.676   5.116  0.5081  1.1820 -3.3437
   78SOPE  C315 7054   4.529   5.761   5.051 -0.8126  0.1801 -0.1346
   78SOPE  H15X 7055   4.489   5.767   4.948 -2.2231  1.5617  0.4673
   78SOPE  H15Y 7056   4.591   5.670   5.067 -1.0921  0.2086  1.2787
   78SOPE  C316 7057   4.618   5.885   5.069 -0.1129 -0.1648 -0.1674
   78SOPE  H16X 7058   4.654   5.881   5.174 -1.2634 -0.5837  0.2289
   78SOPE  H16Y 7059   4.557   5.978   5.059  0.5752  0.2604 -0.4763
   78SOPE  C317 7060   4.724   5.900   4.968 -0.5479  0.3948 -1.0336
   78SOPE  H17X 7061   4.670   5.893   4.871 -0.8632  0.6439 -0.8778
   78SOPE  H17Y 7062   4.790   5.810   4.967 -1.0168 -0.0549  1.7450
   78SOPE  C318 7063   4.801   6.030   4.954  0.9647  0.3049  0.7401
   78SOPE  H18X 7064   4.892   6.047   5.016  0.9129  2.0308  0.3823
   78SOPE  H18Y 7065   4.729   6.113   4.968 -1.2467 -1.7519  2.5087
   78SOPE  H18Z 7066   4.837   6.033   4.849 -0.4300  2.1662  0.2694
   79SOPE     N 7067   5.690   4.374   6.966 -0.1466 -0.8753 -0.0777
   79SOPE   HN1 7068   5.617   4.447   6.954  1.6454  1.0616  0.2557
   79SOPE   HN2 7069   5.671   4.317   6.881  0.4093  3.1921 -3.2584
   79SOPE   HN3 7070   5.673   4.320   7.053 -1.8492  2.0809  1.5877
   79SOPE   C12 7071   5.826   4.426   6.936 -0.0026  0.4614 -0.9719
   79SOPE  H12A 7072   5.839   4.525   6.984 -0.5578 -0.3868  1.0314
   79SOPE  H12B 7073   5.833   4.431   6.825 -1.8572  1.1399 -1.0850
   79SOPE   C11 7074   5.932   4.327   6.983  0.5287 -0.2387  0.1511
   79SOPE  H11A 7075   6.030   4.367   6.949 -0.1622  1.2048 -0.2475
   79SOPE  H11B 7076   5.904   4.231   6.935 -2.2524 -0.0882  1.2601
   79SOPE     P 7077   6.030   4.224   7.195 -0.0961 -0.1272  0.0764
   79SOPE   O13 7078   5.989   4.197   7.335  0.3033 -0.1742  0.2621
   79SOPE   O14 7079   6.168   4.284   7.187  0.5187 -0.4460  0.2654
   79SOPE   O12 7080   5.926   4.314   7.125 -0.4767 -0.3335  0.2081
   79SOPE   O11 7081   6.013   4.091   7.106  0.1838 -0.3120  0.0663
   79SOPE    C1 7082   5.892   4.013   7.128 -0.3228 -0.3896  0.1252
   79SOPE    HA 7083   5.801   4.077   7.130 -0.1764 -0.2042  1.1679
   79SOPE    HB 7084   5.900   3.963   7.227 -0.3005 -0.9712 -0.1691
   79SOPE    C2 7085   5.862   3.902   7.030  0.3953  0.3616 -0.2687
   79SOPE    HS 7086   5.958   3.849   7.042  0.3354  0.3717  0.2524
   79SOPE   O21 7087   5.838   3.967   6.905 -0.2925 -0.0012 -0.3518
   79SOPE   C21 7088   5.923   3.956   6.814  0.4785 -0.4333 -0.9230
   79SOPE   O22 7089   6.036   3.909   6.827 -0.1566 -0.2363  0.4369
   79SOPE   C22 7090   5.865   4.017   6.681  0.7914  0.7166  0.4329
   79SOPE   H2R 7091   5.847   4.123   6.705 -1.3910  0.5222 -0.1589
   79SOPE   H2S 7092   5.763   3.975   6.664  0.0998  1.4040  2.5783
   79SOPE    C3 7093   5.745   3.821   7.076 -0.8182  0.0411  0.6885
   79SOPE    HX 7094   5.653   3.882   7.085  0.6128  2.9988 -2.3313
   79SOPE    HY 7095   5.772   3.790   7.179 -0.5048  0.7393  0.8273
   79SOPE   O31 7096   5.729   3.713   6.982  0.1698 -0.3400 -0.0338
   79SOPE   C31 7097   5.799   3.602   7.005 -0.2099  0.3068 -0.0982
   79SOPE   O32 7098   5.861   3.579   7.106  0.2662  0.0381  0.3669
   79SOPE   C32 7099   5.758   3.500   6.904 -0.1629 -0.0508 -0.5157
   79SOPE   H2X 7100   5.648   3.488   6.918 -0.3940  2.4079  0.2677
   79SOPE   H2Y 7101   5.805   3.406   6.940  0.1352  1.0495  2.1904
   79SOPE   C23 7102   5.960   3.996   6.562 -0.5490  0.9542  0.0840
   79SOPE   H3R 7103   5.978   3.887   6.557 -0.0375  1.0658 -0.8568
   79SOPE   H3S 7104   6.055   4.048   6.587  0.3316 -0.2465 -0.6306
   79SOPE   C24 7105   5.884   4.036   6.440  0.8548  0.1507  0.2919
   79SOPE   H4R 7106   5.818   3.954   6.404  0.5350  0.7671 -0.5757
   79SOPE   H4S 7107   5.826   4.129   6.459  1.4610  0.3558  1.1630
   79SOPE   C25 7108   5.989   4.081   6.330 -0.0417 -0.3308 -0.2461
   79SOPE   H5R 7109   6.004   4.189   6.352  1.2834 -1.0327  2.8547
   79SOPE   H5S 7110   6.083   4.030   6.360  1.3472  3.1034  1.8061
   79SOPE   C26 7111   5.936   4.069   6.191  0.0836  0.8027  0.2834
   79SOPE   H6R 7112   5.909   3.965   6.164 -0.9052  1.0018  0.4800
   79SOPE   H6S 7113   5.838   4.117   6.173  0.2427  0.6320 -1.1894
   79SOPE   C27 7114   6.039   4.119   6.089 -0.2269 -0.4651  0.3124
   79SOPE   H7R 7115   6.057   4.227   6.100 -0.5927 -0.3740  0.0591
   79SOPE   H7S 7116   6.136   4.074   6.119 -0.8288 -2.3124 -0.3140
   79SOPE   C28 7117   6.004   4.095   5.941  0.7265 -0.4890  0.0802
   79SOPE   H8R 7118   6.080   4.146   5.878 -0.9444  0.7566 -1.0070
   79SOPE   H8S 7119   6.003   3.985   5.925  0.1212 -0.5924  0.7495
   79SOPE   C29 7120   5.866   4.155   5.908 -0.3128 -0.0006  0.4526
   79SOPE   H91 7121   5.784   4.109   5.964 -0.0883 -1.6208 -0.4907
   79SOPE  C210 7122   5.835   4.212   5.792 -0.2186  1.1389 -0.2420
   79SOPE  H101 7123   5.736   4.260   5.785 -1.6653 -1.6333 -0.2372
   79SOPE  C211 7124   5.937   4.265   5.692  0.4734 -0.3590 -0.5079
   79SOPE  H11R 7125   6.039   4.271   5.736  0.1887 -1.9665  0.4610
   79SOPE  H11S 7126   5.910   4.369   5.663 -0.6660 -0.5585 -0.1986
   79SOPE  C212 7127   5.917   4.179   5.562 -0.5585  0.6597  0.4845
   79SOPE  H12R 7128   5.940   4.071   5.579  1.4829  0.7395 -1.3432
   79SOPE  H12S 7129   5.990   4.220   5.489  0.5716  2.5264  2.5343
   79SOPE  C213 7130   5.775   4.192   5.503 -0.1666  0.4283  0.3079
   79SOPE  H13R 7131   5.743   4.298   5.502 -1.3743  0.0765 -0.1331
   79SOPE  H13S 7132   5.702   4.140   5.568 -0.1675 -1.0160 -0.7926
   79SOPE  C214 7133   5.751   4.122   5.366 -0.7303 -0.2796 -0.1597
   79SOPE  H14R 7134   5.798   4.186   5.289  1.2873 -0.1359  1.1177
   79SOPE  H14S 7135   5.642   4.105   5.349 -0.5312 -1.5410 -0.2787
   79SOPE  C215 7136   5.806   3.981   5.346  0.2369 -0.4445  0.2586
   79SOPE  H15R 7137   5.766   3.916   5.427 -0.8325 -1.2907 -0.9050
   79SOPE  H15S 7138   5.915   3.985   5.364  0.5201  1.1855 -1.4958
   79SOPE  C216 7139   5.773   3.899   5.212 -0.3589 -0.0058  1.0807
   79SOPE  H16R 7140   5.814   3.971   5.137 -0.0319  0.2352  1.4882
   79SOPE  H16S 7141   5.662   3.908   5.208 -0.3040  0.3625 -0.1781
   79SOPE  C217 7142   5.830   3.756   5.204 -0.3548 -0.0049 -0.0625
   79SOPE  H17R 7143   5.798   3.693   5.290  3.3105 -1.2151  0.5835
   79SOPE  H17S 7144   5.941   3.747   5.205 -0.4944 -1.9927  1.1755
   79SOPE  C218 7145   5.797   3.679   5.072 -0.1529  0.1909 -0.5149
   79SOPE  H18R 7146   5.810   3.743   4.982  1.5834 -3.2017 -2.9111
   79SOPE  H18S 7147   5.696   3.633   5.077  0.0767 -0.3940 -1.1095
   79SOPE  H18T 7148   5.872   3.597   5.070 -2.5045 -2.0872 -1.6364
   79SOPE   C33 7149   5.805   3.534   6.758  0.8630 -0.0100  0.6772
   79SOPE   H3X 7150   5.915   3.535   6.749  0.8099  0.6018  0.0862
   79SOPE   H3Y 7151   5.767   3.635   6.733 -1.2536 -1.4226 -2.5459
   79SOPE   C34 7152   5.741   3.439   6.659  0.2381 -0.3793 -0.8892
   79SOPE   H4X 7153   5.635   3.413   6.680  0.3473 -0.6874 -0.7276
   79SOPE   H4Y 7154   5.800   3.346   6.662  2.7047  0.9472 -3.5117
   79SOPE   C35 7155   5.752   3.490   6.517  0.5806  0.0370  0.3950
   79SOPE   H5X 7156   5.861   3.492   6.494  0.3700 -1.8356 -1.0635
   79SOPE   H5Y 7157   5.725   3.598   6.518  1.5449  0.3167 -0.4455
   79SOPE   C36 7158   5.684   3.408   6.406 -0.6398 -0.1393  0.7649
   79SOPE   H6X 7159   5.575   3.415   6.428 -0.8812 -1.5969  0.1782
   79SOPE   H6Y 7160   5.732   3.309   6.419 -2.4115 -1.2540 -0.7246
   79SOPE   C37 7161   5.726   3.465   6.261 -0.1009 -0.3993 -0.5052
   79SOPE   H7X 7162   5.834   3.443   6.244 -0.2407 -2.8730  1.1869
   79SOPE   H7Y 7163   5.692   3.571   6.261  0.5680 -0.1658  0.5888
   79SOPE   C38 7164   5.642   3.403   6.151  0.2000 -0.4417 -0.2498
   79SOPE   H8X 7165   5.534   3.404   6.173 -0.1125  0.0628 -1.6677
   79SOPE   H8Y 7166   5.667   3.295   6.154 -0.5377 -0.6058 -0.0209
   79SOPE   C39 7167   5.667   3.459   6.009  0.6420  0.8286  0.1005
   79SOPE   H9X 7168   5.775   3.445   5.985  0.3566 -0.4061 -0.5336
   79SOPE   H9Y 7169   5.637   3.566   6.008 -0.5331  0.5625  2.1267
   79SOPE  C310 7170   5.580   3.386   5.906 -0.0634  0.6166  0.2494
   79SOPE  H10X 7171   5.474   3.407   5.930 -1.0688 -3.1488 -0.2781
   79SOPE  H10Y 7172   5.588   3.276   5.911  2.1780  0.6868 -0.7044
   79SOPE  C311 7173   5.604   3.420   5.755 -0.1556  0.8130 -0.0343
   79SOPE  H11X 7174   5.711   3.401   5.731  0.5567  1.0689  2.6046
   79SOPE  H11Y 7175   5.597   3.527   5.728 -0.9984  0.5414 -0.9412
   79SOPE  C312 7176   5.518   3.334   5.659  0.4439 -0.3477 -0.1769
   79SOPE  H12X 7177   5.416   3.375   5.670 -1.0512 -4.1474  1.8744
   79SOPE  H12Y 7178   5.505   3.231   5.699 -0.5359  0.5040  1.7854
   79SOPE  C313 7179   5.561   3.330   5.511 -0.7172 -0.4638  0.2047
   79SOPE  H13X 7180   5.672   3.337   5.515 -0.5886 -1.7666 -0.3290
   79SOPE  H13Y 7181   5.536   3.428   5.467  0.1138 -0.7128 -0.8823
   79SOPE  C314 7182   5.514   3.208   5.428  0.3704  0.5234 -0.1243
   79SOPE  H14X 7183   5.413   3.177   5.464  1.4725 -0.1492  2.6345
   79SOPE  H14Y 7184   5.585   3.126   5.449 -0.5493 -0.4343 -0.6925
   79SOPE  C315 7185   5.513   3.244   5.278  0.1587 -0.3500  0.6025
   79SOPE  H15X 7186   5.444   3.329   5.259  0.5199 -0.3155 -0.6164
   79SOPE  H15Y 7187   5.466   3.158   5.227 -2.9471  2.5403 -1.8546
   79SOPE  C316 7188   5.651   3.262   5.217  0.2683  0.1539 -0.1208
   79SOPE  H16X 7189   5.710   3.170   5.235  1.0407  0.4851 -0.8627
   79SOPE  H16Y 7190   5.713   3.346   5.255 -0.4137  0.9253 -0.6554
   79SOPE  C317 7191   5.633   3.287   5.065  0.1590 -0.0702  0.1003
   79SOPE  H17X 7192   5.584   3.385   5.045 -2.7245 -1.5517 -0.6983
   79SOPE  H17Y 7193   5.573   3.203   5.023 -0.7814 -1.6093  4.0426
   79SOPE  C318 7194   5.774   3.285   5.004  0.0039 -0.3104 -0.3814
   79SOPE  H18X 7195   5.853   3.308   5.078 -0.6866  2.8835 -0.4792
   79SOPE  H18Y 7196   5.796   3.350   4.916 -1.1001  0.1051 -0.3769
   79SOPE  H18Z 7197   5.794   3.178   4.981  0.3380 -0.2549 -0.3460
   80SOPE     N 7198   3.989   6.403   7.562 -0.1238  1.0302  0.0197
   80SOPE   HN1 7199   4.031   6.498   7.562 -0.6689  1.3037  1.6656
   80SOPE   HN2 7200   3.995   6.384   7.664  2.9259  2.0138  0.1330
   80SOPE   HN3 7201   4.039   6.329   7.508 -1.4943 -0.5999  0.9070
   80SOPE   C12 7202   3.843   6.402   7.520  0.0195 -0.2301  0.1888
   80SOPE  H12A 7203   3.805   6.495   7.568  2.1450  0.3007  0.9739
   80SOPE  H12B 7204   3.795   6.314   7.568 -0.2232  0.2918  0.9355
   80SOPE   C11 7205   3.835   6.395   7.363 -0.0900 -0.1249  0.5810
   80SOPE  H11A 7206   3.877   6.300   7.322 -0.0097 -0.1094  0.6270
   80SOPE  H11B 7207   3.904   6.474   7.325 -0.2096  0.4146  1.4639
   80SOPE     P 7208   3.625   6.545   7.335 -0.4216  0.0628 -0.0098
   80SOPE   O13 7209   3.721   6.659   7.317 -0.5953 -0.2525  0.0287
   80SOPE   O14 7210   3.547   6.529   7.459  0.0260 -0.2597  0.4184
   80SOPE   O12 7211   3.700   6.406   7.311 -0.2516 -0.2255  0.2690
   80SOPE   O11 7212   3.519   6.532   7.211 -0.3311 -0.1571 -0.3932
   80SOPE    C1 7213   3.434   6.416   7.217 -0.4422  0.7094 -0.0699
   80SOPE    HA 7214   3.331   6.459   7.218  0.0237  1.8666 -0.2895
   80SOPE    HB 7215   3.425   6.354   7.308 -1.2637  0.8158 -0.0652
   80SOPE    C2 7216   3.458   6.316   7.103 -0.3315 -0.4401  0.1312
   80SOPE    HS 7217   3.566   6.295   7.115 -0.0815  1.2883  1.2072
   80SOPE   O21 7218   3.424   6.382   6.974 -0.5438 -0.6302 -0.5527
   80SOPE   C21 7219   3.484   6.324   6.877 -0.0705 -0.2199  0.0409
   80SOPE   O22 7220   3.574   6.246   6.884  0.0011  0.3321 -0.0495
   80SOPE   C22 7221   3.420   6.373   6.745 -0.6262  0.0238  0.1763
   80SOPE   H2R 7222   3.451   6.479   6.732 -1.3477  0.3727  1.1916
   80SOPE   H2S 7223   3.310   6.368   6.761 -0.7987 -0.3938 -1.0258
   80SOPE    C3 7224   3.371   6.191   7.121 -0.3255  0.7548 -0.3303
   80SOPE    HX 7225   3.265   6.223   7.113 -1.0739 -1.2798  0.6816
   80SOPE    HY 7226   3.378   6.158   7.227  2.2097  1.6167 -0.1611
   80SOPE   O31 7227   3.393   6.080   7.033 -0.1358 -0.1125  0.0719
   80SOPE   C31 7228   3.481   5.988   7.072  0.6720  0.3883 -0.0535
   80SOPE   O32 7229   3.549   5.994   7.168 -0.2725 -0.0908  0.1115
   80SOPE   C32 7230   3.461   5.863   6.980  0.2514  0.0725  0.0562
   80SOPE   H2X 7231   3.415   5.900   6.886 -0.0957 -1.5876 -0.4616
   80SOPE   H2Y 7232   3.392   5.791   7.027 -0.5066  0.8226  0.1243
   80SOPE   C23 7233   3.452   6.293   6.606  0.1380  0.4926 -0.0598
   80SOPE   H3R 7234   3.407   6.192   6.614  2.5053 -0.4788  2.5072
   80SOPE   H3S 7235   3.561   6.280   6.591  0.0205  0.3074 -0.8130
   80SOPE   C24 7236   3.386   6.364   6.487  0.2120 -0.1334  0.3213
   80SOPE   H4R 7237   3.277   6.349   6.500  0.1392 -3.1355 -2.4104
   80SOPE   H4S 7238   3.412   6.470   6.505 -0.0191 -0.2890  1.6448
   80SOPE   C25 7239   3.417   6.305   6.355 -0.5882  0.5123 -0.1257
   80SOPE   H5R 7240   3.528   6.312   6.350 -0.4499 -1.7646 -2.9196
   80SOPE   H5S 7241   3.394   6.196   6.349  0.5266  0.2807 -0.5679
   80SOPE   C26 7242   3.356   6.373   6.240  0.4657  0.1304 -0.1340
   80SOPE   H6R 7243   3.247   6.391   6.250  0.3474  1.6558 -3.0115
   80SOPE   H6S 7244   3.381   6.480   6.219 -1.7290  0.4510 -1.3764
   80SOPE   C27 7245   3.370   6.289   6.107 -0.2852  0.1991 -0.1465
   80SOPE   H7R 7246   3.477   6.263   6.121  0.1134  2.2697  0.9920
   80SOPE   H7S 7247   3.305   6.199   6.116  1.3729 -1.0390 -0.1154
   80SOPE   C28 7248   3.351   6.377   5.981  0.0297  0.3239  0.2315
   80SOPE   H8R 7249   3.403   6.470   6.013 -0.4350  0.8247 -0.4307
   80SOPE   H8S 7250   3.421   6.337   5.904  1.1795  1.4219  0.6622
   80SOPE   C29 7251   3.210   6.407   5.934  0.1457 -0.6894  0.2350
   80SOPE   H91 7252   3.142   6.447   6.011 -0.0406 -0.7003  0.0770
   80SOPE  C210 7253   3.159   6.366   5.814 -0.2959 -0.6134 -0.0655
   80SOPE  H101 7254   3.058   6.399   5.788 -0.5690  0.9527  2.6493
   80SOPE  C211 7255   3.221   6.298   5.700 -0.2473 -0.5628 -0.5940
   80SOPE  H11R 7256   3.265   6.204   5.740 -0.3208  0.1486  1.2113
   80SOPE  H11S 7257   3.315   6.347   5.667 -0.5366  0.4438  0.0467
   80SOPE  C212 7258   3.121   6.266   5.583  0.0774  0.2345  0.3321
   80SOPE  H12R 7259   3.028   6.325   5.598  1.0682  2.2742 -0.9762
   80SOPE  H12S 7260   3.094   6.159   5.577  0.2734  0.1740  0.5006
   80SOPE  C213 7261   3.179   6.291   5.445  0.4177  0.2020 -0.2787
   80SOPE  H13R 7262   3.274   6.236   5.433  1.1397  0.7342  2.3645
   80SOPE  H13S 7263   3.207   6.398   5.435  1.2624  0.3950  3.1002
   80SOPE  C214 7264   3.083   6.263   5.328  0.2969 -0.3081 -1.7432
   80SOPE  H14R 7265   2.989   6.320   5.340 -0.4501 -1.1510 -3.2134
   80SOPE  H14S 7266   3.042   6.160   5.319 -1.2098  0.0079  0.7460
   80SOPE  C215 7267   3.148   6.295   5.187 -0.4394 -0.0533 -0.5545
   80SOPE  H15R 7268   3.077   6.246   5.117  0.8170 -2.0826 -0.5050
   80SOPE  H15S 7269   3.236   6.228   5.178 -1.2148 -0.9445 -1.7487
   80SOPE  C216 7270   3.184   6.439   5.155  0.1139  0.5367  0.0232
   80SOPE  H16R 7271   3.260   6.474   5.228  0.4569  1.2578 -0.6653
   80SOPE  H16S 7272   3.085   6.488   5.151  1.3554  3.1823 -2.8343
   80SOPE  C217 7273   3.258   6.458   5.020  0.0895 -0.2085  0.0780
   80SOPE  H17R 7274   3.345   6.389   5.019 -0.6876 -1.2022  0.3030
   80SOPE  H17S 7275   3.296   6.563   5.023  1.4170 -0.6534 -0.3141
   80SOPE  C218 7276   3.167   6.426   4.898 -0.2843 -0.2677  0.2577
   80SOPE  H18R 7277   3.117   6.329   4.919  0.1544 -0.8531 -1.3248
   80SOPE  H18S 7278   3.227   6.419   4.806  1.8066 -1.8153  1.6518
   80SOPE  H18T 7279   3.096   6.512   4.890 -1.4104 -0.9660  2.1336
   80SOPE   C33 7280   3.588   5.792   6.936  0.3376  0.2355  0.3525
   80SOPE   H3X 7281   3.552   5.697   6.892 -0.0959  0.9364 -0.8689
   80SOPE   H3Y 7282   3.659   5.779   7.021 -0.0822 -1.9367  0.4321
   80SOPE   C34 7283   3.664   5.873   6.820 -0.2417  0.4051 -1.1547
   80SOPE   H4X 7284   3.773   5.854   6.831  0.1277  2.6653 -0.3502
   80SOPE   H4Y 7285   3.649   5.979   6.851  0.8827 -0.2206  1.9700
   80SOPE   C35 7286   3.612   5.850   6.681 -0.5591  0.4315 -0.0271
   80SOPE   H5X 7287   3.512   5.893   6.661 -0.1981  2.0563  1.4287
   80SOPE   H5Y 7288   3.615   5.744   6.647 -1.0853 -0.4069  2.3472
   80SOPE   C36 7289   3.707   5.916   6.570 -0.7239  0.0780  0.2257
   80SOPE   H6X 7290   3.805   5.865   6.562 -0.7064  0.2361 -0.6636
   80SOPE   H6Y 7291   3.719   6.024   6.590 -0.1221 -0.0005  0.2972
   80SOPE   C37 7292   3.645   5.925   6.429  0.3215 -0.0709 -0.1092
   80SOPE   H7X 7293   3.569   6.004   6.442  0.6586  0.2334  0.0403
   80SOPE   H7Y 7294   3.596   5.831   6.397 -2.6749  1.6264 -0.9198
   80SOPE   C38 7295   3.749   5.962   6.331  0.1736  0.2785 -0.8093
   80SOPE   H8X 7296   3.834   5.892   6.338  1.1205  1.2271 -2.1347
   80SOPE   H8Y 7297   3.787   6.063   6.356  2.7419 -1.0775  1.1277
   80SOPE   C39 7298   3.702   5.965   6.187 -0.0133 -0.1770  0.1094
   80SOPE   H9X 7299   3.639   6.055   6.171  0.1518 -0.0728  0.0303
   80SOPE   H9Y 7300   3.637   5.877   6.169  1.5797 -0.9992 -2.1088
   80SOPE  C310 7301   3.823   5.967   6.093  0.5799 -0.2867 -0.2389
   80SOPE  H10X 7302   3.890   5.878   6.102  0.6774 -0.3510 -1.4745
   80SOPE  H10Y 7303   3.892   6.050   6.118 -1.6112  1.0805  1.6909
   80SOPE  C311 7304   3.777   5.987   5.946  0.0485  0.3687 -0.6574
   80SOPE  H11X 7305   3.712   5.900   5.924  0.0614  0.0453  0.5063
   80SOPE  H11Y 7306   3.862   5.998   5.875 -0.2165 -0.3328 -1.0932
   80SOPE  C312 7307   3.688   6.118   5.931  0.3233 -0.0453  0.3991
   80SOPE  H12X 7308   3.738   6.193   5.997  0.1321 -0.5189  1.0959
   80SOPE  H12Y 7309   3.592   6.096   5.982 -0.6485  1.2471 -0.8047
   80SOPE  C313 7310   3.658   6.172   5.788  0.3834 -0.0125  0.6243
   80SOPE  H13X 7311   3.749   6.186   5.726  0.9766 -0.6085  1.3432
   80SOPE  H13Y 7312   3.609   6.271   5.794  2.4877  1.2145 -1.1409
   80SOPE  C314 7313   3.571   6.070   5.714 -1.0243 -0.1964  0.3607
   80SOPE  H14X 7314   3.478   6.057   5.772 -1.3968  0.3205 -0.1064
   80SOPE  H14Y 7315   3.619   5.970   5.718 -0.2891  0.1527  0.5230
   80SOPE  C315 7316   3.545   6.110   5.571  0.1393  0.5529  0.3906
   80SOPE  H15X 7317   3.494   6.209   5.561  0.1077  0.5109  0.1306
   80SOPE  H15Y 7318   3.468   6.034   5.545  0.2496  0.3391  0.6970
   80SOPE  C316 7319   3.661   6.075   5.473  0.4859  0.7285 -0.3390
   80SOPE  H16X 7320   3.702   5.973   5.484 -0.2696  0.4826  0.2331
   80SOPE  H16Y 7321   3.752   6.132   5.500  0.5624  0.8733 -0.8760
   80SOPE  C317 7322   3.618   6.098   5.328  0.3330  0.0834 -0.6389
   80SOPE  H17X 7323   3.547   6.019   5.295 -1.0788  0.9498  0.2451
   80SOPE  H17Y 7324   3.701   6.081   5.256  0.7767  1.1108 -0.3880
   80SOPE  C318 7325   3.571   6.246   5.292 -0.0203  0.2992 -0.5823
   80SOPE  H18X 7326   3.536   6.237   5.186  1.4532  1.1322 -1.1703
   80SOPE  H18Y 7327   3.657   6.316   5.282  0.5895 -0.2497  0.6689
   80SOPE  H18Z 7328   3.488   6.297   5.344 -0.4299 -0.4129 -0.5275
   81SOPE     N 7329   0.606   1.851   7.289  0.2759 -0.3470  0.0352
   81SOPE   HN1 7330   0.562   1.766   7.329 -3.3719  1.4148  0.1301
   81SOPE   HN2 7331   0.525   1.910   7.262  2.3091  3.0188  0.5967
   81SOPE   HN3 7332   0.665   1.847   7.203 -2.3377 -1.4686 -1.8341
   81SOPE   C12 7333   0.679   1.909   7.407 -0.5705  0.0928  0.1997
   81SOPE  H12A 7334   0.602   1.919   7.487 -0.4607  0.6838  0.2393
   81SOPE  H12B 7335   0.720   2.010   7.386 -0.3537 -0.2001 -0.8188
   81SOPE   C11 7336   0.787   1.822   7.472 -0.6173  0.5401  0.2093
   81SOPE  H11A 7337   0.757   1.718   7.495  0.5406 -0.3166 -1.8831
   81SOPE  H11B 7338   0.823   1.876   7.562 -0.0266 -0.8930  0.8641
   81SOPE     P 7339   0.997   1.938   7.356 -0.4310  0.0682  0.0882
   81SOPE   O13 7340   1.139   1.899   7.376 -0.2234  0.1007  0.4486
   81SOPE   O14 7341   0.951   2.052   7.440  0.0399  0.1376  0.2893
   81SOPE   O12 7342   0.897   1.812   7.375 -0.4047 -0.1850  0.1815
   81SOPE   O11 7343   0.977   1.970   7.200 -0.0376  0.2073 -0.3256
   81SOPE    C1 7344   1.029   1.881   7.103  0.1552  0.2941  0.9808
   81SOPE    HA 7345   1.001   1.775   7.123 -1.2449 -0.0075 -2.0198
   81SOPE    HB 7346   1.139   1.888   7.088  0.0271  0.5891  0.1502
   81SOPE    C2 7347   0.965   1.909   6.956  0.3075 -0.7561  0.9229
   81SOPE    HS 7348   0.899   1.998   6.955 -1.5907 -2.1208  0.5815
   81SOPE   O21 7349   0.902   1.789   6.920  0.2373 -0.7541 -0.1899
   81SOPE   C21 7350   0.780   1.769   6.964 -0.4451  0.5389 -0.0991
   81SOPE   O22 7351   0.726   1.841   7.049  0.4300 -0.0935  0.2436
   81SOPE   C22 7352   0.725   1.642   6.906  0.4818 -0.7321  0.3705
   81SOPE   H2R 7353   0.669   1.592   6.989 -0.6658  1.2070  0.8253
   81SOPE   H2S 7354   0.807   1.580   6.864 -0.6308 -1.2745 -1.0522
   81SOPE    C3 7355   1.078   1.939   6.849  0.2083  0.3582  0.5585
   81SOPE    HX 7356   1.150   1.856   6.864 -2.3927 -2.0636  0.7065
   81SOPE    HY 7357   1.128   2.035   6.873  1.4734 -0.0978 -0.2141
   81SOPE   O31 7358   1.025   1.935   6.718  0.4995 -0.3571 -0.0265
   81SOPE   C31 7359   1.122   1.926   6.614  0.0084  0.0787 -0.3258
   81SOPE   O32 7360   1.233   1.893   6.631 -0.7242 -0.7842 -0.2866
   81SOPE   C32 7361   1.052   1.965   6.487  0.1855 -0.0073  0.1111
   81SOPE   H2X 7362   0.953   2.009   6.512 -0.1263  0.1670 -1.3466
   81SOPE   H2Y 7363   1.028   1.870   6.434 -0.2091  0.4344 -0.5213
   81SOPE   C23 7364   0.620   1.673   6.799  0.0643  0.8111 -0.3822
   81SOPE   H3R 7365   0.538   1.732   6.844 -0.3704  0.5364 -0.8115
   81SOPE   H3S 7366   0.564   1.585   6.761 -0.3719  0.3346  1.2931
   81SOPE   C24 7367   0.671   1.763   6.680 -0.0556  0.0827  0.3842
   81SOPE   H4R 7368   0.691   1.863   6.724  0.1370 -0.8687  2.5760
   81SOPE   H4S 7369   0.776   1.735   6.654 -0.7458 -2.9512  0.5312
   81SOPE   C25 7370   0.577   1.770   6.555  0.3129 -0.1315 -0.2678
   81SOPE   H5R 7371   0.552   1.667   6.524  1.3012 -0.3200 -0.4531
   81SOPE   H5S 7372   0.487   1.824   6.592 -0.8013 -1.1506 -1.4026
   81SOPE   C26 7373   0.624   1.864   6.445 -0.5051  0.0118 -0.3077
   81SOPE   H6R 7374   0.663   1.958   6.490  3.1520 -0.9241 -1.1809
   81SOPE   H6S 7375   0.716   1.815   6.408  0.3705  1.5384 -0.2507
   81SOPE   C27 7376   0.526   1.891   6.329 -0.3396 -0.8831  0.0730
   81SOPE   H7R 7377   0.525   1.804   6.259 -0.2155  0.6728 -1.9335
   81SOPE   H7S 7378   0.419   1.908   6.355 -0.6591 -2.5316 -0.0310
   81SOPE   C28 7379   0.573   2.026   6.253 -0.0473  0.2218  0.7639
   81SOPE   H8R 7380   0.568   2.103   6.334  0.4970  1.5738 -0.4405
   81SOPE   H8S 7381   0.677   2.015   6.215 -0.7805  0.0041 -1.2686
   81SOPE   C29 7382   0.475   2.070   6.145  0.2278  0.2438 -0.3069
   81SOPE   H91 7383   0.374   2.099   6.179 -0.7187 -1.6603 -1.3428
   81SOPE  C210 7384   0.499   2.079   6.012 -0.2107  0.1703 -0.6309
   81SOPE  H101 7385   0.414   2.113   5.951  0.3331  3.5549  0.2865
   81SOPE  C211 7386   0.628   2.046   5.941 -0.1840  0.2214  0.2258
   81SOPE  H11R 7387   0.683   1.966   5.993 -1.4288 -0.0720  1.1513
   81SOPE  H11S 7388   0.692   2.136   5.947 -1.4726  1.4128 -2.3102
   81SOPE  C212 7389   0.612   2.007   5.794 -0.2869  0.1105  0.8962
   81SOPE  H12R 7390   0.542   1.923   5.777 -0.2210  0.3886 -1.0349
   81SOPE  H12S 7391   0.715   1.981   5.761 -0.6847  0.7796 -1.0649
   81SOPE  C213 7392   0.559   2.124   5.704  0.2337  0.1963  0.0813
   81SOPE  H13R 7393   0.614   2.217   5.728 -0.8781  2.1233 -4.0206
   81SOPE  H13S 7394   0.453   2.139   5.733  0.9419  1.8257  2.0899
   81SOPE  C214 7395   0.582   2.095   5.555 -0.1887 -0.3708 -0.9843
   81SOPE  H14R 7396   0.533   1.998   5.529 -0.5930 -0.7535  1.0075
   81SOPE  H14S 7397   0.690   2.089   5.530  0.3395  1.1859  0.7500
   81SOPE  C215 7398   0.515   2.203   5.474  0.2189 -0.5752 -0.4807
   81SOPE  H15R 7399   0.567   2.201   5.376  1.9703  0.1527  0.3868
   81SOPE  H15S 7400   0.542   2.308   5.500 -0.4728 -0.1294 -1.4682
   81SOPE  C216 7401   0.366   2.203   5.463 -0.2400  0.5118  0.1307
   81SOPE  H16R 7402   0.332   2.235   5.362  1.7831 -0.5073 -0.9378
   81SOPE  H16S 7403   0.328   2.278   5.535 -1.8039  0.8179 -0.9583
   81SOPE  C217 7404   0.286   2.076   5.496 -0.4424 -0.1118 -0.2445
   81SOPE  H17R 7405   0.314   2.026   5.592 -0.5467 -0.3863 -0.3563
   81SOPE  H17S 7406   0.306   2.001   5.417  0.2143  1.4838 -1.6449
   81SOPE  C218 7407   0.142   2.096   5.505 -0.3284 -0.0945 -0.5743
   81SOPE  H18R 7408   0.096   2.150   5.419  0.0792 -0.6331 -1.1336
   81SOPE  H18S 7409   0.122   2.154   5.598 -0.1873 -0.6601 -0.1903
   81SOPE  H18T 7410   0.088   1.999   5.503 -0.5941  0.0525 -1.9194
   81SOPE   C33 7411   1.130   2.065   6.403  0.1692 -0.2667  0.3174
   81SOPE   H3X 7412   1.228   2.019   6.376 -0.4725 -0.6183 -1.5466
   81SOPE   H3Y 7413   1.148   2.144   6.478  1.0045  0.0389 -0.1855
   81SOPE   C34 7414   1.065   2.119   6.279  0.4186  0.9923 -0.2453
   81SOPE   H4X 7415   1.094   2.226   6.275  3.2096  0.5614  3.2132
   81SOPE   H4Y 7416   0.954   2.115   6.274  0.4598 -0.2426 -0.4890
   81SOPE   C35 7417   1.126   2.049   6.155 -0.0021  0.2668  0.0124
   81SOPE   H5X 7418   1.081   1.948   6.149  1.4250 -0.4527  0.8273
   81SOPE   H5Y 7419   1.233   2.021   6.170 -0.3815 -2.1570 -1.4732
   81SOPE   C36 7420   1.103   2.124   6.020  0.5544  0.0239  0.1378
   81SOPE   H6X 7421   1.114   2.233   6.036  0.5038 -0.0267  0.5213
   81SOPE   H6Y 7422   0.995   2.112   5.996  0.3195  0.0495  1.1380
   81SOPE   C37 7423   1.185   2.074   5.901  0.8819  0.5440  0.1187
   81SOPE   H7X 7424   1.169   1.970   5.867  0.4666  0.6716 -0.0775
   81SOPE   H7Y 7425   1.292   2.089   5.928  1.0752  0.0110 -0.3380
   81SOPE   C38 7426   1.160   2.137   5.762  0.2064  0.5956 -0.0110
   81SOPE   H8X 7427   1.197   2.242   5.758  0.8361  0.3411 -2.3979
   81SOPE   H8Y 7428   1.050   2.141   5.748  0.1243 -1.2576 -0.1093
   81SOPE   C39 7429   1.223   2.064   5.644  0.3700  0.0283 -0.3564
   81SOPE   H9X 7430   1.176   1.964   5.638 -1.4174  0.8252 -0.5364
   81SOPE   H9Y 7431   1.329   2.049   5.671  0.4325  2.9010  1.4964
   81SOPE  C310 7432   1.208   2.123   5.505  0.2131  0.2597 -0.6948
   81SOPE  H10X 7433   1.266   2.217   5.499 -1.7227  1.4483 -1.8667
   81SOPE  H10Y 7434   1.102   2.153   5.503  0.3212  0.9431  1.4980
   81SOPE  C311 7435   1.256   2.024   5.395 -0.2188 -0.0910  0.2548
   81SOPE  H11X 7436   1.185   1.939   5.391 -0.3815  0.0014  0.9666
   81SOPE  H11Y 7437   1.347   1.977   5.437  0.0242  1.6391  1.7947
   81SOPE  C312 7438   1.272   2.098   5.257 -0.0964  0.0032 -0.4949
   81SOPE  H12X 7439   1.173   2.148   5.247 -1.0585 -1.4778  0.9923
   81SOPE  H12Y 7440   1.289   2.036   5.166  0.0729  1.8383 -1.7693
   81SOPE  C313 7441   1.393   2.186   5.244  0.6234 -0.4146 -0.1618
   81SOPE  H13X 7442   1.484   2.122   5.238  2.2110  1.5862  1.1660
   81SOPE  H13Y 7443   1.404   2.228   5.346  1.0042 -1.3660  0.1938
   81SOPE  C314 7444   1.399   2.299   5.136  1.1275  0.4561  0.2411
   81SOPE  H14X 7445   1.310   2.364   5.146  2.8300  3.0070 -0.1878
   81SOPE  H14Y 7446   1.402   2.244   5.039  3.5339 -2.4341  1.7584
   81SOPE  C315 7447   1.522   2.389   5.139 -0.2038 -1.5156  0.8907
   81SOPE  H15X 7448   1.515   2.449   5.046  2.3844 -1.8621  0.3869
   81SOPE  H15Y 7449   1.623   2.343   5.149  1.8106  2.5301  1.1069
   81SOPE  C316 7450   1.514   2.483   5.269 -0.4069 -0.8248 -0.1901
   81SOPE  H16X 7451   1.499   2.424   5.362 -0.0448  1.8173  1.6545
   81SOPE  H16Y 7452   1.432   2.558   5.265  1.3228  1.1612 -0.1973
   81SOPE  C317 7453   1.650   2.553   5.290  0.1653  0.6181 -0.1002
   81SOPE  H17X 7454   1.657   2.626   5.208 -2.3224  1.3440  0.2410
   81SOPE  H17Y 7455   1.744   2.495   5.291  0.6583  1.4114  0.5079
   81SOPE  C318 7456   1.663   2.647   5.413 -0.8332 -0.4718 -0.5187
   81SOPE  H18X 7457   1.594   2.734   5.404 -2.0847 -1.0676  2.3882
   81SOPE  H18Y 7458   1.764   2.691   5.431 -1.7675  1.3312  0.6188
   81SOPE  H18Z 7459   1.646   2.600   5.512 -0.2066  0.2977 -0.0310
   82SOPE     N 7460   4.160   2.940   7.842  0.0262 -0.0913 -0.4374
   82SOPE   HN1 7461   4.250   2.933   7.893 -0.3392  0.2923  0.2648
   82SOPE   HN2 7462   4.067   2.926   7.885 -0.5214  0.7932 -1.2979
   82SOPE   HN3 7463   4.165   2.859   7.776 -1.4134 -0.5793  0.0200
   82SOPE   C12 7464   4.144   3.064   7.765  0.0830  0.6087 -0.1169
   82SOPE  H12A 7465   4.227   3.075   7.692  0.3471  2.5023  0.3955
   82SOPE  H12B 7466   4.142   3.149   7.837 -0.9419  2.4584 -2.2300
   82SOPE   C11 7467   4.009   3.059   7.685 -0.4121  0.1746 -0.7043
   82SOPE  H11A 7468   4.019   2.989   7.599 -1.6057 -1.0798  0.1213
   82SOPE  H11B 7469   4.003   3.163   7.646  1.3429 -0.1340 -1.9581
   82SOPE     P 7470   3.764   3.050   7.712  0.2246  0.3921  0.6939
   82SOPE   O13 7471   3.738   3.194   7.686 -0.0599  0.3230 -0.1100
   82SOPE   O14 7472   3.662   2.987   7.796 -0.1538 -0.0216 -0.5339
   82SOPE   O12 7473   3.906   3.024   7.770 -0.2959  0.0695 -0.0071
   82SOPE   O11 7474   3.763   2.974   7.575 -0.0356 -0.1568 -0.0583
   82SOPE    C1 7475   3.779   2.839   7.548  0.1826 -0.7948 -0.6163
   82SOPE    HA 7476   3.693   2.793   7.602 -1.5692  2.7037 -0.1693
   82SOPE    HB 7477   3.877   2.808   7.590  0.0500  0.1829  0.4272
   82SOPE    C2 7478   3.790   2.815   7.399  0.5833  0.3680 -0.4730
   82SOPE    HS 7479   3.887   2.854   7.362  0.5499  0.5021 -0.4219
   82SOPE   O21 7480   3.671   2.869   7.336  0.0177 -0.3479  0.0207
   82SOPE   C21 7481   3.701   2.904   7.208 -0.4395 -0.4376 -0.8583
   82SOPE   O22 7482   3.806   2.883   7.149 -0.1510 -0.5650  0.2487
   82SOPE   C22 7483   3.582   2.979   7.148 -0.3972 -0.5268  0.3110
   82SOPE   H2R 7484   3.535   3.025   7.237  1.5671  0.7435  0.7642
   82SOPE   H2S 7485   3.517   2.904   7.099 -0.0536 -0.3319 -0.4557
   82SOPE    C3 7486   3.771   2.660   7.378  0.3644 -0.2331  0.3198
   82SOPE    HX 7487   3.663   2.632   7.382 -0.0513  0.7612 -2.1121
   82SOPE    HY 7488   3.819   2.608   7.464  0.5357 -3.3161 -1.4631
   82SOPE   O31 7489   3.826   2.611   7.257  0.0398  0.4178  0.0338
   82SOPE   C31 7490   3.869   2.489   7.255  0.2630  0.6970  0.0548
   82SOPE   O32 7491   3.856   2.404   7.339  0.3607 -0.1579 -0.3256
   82SOPE   C32 7492   3.938   2.462   7.117  0.0273 -0.1702  0.7905
   82SOPE   H2X 7493   3.979   2.360   7.131 -0.7102 -0.2168  3.0113
   82SOPE   H2Y 7494   4.031   2.523   7.112 -1.2836  1.9790  0.9027
   82SOPE   C23 7495   3.617   3.091   7.048  0.1181 -0.1230  0.3072
   82SOPE   H3R 7496   3.722   3.126   7.041 -0.4234  1.3303 -1.3774
   82SOPE   H3S 7497   3.557   3.176   7.088  1.2690  0.1609  1.4797
   82SOPE   C24 7498   3.580   3.077   6.906 -1.5689  0.2512  0.1767
   82SOPE   H4R 7499   3.659   3.009   6.867 -0.3735  1.3393  0.6108
   82SOPE   H4S 7500   3.486   3.024   6.884 -0.6536 -0.5320 -2.0769
   82SOPE   C25 7501   3.591   3.212   6.834 -0.2281 -0.3499  0.0036
   82SOPE   H5R 7502   3.498   3.267   6.862  0.1296  0.7409 -0.8671
   82SOPE   H5S 7503   3.683   3.267   6.864 -0.3805 -0.0672 -0.0474
   82SOPE   C26 7504   3.602   3.212   6.684  0.8505  0.5660 -0.0863
   82SOPE   H6R 7505   3.677   3.135   6.657  0.9384  0.4288  0.5324
   82SOPE   H6S 7506   3.518   3.170   6.625  0.6918 -0.8679  1.1065
   82SOPE   C27 7507   3.619   3.356   6.627  0.2244  0.5377  0.6978
   82SOPE   H7R 7508   3.566   3.432   6.688  1.0911  0.8947  1.0098
   82SOPE   H7S 7509   3.725   3.388   6.619 -0.0739  0.9952 -2.4564
   82SOPE   C28 7510   3.565   3.360   6.480 -0.1465 -0.3204  0.0742
   82SOPE   H8R 7511   3.460   3.325   6.479  0.1248 -1.2285  1.2953
   82SOPE   H8S 7512   3.570   3.467   6.450 -0.3663 -0.5238 -0.7097
   82SOPE   C29 7513   3.638   3.278   6.384 -0.0565  0.5456  0.6726
   82SOPE   H91 7514   3.706   3.203   6.427 -0.2395  0.6365  1.1211
   82SOPE  C210 7515   3.622   3.289   6.250  0.0931  0.7646  0.4163
   82SOPE  H101 7516   3.666   3.211   6.186  0.3058  1.4438 -0.2850
   82SOPE  C211 7517   3.527   3.384   6.186  0.3474  0.3605 -0.0686
   82SOPE  H11R 7518   3.491   3.458   6.260 -0.4211 -2.0551  2.1014
   82SOPE  H11S 7519   3.444   3.315   6.160  0.7184  0.8937 -3.0085
   82SOPE  C212 7520   3.579   3.445   6.057  0.5200 -0.2520 -0.0595
   82SOPE  H12R 7521   3.689   3.460   6.070  0.1746  0.7497  2.3803
   82SOPE  H12S 7522   3.528   3.543   6.048  1.3149  0.4966  2.5013
   82SOPE  C213 7523   3.532   3.355   5.943 -0.9891  0.1728 -0.0354
   82SOPE  H13R 7524   3.421   3.355   5.938 -1.0406 -2.6131 -0.3899
   82SOPE  H13S 7525   3.558   3.248   5.953 -1.3360  0.1964  1.3126
   82SOPE  C214 7526   3.589   3.406   5.805 -0.5000  0.2879 -0.2103
   82SOPE  H14R 7527   3.699   3.418   5.819 -0.3495 -3.2503  3.6854
   82SOPE  H14S 7528   3.554   3.511   5.795 -2.5127 -0.1698  1.4075
   82SOPE  C215 7529   3.542   3.301   5.703  0.0298  0.3374  0.0580
   82SOPE  H15R 7530   3.436   3.287   5.731 -0.4190  0.4102 -1.5049
   82SOPE  H15S 7531   3.578   3.197   5.722 -0.6419  0.2051  0.6621
   82SOPE  C216 7532   3.584   3.348   5.561  0.2478  0.2774 -0.1326
   82SOPE  H16R 7533   3.693   3.331   5.547 -0.1561 -1.9048 -1.0968
   82SOPE  H16S 7534   3.577   3.458   5.550  2.7034  0.4156 -0.7192
   82SOPE  C217 7535   3.514   3.276   5.450  0.1708  0.5740  0.2632
   82SOPE  H17R 7536   3.410   3.310   5.434 -0.2275  0.4567  2.3107
   82SOPE  H17S 7537   3.501   3.169   5.479 -2.5447  0.5871 -0.6638
   82SOPE  C218 7538   3.593   3.284   5.309  0.8289  0.1702  0.1068
   82SOPE  H18R 7539   3.699   3.304   5.335  0.6944 -0.0422  0.8535
   82SOPE  H18S 7540   3.552   3.367   5.248 -0.8886  0.0658  1.0354
   82SOPE  H18T 7541   3.590   3.194   5.246  2.3184  2.1573 -3.0596
   82SOPE   C33 7542   3.846   2.490   6.993 -0.5526 -0.8918  0.4421
   82SOPE   H3X 7543   3.816   2.597   6.991 -3.0877 -1.5369  0.1909
   82SOPE   H3Y 7544   3.750   2.435   7.003 -1.5889  1.1133  2.2319
   82SOPE   C34 7545   3.916   2.443   6.866 -0.5457  0.1346 -0.0800
   82SOPE   H4X 7546   3.850   2.410   6.783  0.7735  2.1762 -2.0626
   82SOPE   H4Y 7547   3.977   2.353   6.893  0.1114 -0.0240 -1.9542
   82SOPE   C35 7548   4.036   2.535   6.826  0.3657 -0.3125  0.2858
   82SOPE   H5X 7549   4.104   2.496   6.748 -1.0051  0.6620 -1.4503
   82SOPE   H5Y 7550   4.096   2.555   6.918 -0.9261 -0.5181  1.1972
   82SOPE   C36 7551   3.984   2.677   6.769  0.0663 -0.4225 -0.3174
   82SOPE   H6X 7552   4.067   2.744   6.739 -1.3747  2.2817  1.3757
   82SOPE   H6Y 7553   3.931   2.728   6.852  0.7202 -1.3324  0.6975
   82SOPE   C37 7554   3.902   2.644   6.642  0.5624  0.1936 -0.3653
   82SOPE   H7X 7555   3.801   2.604   6.664  1.0205 -0.4783  0.5505
   82SOPE   H7Y 7556   3.964   2.570   6.588 -1.0427 -1.3566 -0.1625
   82SOPE   C38 7557   3.889   2.773   6.553  0.1128  0.0376  0.3226
   82SOPE   H8X 7558   3.984   2.815   6.513  0.7181  0.2178  1.8822
   82SOPE   H8Y 7559   3.845   2.857   6.609  1.2867  0.2347  0.9819
   82SOPE   C39 7560   3.807   2.743   6.431 -0.0228 -0.3699  0.4770
   82SOPE   H9X 7561   3.702   2.733   6.466  0.0725  0.3871  1.0034
   82SOPE   H9Y 7562   3.833   2.652   6.373  0.5633  1.6415 -2.6398
   82SOPE  C310 7563   3.822   2.851   6.320 -0.6075  0.2866  0.2713
   82SOPE  H10X 7564   3.910   2.915   6.340 -0.2440  0.3697 -1.4250
   82SOPE  H10Y 7565   3.736   2.918   6.345 -0.1974  0.5507  0.9704
   82SOPE  C311 7566   3.825   2.809   6.172  0.2342 -0.0945  0.4299
   82SOPE  H11X 7567   3.728   2.767   6.138 -1.2765  0.7510  3.3687
   82SOPE  H11Y 7568   3.909   2.736   6.165 -0.9852 -1.4066 -1.8954
   82SOPE  C312 7569   3.866   2.933   6.080  1.0461  0.2525  0.3653
   82SOPE  H12X 7570   3.957   2.985   6.116  2.1015 -1.8217  0.8204
   82SOPE  H12Y 7571   3.780   3.003   6.070  1.3871  0.4877 -1.2582
   82SOPE  C313 7572   3.893   2.892   5.936 -0.0262  1.5046  0.0310
   82SOPE  H13X 7573   3.819   2.810   5.922  1.5704 -0.0839  0.5558
   82SOPE  H13Y 7574   3.992   2.843   5.944 -0.9352 -0.4925 -0.4509
   82SOPE  C314 7575   3.880   3.001   5.825  0.6647  0.1821 -0.3225
   82SOPE  H14X 7576   3.970   3.066   5.826  1.9809 -1.5678 -0.2941
   82SOPE  H14Y 7577   3.794   3.069   5.841 -0.7804 -1.5181 -0.5314
   82SOPE  C315 7578   3.869   2.945   5.686 -0.1024  0.1721  0.5881
   82SOPE  H15X 7579   3.778   2.886   5.660 -1.3861  1.8754  1.0671
   82SOPE  H15Y 7580   3.953   2.872   5.683 -1.0593 -0.9276 -0.3753
   82SOPE  C316 7581   3.880   3.056   5.583  0.2877  0.1616  0.5270
   82SOPE  H16X 7582   3.948   3.140   5.610  0.7051  1.2556 -3.3574
   82SOPE  H16Y 7583   3.778   3.102   5.578 -2.2054 -4.6886  0.8732
   82SOPE  C317 7584   3.933   3.022   5.442 -0.0550 -0.1111  0.2673
   82SOPE  H17X 7585   3.940   3.115   5.382 -3.1412  1.1239  1.5806
   82SOPE  H17Y 7586   3.856   2.956   5.398  0.8917 -0.4711 -0.9079
   82SOPE  C318 7587   4.071   2.960   5.441  0.0413 -0.1110 -0.6825
   82SOPE  H18X 7588   4.146   3.031   5.482 -1.7299  0.5070  1.6818
   82SOPE  H18Y 7589   4.122   2.950   5.342 -0.0286  2.4960 -1.0383
   82SOPE  H18Z 7590   4.084   2.872   5.508 -1.6981  0.3869  0.3438
   83SOPE     N 7591   0.891   0.520   3.217 -0.5291  0.4588  0.2285
   83SOPE   HN1 7592   0.873   0.448   3.143 -0.6651  0.4920  0.2281
   83SOPE   HN2 7593   0.809   0.525   3.281  0.6887 -1.8642  2.1419
   83SOPE   HN3 7594   0.913   0.614   3.179 -4.2074  1.8104  1.0356
   83SOPE   C12 7595   1.001   0.456   3.303 -0.2076 -0.2157 -0.4577
   83SOPE  H12A 7596   1.091   0.433   3.242  2.0366  0.2307  2.4208
   83SOPE  H12B 7597   0.960   0.361   3.344  0.1934  0.6237  2.1119
   83SOPE   C11 7598   1.024   0.548   3.424  0.7226 -0.4122 -0.6247
   83SOPE  H11A 7599   1.091   0.501   3.500  0.2598  0.3150  0.2543
   83SOPE  H11B 7600   0.924   0.578   3.461  0.8865  2.3547 -2.1399
   83SOPE     P 7601   1.218   0.726   3.417 -0.1906 -0.1154 -0.2888
   83SOPE   O13 7602   1.218   0.877   3.418  0.1134  0.5483  0.3585
   83SOPE   O14 7603   1.318   0.664   3.324  0.2716  0.2520  0.0853
   83SOPE   O12 7604   1.075   0.672   3.384 -0.0334  0.1312 -0.4628
   83SOPE   O11 7605   1.249   0.681   3.568  0.3145 -0.0942  0.9651
   83SOPE    C1 7606   1.149   0.711   3.674  0.6102 -0.5041  0.5252
   83SOPE    HA 7607   1.044   0.719   3.637  0.7712  1.8052  0.4313
   83SOPE    HB 7608   1.163   0.815   3.709 -0.8639  0.3639 -1.2748
   83SOPE    C2 7609   1.166   0.622   3.789 -0.3388  0.1699  0.5980
   83SOPE    HS 7610   1.173   0.520   3.747  1.2204  0.6902 -0.4881
   83SOPE   O21 7611   1.051   0.642   3.872 -0.2627 -0.2767 -1.3699
   83SOPE   C21 7612   0.949   0.559   3.842 -0.2509  0.1921  0.4240
   83SOPE   O22 7613   0.939   0.496   3.739  0.3575 -0.2432  0.3901
   83SOPE   C22 7614   0.847   0.574   3.949 -0.1273 -0.5137  0.2908
   83SOPE   H2R 7615   0.755   0.617   3.902  0.6676 -1.3934 -2.2085
   83SOPE   H2S 7616   0.885   0.641   4.029 -0.9384 -0.6450  0.7960
   83SOPE    C3 7617   1.290   0.650   3.870  0.2673  0.0643  0.6793
   83SOPE    HX 7618   1.283   0.757   3.897 -2.9442  0.4783 -1.2945
   83SOPE    HY 7619   1.381   0.650   3.806  0.5871  0.5561  1.1309
   83SOPE   O31 7620   1.299   0.568   3.987  0.4864 -0.0841  0.3920
   83SOPE   C31 7621   1.387   0.461   3.978 -1.2523 -0.1969  0.2226
   83SOPE   O32 7622   1.448   0.429   3.880 -0.0033  0.7920  0.0475
   83SOPE   C32 7623   1.387   0.394   4.110  0.1636  1.0674  0.4096
   83SOPE   H2X 7624   1.494   0.377   4.133 -0.1020  0.7234  1.4754
   83SOPE   H2Y 7625   1.338   0.294   4.100  0.5823  0.8371  0.6252
   83SOPE   C23 7626   0.806   0.433   4.001 -0.9371  0.8578  0.4331
   83SOPE   H3R 7627   0.821   0.357   3.921  0.7185  3.2642 -1.7228
   83SOPE   H3S 7628   0.699   0.426   4.032 -0.9658 -0.7627  0.0888
   83SOPE   C24 7629   0.885   0.388   4.129  0.8422  0.6733  0.1690
   83SOPE   H4R 7630   0.842   0.287   4.143 -0.9090  1.4834  0.8274
   83SOPE   H4S 7631   0.994   0.384   4.106  0.9449  2.5300  0.1981
   83SOPE   C25 7632   0.874   0.474   4.255 -0.1639  0.0041  0.4353
   83SOPE   H5R 7633   0.961   0.543   4.248 -0.3048  0.7177  3.8399
   83SOPE   H5S 7634   0.778   0.530   4.250 -0.6119 -0.7050  0.8588
   83SOPE   C26 7635   0.876   0.395   4.385 -0.0031 -0.3214  0.0857
   83SOPE   H6R 7636   0.791   0.324   4.398 -0.0666 -0.0578  1.2160
   83SOPE   H6S 7637   0.966   0.329   4.388  0.9232  0.9366  1.4096
   83SOPE   C27 7638   0.878   0.491   4.503 -0.3493 -0.3436 -0.2031
   83SOPE   H7R 7639   0.958   0.567   4.491  0.3787 -1.2820 -1.4521
   83SOPE   H7S 7640   0.785   0.551   4.490 -0.8062 -1.4156 -2.3387
   83SOPE   C28 7641   0.897   0.431   4.640  0.1223  0.9326 -0.7370
   83SOPE   H8R 7642   0.995   0.379   4.644  0.0959  0.9326  0.1466
   83SOPE   H8S 7643   0.904   0.513   4.715 -2.6056  0.6368 -0.0610
   83SOPE   C29 7644   0.787   0.332   4.675  0.0411  0.2342  0.8330
   83SOPE   H91 7645   0.816   0.226   4.678 -0.6898  0.0128  0.2775
   83SOPE  C210 7646   0.657   0.347   4.700  0.3774  0.6745 -0.4087
   83SOPE  H101 7647   0.600   0.255   4.718 -0.4028  0.9196 -1.4797
   83SOPE  C211 7648   0.578   0.472   4.705 -0.5271 -0.0554 -1.1064
   83SOPE  H11R 7649   0.580   0.511   4.601  1.0138  0.2306 -0.9964
   83SOPE  H11S 7650   0.620   0.544   4.779  1.8820 -2.2881 -0.1403
   83SOPE  C212 7651   0.433   0.444   4.734 -0.0091  0.2794 -0.0625
   83SOPE  H12R 7652   0.426   0.334   4.740  1.7053 -0.0781 -2.9560
   83SOPE  H12S 7653   0.376   0.469   4.642 -0.6442 -1.5592 -0.2059
   83SOPE  C213 7654   0.379   0.522   4.855 -0.6439  0.1188 -0.0170
   83SOPE  H13R 7655   0.268   0.522   4.855 -0.7440 -1.6398  2.6158
   83SOPE  H13S 7656   0.400   0.630   4.837  1.7407 -0.2243  0.2865
   83SOPE  C214 7657   0.452   0.488   4.980  0.0204  0.1516 -0.0200
   83SOPE  H14R 7658   0.561   0.508   4.978  0.0913 -0.1042  0.8340
   83SOPE  H14S 7659   0.458   0.380   5.001 -3.0452  0.0702  0.9111
   83SOPE  C215 7660   0.374   0.549   5.102 -0.5607 -0.1674  1.3417
   83SOPE  H15R 7661   0.403   0.496   5.196 -2.1728  0.4636  2.2334
   83SOPE  H15S 7662   0.266   0.531   5.084 -0.4619  0.2078  0.2948
   83SOPE  C216 7663   0.394   0.704   5.111 -0.1918  0.5900 -0.2841
   83SOPE  H16R 7664   0.359   0.740   5.012  0.1785  0.6250 -0.4056
   83SOPE  H16S 7665   0.503   0.718   5.129 -0.4246 -0.2160  2.2125
   83SOPE  C217 7666   0.333   0.779   5.228  0.1439  0.2297 -0.8977
   83SOPE  H17R 7667   0.224   0.762   5.217  0.0575 -0.6909  0.9951
   83SOPE  H17S 7668   0.338   0.888   5.209 -3.4225  0.5428 -0.7819
   83SOPE  C218 7669   0.376   0.739   5.366 -0.1650 -0.4944 -0.8887
   83SOPE  H18R 7670   0.477   0.783   5.380 -1.3279  1.7398  1.2906
   83SOPE  H18S 7671   0.387   0.629   5.379 -0.0431 -0.3610  0.2440
   83SOPE  H18T 7672   0.316   0.770   5.454 -1.2476 -1.8811 -1.1061
   83SOPE   C33 7673   1.335   0.464   4.233  0.4248 -0.7913 -0.3843
   83SOPE   H3X 7674   1.237   0.516   4.226 -0.4909 -2.6473 -3.1084
   83SOPE   H3Y 7675   1.409   0.546   4.251  0.2055 -0.4985 -0.7997
   83SOPE   C34 7676   1.332   0.377   4.363 -0.2628  0.2204 -0.5722
   83SOPE   H4X 7677   1.436   0.341   4.373 -0.4236 -0.0258  0.3125
   83SOPE   H4Y 7678   1.268   0.287   4.348  0.0148  0.0640 -0.8255
   83SOPE   C35 7679   1.289   0.463   4.486  0.1038 -0.7763  0.4739
   83SOPE   H5X 7680   1.183   0.494   4.471  0.9952  2.8325  0.8603
   83SOPE   H5Y 7681   1.337   0.563   4.491  0.4369 -0.8344 -0.9845
   83SOPE   C36 7682   1.323   0.405   4.616  0.0761  0.2982 -0.3992
   83SOPE   H6X 7683   1.427   0.369   4.624 -0.0304 -0.2382 -1.2693
   83SOPE   H6Y 7684   1.264   0.312   4.633  2.3124 -0.7413  2.5251
   83SOPE   C37 7685   1.304   0.494   4.742  0.4253  0.2933 -0.1276
   83SOPE   H7X 7686   1.200   0.532   4.733 -0.5763 -2.2638 -0.3455
   83SOPE   H7Y 7687   1.371   0.581   4.733  1.1204 -0.2613 -0.3910
   83SOPE   C38 7688   1.299   0.402   4.868  0.2885 -0.1010  0.2698
   83SOPE   H8X 7689   1.400   0.357   4.875  0.9011  1.5037  2.7209
   83SOPE   H8Y 7690   1.226   0.318   4.859 -0.7297  0.8052 -0.2871
   83SOPE   C39 7691   1.274   0.476   5.004  0.0126 -0.4752 -0.3048
   83SOPE   H9X 7692   1.274   0.410   5.094  1.6530 -0.1082  0.0081
   83SOPE   H9Y 7693   1.173   0.522   4.998  0.0392 -0.6390 -2.7453
   83SOPE  C310 7694   1.365   0.595   5.041  0.1499 -0.1927  0.1633
   83SOPE  H10X 7695   1.370   0.667   4.957  0.1021  0.1452  0.4462
   83SOPE  H10Y 7696   1.466   0.551   5.056 -0.0992 -0.4395  1.1835
   83SOPE  C311 7697   1.318   0.659   5.175 -0.4645  0.7469 -0.1358
   83SOPE  H11X 7698   1.284   0.586   5.251  2.6872 -1.4667 -0.6631
   83SOPE  H11Y 7699   1.230   0.722   5.149  0.8535  1.8324 -2.2905
   83SOPE  C312 7700   1.428   0.744   5.237 -0.2658 -0.0547  0.1376
   83SOPE  H12X 7701   1.462   0.830   5.174 -1.5461  0.3716 -0.0077
   83SOPE  H12Y 7702   1.516   0.680   5.254 -1.2050 -1.8806 -1.4453
   83SOPE  C313 7703   1.382   0.802   5.375 -0.2098  0.0352  0.2079
   83SOPE  H13X 7704   1.350   0.712   5.431  0.7298 -0.8232 -0.5847
   83SOPE  H13Y 7705   1.288   0.857   5.354  0.7238  1.7640  0.3215
   83SOPE  C314 7706   1.467   0.903   5.448 -0.2970  0.2944 -0.2270
   83SOPE  H14X 7707   1.386   0.947   5.511 -0.2569  0.0557 -0.0051
   83SOPE  H14Y 7708   1.505   0.990   5.391 -1.1559  0.6187 -0.3196
   83SOPE  C315 7709   1.569   0.847   5.556  0.1059 -0.1618  0.4047
   83SOPE  H15X 7710   1.646   0.789   5.500  0.8884  0.6515  0.6077
   83SOPE  H15Y 7711   1.511   0.787   5.630  1.6379 -1.3730  0.6854
   83SOPE  C316 7712   1.644   0.956   5.630  0.5933  0.5642  0.4564
   83SOPE  H16X 7713   1.574   1.039   5.651 -1.5087 -0.3970 -2.1813
   83SOPE  H16Y 7714   1.727   0.996   5.568 -0.2823  0.2769 -0.9310
   83SOPE  C317 7715   1.710   0.893   5.758 -0.4721  0.3236 -0.3501
   83SOPE  H17X 7716   1.779   0.812   5.728 -1.7030 -0.4712 -1.1315
   83SOPE  H17Y 7717   1.620   0.860   5.815 -1.1518  0.2241 -1.4333
   83SOPE  C318 7718   1.788   1.003   5.835 -0.2436 -0.7630 -0.7199
   83SOPE  H18X 7719   1.833   0.957   5.926 -1.9612 -1.3878 -0.1459
   83SOPE  H18Y 7720   1.724   1.078   5.886  0.8752  0.6105 -1.2841
   83SOPE  H18Z 7721   1.870   1.051   5.778 -1.6262  1.1093 -1.2047
   84SOPE     N 7722   1.637   5.432   2.864  0.7801  0.4247  0.1683
   84SOPE   HN1 7723   1.576   5.347   2.869  2.7592 -1.0250  1.0772
   84SOPE   HN2 7724   1.692   5.432   2.953 -0.6156  0.8314  1.0625
   84SOPE   HN3 7725   1.578   5.517   2.871 -0.7376 -0.6544  1.2759
   84SOPE   C12 7726   1.722   5.417   2.745  0.2177 -0.6136 -0.1440
   84SOPE  H12A 7727   1.830   5.397   2.763  0.1056 -0.0695  1.2153
   84SOPE  H12B 7728   1.704   5.514   2.695 -1.0910 -0.3141  0.8649
   84SOPE   C11 7729   1.655   5.313   2.656 -0.0780 -0.1633  0.1718
   84SOPE  H11A 7730   1.669   5.212   2.698  2.6185  0.4461  0.8936
   84SOPE  H11B 7731   1.723   5.306   2.569 -0.6039 -1.3738 -0.1690
   84SOPE     P 7732   1.388   5.277   2.647 -0.7834 -0.2211 -0.0357
   84SOPE   O13 7733   1.394   5.141   2.598 -0.1482  0.1482  0.5199
   84SOPE   O14 7734   1.276   5.357   2.595  0.1349  0.3437  0.3452
   84SOPE   O12 7735   1.526   5.351   2.602  0.4484 -1.0721 -0.0720
   84SOPE   O11 7736   1.413   5.285   2.803 -0.4246 -0.6264 -0.1559
   84SOPE    C1 7737   1.425   5.170   2.890  0.3925  0.5458 -0.4009
   84SOPE    HA 7738   1.529   5.137   2.910 -0.3676 -0.7307  1.8663
   84SOPE    HB 7739   1.366   5.084   2.853 -1.3549  1.5579 -0.1157
   84SOPE    C2 7740   1.369   5.215   3.028  0.8317 -0.5690 -0.4853
   84SOPE    HS 7741   1.274   5.271   3.013  0.6058 -0.5910  0.7543
   84SOPE   O21 7742   1.472   5.294   3.095 -0.8077 -0.1316  0.1148
   84SOPE   C21 7743   1.425   5.399   3.166  0.4495 -0.7495 -0.2936
   84SOPE   O22 7744   1.312   5.445   3.160 -0.5692 -0.0948  0.0091
   84SOPE   C22 7745   1.533   5.456   3.254  0.1382 -0.4953  0.4237
   84SOPE   H2R 7746   1.552   5.561   3.223  0.5518 -0.1841  1.6796
   84SOPE   H2S 7747   1.629   5.402   3.242  0.2262 -1.2339  3.6629
   84SOPE    C3 7748   1.332   5.087   3.111  0.2720 -0.0300  0.4510
   84SOPE    HX 7749   1.427   5.033   3.132  0.1955  0.2297  1.5263
   84SOPE    HY 7750   1.259   5.034   3.047 -0.2851  0.3891  0.7271
   84SOPE   O31 7751   1.266   5.130   3.232  0.7743  0.1545  0.2363
   84SOPE   C31 7752   1.241   5.031   3.312 -0.6813 -0.0485  0.2097
   84SOPE   O32 7753   1.265   4.916   3.300 -0.5386 -0.1337 -0.5273
   84SOPE   C32 7754   1.178   5.081   3.449  0.2041 -0.0142 -0.3066
   84SOPE   H2X 7755   1.074   5.113   3.428 -0.7580 -1.3730  2.0091
   84SOPE   H2Y 7756   1.216   5.181   3.476 -1.1748  0.4244  0.0707
   84SOPE   C23 7757   1.504   5.456   3.404  0.4560  0.0685 -0.3536
   84SOPE   H3R 7758   1.480   5.351   3.432  0.5245 -0.3856 -1.9078
   84SOPE   H3S 7759   1.410   5.513   3.418 -1.0968 -1.5660 -3.0575
   84SOPE   C24 7760   1.623   5.512   3.484  0.8558 -0.5343 -0.1911
   84SOPE   H4R 7761   1.705   5.437   3.488  2.6996  1.1106 -3.1931
   84SOPE   H4S 7762   1.662   5.606   3.439 -2.1906  1.3709  0.8815
   84SOPE   C25 7763   1.582   5.541   3.632  0.6310 -0.2643 -0.7614
   84SOPE   H5R 7764   1.675   5.584   3.674 -0.0394  2.5146 -1.9171
   84SOPE   H5S 7765   1.488   5.600   3.644  0.3239 -0.9058  0.1111
   84SOPE   C26 7766   1.555   5.419   3.712 -0.4793  0.2031 -0.8954
   84SOPE   H6R 7767   1.461   5.372   3.676 -0.5349  0.9494 -1.7604
   84SOPE   H6S 7768   1.639   5.349   3.693 -1.2259 -0.6674 -1.0443
   84SOPE   C27 7769   1.564   5.446   3.865 -0.2275  0.1996  0.7241
   84SOPE   H7R 7770   1.616   5.541   3.890 -1.6427  0.6280  2.1691
   84SOPE   H7S 7771   1.461   5.475   3.895  0.4390  0.8013  2.5368
   84SOPE   C28 7772   1.606   5.325   3.953  0.3742 -0.0406  0.7408
   84SOPE   H8R 7773   1.538   5.238   3.944  1.7338 -0.9729 -0.9834
   84SOPE   H8S 7774   1.691   5.269   3.909 -2.5207 -3.0257 -1.5077
   84SOPE   C29 7775   1.644   5.363   4.090 -0.3659  0.5666  0.2313
   84SOPE   H91 7776   1.742   5.414   4.088 -0.6433  1.1069 -1.0432
   84SOPE  C210 7777   1.582   5.336   4.202 -0.3668  0.0338  0.1741
   84SOPE  H101 7778   1.635   5.349   4.297  0.0528 -0.7602  0.0550
   84SOPE  C211 7779   1.443   5.262   4.210 -0.0863  0.1750 -0.0964
   84SOPE  H11R 7780   1.454   5.167   4.152  0.6651  0.6878 -0.8184
   84SOPE  H11S 7781   1.371   5.326   4.156 -1.9958 -1.8093 -0.0686
   84SOPE  C212 7782   1.398   5.248   4.356 -0.1163 -0.4778 -0.0677
   84SOPE  H12R 7783   1.291   5.217   4.356 -0.0758 -0.6538 -1.1535
   84SOPE  H12S 7784   1.393   5.348   4.403 -2.0633  0.3990 -1.9721
   84SOPE  C213 7785   1.481   5.153   4.443  0.1554 -0.8741  0.0405
   84SOPE  H13R 7786   1.587   5.185   4.438 -0.4527  1.3287  0.1291
   84SOPE  H13S 7787   1.471   5.046   4.416 -1.8321  0.0191 -3.3726
   84SOPE  C214 7788   1.451   5.164   4.596 -0.0466 -0.3337 -0.4485
   84SOPE  H14R 7789   1.345   5.195   4.608  0.3396  0.0468  2.7593
   84SOPE  H14S 7790   1.512   5.246   4.640  0.6021 -0.9930 -0.1021
   84SOPE  C215 7791   1.468   5.026   4.663  0.3470  0.0880 -0.3190
   84SOPE  H15R 7792   1.572   4.989   4.657  1.1890  2.4782 -1.8698
   84SOPE  H15S 7793   1.414   4.952   4.599 -1.2472  0.2665  0.7673
   84SOPE  C216 7794   1.404   5.027   4.796 -0.3687  0.2941 -0.6724
   84SOPE  H16R 7795   1.414   4.928   4.845  1.7410  1.0297  0.5015
   84SOPE  H16S 7796   1.294   5.042   4.786 -0.7050 -0.0299  1.8548
   84SOPE  C217 7797   1.472   5.121   4.899 -0.3015  0.0987  0.1094
   84SOPE  H17R 7798   1.478   5.225   4.861  1.3213  0.2006  0.5879
   84SOPE  H17S 7799   1.576   5.083   4.905 -0.5585 -0.6527 -0.1474
   84SOPE  C218 7800   1.417   5.121   5.040  0.1836  0.2609 -0.8192
   84SOPE  H18R 7801   1.438   5.220   5.086  0.2675  0.5186 -1.3967
   84SOPE  H18S 7802   1.455   5.041   5.107 -1.2473  0.4994  0.3302
   84SOPE  H18T 7803   1.308   5.104   5.027  0.3291 -0.2508 -1.4198
   84SOPE   C33 7804   1.184   4.975   3.564  0.2579  0.4719  1.5224
   84SOPE   H3X 7805   1.286   4.930   3.564 -0.6341 -1.6482  0.9934
   84SOPE   H3Y 7806   1.114   4.894   3.535 -0.4569  1.9064 -1.0748
   84SOPE   C34 7807   1.143   5.031   3.698  0.1399 -0.0064 -0.3480
   84SOPE   H4X 7808   1.101   4.940   3.747  1.2266 -0.5656 -0.4164
   84SOPE   H4Y 7809   1.066   5.107   3.675  0.0471 -0.7159 -2.7314
   84SOPE   C35 7810   1.254   5.100   3.776  0.3551 -0.0903  0.4069
   84SOPE   H5X 7811   1.285   5.197   3.731 -1.7591  0.5630  0.2209
   84SOPE   H5Y 7812   1.347   5.040   3.770  0.5204 -0.1573  2.7558
   84SOPE   C36 7813   1.219   5.127   3.920 -0.4835  1.0062 -0.0360
   84SOPE   H6X 7814   1.137   5.201   3.928  1.2737  3.3904 -2.3743
   84SOPE   H6Y 7815   1.306   5.166   3.977  0.5687  0.2749 -1.0903
   84SOPE   C37 7816   1.195   5.001   4.000  0.2627 -0.4377 -0.4287
   84SOPE   H7X 7817   1.280   4.933   3.981  0.8177  0.1133  0.0545
   84SOPE   H7Y 7818   1.100   4.951   3.973 -0.2653  0.9150 -1.2097
   84SOPE   C38 7819   1.178   5.045   4.145  0.1509  0.0699 -0.5745
   84SOPE   H8X 7820   1.167   5.155   4.150 -1.4847 -0.0996 -0.0383
   84SOPE   H8Y 7821   1.264   5.015   4.209 -1.5814 -2.2181  0.8430
   84SOPE   C39 7822   1.039   5.005   4.202 -0.5707  0.3537 -0.5606
   84SOPE   H9X 7823   1.025   4.898   4.179  0.7045  0.3394 -1.3861
   84SOPE   H9Y 7824   0.965   5.058   4.137 -1.6771  0.3537  0.6478
   84SOPE  C310 7825   1.008   5.042   4.346  0.4943 -0.1349 -0.8635
   84SOPE  H10X 7826   0.902   5.023   4.371 -0.1991  2.1563 -1.8143
   84SOPE  H10Y 7827   1.011   5.151   4.369 -0.5276 -0.2682 -0.0102
   84SOPE  C311 7828   1.107   4.996   4.450  0.0081  0.2863 -0.0896
   84SOPE  H11X 7829   1.207   5.042   4.434  0.7077  0.0776  3.0202
   84SOPE  H11Y 7830   1.113   4.885   4.450 -1.1950  0.1889  1.4177
   84SOPE  C312 7831   1.055   5.048   4.586 -0.3471 -0.0945 -0.0797
   84SOPE  H12X 7832   1.039   5.158   4.593  0.1586  0.0271 -0.6501
   84SOPE  H12Y 7833   1.146   5.040   4.650  0.0807  1.8503 -0.3670
   84SOPE  C313 7834   0.950   4.965   4.666 -0.1536 -0.0312 -0.6088
   84SOPE  H13X 7835   0.985   4.861   4.684  3.1369  1.1359  0.6149
   84SOPE  H13Y 7836   0.859   4.945   4.606 -0.1855 -0.2337 -0.4944
   84SOPE  C314 7837   0.907   5.026   4.796  1.1008 -0.8479 -0.3875
   84SOPE  H14X 7838   0.843   4.950   4.845  1.1859  0.5787  2.1477
   84SOPE  H14Y 7839   0.835   5.110   4.784  0.0631 -1.4791  1.0394
   84SOPE  C315 7840   1.026   5.071   4.892  0.4164  0.4206 -0.5871
   84SOPE  H15X 7841   1.092   5.143   4.840  0.9397  1.3373  1.2693
   84SOPE  H15Y 7842   1.094   4.983   4.898  0.5106  0.2968 -2.7161
   84SOPE  C316 7843   0.987   5.127   5.032  0.5026  0.1361  0.5495
   84SOPE  H16X 7844   1.081   5.143   5.088 -0.0163  2.3034  0.9025
   84SOPE  H16Y 7845   0.917   5.049   5.070 -0.1010 -1.2936 -3.0350
   84SOPE  C317 7846   0.909   5.265   5.021 -0.1167  0.0003  1.4440
   84SOPE  H17X 7847   0.829   5.260   4.944  0.8126 -1.7057  0.5507
   84SOPE  H17Y 7848   0.989   5.329   4.978  2.7788 -3.6545  0.9289
   84SOPE  C318 7849   0.851   5.319   5.153  0.1074 -0.0390  0.2821
   84SOPE  H18X 7850   0.845   5.236   5.226  1.1871 -0.4091 -0.0262
   84SOPE  H18Y 7851   0.754   5.370   5.136  0.3327  0.5375  0.6972
   84SOPE  H18Z 7852   0.934   5.380   5.195  1.5296 -1.6358 -0.0707
   85SOPE     N 7853   5.458   5.545   2.420 -0.2267  0.4469  0.6091
   85SOPE   HN1 7854   5.490   5.561   2.517 -0.8643  3.4428  0.4291
   85SOPE   HN2 7855   5.356   5.567   2.421 -0.4376 -0.1834 -1.6610
   85SOPE   HN3 7856   5.486   5.454   2.377  0.8689  1.8084 -1.7544
   85SOPE   C12 7857   5.524   5.650   2.336 -0.4287 -0.6836  0.4774
   85SOPE  H12A 7858   5.493   5.750   2.371  0.2350 -0.0134 -0.7856
   85SOPE  H12B 7859   5.479   5.638   2.235 -1.6714 -1.7219  1.1191
   85SOPE   C11 7860   5.677   5.646   2.327  0.1967 -0.1174  0.4494
   85SOPE  H11A 7861   5.706   5.732   2.263 -0.8595  1.8424  2.4411
   85SOPE  H11B 7862   5.721   5.558   2.275  2.0146  0.0983  1.5115
   85SOPE     P 7863   5.839   5.789   2.482  0.2982 -0.3323 -0.0137
   85SOPE   O13 7864   5.823   5.892   2.373 -0.7156 -0.4320 -0.0675
   85SOPE   O14 7865   5.977   5.731   2.496 -0.1018  0.0399 -0.0138
   85SOPE   O12 7866   5.733   5.672   2.458  0.2211  0.1845  0.0861
   85SOPE   O11 7867   5.794   5.844   2.620 -0.6147 -0.1278 -0.4317
   85SOPE    C1 7868   5.662   5.891   2.637 -0.5182  0.2234  0.6495
   85SOPE    HA 7869   5.587   5.825   2.588  0.5439  0.3484 -1.2296
   85SOPE    HB 7870   5.658   5.997   2.604  0.4359  0.1721  0.3516
   85SOPE    C2 7871   5.630   5.911   2.788 -0.0660 -0.2129 -0.0727
   85SOPE    HS 7872   5.656   5.818   2.844  0.6746 -0.3102 -0.5552
   85SOPE   O21 7873   5.488   5.951   2.808  0.5250  0.3247  0.4185
   85SOPE   C21 7874   5.409   5.851   2.832  0.0848 -0.6261  0.0812
   85SOPE   O22 7875   5.433   5.734   2.849 -0.0752 -0.2165  0.7362
   85SOPE   C22 7876   5.268   5.909   2.823 -0.5362  0.8755 -0.0859
   85SOPE   H2R 7877   5.252   5.959   2.725 -2.7190 -1.3496 -0.9584
   85SOPE   H2S 7878   5.255   5.981   2.908  1.3695  0.3110  0.7420
   85SOPE    C3 7879   5.717   6.028   2.848  0.3175 -0.0265 -0.1951
   85SOPE    HX 7880   5.682   6.125   2.807  1.2800 -0.0376 -1.0776
   85SOPE    HY 7881   5.817   6.001   2.808  0.5368  2.2805 -1.3663
   85SOPE   O31 7882   5.713   6.038   2.994  0.2121 -0.3010 -0.2284
   85SOPE   C31 7883   5.752   5.941   3.080  0.7655 -0.2670 -0.0901
   85SOPE   O32 7884   5.791   5.829   3.056  0.3415  0.2219  0.1610
   85SOPE   C32 7885   5.719   5.986   3.221 -0.3379  0.9925 -0.6924
   85SOPE   H2X 7886   5.687   6.093   3.221  3.1524  2.2993  2.9007
   85SOPE   H2Y 7887   5.817   5.992   3.273  0.0995 -2.1296 -0.9529
   85SOPE   C23 7888   5.148   5.799   2.844  0.4846  0.7696 -0.2608
   85SOPE   H3R 7889   5.178   5.704   2.797  0.2856  0.4917  0.1675
   85SOPE   H3S 7890   5.052   5.840   2.805 -1.5647 -1.8250  1.6999
   85SOPE   C24 7891   5.128   5.783   2.998  0.5250  0.0402 -0.4726
   85SOPE   H4R 7892   5.204   5.709   3.032  0.9208  0.9919  0.7787
   85SOPE   H4S 7893   5.143   5.874   3.059  0.7401 -0.7201  0.6463
   85SOPE   C25 7894   4.988   5.722   3.019  0.4359 -0.4415  0.1650
   85SOPE   H5R 7895   4.903   5.792   3.001 -0.7089 -2.2139 -1.6571
   85SOPE   H5S 7896   4.978   5.641   2.944 -0.0092 -1.3046  1.1494
   85SOPE   C26 7897   4.977   5.660   3.161  0.0825 -1.0618 -0.4134
   85SOPE   H6R 7898   5.064   5.592   3.175  1.8510  0.8596 -1.6176
   85SOPE   H6S 7899   4.983   5.747   3.231  1.8323 -1.0531 -0.5197
   85SOPE   C27 7900   4.843   5.581   3.171  0.2103 -0.1443 -0.1486
   85SOPE   H7R 7901   4.769   5.663   3.176 -1.0566 -1.2832  0.3177
   85SOPE   H7S 7902   4.839   5.516   3.081  1.1368 -0.0324 -0.2778
   85SOPE   C28 7903   4.835   5.497   3.297 -0.7643  0.5640 -0.6665
   85SOPE   H8R 7904   4.931   5.442   3.305 -0.8306  0.5764  0.2488
   85SOPE   H8S 7905   4.826   5.567   3.383 -0.0921 -0.0952 -0.0516
   85SOPE   C29 7906   4.718   5.400   3.306  0.4598 -0.0823  0.0315
   85SOPE   H91 7907   4.635   5.458   3.262  0.8241  0.5414  0.1595
   85SOPE  C210 7908   4.712   5.279   3.363  0.2264 -0.3162  0.0830
   85SOPE  H101 7909   4.619   5.221   3.358 -1.0002  1.6575 -1.1540
   85SOPE  C211 7910   4.835   5.213   3.427  0.3056 -0.2751 -0.5509
   85SOPE  H11R 7911   4.907   5.294   3.455  1.1064 -1.0092 -0.4457
   85SOPE  H11S 7912   4.876   5.147   3.347 -0.2819 -1.9554  0.4937
   85SOPE  C212 7913   4.807   5.125   3.544 -0.4859  0.3142 -0.4284
   85SOPE  H12R 7914   4.900   5.079   3.583  0.0099  3.1461  2.1513
   85SOPE  H12S 7915   4.733   5.048   3.513  1.5687 -1.2990 -1.6333
   85SOPE  C213 7916   4.760   5.212   3.666 -0.1660  0.1085 -0.0622
   85SOPE  H13R 7917   4.656   5.247   3.650 -0.3417 -0.2298  0.3148
   85SOPE  H13S 7918   4.824   5.300   3.688  0.0633 -0.2451  0.7448
   85SOPE  C214 7919   4.761   5.127   3.790  0.1794 -0.3688  0.3151
   85SOPE  H14R 7920   4.850   5.060   3.789 -1.0001 -2.0913  2.3489
   85SOPE  H14S 7921   4.678   5.054   3.779 -0.3076  0.4722 -2.6014
   85SOPE  C215 7922   4.742   5.198   3.922  0.2775 -0.1835  0.4486
   85SOPE  H15R 7923   4.650   5.261   3.915 -0.5051 -1.1747  1.4222
   85SOPE  H15S 7924   4.831   5.263   3.935 -0.8145  1.4807 -0.0566
   85SOPE  C216 7925   4.730   5.112   4.039 -0.9158 -0.3643 -0.8237
   85SOPE  H16R 7926   4.765   5.011   4.007 -0.6932 -0.8226  0.8192
   85SOPE  H16S 7927   4.628   5.088   4.075 -0.4732 -1.5010 -0.2938
   85SOPE  C217 7928   4.824   5.157   4.151  0.1235  0.0200 -0.4185
   85SOPE  H17R 7929   4.780   5.253   4.185  0.9057  0.5783 -0.9555
   85SOPE  H17S 7930   4.929   5.165   4.115 -0.6030 -1.2032 -3.0449
   85SOPE  C218 7931   4.823   5.056   4.266 -0.6621 -0.5133 -0.2019
   85SOPE  H18R 7932   4.721   5.049   4.309 -1.1331 -0.8721 -1.3567
   85SOPE  H18S 7933   4.888   5.098   4.346 -1.1679  0.5749 -0.3464
   85SOPE  H18T 7934   4.867   4.956   4.245  1.7411 -0.1325  2.3119
   85SOPE   C33 7935   5.632   5.887   3.305  0.3161  0.0614  0.3856
   85SOPE   H3X 7936   5.642   5.779   3.282 -0.9150 -0.5873  2.5266
   85SOPE   H3Y 7937   5.527   5.909   3.276 -0.2902 -0.9594  1.6914
   85SOPE   C34 7938   5.652   5.903   3.459 -0.2874  0.3267  0.0393
   85SOPE   H4X 7939   5.561   5.858   3.503  0.2255 -0.9549 -0.1705
   85SOPE   H4Y 7940   5.653   6.009   3.492 -2.9074  0.4075  0.0899
   85SOPE   C35 7941   5.782   5.837   3.512  0.6179 -0.1249  0.0883
   85SOPE   H5X 7942   5.873   5.874   3.459 -0.6646 -1.1627 -3.0604
   85SOPE   H5Y 7943   5.778   5.730   3.482 -0.0243 -0.1831  0.3643
   85SOPE   C36 7944   5.784   5.851   3.664  0.0048 -0.2584 -0.1426
   85SOPE   H6X 7945   5.689   5.816   3.709  1.0927 -0.0096  2.5327
   85SOPE   H6Y 7946   5.786   5.961   3.685  2.8497 -0.3158  0.2395
   85SOPE   C37 7947   5.900   5.770   3.736 -0.4389 -0.2605  0.3815
   85SOPE   H7X 7948   5.995   5.819   3.703 -2.3595  3.8182  0.3484
   85SOPE   H7Y 7949   5.889   5.663   3.706 -0.9776 -1.5642  4.5360
   85SOPE   C38 7950   5.907   5.798   3.892  0.5339  1.1273 -0.3295
   85SOPE   H8X 7951   5.810   5.763   3.934  1.7103 -1.6578  0.2797
   85SOPE   H8Y 7952   5.918   5.907   3.906 -0.9258  1.0892  1.5473
   85SOPE   C39 7953   6.022   5.715   3.945  0.3649  0.5038  0.3337
   85SOPE   H9X 7954   5.992   5.610   3.926 -2.9054  1.6792 -1.7933
   85SOPE   H9Y 7955   6.024   5.730   4.055 -1.1875  1.8422  0.2182
   85SOPE  C310 7956   6.161   5.758   3.883  0.3094  0.4230 -0.7476
   85SOPE  H10X 7957   6.159   5.868   3.866  1.4105  0.4663 -0.6720
   85SOPE  H10Y 7958   6.167   5.704   3.786  1.4104 -0.7300 -0.0562
   85SOPE  C311 7959   6.280   5.731   3.975 -0.5182  0.4395 -0.5880
   85SOPE  H11X 7960   6.253   5.765   4.078 -0.6469 -1.2983 -0.0132
   85SOPE  H11Y 7961   6.373   5.775   3.935 -0.0181  1.0538  1.1415
   85SOPE  C312 7962   6.301   5.578   3.986  0.0867  0.6131 -1.1641
   85SOPE  H12X 7963   6.362   5.543   3.899  0.9100 -0.6261 -0.1379
   85SOPE  H12Y 7964   6.204   5.524   3.980  0.3904 -0.6430  2.5228
   85SOPE  C313 7965   6.362   5.550   4.124 -0.3825 -0.1746 -0.0641
   85SOPE  H13X 7966   6.366   5.441   4.148 -0.5657  0.2353  2.0413
   85SOPE  H13Y 7967   6.299   5.599   4.201 -0.1254  1.6162 -0.9539
   85SOPE  C314 7968   6.503   5.608   4.145 -1.0034  0.1666 -0.2355
   85SOPE  H14X 7969   6.508   5.717   4.122 -0.8788  0.8122  2.4922
   85SOPE  H14Y 7970   6.581   5.559   4.084 -0.7039  1.8377 -1.2579
   85SOPE  C315 7971   6.558   5.581   4.290  0.0515  0.4129  0.1118
   85SOPE  H15X 7972   6.537   5.473   4.309 -0.6077  0.2255 -1.5296
   85SOPE  H15Y 7973   6.508   5.651   4.361  0.6501  0.4501  0.5005
   85SOPE  C316 7974   6.704   5.607   4.316 -0.5399  0.3458 -0.4049
   85SOPE  H16X 7975   6.717   5.713   4.286  0.5362  0.9984  2.1243
   85SOPE  H16Y 7976   6.765   5.533   4.261  2.1642  1.1362  1.3804
   85SOPE  C317 7977   6.749   5.602   4.467  0.0641 -0.0478 -0.0883
   85SOPE  H17X 7978   6.696   5.687   4.514  0.4416  1.5016 -2.3361
   85SOPE  H17Y 7979   6.856   5.630   4.463 -0.2518  1.4945  1.2675
   85SOPE  C318 7980   6.727   5.473   4.539  0.0648  0.1279  1.0381
   85SOPE  H18X 7981   6.618   5.457   4.553 -0.2132  0.7833 -0.2297
   85SOPE  H18Y 7982   6.775   5.484   4.639  0.5574  1.5693  0.6631
   85SOPE  H18Z 7983   6.768   5.390   4.479  2.2363  2.7093 -1.2818
   86SOPE     N 7984   4.497   3.424   2.875  0.1378 -0.1829 -0.0047
   86SOPE   HN1 7985   4.445   3.428   2.966 -2.1897  0.3865 -1.2688
   86SOPE   HN2 7986   4.432   3.467   2.806 -1.1977 -0.1186  1.2345
   86SOPE   HN3 7987   4.506   3.323   2.853 -1.2899 -0.0309 -1.4548
   86SOPE   C12 7988   4.635   3.484   2.885 -0.6663 -0.5333  0.0421
   86SOPE  H12A 7989   4.621   3.593   2.874 -3.2073 -0.8593 -0.4483
   86SOPE  H12B 7990   4.682   3.452   2.789 -2.0261  0.4210 -0.9835
   86SOPE   C11 7991   4.707   3.446   3.012  0.0397 -0.0519  0.0793
   86SOPE  H11A 7992   4.683   3.347   3.057  1.1190 -0.2573  0.2217
   86SOPE  H11B 7993   4.676   3.524   3.085 -1.1824  1.0571 -1.5670
   86SOPE     P 7994   4.930   3.335   2.953 -0.0832 -0.4588  0.0200
   86SOPE   O13 7995   4.998   3.381   2.828 -0.0530  0.4874 -0.2541
   86SOPE   O14 7996   4.844   3.212   2.948 -0.2475 -0.0697 -0.6928
   86SOPE   O12 7997   4.845   3.464   3.006  0.5175  0.7811  0.5995
   86SOPE   O11 7998   5.031   3.324   3.068 -0.5246 -0.7463 -0.0595
   86SOPE    C1 7999   5.012   3.223   3.168  0.0409 -0.3398  0.1954
   86SOPE    HA 8000   5.105   3.174   3.204 -0.1836  0.4183  1.9493
   86SOPE    HB 8001   4.958   3.138   3.122  0.2058 -0.3576  0.0359
   86SOPE    C2 8002   4.922   3.268   3.294 -0.2744 -0.0190 -0.0128
   86SOPE    HS 8003   4.817   3.270   3.258 -0.1599 -1.0128 -0.4275
   86SOPE   O21 8004   4.972   3.405   3.325  0.7832  0.1374 -0.2746
   86SOPE   C21 8005   4.867   3.489   3.357  0.0310 -0.1275 -0.1773
   86SOPE   O22 8006   4.748   3.456   3.349  0.2590  0.6617  0.6330
   86SOPE   C22 8007   4.911   3.615   3.423  0.2039 -0.1924 -0.0684
   86SOPE   H2R 8008   4.924   3.696   3.349  1.4676  0.7875  1.1775
   86SOPE   H2S 8009   5.012   3.603   3.467  1.3626 -0.4026 -2.6041
   86SOPE    C3 8010   4.912   3.178   3.425 -0.2932 -0.7434  0.4228
   86SOPE    HX 8011   5.015   3.139   3.439  0.1763  1.2101  3.2154
   86SOPE    HY 8012   4.859   3.087   3.389 -0.0881 -0.9016  0.5192
   86SOPE   O31 8013   4.852   3.241   3.539  0.2827  0.3719 -0.5228
   86SOPE   C31 8014   4.721   3.224   3.561  0.0345  0.6888 -0.1871
   86SOPE   O32 8015   4.653   3.151   3.492 -0.2349 -0.4656 -0.2799
   86SOPE   C32 8016   4.676   3.312   3.681  0.5927 -1.1088  0.2037
   86SOPE   H2X 8017   4.618   3.384   3.619  0.9065 -1.6952 -0.7903
   86SOPE   H2Y 8018   4.765   3.367   3.719 -0.7824  0.9694  0.6058
   86SOPE   C23 8019   4.814   3.653   3.536  0.3537 -0.0119  0.6605
   86SOPE   H3R 8020   4.750   3.569   3.569  1.1639 -1.1847 -0.6380
   86SOPE   H3S 8021   4.742   3.733   3.510 -0.0956 -0.3634  0.8163
   86SOPE   C24 8022   4.882   3.702   3.662 -0.3417  0.3790 -0.3116
   86SOPE   H4R 8023   4.943   3.617   3.698 -0.4190  0.7122  0.6411
   86SOPE   H4S 8024   4.946   3.791   3.641 -1.7667  1.4914 -0.1063
   86SOPE   C25 8025   4.778   3.755   3.769  0.4527 -0.7191 -0.2911
   86SOPE   H5R 8026   4.846   3.818   3.830 -1.2089  1.1869 -0.3285
   86SOPE   H5S 8027   4.711   3.823   3.714  0.6974  0.5488  0.9352
   86SOPE   C26 8028   4.706   3.650   3.855 -0.3310 -0.7090 -0.0741
   86SOPE   H6R 8029   4.663   3.576   3.784 -0.5158 -1.3460  0.6924
   86SOPE   H6S 8030   4.782   3.594   3.913  2.4159  1.3678 -1.4645
   86SOPE   C27 8031   4.586   3.710   3.941  0.2638  1.0277  0.4762
   86SOPE   H7R 8032   4.503   3.738   3.873 -0.7531  0.1363  1.3074
   86SOPE   H7S 8033   4.546   3.624   3.999  1.1824  0.1963 -0.0823
   86SOPE   C28 8034   4.620   3.829   4.025  0.2218 -0.3898 -0.4209
   86SOPE   H8R 8035   4.695   3.803   4.102  0.0962  1.3056  0.2984
   86SOPE   H8S 8036   4.665   3.907   3.961 -1.9545  0.0679 -1.5069
   86SOPE   C29 8037   4.498   3.883   4.101  0.1734 -0.5652  0.2166
   86SOPE   H91 8038   4.422   3.927   4.036 -0.0270 -1.4642 -0.1746
   86SOPE  C210 8039   4.471   3.879   4.237 -0.5628  0.0599  0.3426
   86SOPE  H101 8040   4.376   3.920   4.272 -0.8107  1.8400 -2.1806
   86SOPE  C211 8041   4.563   3.817   4.345  0.6471  0.0202  0.4385
   86SOPE  H11R 8042   4.633   3.891   4.391 -1.3888  1.6308  1.0950
   86SOPE  H11S 8043   4.628   3.735   4.309  1.0625  0.6596 -0.2947
   86SOPE  C212 8044   4.486   3.739   4.452 -0.6268 -0.3943  0.2490
   86SOPE  H12R 8045   4.411   3.668   4.410 -1.4431 -0.5737  1.9341
   86SOPE  H12S 8046   4.418   3.806   4.509 -0.2427 -0.4325  0.7582
   86SOPE  C213 8047   4.577   3.652   4.551  0.0284  0.0656  0.0568
   86SOPE  H13R 8048   4.640   3.714   4.617 -0.0123 -0.5740  0.7085
   86SOPE  H13S 8049   4.643   3.589   4.488 -0.4473 -0.7988  0.4111
   86SOPE  C214 8050   4.493   3.556   4.636 -0.5495  0.9128 -0.2865
   86SOPE  H14R 8051   4.560   3.504   4.708  1.3119  0.9131 -1.9301
   86SOPE  H14S 8052   4.457   3.469   4.577  1.0900 -0.2326  0.3332
   86SOPE  C215 8053   4.373   3.606   4.720  0.0868  0.2568 -0.5394
   86SOPE  H15R 8054   4.308   3.670   4.657 -0.4229 -0.6461 -0.9610
   86SOPE  H15S 8055   4.400   3.658   4.814  1.7317 -3.5313  1.3354
   86SOPE  C216 8056   4.298   3.487   4.782 -0.0568  0.3544  0.4509
   86SOPE  H16R 8057   4.371   3.437   4.849  0.3647  0.2897 -0.0498
   86SOPE  H16S 8058   4.277   3.425   4.693 -0.9352 -1.3398  1.7796
   86SOPE  C217 8059   4.166   3.517   4.850 -0.4900  0.1395  0.3726
   86SOPE  H17R 8060   4.183   3.598   4.924  0.8486 -0.6108  0.9285
   86SOPE  H17S 8061   4.148   3.432   4.919  1.5278 -0.0212  0.7528
   86SOPE  C218 8062   4.035   3.517   4.767 -0.2843 -0.1089  0.0964
   86SOPE  H18R 8063   4.028   3.419   4.715 -0.0228 -0.3745  0.5582
   86SOPE  H18S 8064   4.027   3.596   4.689 -1.6933 -1.0799 -0.7911
   86SOPE  H18T 8065   3.952   3.539   4.837 -0.2617  1.1255 -0.2295
   86SOPE   C33 8066   4.604   3.222   3.794  0.2811 -0.8596 -0.1296
   86SOPE   H3X 8067   4.681   3.146   3.820  0.1184 -0.5448  1.3841
   86SOPE   H3Y 8068   4.508   3.180   3.756 -0.1992  1.4798 -1.6770
   86SOPE   C34 8069   4.584   3.297   3.929  0.3995 -0.0384  0.2554
   86SOPE   H4X 8070   4.515   3.382   3.910  2.4002  1.0721 -2.8397
   86SOPE   H4Y 8071   4.685   3.322   3.967 -0.0203 -1.5046  2.5181
   86SOPE   C35 8072   4.532   3.196   4.031 -0.4139 -0.1601 -0.5432
   86SOPE   H5X 8073   4.609   3.118   4.048 -0.4500 -0.2518 -0.7913
   86SOPE   H5Y 8074   4.442   3.143   3.992 -0.3734  0.5380 -1.6370
   86SOPE   C36 8075   4.498   3.269   4.162 -0.0249 -0.6929 -0.1454
   86SOPE   H6X 8076   4.410   3.335   4.148  0.4734 -0.1459 -0.7731
   86SOPE   H6Y 8077   4.585   3.328   4.199 -0.1721  0.1618 -1.1303
   86SOPE   C37 8078   4.459   3.181   4.282  0.3957 -0.7008  0.1007
   86SOPE   H7X 8079   4.534   3.104   4.309 -0.4712 -1.5048  0.2526
   86SOPE   H7Y 8080   4.367   3.125   4.253  0.1647  0.6139 -1.9264
   86SOPE   C38 8081   4.432   3.250   4.417  0.7569  0.0401 -0.5142
   86SOPE   H8X 8082   4.358   3.333   4.423  1.7851  0.8861  0.9869
   86SOPE   H8Y 8083   4.525   3.305   4.443 -0.2333  1.2807  0.5387
   86SOPE   C39 8084   4.422   3.136   4.523 -0.3503  0.0345  0.0370
   86SOPE   H9X 8085   4.506   3.065   4.507  1.2904  1.9849 -0.4860
   86SOPE   H9Y 8086   4.323   3.089   4.504  0.5098 -2.4989  1.3756
   86SOPE  C310 8087   4.429   3.181   4.672 -0.0879 -0.0559 -0.7379
   86SOPE  H10X 8088   4.335   3.234   4.698  0.7317  0.8892  0.3952
   86SOPE  H10Y 8089   4.508   3.258   4.686 -1.1708  0.7325  1.7128
   86SOPE  C311 8090   4.421   3.070   4.771 -0.2428 -0.1787  0.1758
   86SOPE  H11X 8091   4.509   3.004   4.753  0.4797  0.8163 -0.0526
   86SOPE  H11Y 8092   4.332   3.005   4.757 -0.5822  0.2938  0.1426
   86SOPE  C312 8093   4.434   3.126   4.912 -0.2363  0.6602 -0.7616
   86SOPE  H12X 8094   4.342   3.180   4.941 -1.8794 -2.3053 -0.1347
   86SOPE  H12Y 8095   4.519   3.197   4.902 -0.8194  1.1984 -2.1369
   86SOPE  C313 8096   4.458   3.007   5.003  0.3381 -0.2241  0.2286
   86SOPE  H13X 8097   4.552   2.960   4.967 -1.2565 -1.3746 -2.7979
   86SOPE  H13Y 8098   4.368   2.943   4.985 -0.4801  1.0683 -0.4675
   86SOPE  C314 8099   4.483   3.043   5.149 -0.1488  0.8913  0.4068
   86SOPE  H14X 8100   4.382   3.070   5.187 -1.7195 -0.9928 -2.1103
   86SOPE  H14Y 8101   4.554   3.129   5.157  0.5879  0.4185 -0.7240
   86SOPE  C315 8102   4.535   2.925   5.231 -0.7580  0.0627 -0.1698
   86SOPE  H15X 8103   4.536   2.952   5.338 -1.2812  1.5081 -0.5007
   86SOPE  H15Y 8104   4.639   2.897   5.206 -0.5003  0.9184 -0.0944
   86SOPE  C316 8105   4.450   2.796   5.222  0.4022  0.0935 -0.8346
   86SOPE  H16X 8106   4.438   2.775   5.113  3.5749 -0.2956 -1.1971
   86SOPE  H16Y 8107   4.354   2.814   5.276  0.7561  0.3320 -0.2796
   86SOPE  C317 8108   4.509   2.670   5.294  0.1940 -0.5546  0.0701
   86SOPE  H17X 8109   4.543   2.710   5.392  0.5271  3.3537 -1.4440
   86SOPE  H17Y 8110   4.600   2.622   5.254  1.2354  0.7408  0.7938
   86SOPE  C318 8111   4.407   2.555   5.313 -0.2620  0.4440 -0.0181
   86SOPE  H18X 8112   4.370   2.522   5.213 -1.1488 -0.7500  0.6811
   86SOPE  H18Y 8113   4.315   2.582   5.368 -2.2639 -3.3325 -1.1976
   86SOPE  H18Z 8114   4.455   2.465   5.356  0.2687 -0.0547 -1.5569
   87SOPE     N 8115   6.532   2.464   2.690  0.2840  0.4064 -0.1377
   87SOPE   HN1 8116   6.485   2.483   2.781  1.1137  1.2547  0.1303
   87SOPE   HN2 8117   6.497   2.537   2.624  2.4765  0.3133 -1.5083
   87SOPE   HN3 8118   6.491   2.372   2.667 -1.0220  0.7816  0.6030
   87SOPE   C12 8119   6.678   2.462   2.692  0.1702 -0.1951 -0.0003
   87SOPE  H12A 8120   6.711   2.559   2.735  3.4254 -1.1388 -0.1104
   87SOPE  H12B 8121   6.719   2.442   2.590 -0.8961 -0.4674 -0.3886
   87SOPE   C11 8122   6.725   2.367   2.803  0.4072  0.0951 -0.5557
   87SOPE  H11A 8123   6.695   2.265   2.770 -1.7460  0.4601  0.1177
   87SOPE  H11B 8124   6.669   2.385   2.897  0.9413  0.3462 -0.2775
   87SOPE     P 8125   6.941   2.277   2.895  0.0064  0.0752  0.1557
   87SOPE   O13 8126   7.083   2.319   2.935 -0.0625 -0.5875 -0.1915
   87SOPE   O14 8127   6.945   2.162   2.808 -0.1507 -0.1183 -0.1818
   87SOPE   O12 8128   6.870   2.393   2.820  0.3076 -0.5732 -0.7775
   87SOPE   O11 8129   6.848   2.247   3.022 -0.4313 -0.3184 -0.2487
   87SOPE    C1 8130   6.821   2.345   3.120 -0.5633  0.4126 -0.5295
   87SOPE    HA 8131   6.717   2.341   3.159  0.5719  0.4956  2.8089
   87SOPE    HB 8132   6.815   2.451   3.088  0.2300  1.3805  2.2772
   87SOPE    C2 8133   6.903   2.341   3.252 -0.7664  0.6765  0.2783
   87SOPE    HS 8134   7.011   2.343   3.225 -0.9975 -1.7979 -1.2429
   87SOPE   O21 8135   6.867   2.216   3.319 -0.2919 -0.0298 -0.3170
   87SOPE   C21 8136   6.963   2.160   3.406 -0.8512 -0.2783  0.4398
   87SOPE   O22 8137   7.076   2.205   3.414  0.2256  0.1669 -0.2491
   87SOPE   C22 8138   6.915   2.030   3.469 -0.3342 -0.3425 -0.1229
   87SOPE   H2R 8139   6.909   1.958   3.385  0.0652 -0.2287 -0.2509
   87SOPE   H2S 8140   6.813   2.054   3.507  0.0321  0.0029  0.6695
   87SOPE    C3 8141   6.872   2.455   3.339  0.3126  0.1727  0.0746
   87SOPE    HX 8142   6.762   2.453   3.354  0.3974  1.8664  1.1661
   87SOPE    HY 8143   6.890   2.546   3.278 -0.3107  0.4858  0.3504
   87SOPE   O31 8144   6.957   2.460   3.458  0.2775  0.0406  0.4149
   87SOPE   C31 8145   6.890   2.445   3.571  0.6978 -0.4308 -0.0244
   87SOPE   O32 8146   6.766   2.426   3.586 -0.1930  0.4291  0.1638
   87SOPE   C32 8147   6.987   2.454   3.686 -0.6627  0.8553  0.1511
   87SOPE   H2X 8148   7.033   2.555   3.682  0.0328  0.5113 -2.4731
   87SOPE   H2Y 8149   7.068   2.381   3.668 -0.0040  1.6458 -0.1826
   87SOPE   C23 8150   7.018   1.969   3.568 -0.1156 -0.3795 -0.5448
   87SOPE   H3R 8151   7.121   1.987   3.532 -0.4097  0.9333 -0.7698
   87SOPE   H3S 8152   6.995   1.860   3.566  0.5489 -0.7186  2.8358
   87SOPE   C24 8153   6.992   2.025   3.709  0.2830  0.1837 -0.2107
   87SOPE   H4R 8154   7.010   2.135   3.707 -2.0072  0.6182 -0.2764
   87SOPE   H4S 8155   6.885   2.026   3.738  1.0905  0.6856  3.1546
   87SOPE   C25 8156   7.088   1.962   3.807  0.3313 -0.7820 -0.1597
   87SOPE   H5R 8157   7.040   1.872   3.852  1.4618 -0.9203  0.8298
   87SOPE   H5S 8158   7.186   1.937   3.762 -0.3564 -2.0104 -1.0271
   87SOPE   C26 8159   7.110   2.048   3.933  0.1104  0.0520 -0.8095
   87SOPE   H6R 8160   7.159   2.147   3.922 -0.1651  0.3876  0.6972
   87SOPE   H6S 8161   7.014   2.079   3.979  1.4969  4.0904 -0.2192
   87SOPE   C27 8162   7.194   1.980   4.041  0.0333  0.3005  0.1708
   87SOPE   H7R 8163   7.135   1.893   4.078 -1.0075  0.7441 -0.3878
   87SOPE   H7S 8164   7.282   1.933   3.993 -2.1315 -1.7098 -2.1652
   87SOPE   C28 8165   7.233   2.084   4.150  0.5775 -0.3979  0.2912
   87SOPE   H8R 8166   7.307   2.032   4.214 -0.1644  0.1024  1.5905
   87SOPE   H8S 8167   7.284   2.170   4.102  0.8583  0.2144  1.6531
   87SOPE   C29 8168   7.120   2.130   4.234 -0.1317  0.0011  0.4056
   87SOPE   H91 8169   7.046   2.187   4.175 -0.2103 -0.1444  0.3617
   87SOPE  C210 8170   7.087   2.105   4.361  0.0382  0.7969 -0.1127
   87SOPE  H101 8171   6.994   2.154   4.394 -1.0617 -0.2169 -1.6001
   87SOPE  C211 8172   7.168   2.026   4.458  0.0692  0.3712 -0.5969
   87SOPE  H11R 8173   7.228   2.083   4.531 -1.2708 -1.1473  1.8427
   87SOPE  H11S 8174   7.250   1.969   4.410  0.0828  1.5483 -2.0235
   87SOPE  C212 8175   7.086   1.917   4.526 -0.2914  0.0959  0.5868
   87SOPE  H12R 8176   7.059   1.838   4.454 -1.2858  1.0290 -0.0978
   87SOPE  H12S 8177   6.991   1.949   4.576 -1.1056 -0.2918 -0.6628
   87SOPE  C213 8178   7.172   1.854   4.638 -0.2666  0.6966 -0.4474
   87SOPE  H13R 8179   7.269   1.828   4.590  0.2285 -1.3356  1.4938
   87SOPE  H13S 8180   7.122   1.758   4.662  1.7794 -1.4673 -3.8946
   87SOPE  C214 8181   7.198   1.935   4.774  0.2365  0.3100 -0.1213
   87SOPE  H14R 8182   7.262   2.025   4.763  1.7898 -0.7063  0.3060
   87SOPE  H14S 8183   7.243   1.853   4.835 -1.2344 -0.4265  0.0224
   87SOPE  C215 8184   7.067   1.994   4.832  0.2500 -0.4679  0.1246
   87SOPE  H15R 8185   7.008   1.911   4.877 -0.8585  0.3454  0.2122
   87SOPE  H15S 8186   7.010   2.047   4.754  0.2378 -1.2300 -0.3970
   87SOPE  C216 8187   7.112   2.084   4.956 -0.3548 -0.0482  0.5656
   87SOPE  H16R 8188   7.183   2.165   4.930 -0.4889  0.1877  0.9223
   87SOPE  H16S 8189   7.148   2.011   5.032 -2.2300  0.7198  2.3035
   87SOPE  C217 8190   6.997   2.149   5.036  0.1220  0.6052  0.8626
   87SOPE  H17R 8191   6.947   2.219   4.965 -1.3518 -1.1144  0.1226
   87SOPE  H17S 8192   7.043   2.209   5.118  0.4489  2.9374 -0.9011
   87SOPE  C218 8193   6.895   2.042   5.091  0.0903 -0.6294  0.6461
   87SOPE  H18R 8194   6.967   1.963   5.123  3.4015  1.2974 -1.4189
   87SOPE  H18S 8195   6.834   2.008   5.005 -0.0816  0.8359  0.1631
   87SOPE  H18T 8196   6.830   2.091   5.167 -0.9670  0.1241 -0.7047
   87SOPE   C33 8197   6.920   2.420   3.818 -1.2612  0.2234  0.0189
   87SOPE   H3X 8198   7.005   2.392   3.884 -0.2793  1.4844 -0.6555
   87SOPE   H3Y 8199   6.852   2.333   3.808  1.9757 -2.6220  1.0025
   87SOPE   C34 8200   6.836   2.536   3.867 -0.0515 -0.3618 -0.1537
   87SOPE   H4X 8201   6.763   2.548   3.783  0.5821  0.0226 -0.6612
   87SOPE   H4Y 8202   6.900   2.626   3.881 -1.5523  0.8727 -0.8538
   87SOPE   C35 8203   6.761   2.499   4.002  0.3826  0.2995  0.2019
   87SOPE   H5X 8204   6.827   2.476   4.088 -1.5418 -0.4554  1.5198
   87SOPE   H5Y 8205   6.695   2.414   3.975 -1.4820  1.7387  0.0680
   87SOPE   C36 8206   6.661   2.607   4.045  0.1696  0.1999  0.7972
   87SOPE   H6X 8207   6.594   2.629   3.960 -1.3538 -1.0115  1.6386
   87SOPE   H6Y 8208   6.727   2.694   4.066 -0.5440  1.5729 -2.1370
   87SOPE   C37 8209   6.568   2.574   4.164  0.0211  0.4905  0.1380
   87SOPE   H7X 8210   6.507   2.482   4.153 -0.6484  1.0658 -1.2354
   87SOPE   H7Y 8211   6.487   2.649   4.170 -1.5804 -1.1785  0.3202
   87SOPE   C38 8212   6.640   2.586   4.303  0.4025  0.4354 -0.1889
   87SOPE   H8X 8213   6.678   2.690   4.315  0.5330  0.3671  0.0018
   87SOPE   H8Y 8214   6.732   2.524   4.306 -1.6345 -2.7906  0.4657
   87SOPE   C39 8215   6.548   2.555   4.425  0.3376  0.7642  0.2846
   87SOPE   H9X 8216   6.507   2.453   4.412 -0.9139  1.0907  1.3163
   87SOPE   H9Y 8217   6.462   2.624   4.412 -0.0778 -0.2616 -3.2412
   87SOPE  C310 8218   6.618   2.576   4.560  0.0723 -0.4008 -0.2727
   87SOPE  H10X 8219   6.645   2.683   4.575  1.4685 -1.0919  3.1643
   87SOPE  H10Y 8220   6.712   2.518   4.547 -0.4607 -0.8173 -2.7019
   87SOPE  C311 8221   6.525   2.542   4.679 -0.0363  0.0125  0.8117
   87SOPE  H11X 8222   6.574   2.542   4.779  2.2292 -0.0611 -0.2306
   87SOPE  H11Y 8223   6.508   2.436   4.652  1.1103  0.5239 -2.4731
   87SOPE  C312 8224   6.384   2.608   4.682 -0.1761 -0.6031  0.1174
   87SOPE  H12X 8225   6.330   2.554   4.763  0.1591  0.5290  1.1095
   87SOPE  H12Y 8226   6.326   2.581   4.591 -0.2215  1.0151 -0.3593
   87SOPE  C313 8227   6.380   2.753   4.727 -0.6353 -0.5732  0.2019
   87SOPE  H13X 8228   6.277   2.785   4.753  0.7926  2.6096  2.5901
   87SOPE  H13Y 8229   6.412   2.805   4.634 -0.3066 -1.8559 -0.4262
   87SOPE  C314 8230   6.455   2.777   4.861  0.3665 -0.0684  0.7230
   87SOPE  H14X 8231   6.565   2.761   4.857  0.1914 -1.2158  0.1412
   87SOPE  H14Y 8232   6.416   2.701   4.933 -1.9505 -0.7566 -1.1575
   87SOPE  C315 8233   6.428   2.927   4.895  0.0232  0.1631 -0.0718
   87SOPE  H15X 8234   6.320   2.945   4.910  0.5431  3.2415  0.7407
   87SOPE  H15Y 8235   6.462   2.987   4.807 -0.0591  1.5154  0.7878
   87SOPE  C316 8236   6.506   2.973   5.024  0.0624 -0.0243  0.1156
   87SOPE  H16X 8237   6.615   2.985   5.006  0.5485  0.1092  2.7825
   87SOPE  H16Y 8238   6.475   2.893   5.094 -4.9508  0.2347 -1.3474
   87SOPE  C317 8239   6.467   3.110   5.080 -0.7557  0.3520  0.1910
   87SOPE  H17X 8240   6.501   3.184   5.005  1.5325 -0.2502  0.5563
   87SOPE  H17Y 8241   6.526   3.134   5.171 -0.3134 -0.8311  0.2367
   87SOPE  C318 8242   6.316   3.130   5.120 -0.2549  0.1287  0.1545
   87SOPE  H18X 8243   6.255   3.142   5.029  0.0409  2.2619  0.1925
   87SOPE  H18Y 8244   6.314   3.217   5.189 -0.8832 -0.2147  0.5742
   87SOPE  H18Z 8245   6.285   3.050   5.191 -0.5875 -0.8064 -1.0105
   88SOPE     N 8246   1.372   3.549   3.154 -0.3144  0.1888  0.1051
   88SOPE   HN1 8247   1.469   3.512   3.155 -0.4276 -0.1789  2.0399
   88SOPE   HN2 8248   1.309   3.469   3.132 -0.2564  0.2374 -0.2466
   88SOPE   HN3 8249   1.355   3.622   3.082  0.7548  0.5536  0.2057
   88SOPE   C12 8250   1.338   3.602   3.294  0.4058  0.5646 -0.1811
   88SOPE  H12A 8251   1.365   3.523   3.367 -1.1767 -0.0581 -0.2154
   88SOPE  H12B 8252   1.229   3.621   3.310  0.4275  0.6888 -0.1795
   88SOPE   C11 8253   1.419   3.724   3.317 -0.0292 -0.3698  0.5712
   88SOPE  H11A 8254   1.526   3.696   3.321  0.4710  1.5572  2.1047
   88SOPE  H11B 8255   1.392   3.771   3.413 -0.7671  1.9604 -0.7033
   88SOPE     P 8256   1.275   3.918   3.214  0.0211  0.2076 -0.1795
   88SOPE   O13 8257   1.177   3.877   3.116 -0.3969 -0.1854  0.3959
   88SOPE   O14 8258   1.316   4.056   3.199 -0.4359 -0.1614  0.4601
   88SOPE   O12 8259   1.399   3.821   3.212  0.4132  0.1743 -0.2480
   88SOPE   O11 8260   1.215   3.898   3.358 -0.1614  0.2691  0.0226
   88SOPE    C1 8261   1.118   3.990   3.414 -0.0419  0.0573  0.9035
   88SOPE    HA 8262   1.037   3.931   3.460 -0.0597 -2.1860 -1.7320
   88SOPE    HB 8263   1.064   4.034   3.327  0.6025 -1.0352 -0.0898
   88SOPE    C2 8264   1.166   4.105   3.499 -0.1832  0.2980  0.3919
   88SOPE    HS 8265   1.222   4.177   3.437 -3.4433  1.8799 -0.9179
   88SOPE   O21 8266   1.245   4.049   3.611  0.3266 -0.3022 -0.3396
   88SOPE   C21 8267   1.347   4.122   3.649  0.7803  0.3459 -0.0788
   88SOPE   O22 8268   1.397   4.218   3.597 -0.6593  0.3217  0.0382
   88SOPE   C22 8269   1.383   4.083   3.796 -0.3547 -0.4978 -0.4794
   88SOPE   H2R 8270   1.415   3.977   3.800  1.2010 -0.0255  0.3881
   88SOPE   H2S 8271   1.295   4.096   3.864 -0.2821  1.6262 -0.7311
   88SOPE    C3 8272   1.047   4.195   3.554  0.8954 -0.1832 -0.0760
   88SOPE    HX 8273   0.998   4.244   3.467  2.0915  1.2110  0.0078
   88SOPE    HY 8274   1.083   4.279   3.617 -0.0237 -0.8870  1.4476
   88SOPE   O31 8275   0.950   4.125   3.631 -0.5367  0.4574  0.7190
   88SOPE   C31 8276   0.976   4.113   3.754  0.3053 -0.0628 -0.4457
   88SOPE   O32 8277   1.077   4.152   3.810  0.7334 -0.6628 -0.3217
   88SOPE   C32 8278   0.861   4.054   3.827  0.4474 -1.4456 -0.1119
   88SOPE   H2X 8279   0.888   3.949   3.854  0.6182 -1.2462  0.5031
   88SOPE   H2Y 8280   0.772   4.048   3.761 -0.3782  0.8053  0.7070
   88SOPE   C23 8281   1.485   4.186   3.859 -0.0547  0.5891  0.0658
   88SOPE   H3R 8282   1.437   4.285   3.846  0.6147  1.3326  2.6615
   88SOPE   H3S 8283   1.582   4.192   3.804 -1.9112  2.2355 -3.2897
   88SOPE   C24 8284   1.513   4.162   4.010 -0.5708 -0.3133  0.0312
   88SOPE   H4R 8285   1.534   4.055   4.028 -3.0171 -0.8169  0.1890
   88SOPE   H4S 8286   1.598   4.227   4.043  0.8056 -1.1360 -1.7234
   88SOPE   C25 8287   1.392   4.190   4.106 -0.6520 -0.2324  0.0970
   88SOPE   H5R 8288   1.365   4.296   4.088  0.5517  0.2237  0.8341
   88SOPE   H5S 8289   1.301   4.149   4.057 -1.4410 -0.9790  2.0690
   88SOPE   C26 8290   1.398   4.134   4.250 -0.6650 -0.1386  1.1621
   88SOPE   H6R 8291   1.411   4.024   4.245 -0.9694 -0.1533  0.6093
   88SOPE   H6S 8292   1.480   4.166   4.318 -0.6319  0.9285  0.6282
   88SOPE   C27 8293   1.273   4.168   4.328 -0.3685  0.2067 -0.5537
   88SOPE   H7R 8294   1.225   4.255   4.277 -1.3830 -0.1751 -0.2780
   88SOPE   H7S 8295   1.200   4.089   4.300  0.5742  0.0007 -2.6589
   88SOPE   C28 8296   1.277   4.195   4.475  0.3859  0.3482 -0.0017
   88SOPE   H8R 8297   1.344   4.278   4.504  1.3901 -0.0141 -1.2199
   88SOPE   H8S 8298   1.173   4.233   4.487  0.6444  1.4784 -1.2365
   88SOPE   C29 8299   1.305   4.076   4.562  0.4157 -0.0151  0.3397
   88SOPE   H91 8300   1.286   3.980   4.512 -4.1139  0.8173  0.0390
   88SOPE  C210 8301   1.351   4.068   4.681  0.4933  0.3548  0.4082
   88SOPE  H101 8302   1.355   3.969   4.728 -0.9575 -0.8718 -1.8876
   88SOPE  C211 8303   1.403   4.181   4.771  0.2431 -0.5369 -0.4096
   88SOPE  H11R 8304   1.320   4.194   4.845  0.1034  0.7036 -0.7679
   88SOPE  H11S 8305   1.435   4.270   4.713  0.6715  0.2501  0.9749
   88SOPE  C212 8306   1.517   4.129   4.861  0.7426 -1.0002 -0.1242
   88SOPE  H12R 8307   1.489   4.026   4.893  0.1700 -0.5215  0.9715
   88SOPE  H12S 8308   1.531   4.189   4.953 -1.6453  0.0513 -0.3828
   88SOPE  C213 8309   1.652   4.123   4.795 -0.3369  0.3969  0.7607
   88SOPE  H13R 8310   1.675   4.216   4.740  0.6836 -0.6888 -0.7202
   88SOPE  H13S 8311   1.647   4.043   4.718  0.7383 -1.5477  2.5718
   88SOPE  C214 8312   1.773   4.094   4.883  0.4729  0.1492 -0.3771
   88SOPE  H14R 8313   1.796   4.180   4.949  0.3024  0.7676 -1.1110
   88SOPE  H14S 8314   1.856   4.084   4.808  0.6883 -0.1954 -0.0941
   88SOPE  C215 8315   1.767   3.969   4.968 -0.0578  0.1172 -0.0254
   88SOPE  H15R 8316   1.756   3.882   4.899 -0.3741 -1.6088  2.0953
   88SOPE  H15S 8317   1.671   3.970   5.024  0.2214 -0.6350  0.4740
   88SOPE  C216 8318   1.879   3.956   5.067 -0.3309  0.2710 -0.0520
   88SOPE  H16R 8319   1.873   3.865   5.130 -1.9255  0.2406 -0.2122
   88SOPE  H16S 8320   1.864   4.038   5.140  0.9399  0.5365 -0.0709
   88SOPE  C217 8321   2.027   3.981   5.026  0.0941 -0.7297  0.1835
   88SOPE  H17R 8322   2.031   4.083   4.984  0.2148 -0.1355  1.5826
   88SOPE  H17S 8323   2.049   3.897   4.957 -0.0172  0.2079 -1.0234
   88SOPE  C218 8324   2.104   3.975   5.156  0.6722 -0.2358  0.2542
   88SOPE  H18R 8325   2.070   3.892   5.223  1.2635  0.3636  1.3284
   88SOPE  H18S 8326   2.080   4.072   5.205  2.4528 -0.3623  1.4832
   88SOPE  H18T 8327   2.214   3.969   5.139  0.6561  2.6595 -1.4558
   88SOPE   C33 8328   0.819   4.126   3.960 -0.1044 -0.0359  0.5201
   88SOPE   H3X 8329   0.798   4.234   3.950  1.2328  0.2738  0.9052
   88SOPE   H3Y 8330   0.911   4.135   4.021 -0.9430 -0.0273  1.8082
   88SOPE   C34 8331   0.717   4.060   4.045  0.6461  0.5900  0.6824
   88SOPE   H4X 8332   0.747   3.954   4.060 -0.9793 -0.0511 -0.3830
   88SOPE   H4Y 8333   0.614   4.051   4.005  0.0658 -1.0099  2.3600
   88SOPE   C35 8334   0.698   4.136   4.183 -0.5520  0.1225 -0.2956
   88SOPE   H5X 8335   0.612   4.098   4.242 -0.1690  1.3806  1.1172
   88SOPE   H5Y 8336   0.672   4.240   4.155  1.3318  0.3539 -1.3487
   88SOPE   C36 8337   0.818   4.134   4.274  0.4045 -0.6326 -0.3352
   88SOPE   H6X 8338   0.910   4.179   4.231 -0.0098  0.3957 -0.1625
   88SOPE   H6Y 8339   0.843   4.028   4.297 -0.0856 -0.3506  1.6737
   88SOPE   C37 8340   0.777   4.189   4.408 -0.0209  0.1090 -0.2750
   88SOPE   H7X 8341   0.683   4.145   4.446 -0.3285 -0.5809 -1.7640
   88SOPE   H7Y 8342   0.751   4.297   4.399 -0.4034  0.2446  2.0014
   88SOPE   C38 8343   0.884   4.175   4.516 -0.0126 -0.3105  0.0675
   88SOPE   H8X 8344   0.963   4.250   4.496 -1.4192  0.7013 -1.9906
   88SOPE   H8Y 8345   0.948   4.084   4.515  2.6322  1.3825  1.9006
   88SOPE   C39 8346   0.825   4.186   4.658  0.2138  0.1958  0.0801
   88SOPE   H9X 8347   0.746   4.108   4.661 -0.3498  0.6315 -1.9061
   88SOPE   H9Y 8348   0.780   4.287   4.669  1.5618  0.7661  0.5147
   88SOPE  C310 8349   0.930   4.161   4.767 -0.1881 -1.0439 -0.6609
   88SOPE  H10X 8350   1.024   4.219   4.756 -1.4701  1.4561  0.6310
   88SOPE  H10Y 8351   0.959   4.054   4.762  1.0604 -0.8338  1.0034
   88SOPE  C311 8352   0.883   4.185   4.911 -0.2237 -0.6051 -0.7327
   88SOPE  H11X 8353   0.791   4.126   4.930 -0.4761  0.5301  2.1702
   88SOPE  H11Y 8354   0.862   4.294   4.920 -0.1159 -0.2760 -3.6665
   88SOPE  C312 8355   0.997   4.143   5.010  0.5153  0.3871 -0.1247
   88SOPE  H12X 8356   1.100   4.172   4.982  2.4976 -2.6564  3.1285
   88SOPE  H12Y 8357   1.000   4.033   5.020  0.6272  0.5598  2.9158
   88SOPE  C313 8358   0.991   4.191   5.158 -0.3930 -0.2652  0.8907
   88SOPE  H13X 8359   0.906   4.140   5.208 -0.7148 -0.1698  0.4496
   88SOPE  H13Y 8360   0.991   4.302   5.165  1.3553 -0.2592  1.2719
   88SOPE  C314 8361   1.111   4.159   5.241 -0.1509 -0.8006  0.4546
   88SOPE  H14X 8362   1.200   4.211   5.199 -0.8492  0.8847  1.0101
   88SOPE  H14Y 8363   1.133   4.050   5.242 -1.4025 -1.1046 -1.0762
   88SOPE  C315 8364   1.088   4.215   5.391 -0.0093  0.0533 -0.1215
   88SOPE  H15X 8365   1.010   4.151   5.437  0.3705  2.2691  4.0782
   88SOPE  H15Y 8366   1.053   4.320   5.393 -0.7344 -0.1831 -0.0861
   88SOPE  C316 8367   1.223   4.220   5.464 -0.4810 -0.3576 -0.2313
   88SOPE  H16X 8368   1.306   4.249   5.396 -1.7044  0.0929 -1.5819
   88SOPE  H16Y 8369   1.251   4.120   5.504  0.1012 -0.3346 -0.5735
   88SOPE  C317 8370   1.232   4.320   5.580  0.4765 -0.1194  0.5257
   88SOPE  H17X 8371   1.146   4.298   5.647  0.5694  0.4262  0.8250
   88SOPE  H17Y 8372   1.233   4.424   5.543  0.0456 -0.4339 -0.4159
   88SOPE  C318 8373   1.360   4.302   5.661  0.2384 -0.1931  0.3499
   88SOPE  H18X 8374   1.369   4.199   5.704 -0.0164 -0.8892 -1.1812
   88SOPE  H18Y 8375   1.355   4.371   5.747  0.3654 -0.6415  0.7187
   88SOPE  H18Z 8376   1.452   4.321   5.602 -0.8512 -0.2272 -1.4437
   89SAPC     N 8377   5.470   5.691   7.374  0.3748 -0.1712  0.9016
   89SAPC   C12 8378   5.498   5.582   7.271 -0.4665  0.1697 -0.2373
   89SAPC  H12A 8379   5.427   5.503   7.285  0.4102 -0.3462  1.5886
   89SAPC  H12B 8380   5.593   5.535   7.290 -0.3207  0.5176 -0.0861
   89SAPC   C13 8381   5.557   5.815   7.356 -0.8420  0.6794  0.6942
   89SAPC  H13A 8382   5.527   5.895   7.422 -0.3159  0.1877  1.5522
   89SAPC  H13B 8383   5.659   5.779   7.360 -1.7032 -2.1210 -0.2105
   89SAPC  H13C 8384   5.547   5.853   7.256 -1.0423 -1.4344 -0.1301
   89SAPC   C14 8385   5.331   5.735   7.344  0.1128 -0.1088 -0.1741
   89SAPC  H14A 8386   5.258   5.656   7.335  1.8071 -1.6639 -0.9083
   89SAPC  H14B 8387   5.294   5.802   7.420 -1.3609 -1.1636  0.0739
   89SAPC  H14C 8388   5.329   5.783   7.248  3.0506 -0.6736 -0.6247
   89SAPC   C15 8389   5.472   5.634   7.509  0.3421 -0.2971 -0.4103
   89SAPC  H15A 8390   5.566   5.585   7.527  0.1731 -0.1672  0.9405
   89SAPC  H15B 8391   5.446   5.709   7.582 -0.3623 -0.7237 -0.2148
   89SAPC  H15C 8392   5.396   5.559   7.524 -0.6197  1.0654  2.1854
   89SAPC   C11 8393   5.491   5.629   7.125  0.2528 -0.4329 -0.3414
   89SAPC  H11A 8394   5.408   5.701   7.111  1.0681  1.1062  1.9947
   89SAPC  H11B 8395   5.479   5.537   7.064  1.9878 -1.3647  0.6155
   89SAPC     P 8396   5.751   5.615   7.061 -0.1011  0.2170  0.2294
   89SAPC   O13 8397   5.872   5.690   7.098 -0.0957  0.0896 -0.1364
   89SAPC   O14 8398   5.744   5.479   7.114  0.3186  0.0435 -0.3710
   89SAPC   O12 8399   5.612   5.696   7.090 -0.3439 -0.0159  0.3772
   89SAPC   O11 8400   5.748   5.603   6.905 -0.2271 -0.1479  0.1994
   89SAPC    C1 8401   5.704   5.706   6.816 -0.6045 -0.4563  0.2950
   89SAPC    HA 8402   5.611   5.677   6.764  0.4089 -1.4715 -1.0385
   89SAPC    HB 8403   5.694   5.799   6.876  0.4729 -0.3267  0.3020
   89SAPC    C2 8404   5.811   5.751   6.718  0.3894  0.2142  0.9874
   89SAPC    HS 8405   5.789   5.853   6.679 -0.4792  0.3920  1.8836
   89SAPC   O21 8406   5.830   5.651   6.616 -0.1496  0.2673  0.5305
   89SAPC   C21 8407   5.851   5.703   6.500  0.7857 -1.3190  0.5804
   89SAPC   O22 8408   5.849   5.824   6.471 -0.4669  0.5233 -0.0234
   89SAPC   C22 8409   5.880   5.591   6.395 -0.3680 -0.2173  0.0435
   89SAPC   H2R 8410   5.968   5.532   6.429  0.6857  1.3339  0.1343
   89SAPC   H2S 8411   5.794   5.521   6.396  0.8855 -1.9031 -1.8268
   89SAPC    C3 8412   5.939   5.776   6.793 -0.6516 -0.0400 -0.5860
   89SAPC    HX 8413   5.971   5.682   6.844 -0.7101 -0.2979 -1.0240
   89SAPC    HY 8414   5.926   5.839   6.884 -1.2863  0.8317 -1.2657
   89SAPC   O31 8415   6.056   5.809   6.712  0.4139  0.3202  0.6312
   89SAPC   C31 8416   6.074   5.938   6.709 -0.1815  0.8566 -0.0234
   89SAPC   O32 8417   5.999   6.024   6.759  0.2088  0.2847 -0.1378
   89SAPC   C32 8418   6.213   5.967   6.647  0.3264  0.6858 -0.2953
   89SAPC   H2X 8419   6.291   5.913   6.706  0.1984  0.4455 -0.3437
   89SAPC   H2Y 8420   6.225   6.075   6.667  3.0498  0.7761 -1.9200
   89SAPC   C23 8421   5.911   5.640   6.253 -0.1608  0.7920 -0.1153
   89SAPC   H3R 8422   6.008   5.694   6.257  0.1872  0.3721 -1.9826
   89SAPC   H3S 8423   5.832   5.707   6.213 -1.3550 -1.7538 -2.2772
   89SAPC   C24 8424   5.935   5.524   6.156 -0.7242  0.2289 -0.7678
   89SAPC   H4R 8425   5.993   5.447   6.212 -0.7586  1.4134  0.9706
   89SAPC   H4S 8426   6.006   5.557   6.078 -2.7049  0.1750 -2.6773
   89SAPC   C25 8427   5.814   5.450   6.100 -0.3307 -0.6451 -0.1045
   89SAPC   H5R 8428   5.746   5.417   6.180 -1.1193 -0.2675 -0.6201
   89SAPC   C26 8429   5.783   5.429   5.968 -0.8475  0.5071 -0.1691
   89SAPC   H6R 8430   5.695   5.368   5.943 -0.5853  0.2512 -0.4813
   89SAPC   C27 8431   5.855   5.469   5.839  0.8428 -0.5165 -0.8956
   89SAPC   H7R 8432   5.934   5.540   5.872 -1.6783  1.9399  0.2558
   89SAPC   H7S 8433   5.785   5.528   5.776 -1.0269 -1.0039  0.6139
   89SAPC   C28 8434   5.902   5.338   5.770  0.0613 -0.6092 -0.9146
   89SAPC   H8R 8435   5.918   5.250   5.835  0.0691  1.7418  2.5086
   89SAPC   C29 8436   5.913   5.318   5.637  0.1460  0.1495 -0.2342
   89SAPC   H9R 8437   5.939   5.216   5.605 -1.5598 -0.5560  0.4897
   89SAPC  C210 8438   5.878   5.426   5.529 -0.0696  0.5322 -0.4144
   89SAPC  H10R 8439   5.923   5.397   5.432  2.4331 -0.1614  0.8595
   89SAPC  H10S 8440   5.943   5.512   5.554  1.0842  0.4185 -2.7240
   89SAPC  C211 8441   5.732   5.451   5.515 -0.0979  0.2516 -0.3790
   89SAPC  H11R 8442   5.682   5.504   5.598 -0.1821  0.2202 -0.4093
   89SAPC  C212 8443   5.654   5.400   5.419 -0.3356  0.2810  0.6389
   89SAPC  H12R 8444   5.548   5.430   5.422 -0.9480 -1.4940 -0.9402
   89SAPC  C213 8445   5.683   5.309   5.304 -0.4941  0.1005  0.7337
   89SAPC  H13R 8446   5.649   5.207   5.329 -0.1461 -0.7864 -2.0678
   89SAPC  H13S 8447   5.791   5.298   5.278  0.0612  0.2246  2.7776
   89SAPC  C214 8448   5.612   5.349   5.180 -0.1669 -0.0544  0.1069
   89SAPC  H14R 8449   5.589   5.456   5.168 -1.8962 -0.4012  0.0121
   89SAPC  C215 8450   5.568   5.268   5.081  0.4806 -0.4715 -0.6586
   89SAPC  H15R 8451   5.507   5.314   5.002 -1.3731 -0.2378  0.8378
   89SAPC  C216 8452   5.595   5.123   5.073 -0.6032  0.4285 -0.4112
   89SAPC  H16R 8453   5.534   5.067   4.999 -0.4553  1.1159 -1.0686
   89SAPC  H16S 8454   5.579   5.066   5.167 -1.9937  0.5389 -0.5596
   89SAPC  C217 8455   5.742   5.090   5.028  0.2465  0.0924  0.1524
   89SAPC  H17R 8456   5.788   5.037   5.115  0.2837  1.4777  1.0177
   89SAPC  H17S 8457   5.798   5.185   5.013 -2.1132  1.1729 -2.8051
   89SAPC  C218 8458   5.749   5.007   4.892 -0.0009 -0.2104  0.0059
   89SAPC  H18R 8459   5.690   5.064   4.816  3.3308  1.5254 -1.4822
   89SAPC  H18S 8460   5.708   4.907   4.919  0.5118 -0.2021  0.8381
   89SAPC  C219 8461   5.888   4.988   4.840  0.5668  0.1402  0.3321
   89SAPC  H19R 8462   5.946   4.927   4.912 -1.3988 -1.0577  0.9605
   89SAPC  H19S 8463   5.940   5.086   4.837 -0.1114  0.5997  2.2410
   89SAPC  C220 8464   5.896   4.924   4.699  0.4107  0.6567 -0.0766
   89SAPC  H20R 8465   5.839   4.829   4.693  0.7685  0.4805 -0.9612
   89SAPC  H20S 8466   6.003   4.909   4.672  0.2349 -0.9489  0.0495
   89SAPC  H20T 8467   5.855   5.000   4.629  0.1877 -0.2671 -0.9723
   89SAPC   C33 8468   6.214   5.933   6.502  0.3597  1.1388 -0.0613
   89SAPC   H3X 8469   6.141   5.997   6.448  1.4999  2.3114 -0.2629
   89SAPC   H3Y 8470   6.196   5.825   6.484  2.5262  0.4624  1.4176
   89SAPC   C34 8471   6.350   5.953   6.436 -0.6285  0.2886  0.4727
   89SAPC   H4X 8472   6.370   5.872   6.363 -0.3007 -0.2145  1.1115
   89SAPC   H4Y 8473   6.437   5.947   6.504  0.3085  1.4057 -0.5911
   89SAPC   C35 8474   6.368   6.078   6.357 -0.7266 -0.4908  0.5285
   89SAPC   H5X 8475   6.476   6.075   6.329 -1.3662 -0.8421 -2.2204
   89SAPC   H5Y 8476   6.335   6.168   6.413 -2.5413 -1.7358  1.5533
   89SAPC   C36 8477   6.290   6.078   6.218 -0.0298 -0.3048 -0.5925
   89SAPC   H6X 8478   6.182   6.071   6.244  0.3824  0.9057  1.6569
   89SAPC   H6Y 8479   6.336   5.992   6.164  1.7971 -0.1785  0.6584
   89SAPC   C37 8480   6.319   6.210   6.138 -0.4162 -0.0367  0.1312
   89SAPC   H7X 8481   6.425   6.237   6.160 -0.0188 -0.2631 -1.3934
   89SAPC   H7Y 8482   6.256   6.296   6.169  1.5817  1.7064 -0.3481
   89SAPC   C38 8483   6.316   6.200   5.983  0.0152  0.0753  0.7829
   89SAPC   H8X 8484   6.208   6.180   5.968  0.1939 -1.2414  1.1074
   89SAPC   H8Y 8485   6.375   6.114   5.946  0.6138  1.2170 -1.0377
   89SAPC   C39 8486   6.347   6.336   5.916  0.5464  0.0324 -0.2476
   89SAPC   H9X 8487   6.452   6.362   5.939  0.4217 -0.7356  1.2392
   89SAPC   H9Y 8488   6.270   6.412   5.943  0.9387 -0.3045  1.9176
   89SAPC  C310 8489   6.327   6.309   5.767 -0.4332  0.2740 -0.7656
   89SAPC  H10X 8490   6.370   6.212   5.734  1.6004  0.6078  0.7337
   89SAPC  H10Y 8491   6.390   6.381   5.711 -1.5817  0.2708 -2.1339
   89SAPC  C311 8492   6.188   6.331   5.709  0.2528  0.8925 -0.1587
   89SAPC  H11X 8493   6.135   6.420   5.748 -1.8569 -1.2472  2.2023
   89SAPC  H11Y 8494   6.131   6.245   5.751  3.3008 -0.6642  1.0629
   89SAPC  C312 8495   6.189   6.337   5.557  0.0214 -0.7275 -0.6387
   89SAPC  H12X 8496   6.092   6.299   5.519 -1.2526  0.0817  1.6617
   89SAPC  H12Y 8497   6.281   6.290   5.516 -0.1319 -1.4810 -0.1304
   89SAPC  C313 8498   6.194   6.482   5.498 -0.2431  0.5131  0.1623
   89SAPC  H13X 8499   6.289   6.526   5.536 -0.7158  1.8163 -0.0852
   89SAPC  H13Y 8500   6.105   6.538   5.536 -1.9940 -2.7988  1.2876
   89SAPC  C314 8501   6.198   6.481   5.342 -0.3608 -0.0053 -0.4674
   89SAPC  H14X 8502   6.214   6.584   5.303  2.5229  0.2333  1.0685
   89SAPC  H14Y 8503   6.098   6.448   5.306 -1.2178  0.4087  1.4065
   89SAPC  C315 8504   6.287   6.376   5.277 -0.2584  0.8394 -0.1884
   89SAPC  H15X 8505   6.267   6.386   5.168  0.6475  0.9641 -0.3600
   89SAPC  H15Y 8506   6.265   6.271   5.305  2.1967  0.5072  0.7663
   89SAPC  C316 8507   6.438   6.410   5.287  0.2840 -0.1496 -0.0276
   89SAPC  H16X 8508   6.499   6.329   5.241 -0.2345 -1.4889  1.5522
   89SAPC  H16Y 8509   6.469   6.422   5.393 -2.9485  0.4119  0.9367
   89SAPC  C317 8510   6.483   6.538   5.217 -0.1182 -0.0274  1.0984
   89SAPC  H17X 8511   6.448   6.628   5.271  0.5474 -0.0602  1.5853
   89SAPC  H17Y 8512   6.442   6.531   5.114  0.0552 -1.7018  1.1137
   89SAPC  C318 8513   6.635   6.555   5.217  0.0089 -0.1110  0.1595
   89SAPC  H18X 8514   6.662   6.661   5.198  0.5640 -0.1925  0.4723
   89SAPC  H18Y 8515   6.696   6.502   5.141  1.2953 -1.0594  1.7869
   89SAPC  H18Z 8516   6.665   6.520   5.318 -1.5007 -3.0251 -0.2737
   90SAPC     N 8517   5.237   1.390   7.972  0.3213  0.2187  0.5923
   90SAPC   C12 8518   5.179   1.508   7.900 -0.1337 -0.4318 -0.2132
   90SAPC  H12A 8519   5.251   1.587   7.885 -0.5659  0.5702  2.4539
   90SAPC  H12B 8520   5.098   1.545   7.961 -0.3305 -0.8754 -0.2060
   90SAPC   C13 8521   5.136   1.283   8.003 -0.5574  0.7477 -0.2371
   90SAPC  H13A 8522   5.192   1.202   8.047  1.7562  2.0514 -0.5844
   90SAPC  H13B 8523   5.065   1.310   8.080 -1.3340  0.6486 -0.9098
   90SAPC  H13C 8524   5.085   1.245   7.916 -0.8164 -0.6824  0.5067
   90SAPC   C14 8525   5.348   1.343   7.883  0.3117  0.0471  0.0658
   90SAPC  H14A 8526   5.317   1.296   7.791  1.2406 -0.8839  0.2109
   90SAPC  H14B 8527   5.421   1.417   7.852 -0.5379  0.7269 -0.3540
   90SAPC  H14C 8528   5.401   1.269   7.941  0.9817  2.0211  2.1755
   90SAPC   C15 8529   5.290   1.438   8.103 -0.4002 -0.4048 -0.0720
   90SAPC  H15A 8530   5.322   1.352   8.160 -0.8644  0.7309  2.0265
   90SAPC  H15B 8531   5.382   1.494   8.095  0.5316 -1.8400  0.1335
   90SAPC  H15C 8532   5.212   1.477   8.167 -0.4025  2.8468 -1.8405
   90SAPC   C11 8533   5.100   1.471   7.766 -0.5228 -0.4587  0.3103
   90SAPC  H11A 8534   5.166   1.409   7.702  0.9278 -1.0178  2.2734
   90SAPC  H11B 8535   5.082   1.564   7.708 -0.9619 -2.1461 -2.4591
   90SAPC     P 8536   4.890   1.351   7.671  0.6021  0.2240 -0.2333
   90SAPC   O13 8537   4.947   1.226   7.617 -0.2224 -0.2284 -0.1864
   90SAPC   O14 8538   4.756   1.338   7.717  0.8908  0.7422 -0.6906
   90SAPC   O12 8539   4.976   1.412   7.788  0.3259 -0.2267 -0.4333
   90SAPC   O11 8540   4.886   1.448   7.554 -0.5728  0.1254  0.2235
   90SAPC    C1 8541   4.828   1.580   7.567  0.0453 -0.3620 -0.0143
   90SAPC    HA 8542   4.772   1.589   7.663  3.0711 -1.2745  1.9585
   90SAPC    HB 8543   4.915   1.648   7.577 -0.2154  0.1214 -0.9626
   90SAPC    C2 8544   4.744   1.617   7.443  0.5124  0.6172  0.9949
   90SAPC    HS 8545   4.661   1.543   7.448  1.6690 -0.8537 -0.5949
   90SAPC   O21 8546   4.821   1.607   7.326  0.1055 -0.0612 -0.2261
   90SAPC   C21 8547   4.749   1.570   7.220 -0.2303  0.6558  0.2362
   90SAPC   O22 8548   4.632   1.544   7.225  0.0931  0.9789 -0.5256
   90SAPC   C22 8549   4.834   1.617   7.096  0.0495 -1.1029  0.1322
   90SAPC   H2R 8550   4.848   1.727   7.097  0.3279 -1.0425 -2.9252
   90SAPC   H2S 8551   4.934   1.570   7.102  0.5485 -0.0484  0.3817
   90SAPC    C3 8552   4.692   1.760   7.462  0.1459 -0.9279  0.0545
   90SAPC    HX 8553   4.783   1.824   7.463  0.3032 -1.0138 -2.4751
   90SAPC    HY 8554   4.649   1.763   7.565 -0.0691  1.3769 -0.0513
   90SAPC   O31 8555   4.607   1.802   7.355  0.3916 -0.3990  0.3742
   90SAPC   C31 8556   4.480   1.772   7.371  0.4334 -0.7527  0.1608
   90SAPC   O32 8557   4.426   1.706   7.454 -0.1495  0.0613 -0.6102
   90SAPC   C32 8558   4.399   1.854   7.272  0.0061  0.5146 -0.0473
   90SAPC   H2X 8559   4.448   1.954   7.267  2.3925 -0.4726  1.6077
   90SAPC   H2Y 8560   4.296   1.868   7.310 -0.1375 -0.0312 -0.2229
   90SAPC   C23 8561   4.774   1.595   6.955 -0.1752  0.0549 -0.1420
   90SAPC   H3R 8562   4.814   1.660   6.875  1.1067  0.9811  1.2064
   90SAPC   H3S 8563   4.665   1.614   6.942  0.1325  0.4648 -2.5701
   90SAPC   C24 8564   4.810   1.459   6.904 -0.1715  0.9184 -0.5355
   90SAPC   H4R 8565   4.788   1.382   6.981  0.3664  3.8626  2.8060
   90SAPC   H4S 8566   4.918   1.446   6.883 -0.0179 -1.9640  1.4451
   90SAPC   C25 8567   4.726   1.430   6.787  0.5545  0.1486  0.4504
   90SAPC   H5R 8568   4.632   1.373   6.799 -0.3049  1.4819  0.3350
   90SAPC   C26 8569   4.762   1.415   6.658  0.4794 -0.5898 -0.2127
   90SAPC   H6R 8570   4.689   1.400   6.578  2.3799  0.2941 -2.2142
   90SAPC   C27 8571   4.902   1.443   6.615  0.5565 -0.5380 -0.0153
   90SAPC   H7R 8572   4.968   1.367   6.663  0.8084  0.3818  1.1360
   90SAPC   H7S 8573   4.932   1.543   6.653 -1.4332  0.0518  0.1092
   90SAPC   C28 8574   4.926   1.430   6.467 -0.0070  0.5273  0.5772
   90SAPC   H8R 8575   4.998   1.350   6.447 -1.4470 -0.6943  0.1268
   90SAPC   C29 8576   4.875   1.498   6.363  0.2827 -0.8324  0.6332
   90SAPC   H9R 8577   4.917   1.471   6.265  1.5235  1.8391  0.3335
   90SAPC  C210 8578   4.753   1.591   6.362  0.0286  0.2155 -0.1190
   90SAPC  H10R 8579   4.792   1.683   6.314  1.2165 -0.7510 -1.0690
   90SAPC  H10S 8580   4.729   1.613   6.468 -1.4696 -2.2792  0.1370
   90SAPC  C211 8581   4.632   1.522   6.291  0.0043  0.0571  0.6393
   90SAPC  H11R 8582   4.579   1.440   6.341 -0.6320 -0.5219 -0.9096
   90SAPC  C212 8583   4.597   1.530   6.162 -0.6377 -0.9678 -0.2138
   90SAPC  H12R 8584   4.523   1.463   6.115 -1.7114 -0.6187  0.9186
   90SAPC  C213 8585   4.672   1.615   6.058 -0.2859  0.2464 -0.6741
   90SAPC  H13R 8586   4.751   1.676   6.107  1.8001 -2.4910 -0.3999
   90SAPC  H13S 8587   4.603   1.686   6.007  1.4724  1.5262 -1.3859
   90SAPC  C214 8588   4.742   1.514   5.962  0.2620 -0.4545 -0.0524
   90SAPC  H14R 8589   4.764   1.418   6.011  0.1168 -1.7967 -2.4697
   90SAPC  C215 8590   4.748   1.522   5.831 -0.0762 -0.1319 -0.3739
   90SAPC  H15R 8591   4.789   1.442   5.767 -1.2378 -1.5036  0.5451
   90SAPC  C216 8592   4.714   1.642   5.752 -0.1595 -0.3790 -0.6534
   90SAPC  H16R 8593   4.682   1.731   5.810 -0.2709 -0.3062 -0.8231
   90SAPC  H16S 8594   4.626   1.622   5.687  0.9332 -0.2603 -2.2319
   90SAPC  C217 8595   4.833   1.692   5.661 -0.2712  0.3528 -0.3498
   90SAPC  H17R 8596   4.862   1.607   5.596 -0.3798 -0.5709  0.7653
   90SAPC  H17S 8597   4.916   1.711   5.732 -2.0955  0.3755  1.8862
   90SAPC  C218 8598   4.798   1.816   5.581  0.2361 -0.1664  0.1141
   90SAPC  H18R 8599   4.775   1.896   5.654  1.8478  0.9599 -0.5341
   90SAPC  H18S 8600   4.704   1.791   5.527 -0.7932  0.9028  1.3670
   90SAPC  C219 8601   4.901   1.874   5.484 -0.3134 -0.0277 -0.3082
   90SAPC  H19R 8602   4.914   1.792   5.410 -0.8944  0.6094 -1.1459
   90SAPC  H19S 8603   4.993   1.873   5.546 -0.7092 -1.3313  0.2670
   90SAPC  C220 8604   4.880   2.014   5.414 -0.3877  0.0635 -0.0876
   90SAPC  H20R 8605   4.798   2.013   5.338  1.9247 -2.2384 -2.7591
   90SAPC  H20S 8606   4.977   2.036   5.364  0.0924 -0.5872  0.5391
   90SAPC  H20T 8607   4.860   2.086   5.496 -1.1795 -0.7443  0.4486
   90SAPC   C33 8608   4.410   1.816   7.121  0.7635  0.0743 -0.6399
   90SAPC   H3X 8609   4.323   1.874   7.082  0.1613  0.2412  0.8813
   90SAPC   H3Y 8610   4.375   1.713   7.096  0.3004 -0.5128  2.1619
   90SAPC   C34 8611   4.524   1.882   7.042 -0.6149 -0.7628  0.0487
   90SAPC   H4X 8612   4.616   1.829   7.074  1.7916  2.4399 -1.0405
   90SAPC   H4Y 8613   4.533   1.991   7.061  0.9038 -0.2957 -2.7295
   90SAPC   C35 8614   4.513   1.873   6.889  0.1392 -0.7662 -0.6020
   90SAPC   H5X 8615   4.419   1.916   6.850 -0.0612 -0.3361  0.3375
   90SAPC   H5Y 8616   4.511   1.766   6.859  1.4607 -0.8088 -0.6085
   90SAPC   C36 8617   4.620   1.943   6.803 -0.0401  0.2603  0.6762
   90SAPC   H6X 8618   4.719   1.905   6.834  0.6846  0.1865 -1.5603
   90SAPC   H6Y 8619   4.608   2.053   6.814 -1.4291  0.2882 -0.6709
   90SAPC   C37 8620   4.612   1.904   6.652  0.2794 -0.0057  0.6255
   90SAPC   H7X 8621   4.507   1.915   6.618 -0.5032 -2.0580  2.2080
   90SAPC   H7Y 8622   4.648   1.799   6.647  2.3999  0.5917  2.0983
   90SAPC   C38 8623   4.681   1.999   6.564  0.1626 -0.0482 -0.7442
   90SAPC   H8X 8624   4.784   2.014   6.602  0.0775 -0.7496 -0.2122
   90SAPC   H8Y 8625   4.647   2.105   6.574  0.4495  0.2174 -2.3842
   90SAPC   C39 8626   4.669   1.967   6.416 -0.1487 -0.3387  0.0754
   90SAPC   H9X 8627   4.682   1.858   6.402 -1.6082 -0.6321  0.8646
   90SAPC   H9Y 8628   4.743   2.024   6.356 -1.0307 -0.7903 -1.5186
   90SAPC  C310 8629   4.534   2.012   6.357 -0.4939 -0.4797 -0.1309
   90SAPC  H10X 8630   4.525   2.123   6.361  2.0988 -0.2158  0.0266
   90SAPC  H10Y 8631   4.445   1.963   6.402 -0.6759 -2.1549 -2.1701
   90SAPC  C311 8632   4.526   1.957   6.212  0.5005 -0.9740  0.0066
   90SAPC  H11X 8633   4.549   1.849   6.228  3.1746 -0.5531 -0.5802
   90SAPC  H11Y 8634   4.606   2.008   6.155  0.1844  0.1780  0.5556
   90SAPC  C312 8635   4.390   1.976   6.136 -0.3360 -0.3668 -0.8671
   90SAPC  H12X 8636   4.371   2.082   6.109 -3.4441 -1.0218 -1.7121
   90SAPC  H12Y 8637   4.313   1.939   6.207 -0.6481 -0.7192 -1.3836
   90SAPC  C313 8638   4.395   1.886   6.006 -0.6098  0.1193  0.1772
   90SAPC  H13X 8639   4.379   1.778   6.026  1.2528 -0.2177  0.0074
   90SAPC  H13Y 8640   4.485   1.915   5.949  0.6756 -2.5209  0.7019
   90SAPC  C314 8641   4.275   1.924   5.922  0.7581 -0.6085 -0.2423
   90SAPC  H14X 8642   4.270   2.035   5.918  0.2008 -0.5545  1.2397
   90SAPC  H14Y 8643   4.183   1.893   5.976  0.0714  0.8842 -0.5219
   90SAPC  C315 8644   4.277   1.872   5.776 -0.2591 -0.5392  0.3856
   90SAPC  H15X 8645   4.289   1.762   5.787 -0.9054 -0.7005 -0.4035
   90SAPC  H15Y 8646   4.364   1.914   5.722 -1.9088 -1.1032 -2.9599
   90SAPC  C316 8647   4.145   1.894   5.697  0.1835 -0.4984  0.1421
   90SAPC  H16X 8648   4.133   2.004   5.686  0.3154 -0.5351 -0.4392
   90SAPC  H16Y 8649   4.061   1.863   5.763  1.0035 -0.5385  1.1898
   90SAPC  C317 8650   4.130   1.822   5.562 -0.5762  0.4836 -0.4859
   90SAPC  H17X 8651   4.172   1.720   5.573 -0.2245  0.7695  1.2177
   90SAPC  H17Y 8652   4.191   1.860   5.476 -0.1048 -0.3005 -0.5089
   90SAPC  C318 8653   3.988   1.796   5.528  0.5998 -0.2502 -0.6311
   90SAPC  H18X 8654   3.989   1.775   5.419 -1.3907 -0.2409 -0.6942
   90SAPC  H18Y 8655   3.918   1.881   5.540  1.8023  0.6314  0.4682
   90SAPC  H18Z 8656   3.940   1.718   5.590  0.1320  0.8400  0.4212
   91SAPC     N 8657   1.705   1.744   7.307  0.9247  0.2027 -0.2485
   91SAPC   C12 8658   1.765   1.863   7.381 -0.1787 -0.3466 -0.0962
   91SAPC  H12A 8659   1.851   1.906   7.332 -1.2938  0.9623 -0.9827
   91SAPC  H12B 8660   1.800   1.830   7.478 -0.1414  0.7291  0.2746
   91SAPC   C13 8661   1.587   1.695   7.373 -0.0851 -0.2365 -0.8962
   91SAPC  H13A 8662   1.520   1.647   7.303  0.6847 -1.4741 -0.8229
   91SAPC  H13B 8663   1.606   1.620   7.449  2.0275  0.0797 -1.0624
   91SAPC  H13C 8664   1.533   1.779   7.414 -1.1320 -1.9713  1.5323
   91SAPC   C14 8665   1.666   1.786   7.175 -0.2757 -0.1294  0.7495
   91SAPC  H14A 8666   1.609   1.877   7.180  1.7438  1.2428  0.0808
   91SAPC  H14B 8667   1.753   1.810   7.116 -0.7351  1.2917  0.6202
   91SAPC  H14C 8668   1.606   1.706   7.134 -0.5702  0.2805  0.3777
   91SAPC   C15 8669   1.809   1.639   7.295  0.5776 -0.0919  0.1140
   91SAPC  H15A 8670   1.798   1.559   7.223  1.8211 -2.0643  1.9676
   91SAPC  H15B 8671   1.898   1.691   7.263  1.0388 -0.5419  0.6420
   91SAPC  H15C 8672   1.827   1.592   7.391  0.7063 -0.8132 -0.2526
   91SAPC   C11 8673   1.670   1.987   7.390 -0.1395  0.0157  0.3502
   91SAPC  H11A 8674   1.645   2.014   7.285 -1.5664  1.0996  0.9438
   91SAPC  H11B 8675   1.719   2.079   7.428  0.1749  0.0839 -0.2052
   91SAPC     P 8676   1.512   2.040   7.594  0.2659  0.2374 -0.0274
   91SAPC   O13 8677   1.406   1.958   7.661 -0.5832 -0.1421  0.4433
   91SAPC   O14 8678   1.635   2.077   7.675  0.7743  0.4071  0.4214
   91SAPC   O12 8679   1.553   1.959   7.464 -0.2122 -0.5054  0.1988
   91SAPC   O11 8680   1.441   2.174   7.540  0.7350  0.3383 -0.1191
   91SAPC    C1 8681   1.312   2.165   7.480  0.2010  0.1819  0.0349
   91SAPC    HA 8682   1.295   2.065   7.434  0.1842  0.8589 -1.4971
   91SAPC    HB 8683   1.231   2.180   7.555  0.0077 -0.3788 -0.0539
   91SAPC    C2 8684   1.310   2.267   7.366  0.5460 -0.3025 -0.0123
   91SAPC    HS 8685   1.309   2.362   7.424  0.2847 -1.1366  1.4197
   91SAPC   O21 8686   1.181   2.254   7.288  0.6133  0.6649 -0.2989
   91SAPC   C21 8687   1.130   2.370   7.258 -0.2389 -0.8458 -0.0812
   91SAPC   O22 8688   1.173   2.480   7.298 -0.1555 -0.3306 -0.6365
   91SAPC   C22 8689   1.011   2.346   7.170 -0.1479  0.3061  0.1655
   91SAPC   H2R 8690   0.958   2.255   7.205  0.0486  0.6978  1.5206
   91SAPC   H2S 8691   0.940   2.432   7.175  0.6079  1.0933 -1.6210
   91SAPC    C3 8692   1.424   2.262   7.268  0.1345 -0.0648 -0.5993
   91SAPC    HX 8693   1.404   2.176   7.200  0.7745 -1.5338  1.0034
   91SAPC    HY 8694   1.519   2.233   7.317  0.7520 -0.7897 -2.1366
   91SAPC   O31 8695   1.433   2.385   7.188  0.2955 -0.0682  0.0636
   91SAPC   C31 8696   1.541   2.379   7.109 -0.7826  0.2472 -0.3587
   91SAPC   O32 8697   1.630   2.294   7.116 -0.4004  0.5223 -0.0868
   91SAPC   C32 8698   1.544   2.496   7.023  0.6422  0.2171 -0.5491
   91SAPC   H2X 8699   1.480   2.577   7.065  0.0894 -0.7384  0.5151
   91SAPC   H2Y 8700   1.506   2.463   6.924  2.2129 -0.0504 -1.0882
   91SAPC   C23 8701   1.052   2.324   7.022  0.1415  0.2893  0.2429
   91SAPC   H3R 8702   1.134   2.250   7.011  0.1291  0.1644  0.9072
   91SAPC   H3S 8703   1.091   2.419   6.980 -0.9587  0.8596  0.4820
   91SAPC   C24 8704   0.926   2.296   6.928 -0.3344  0.0807 -0.2020
   91SAPC   H4R 8705   0.847   2.236   6.979  0.1149 -0.2745  0.0863
   91SAPC   H4S 8706   0.951   2.234   6.839 -0.2885  1.7937 -1.4254
   91SAPC   C25 8707   0.866   2.423   6.870 -0.2418  0.2301 -1.0828
   91SAPC   H5R 8708   0.793   2.463   6.942  1.1065  1.4978 -0.3493
   91SAPC   C26 8709   0.893   2.494   6.763 -0.2554  0.6731  0.3180
   91SAPC   H6R 8710   0.849   2.590   6.735  2.2768  1.1758 -2.4876
   91SAPC   C27 8711   1.003   2.455   6.673  0.5847  0.3601  0.0598
   91SAPC   H7R 8712   1.057   2.369   6.719  0.4383  0.0746 -0.3053
   91SAPC   H7S 8713   1.079   2.537   6.673  2.7594 -1.5350  1.0730
   91SAPC   C28 8714   0.943   2.418   6.536  0.6405  0.1602 -0.7607
   91SAPC   H8R 8715   0.848   2.363   6.546  0.0711  1.2876  0.2781
   91SAPC   C29 8716   0.987   2.443   6.413 -0.3632 -0.5768 -0.5730
   91SAPC   H9R 8717   0.922   2.400   6.336 -1.4687 -0.7400  0.4112
   91SAPC  C210 8718   1.121   2.495   6.380 -0.2285  0.0343 -0.6663
   91SAPC  H10R 8719   1.161   2.421   6.308  0.8087 -0.4402  0.3817
   91SAPC  H10S 8720   1.188   2.507   6.468 -1.1982  3.9428 -0.2546
   91SAPC  C211 8721   1.102   2.635   6.321 -0.7599  0.2943 -0.0670
   91SAPC  H11R 8722   1.067   2.699   6.403 -2.5790 -0.8536  0.1139
   91SAPC  C212 8723   1.130   2.693   6.203  0.2996  0.1884  1.0478
   91SAPC  H12R 8724   1.108   2.801   6.198 -0.6078 -0.0441 -0.3636
   91SAPC  C213 8725   1.206   2.634   6.086  0.1579 -0.0957  0.2842
   91SAPC  H13R 8726   1.290   2.571   6.122  0.4939 -0.1372 -0.5461
   91SAPC  H13S 8727   1.261   2.721   6.042  1.8808  0.9012  4.0164
   91SAPC  C214 8728   1.130   2.561   5.975 -0.3900  0.4801  0.3165
   91SAPC  H14R 8729   1.055   2.490   6.012  0.1306 -2.0246 -2.9511
   91SAPC  C215 8730   1.154   2.551   5.847  0.0464  0.9545 -0.2957
   91SAPC  H15R 8731   1.088   2.494   5.780 -0.1567 -1.1911  1.6196
   91SAPC  C216 8732   1.270   2.614   5.778  0.0571  0.3220  0.2545
   91SAPC  H16R 8733   1.358   2.621   5.845  0.4556 -1.6554 -0.0139
   91SAPC  H16S 8734   1.251   2.721   5.755 -0.1604  0.2192 -0.0468
   91SAPC  C217 8735   1.319   2.552   5.644  0.7955  0.6520 -0.1834
   91SAPC  H17R 8736   1.333   2.442   5.657 -2.6564 -0.0212 -1.2241
   91SAPC  H17S 8737   1.416   2.604   5.630  0.3324  2.7471  3.2602
   91SAPC  C218 8738   1.234   2.587   5.523 -0.2647  0.6424  0.0267
   91SAPC  H18R 8739   1.128   2.566   5.548 -0.2764  0.3759 -0.2429
   91SAPC  H18S 8740   1.249   2.519   5.436 -2.3632 -1.1321  0.9463
   91SAPC  C219 8741   1.240   2.738   5.478 -0.1316 -0.0234 -0.4680
   91SAPC  H19R 8742   1.345   2.774   5.484  0.2865 -1.4182  1.2964
   91SAPC  H19S 8743   1.189   2.802   5.553  2.5015  1.0349  0.5390
   91SAPC  C220 8744   1.170   2.752   5.348 -0.0531 -0.0931 -0.3801
   91SAPC  H20R 8745   1.237   2.729   5.262  0.8224 -1.7275  0.6941
   91SAPC  H20S 8746   1.125   2.854   5.346 -1.6855 -0.7260  1.4189
   91SAPC  H20T 8747   1.073   2.698   5.341 -1.0566  1.5175  0.2598
   91SAPC   C33 8748   1.686   2.547   6.992  0.7209 -0.4495  0.0450
   91SAPC   H3X 8749   1.741   2.548   7.089 -2.3714 -0.2342  1.9120
   91SAPC   H3Y 8750   1.684   2.653   6.957 -1.5548 -1.0467 -1.8522
   91SAPC   C34 8751   1.759   2.455   6.887  0.9148  0.4651 -0.5067
   91SAPC   H4X 8752   1.702   2.469   6.793  0.7737 -2.2698 -0.9026
   91SAPC   H4Y 8753   1.732   2.348   6.899 -0.9172  0.7376 -1.8078
   91SAPC   C35 8754   1.913   2.480   6.870  1.0874  0.0830  0.1301
   91SAPC   H5X 8755   1.971   2.429   6.951 -0.5846  0.5585  1.7054
   91SAPC   H5Y 8756   1.933   2.589   6.874  2.6696 -0.0066 -3.0512
   91SAPC   C36 8757   1.961   2.421   6.739 -0.0979  0.4990  0.7685
   91SAPC   H6X 8758   1.888   2.443   6.658  1.7493  1.6233 -0.6881
   91SAPC   H6Y 8759   1.980   2.312   6.750  0.0582  0.5451  0.9740
   91SAPC   C37 8760   2.096   2.485   6.693 -0.6580 -0.3190 -0.2031
   91SAPC   H7X 8761   2.169   2.486   6.777 -1.1515  0.2305  0.2332
   91SAPC   H7Y 8762   2.073   2.593   6.677 -1.7250 -0.1088  2.3091
   91SAPC   C38 8763   2.169   2.416   6.581 -0.2878 -0.3700 -0.0176
   91SAPC   H8X 8764   2.189   2.309   6.604  2.3113  0.1607  0.5104
   91SAPC   H8Y 8765   2.265   2.470   6.567 -1.1463  1.3951  0.5880
   91SAPC   C39 8766   2.085   2.409   6.457 -0.0705  0.6749  0.4948
   91SAPC   H9X 8767   2.041   2.506   6.427  0.2549  0.1072 -2.0885
   91SAPC   H9Y 8768   1.994   2.346   6.468  0.5171 -0.0576  1.3189
   91SAPC  C310 8769   2.169   2.354   6.335  0.2470 -0.9002 -0.2889
   91SAPC  H10X 8770   2.197   2.247   6.348  0.9708 -1.0594 -2.6144
   91SAPC  H10Y 8771   2.267   2.404   6.321  1.7283 -2.5591  2.9960
   91SAPC  C311 8772   2.087   2.359   6.204  0.4947  0.0337 -1.1438
   91SAPC  H11X 8773   1.990   2.311   6.226  0.3272 -0.2655 -2.4735
   91SAPC  H11Y 8774   2.132   2.295   6.124  0.0616 -2.1224  0.2536
   91SAPC  C312 8775   2.064   2.500   6.159 -0.0830  0.0393  0.5780
   91SAPC  H12X 8776   2.158   2.558   6.151  0.0894 -0.1610  1.0999
   91SAPC  H12Y 8777   1.995   2.549   6.231 -3.1289 -5.8191  2.3428
   91SAPC  C313 8778   2.004   2.499   6.018 -0.0601  0.5180 -0.4592
   91SAPC  H13X 8779   1.965   2.601   6.000  1.6503  1.0286 -1.5090
   91SAPC  H13Y 8780   1.920   2.426   6.016  1.5840 -1.4523 -0.3830
   91SAPC  C314 8781   2.114   2.466   5.908  0.4042 -0.1976 -0.2219
   91SAPC  H14X 8782   2.135   2.359   5.930 -1.2918 -0.6551 -0.6520
   91SAPC  H14Y 8783   2.202   2.533   5.918  0.9561 -0.9200 -0.1408
   91SAPC  C315 8784   2.046   2.474   5.770 -0.0992  0.0397 -0.5641
   91SAPC  H15X 8785   2.051   2.575   5.725 -2.1742  0.4825  0.0744
   91SAPC  H15Y 8786   1.936   2.454   5.768 -0.0653 -0.9085  2.1682
   91SAPC  C316 8787   2.110   2.394   5.656  0.5807  0.6170  0.0500
   91SAPC  H16X 8788   2.116   2.285   5.679 -0.6937  0.8352  1.5392
   91SAPC  H16Y 8789   2.210   2.436   5.635  1.1377 -0.7202 -0.0884
   91SAPC  C317 8790   2.037   2.401   5.527  0.2622 -0.0557 -0.0020
   91SAPC  H17X 8791   1.991   2.501   5.511  0.9532  0.1037 -1.0655
   91SAPC  H17Y 8792   1.945   2.338   5.530  0.5213 -0.4174  0.5331
   91SAPC  C318 8793   2.119   2.369   5.405 -0.4166  0.1834  0.8625
   91SAPC  H18X 8794   2.172   2.272   5.418  0.1474  0.4316  0.4335
   91SAPC  H18Y 8795   2.196   2.447   5.384  0.4225 -1.2537 -1.8604
   91SAPC  H18Z 8796   2.059   2.350   5.314 -0.4225 -3.5475  1.4644
   92SAPC     N 8797   1.624   0.546   8.095 -0.5425 -1.0511 -0.0014
   92SAPC   C12 8798   1.545   0.494   7.975 -0.4848  0.2012 -0.3442
   92SAPC  H12A 8799   1.530   0.577   7.908 -1.7999  1.1033  1.0049
   92SAPC  H12B 8800   1.453   0.459   8.019  0.2569  1.3310  2.2579
   92SAPC   C13 8801   1.763   0.592   8.051  0.6111  0.4341 -0.4281
   92SAPC  H13A 8802   1.815   0.506   8.010 -0.6864 -0.8373  0.4753
   92SAPC  H13B 8803   1.754   0.674   7.981 -3.1132  0.3485 -0.2224
   92SAPC  H13C 8804   1.811   0.640   8.135 -2.1327 -0.1975  1.6399
   92SAPC   C14 8805   1.546   0.647   8.169 -0.8224  0.0257 -0.0468
   92SAPC  H14A 8806   1.454   0.613   8.212  0.4284 -2.0440  1.1282
   92SAPC  H14B 8807   1.606   0.697   8.244  1.2338 -0.0696 -1.5283
   92SAPC  H14C 8808   1.519   0.730   8.105  1.3406  0.3968 -0.5598
   92SAPC   C15 8809   1.639   0.429   8.200 -0.8231 -0.3641  0.9514
   92SAPC  H15A 8810   1.543   0.408   8.245 -0.4533 -2.3052  0.9227
   92SAPC  H15B 8811   1.668   0.336   8.154  1.7168  0.8411 -0.1084
   92SAPC  H15C 8812   1.718   0.454   8.270  1.6376 -0.7495 -1.5142
   92SAPC   C11 8813   1.622   0.376   7.896  0.7428  0.0169 -0.6859
   92SAPC  H11A 8814   1.658   0.309   7.977  1.3298 -0.6332 -1.4689
   92SAPC  H11B 8815   1.710   0.427   7.849 -0.8088  3.2107 -0.4109
   92SAPC     P 8816   1.543   0.156   7.782 -0.2274  0.1745 -0.1824
   92SAPC   O13 8817   1.624   0.100   7.895  0.2110  0.2845  0.1815
   92SAPC   O14 8818   1.400   0.110   7.765 -0.1279 -0.3332  0.0641
   92SAPC   O12 8819   1.538   0.313   7.800 -0.0719  0.1801 -0.3371
   92SAPC   O11 8820   1.619   0.129   7.646  0.2857 -0.0977  0.2590
   92SAPC    C1 8821   1.739   0.198   7.609  0.3615 -0.8786 -0.3004
   92SAPC    HA 8822   1.808   0.209   7.695 -0.7142  0.0612  0.4736
   92SAPC    HB 8823   1.800   0.136   7.540 -0.1880 -1.9274  0.1216
   92SAPC    C2 8824   1.724   0.337   7.539 -0.4018 -0.0463 -0.2742
   92SAPC    HS 8825   1.651   0.394   7.601  2.1440  2.6380  0.4951
   92SAPC   O21 8826   1.668   0.307   7.410  0.1192 -0.0177  0.1936
   92SAPC   C21 8827   1.642   0.391   7.315  0.5085  0.1931 -0.3775
   92SAPC   O22 8828   1.633   0.511   7.334  0.1289 -0.2798 -0.3832
   92SAPC   C22 8829   1.604   0.308   7.190 -0.6073  0.1932  0.1314
   92SAPC   H2R 8830   1.697   0.250   7.174 -1.6985 -1.9393  1.0922
   92SAPC   H2S 8831   1.523   0.237   7.217 -0.2342 -0.8059 -1.2259
   92SAPC    C3 8832   1.861   0.410   7.531  0.3603 -0.1891 -0.2998
   92SAPC    HX 8833   1.885   0.444   7.634 -2.1062 -1.9280  0.9431
   92SAPC    HY 8834   1.859   0.502   7.469 -1.2518 -0.8879 -1.3293
   92SAPC   O31 8835   1.968   0.320   7.494 -0.0063  0.0512  0.2010
   92SAPC   C31 8836   1.974   0.292   7.358 -0.1675 -0.6497 -0.3216
   92SAPC   O32 8837   1.933   0.362   7.267 -0.5700 -0.2124  0.1764
   92SAPC   C32 8838   2.058   0.160   7.349 -0.0752 -0.5720 -1.3551
   92SAPC   H2X 8839   1.999   0.084   7.403  1.9060 -0.7857  0.6946
   92SAPC   H2Y 8840   2.151   0.183   7.407  0.7370 -0.9211 -2.4777
   92SAPC   C23 8841   1.577   0.398   7.066  0.9326  0.3716 -0.3826
   92SAPC   H3R 8842   1.574   0.342   6.970 -0.1946 -2.6990  1.3111
   92SAPC   H3S 8843   1.658   0.474   7.059  0.5955  0.8609  0.7905
   92SAPC   C24 8844   1.441   0.475   7.081 -0.1680 -0.4871 -0.0536
   92SAPC   H4R 8845   1.434   0.554   7.004 -0.3328 -2.0103 -1.6806
   92SAPC   H4S 8846   1.444   0.534   7.174  1.0261 -2.4402  1.2127
   92SAPC   C25 8847   1.310   0.395   7.085  0.1929  0.1541  0.6831
   92SAPC   H5R 8848   1.295   0.326   7.169  0.0110 -1.5786 -0.7177
   92SAPC   C26 8849   1.213   0.401   6.995 -0.1185  0.8696  0.2333
   92SAPC   H6R 8850   1.137   0.323   7.009  1.9680 -1.2862  0.0710
   92SAPC   C27 8851   1.199   0.489   6.873 -0.0990  0.2954  0.1033
   92SAPC   H7R 8852   1.281   0.564   6.873  0.6969 -0.4962 -1.5181
   92SAPC   H7S 8853   1.098   0.533   6.879  0.4787  1.4478  2.4667
   92SAPC   C28 8854   1.220   0.411   6.743  0.0422 -0.0410  0.7598
   92SAPC   H8R 8855   1.291   0.327   6.741 -1.5879 -1.4907 -1.6462
   92SAPC   C29 8856   1.157   0.452   6.629  0.2120 -0.3539  0.3164
   92SAPC   H9R 8857   1.166   0.393   6.537 -0.4398 -0.5599  0.3837
   92SAPC  C210 8858   1.059   0.565   6.609 -0.2906 -0.4766 -0.1084
   92SAPC  H10R 8859   1.115   0.647   6.560  1.2174 -2.5316 -2.0069
   92SAPC  H10S 8860   1.032   0.609   6.708  1.8434 -0.8756  0.6977
   92SAPC  C211 8861   0.925   0.528   6.540 -0.4065 -0.0326 -0.0005
   92SAPC  H11R 8862   0.835   0.535   6.603 -1.1273  1.6688 -1.1128
   92SAPC  C212 8863   0.923   0.482   6.410 -0.3619 -0.1860 -0.4765
   92SAPC  H12R 8864   0.822   0.451   6.378 -0.7075 -0.1185  0.5109
   92SAPC  C213 8865   1.035   0.471   6.314  0.3194  0.2264 -0.4584
   92SAPC  H13R 8866   0.986   0.419   6.229 -1.0613 -3.1087  2.1575
   92SAPC  H13S 8867   1.118   0.405   6.346 -2.4534 -3.1095  0.3501
   92SAPC  C214 8868   1.086   0.598   6.242 -0.3555 -0.0637  0.6231
   92SAPC  H14R 8869   1.015   0.682   6.250  1.4824  1.5602  0.8486
   92SAPC  C215 8870   1.188   0.604   6.151  0.1293  1.0609  0.1462
   92SAPC  H15R 8871   1.211   0.702   6.105  0.1594  1.6388  1.3577
   92SAPC  C216 8872   1.270   0.485   6.103  0.4033 -0.0799 -0.6384
   92SAPC  H16R 8873   1.276   0.414   6.188  0.2546 -1.5203 -1.8073
   92SAPC  H16S 8874   1.377   0.505   6.080 -0.2690  4.3870 -0.8383
   92SAPC  C217 8875   1.208   0.415   5.987  0.2419  0.9692 -0.3828
   92SAPC  H17R 8876   1.099   0.400   5.996  0.6769 -2.1995  1.1592
   92SAPC  H17S 8877   1.262   0.321   5.962  0.7402  1.5978 -1.8172
   92SAPC  C218 8878   1.227   0.485   5.850  0.1462 -0.1900 -0.1754
   92SAPC  H18R 8879   1.176   0.583   5.853 -0.8388 -0.7073  0.6554
   92SAPC  H18S 8880   1.166   0.427   5.777  1.1752 -0.7786 -0.5868
   92SAPC  C219 8881   1.373   0.515   5.803  0.0432 -0.1049  0.0140
   92SAPC  H19R 8882   1.411   0.414   5.830 -2.3065 -0.8550  0.8583
   92SAPC  H19S 8883   1.433   0.588   5.860  1.8718 -1.0720 -0.6038
   92SAPC  C220 8884   1.377   0.536   5.652 -0.1994  0.0094 -0.9056
   92SAPC  H20R 8885   1.482   0.537   5.616 -0.6618 -2.3156 -2.5169
   92SAPC  H20S 8886   1.328   0.630   5.617  0.6451  1.0593  0.5819
   92SAPC  H20T 8887   1.330   0.451   5.598  0.2639  0.9740 -2.9244
   92SAPC   C33 8888   2.110   0.116   7.208  0.3625 -0.0635 -0.7654
   92SAPC   H3X 8889   2.190   0.186   7.174  0.2499 -0.7273 -2.4707
   92SAPC   H3Y 8890   2.029   0.121   7.132 -0.8545 -0.0706  0.4989
   92SAPC   C34 8891   2.167  -0.027   7.210  0.1209 -0.2210 -0.0755
   92SAPC   H4X 8892   2.090  -0.095   7.252 -1.0563  0.6248 -0.8013
   92SAPC   H4Y 8893   2.258  -0.026   7.274  0.2420  0.5035 -0.2506
   92SAPC   C35 8894   2.211  -0.075   7.076  0.6435  0.3831  0.6725
   92SAPC   H5X 8895   2.129  -0.084   7.001 -1.1886  3.1205  2.1888
   92SAPC   H5Y 8896   2.232  -0.182   7.099  1.7135  0.4738  0.1765
   92SAPC   C36 8897   2.330  -0.010   7.023  0.2718 -0.8909 -0.3909
   92SAPC   H6X 8898   2.426  -0.066   7.019  0.1402 -1.1470 -0.0236
   92SAPC   H6Y 8899   2.360   0.076   7.086  2.1380 -1.3396 -0.6217
   92SAPC   C37 8900   2.318   0.041   6.879  0.5310  0.4718  0.0871
   92SAPC   H7X 8901   2.230   0.109   6.872  0.3630  0.5842  2.3924
   92SAPC   H7Y 8902   2.297  -0.047   6.813  1.5781  1.2941 -1.4073
   92SAPC   C38 8903   2.441   0.119   6.815  0.1681  0.1551 -0.2552
   92SAPC   H8X 8904   2.534   0.060   6.831  0.1936  0.2907  0.1133
   92SAPC   H8Y 8905   2.465   0.214   6.867 -3.6263 -0.1132  2.4101
   92SAPC   C39 8906   2.410   0.157   6.665 -0.0144 -0.0492 -0.6902
   92SAPC   H9X 8907   2.314   0.208   6.646  0.0457  0.7692  1.0628
   92SAPC   H9Y 8908   2.406   0.060   6.610 -0.0974 -1.5241  1.8001
   92SAPC  C310 8909   2.521   0.247   6.610 -0.4559 -0.1156  0.5344
   92SAPC  H10X 8910   2.621   0.219   6.648  0.7849  0.4151 -2.1144
   92SAPC  H10Y 8911   2.488   0.348   6.643 -2.0114 -0.5948  0.5589
   92SAPC  C311 8912   2.515   0.258   6.459  0.0653  0.0974  0.3598
   92SAPC  H11X 8913   2.566   0.344   6.412 -0.9107  0.2858 -0.3760
   92SAPC  H11Y 8914   2.409   0.245   6.427  0.5838 -3.9384 -0.3323
   92SAPC  C312 8915   2.576   0.128   6.395  0.0398 -0.1155 -0.2889
   92SAPC  H12X 8916   2.529   0.039   6.443  1.3555 -0.9949 -0.5566
   92SAPC  H12Y 8917   2.684   0.136   6.420 -0.0512 -1.0640  0.4600
   92SAPC  C313 8918   2.561   0.122   6.240 -0.5309  0.1976 -0.6029
   92SAPC  H13X 8919   2.455   0.096   6.219 -1.0862  0.0241  2.0169
   92SAPC  H13Y 8920   2.622   0.031   6.222  0.0546  0.5867 -0.6157
   92SAPC  C314 8921   2.614   0.238   6.158  0.7374 -0.3479 -0.0018
   92SAPC  H14X 8922   2.715   0.279   6.179  0.5383 -0.1017  0.5013
   92SAPC  H14Y 8923   2.538   0.319   6.165 -0.4531 -1.1007 -2.9457
   92SAPC  C315 8924   2.620   0.206   6.006  0.1025 -1.0526 -0.0199
   92SAPC  H15X 8925   2.516   0.207   5.966 -0.7259  0.0682  1.9943
   92SAPC  H15Y 8926   2.677   0.113   5.986  1.9688  0.1069 -0.3899
   92SAPC  C316 8927   2.702   0.318   5.929  0.1623 -0.1171  0.3060
   92SAPC  H16X 8928   2.809   0.316   5.957 -0.3511 -0.4808  2.4737
   92SAPC  H16Y 8929   2.661   0.415   5.966  1.5889  0.9959 -0.9460
   92SAPC  C317 8930   2.669   0.329   5.776 -0.5223  0.0340 -0.3975
   92SAPC  H17X 8931   2.559   0.338   5.769 -0.4283  1.8354  0.0068
   92SAPC  H17Y 8932   2.700   0.231   5.732  2.7523  0.8578 -0.2000
   92SAPC  C318 8933   2.747   0.446   5.708  0.0825 -0.1259  0.0956
   92SAPC  H18X 8934   2.724   0.537   5.767  2.2799 -0.6001  1.8563
   92SAPC  H18Y 8935   2.717   0.470   5.604  0.1829  2.0685  0.5341
   92SAPC  H18Z 8936   2.855   0.421   5.696 -0.0986  0.0233 -2.2877
   93SAPC     N 8937   3.007   3.681   7.509 -0.4377  0.7625 -0.3338
   93SAPC   C12 8938   2.876   3.630   7.451 -0.2602 -0.5163 -0.5281
   93SAPC  H12A 8939   2.905   3.565   7.370  2.2559 -0.2418  0.0801
   93SAPC  H12B 8940   2.835   3.720   7.406  2.5812  1.1488  0.0207
   93SAPC   C13 8941   2.970   3.766   7.632  0.6721  0.6054  0.1624
   93SAPC  H13A 8942   2.940   3.702   7.714  1.0780 -0.2606 -0.3505
   93SAPC  H13B 8943   3.054   3.826   7.664  0.3173  1.1411  0.0988
   93SAPC  H13C 8944   2.893   3.834   7.598 -1.4597 -1.3738  0.6999
   93SAPC   C14 8945   3.101   3.570   7.557 -1.0021  0.1472 -0.4229
   93SAPC  H14A 8946   3.170   3.604   7.632 -1.4766  0.4608 -0.1280
   93SAPC  H14B 8947   3.051   3.500   7.623  1.3725  0.8309  2.2874
   93SAPC  H14C 8948   3.148   3.521   7.473 -1.2619 -0.8749  0.0150
   93SAPC   C15 8949   3.072   3.764   7.406 -1.1399  0.0595  0.4165
   93SAPC  H15A 8950   3.159   3.806   7.454 -0.8257  0.8678 -0.8120
   93SAPC  H15B 8951   3.115   3.699   7.331  1.5234 -0.4691  2.2650
   93SAPC  H15C 8952   3.011   3.841   7.363 -0.8394  1.5066  2.4346
   93SAPC   C11 8953   2.765   3.565   7.546 -0.4009 -0.6801  0.7594
   93SAPC  H11A 8954   2.669   3.571   7.492 -0.2001  0.4886  0.5045
   93SAPC  H11B 8955   2.751   3.638   7.628 -1.3768 -0.5290  0.4661
   93SAPC     P 8956   2.817   3.313   7.495  0.1978  0.0108  0.3005
   93SAPC   O13 8957   2.880   3.367   7.374 -0.4384 -0.5176  0.2019
   93SAPC   O14 8958   2.865   3.188   7.561  0.7874  0.0793  0.9277
   93SAPC   O12 8959   2.808   3.434   7.597 -0.5290  0.5165  0.2292
   93SAPC   O11 8960   2.661   3.297   7.468  0.5751  0.4185  0.0639
   93SAPC    C1 8961   2.594   3.176   7.441  0.6156 -0.4368  1.0280
   93SAPC    HA 8962   2.655   3.089   7.473  1.8758  0.2252  0.4699
   93SAPC    HB 8963   2.495   3.166   7.490 -0.5100  0.3113 -0.9571
   93SAPC    C2 8964   2.552   3.150   7.286  0.2097  0.0430 -0.4337
   93SAPC    HS 8965   2.516   3.047   7.269  0.1111  0.4993 -3.6854
   93SAPC   O21 8966   2.667   3.170   7.209  0.3849  0.5977  0.9093
   93SAPC   C21 8967   2.759   3.071   7.205  0.1374  0.1139 -0.7877
   93SAPC   O22 8968   2.752   2.967   7.266 -0.2364 -0.2738 -0.3544
   93SAPC   C22 8969   2.878   3.119   7.123  1.1088 -0.1649 -0.1442
   93SAPC   H2R 8970   2.912   3.209   7.178  2.9411 -1.3468  0.7617
   93SAPC   H2S 8971   2.960   3.043   7.128  1.5593  0.3244  0.0245
   93SAPC    C3 8972   2.441   3.255   7.245  0.1779 -1.3469 -0.0047
   93SAPC    HX 8973   2.428   3.338   7.317  0.6045 -1.0229 -0.2949
   93SAPC    HY 8974   2.342   3.205   7.249 -0.6913  0.3786  1.0473
   93SAPC   O31 8975   2.465   3.319   7.120 -0.4261  0.5013  0.1292
   93SAPC   C31 8976   2.437   3.239   7.021  0.3741  0.3765  0.2050
   93SAPC   O32 8977   2.414   3.120   7.033 -0.8214 -0.0404 -0.0222
   93SAPC   C32 8978   2.438   3.309   6.885 -0.4229  0.1188 -0.2922
   93SAPC   H2X 8979   2.531   3.368   6.898  0.0683 -0.7992  0.4511
   93SAPC   H2Y 8980   2.349   3.376   6.884  1.2981  2.7348  2.4219
   93SAPC   C23 8981   2.844   3.164   6.981  0.7293 -0.4341 -0.5612
   93SAPC   H3R 8982   2.761   3.238   6.981  0.8894 -0.2388  0.8868
   93SAPC   H3S 8983   2.817   3.075   6.920 -1.2290 -1.1980  1.2928
   93SAPC   C24 8984   2.964   3.229   6.911  0.0876  0.7202 -0.1434
   93SAPC   H4R 8985   3.052   3.163   6.895 -0.3102  0.8028 -3.4338
   93SAPC   H4S 8986   2.996   3.310   6.980  1.9472 -0.0494 -0.0552
   93SAPC   C25 8987   2.930   3.289   6.779 -0.4471  0.0908 -0.0505
   93SAPC   H5R 8988   2.902   3.395   6.786  3.3787  1.1001  3.2733
   93SAPC   C26 8989   2.952   3.242   6.659  0.4158  1.2106 -0.0524
   93SAPC   H6R 8990   2.909   3.294   6.571 -2.8030 -3.1408 -1.3974
   93SAPC   C27 8991   3.006   3.106   6.614 -0.2091  0.3374  0.2280
   93SAPC   H7R 8992   3.096   3.068   6.668 -2.6814 -3.3362  2.1793
   93SAPC   H7S 8993   3.035   3.118   6.508 -1.2697  0.0443 -0.0960
   93SAPC   C28 8994   2.908   2.986   6.632 -0.2155  0.1226  0.1923
   93SAPC   H8R 8995   2.846   2.984   6.722 -0.1482  1.7910  0.3115
   93SAPC   C29 8996   2.905   2.871   6.559  0.5532  0.3787 -0.2366
   93SAPC   H9R 8997   2.838   2.789   6.588 -1.4384  2.0934  0.2111
   93SAPC  C210 8998   2.988   2.851   6.433 -0.2866  0.4501  0.4477
   93SAPC  H10R 8999   3.080   2.791   6.446 -0.8061 -0.8237 -1.3717
   93SAPC  H10S 9000   3.019   2.950   6.394  0.7459 -0.7550 -1.9727
   93SAPC  C211 9001   2.916   2.773   6.318  0.6994  0.4028 -0.6865
   93SAPC  H11R 9002   2.871   2.677   6.349  0.2831  0.6356 -0.5588
   93SAPC  C212 9003   2.887   2.802   6.191 -0.9798 -0.1499 -0.6109
   93SAPC  H12R 9004   2.848   2.721   6.128 -1.8126 -1.0061  0.9438
   93SAPC  C213 9005   2.923   2.925   6.109 -0.3031  0.1314 -0.0918
   93SAPC  H13R 9006   3.005   2.901   6.037  0.5607  1.3498  0.4535
   93SAPC  H13S 9007   2.965   3.000   6.179  3.6662 -0.6476 -1.3333
   93SAPC  C214 9008   2.804   2.985   6.033 -0.1707 -0.0052  0.4974
   93SAPC  H14R 9009   2.723   3.022   6.098 -0.6952 -0.4902  0.1308
   93SAPC  C215 9010   2.794   2.996   5.895  0.1020  0.2248  0.3453
   93SAPC  H15R 9011   2.697   3.028   5.855  0.6374  0.9104 -0.4436
   93SAPC  C216 9012   2.889   2.930   5.797 -0.2053  0.2338  0.1540
   93SAPC  H16R 9013   2.995   2.946   5.830 -0.1622 -0.9629  0.6307
   93SAPC  H16S 9014   2.898   2.982   5.699  1.3047  0.8516  0.5780
   93SAPC  C217 9015   2.854   2.786   5.762 -0.4529 -0.4720 -0.3003
   93SAPC  H17R 9016   2.860   2.721   5.852  1.0681 -0.4152 -0.3306
   93SAPC  H17S 9017   2.930   2.750   5.689 -0.2920 -0.0658 -0.3333
   93SAPC  C218 9018   2.714   2.760   5.698 -0.6228 -0.3761 -0.2230
   93SAPC  H18R 9019   2.705   2.816   5.602 -0.7703 -1.8562 -1.0938
   93SAPC  H18S 9020   2.640   2.792   5.775 -0.0471  1.3040 -0.3155
   93SAPC  C219 9021   2.669   2.615   5.673  0.1805 -0.0246 -0.4547
   93SAPC  H19R 9022   2.673   2.553   5.765 -1.3290  0.0359 -0.3343
   93SAPC  H19S 9023   2.743   2.564   5.607  2.0705  2.5496 -0.5252
   93SAPC  C220 9024   2.530   2.619   5.613  0.7118 -0.0747  0.8790
   93SAPC  H20R 9025   2.521   2.668   5.514  0.7850 -0.7880  0.5130
   93SAPC  H20S 9026   2.444   2.662   5.669 -1.3544  1.8756 -3.2819
   93SAPC  H20T 9027   2.499   2.512   5.602 -1.1634  0.5313 -0.1632
   93SAPC   C33 9028   2.468   3.209   6.768  0.0073 -0.4163 -0.1743
   93SAPC   H3X 9029   2.372   3.168   6.731  0.3069 -3.1495  1.7460
   93SAPC   H3Y 9030   2.531   3.122   6.800 -0.0652  0.0102  1.2024
   93SAPC   C34 9031   2.549   3.287   6.656  0.0098  0.0673 -0.7984
   93SAPC   H4X 9032   2.653   3.298   6.693 -0.1746  0.6166 -0.4221
   93SAPC   H4Y 9033   2.514   3.393   6.652 -1.8004 -0.5171 -1.3420
   93SAPC   C35 9034   2.551   3.235   6.510 -0.5966  0.0837  0.5802
   93SAPC   H5X 9035   2.453   3.190   6.484 -2.1301  2.9451  0.9156
   93SAPC   H5Y 9036   2.622   3.151   6.519  1.0760  1.3757 -0.0163
   93SAPC   C36 9037   2.598   3.333   6.400  0.2572  0.0063  0.6928
   93SAPC   H6X 9038   2.701   3.372   6.413 -0.4020  2.0582  0.2146
   93SAPC   H6Y 9039   2.524   3.416   6.403  0.2213 -0.0620  1.7964
   93SAPC   C37 9040   2.593   3.260   6.269  0.2661  0.6219 -0.5948
   93SAPC   H7X 9041   2.508   3.189   6.262  0.4879 -0.0572  2.3785
   93SAPC   H7Y 9042   2.680   3.192   6.256 -1.5869 -2.2080  0.8394
   93SAPC   C38 9043   2.588   3.356   6.153 -0.4214  0.5885 -0.6990
   93SAPC   H8X 9044   2.679   3.419   6.155 -0.7945  1.1597  1.6250
   93SAPC   H8Y 9045   2.493   3.413   6.166  0.0013  1.4407 -1.2939
   93SAPC   C39 9046   2.581   3.288   6.013  0.0713  0.1062  0.2289
   93SAPC   H9X 9047   2.547   3.184   6.030 -2.3568  1.0046  1.2534
   93SAPC   H9Y 9048   2.684   3.269   5.974 -0.2428  1.9525 -1.7018
   93SAPC  C310 9049   2.498   3.352   5.910 -0.3558  0.0539 -0.1625
   93SAPC  H10X 9050   2.391   3.361   5.936 -0.0889 -0.5070  1.2021
   93SAPC  H10Y 9051   2.503   3.305   5.809 -0.4157  1.2215 -0.7286
   93SAPC  C311 9052   2.559   3.488   5.886 -0.7116 -0.1672  0.0315
   93SAPC  H11X 9053   2.670   3.486   5.881 -0.7293 -2.5787 -1.5013
   93SAPC  H11Y 9054   2.539   3.558   5.970  3.5672  0.2141  0.9221
   93SAPC  C312 9055   2.512   3.555   5.756 -0.4734  0.0596  0.1473
   93SAPC  H12X 9056   2.410   3.595   5.774  0.4446  2.2119  0.8456
   93SAPC  H12Y 9057   2.503   3.475   5.679 -0.1873 -0.1547  0.3375
   93SAPC  C313 9058   2.595   3.672   5.700 -0.6987  0.2845 -0.1448
   93SAPC  H13X 9059   2.698   3.649   5.667 -0.2707  1.9006 -0.0034
   93SAPC  H13Y 9060   2.585   3.750   5.778  0.1877 -0.3564  0.6195
   93SAPC  C314 9061   2.542   3.723   5.564 -0.2559 -0.6254 -0.1518
   93SAPC  H14X 9062   2.556   3.833   5.579  2.2206 -1.1668  2.3424
   93SAPC  H14Y 9063   2.435   3.696   5.569 -0.1317 -0.9698  0.7300
   93SAPC  C315 9064   2.607   3.662   5.444 -0.5415  0.2949  0.4883
   93SAPC  H15X 9065   2.710   3.624   5.462 -1.0203 -0.6137  1.3984
   93SAPC  H15Y 9066   2.631   3.739   5.367  2.8215 -0.7386  0.3367
   93SAPC  C316 9067   2.524   3.559   5.383  0.8666  0.5228  0.5780
   93SAPC  H16X 9068   2.426   3.603   5.355 -0.2504 -2.1650 -0.0985
   93SAPC  H16Y 9069   2.511   3.468   5.445 -0.2591  2.2958  3.0905
   93SAPC  C317 9070   2.564   3.508   5.244  0.0110 -0.7422  0.2415
   93SAPC  H17X 9071   2.555   3.599   5.180  0.5131 -0.3608  0.7023
   93SAPC  H17Y 9072   2.487   3.442   5.199  1.2879 -2.8962  1.0508
   93SAPC  C318 9073   2.708   3.452   5.228 -0.2608  0.5031 -0.4590
   93SAPC  H18X 9074   2.793   3.499   5.281 -0.4429 -0.6242  0.8810
   93SAPC  H18Y 9075   2.733   3.451   5.120  2.2432 -1.5949  0.0374
   93SAPC  H18Z 9076   2.695   3.347   5.263  1.2074  0.5425  0.2658
   94SAPC     N 9077   3.110   0.346   7.634  0.2801  0.7143  0.1626
   94SAPC   C12 9078   2.986   0.302   7.558  0.3667  0.0681  0.4161
   94SAPC  H12A 9079   2.904   0.290   7.627  0.2782  0.5544  0.4004
   94SAPC  H12B 9080   3.008   0.204   7.518  1.7278  0.7423 -0.5568
   94SAPC   C13 9081   3.229   0.354   7.544 -0.0172 -0.0574 -0.1649
   94SAPC  H13A 9082   3.312   0.399   7.597  0.0812  0.0260 -0.3886
   94SAPC  H13B 9083   3.270   0.256   7.523  0.9169 -0.2949  2.3527
   94SAPC  H13C 9084   3.212   0.417   7.458  1.3492 -0.5097 -0.8062
   94SAPC   C14 9085   3.088   0.477   7.689  0.1623 -0.4409 -0.5106
   94SAPC  H14A 9086   3.166   0.506   7.758 -0.7567  0.6692  0.1102
   94SAPC  H14B 9087   3.092   0.560   7.620  1.7576 -1.2304 -1.4215
   94SAPC  H14C 9088   2.991   0.465   7.735 -0.6226 -1.2290 -2.2655
   94SAPC   C15 9089   3.126   0.251   7.750 -0.1214 -0.5627  0.2548
   94SAPC  H15A 9090   3.049   0.263   7.824  1.6102  0.1653  2.0544
   94SAPC  H15B 9091   3.132   0.148   7.720 -1.6621 -0.5276 -0.2635
   94SAPC  H15C 9092   3.215   0.279   7.805  1.2357  1.4823 -2.6904
   94SAPC   C11 9093   2.931   0.387   7.438 -0.2591 -0.3209 -0.1219
   94SAPC  H11A 9094   2.840   0.352   7.384 -0.6817  0.0275  0.3536
   94SAPC  H11B 9095   3.010   0.392   7.360 -0.0920 -0.3213  0.0455
   94SAPC     P 9096   2.745   0.548   7.517 -0.2940  0.0691  0.5958
   94SAPC   O13 9097   2.698   0.439   7.608  0.3037  0.7591 -0.3514
   94SAPC   O14 9098   2.732   0.687   7.567 -0.0147  0.2997  0.3708
   94SAPC   O12 9099   2.901   0.524   7.474 -0.4882 -0.6534 -0.1731
   94SAPC   O11 9100   2.673   0.532   7.379 -0.2621 -0.7023  0.6113
   94SAPC    C1 9101   2.629   0.646   7.303 -0.0829  0.6262  0.3060
   94SAPC    HA 9102   2.545   0.699   7.352 -2.0692 -1.0621 -1.1087
   94SAPC    HB 9103   2.712   0.719   7.290  0.0635  0.4480  0.2211
   94SAPC    C2 9104   2.574   0.600   7.155  0.4098  0.2528  0.1923
   94SAPC    HS 9105   2.554   0.696   7.102  2.0068  0.4286 -0.1445
   94SAPC   O21 9106   2.459   0.514   7.157 -0.2672 -0.4057  0.0238
   94SAPC   C21 9107   2.346   0.583   7.173  0.2862 -1.0025  0.6496
   94SAPC   O22 9108   2.342   0.704   7.194 -0.6419 -0.0360  0.3345
   94SAPC   C22 9109   2.228   0.493   7.153 -0.0770  0.0847 -0.2607
   94SAPC   H2R 9110   2.255   0.396   7.200 -0.8490  0.0841  0.1908
   94SAPC   H2S 9111   2.145   0.541   7.208  0.8686 -0.5181  1.7859
   94SAPC    C3 9112   2.688   0.525   7.089 -0.4154  0.1555  0.1606
   94SAPC    HX 9113   2.695   0.426   7.140 -0.6492  0.0147 -0.0797
   94SAPC    HY 9114   2.778   0.586   7.112 -0.1686  0.1787 -0.8264
   94SAPC   O31 9115   2.671   0.511   6.944  0.4838 -0.2908 -0.9189
   94SAPC   C31 9116   2.702   0.618   6.864 -0.8093 -0.4988  0.7543
   94SAPC   O32 9117   2.754   0.718   6.903  0.8924 -0.5618 -0.1815
   94SAPC   C32 9118   2.679   0.563   6.727  0.8660 -0.5348  0.2750
   94SAPC   H2X 9119   2.577   0.521   6.714 -0.1819  1.5041  1.4032
   94SAPC   H2Y 9120   2.758   0.493   6.693  1.0123  0.2668 -1.1122
   94SAPC   C23 9121   2.201   0.479   6.998 -0.0693  0.4974  0.4061
   94SAPC   H3R 9122   2.281   0.416   6.956 -1.0509 -0.7858  0.4132
   94SAPC   H3S 9123   2.211   0.575   6.942  0.1014 -1.2613 -2.7646
   94SAPC   C24 9124   2.067   0.413   6.953  0.5757  0.1646  0.2617
   94SAPC   H4R 9125   2.067   0.329   7.026 -0.4932 -0.5603 -0.5474
   94SAPC   H4S 9126   2.095   0.379   6.851  1.8128  1.1298  0.2638
   94SAPC   C25 9127   1.933   0.487   6.949 -0.3952 -0.6810 -0.4436
   94SAPC   H5R 9128   1.899   0.547   7.035 -1.3887 -0.1336 -1.1926
   94SAPC   C26 9129   1.840   0.481   6.850 -0.7934  0.9092 -0.6442
   94SAPC   H6R 9130   1.749   0.540   6.868 -0.1458  1.5944  0.5144
   94SAPC   C27 9131   1.838   0.399   6.725 -0.1543 -1.3761 -0.5054
   94SAPC   H7R 9132   1.875   0.297   6.754  0.5381 -1.0947 -0.3680
   94SAPC   H7S 9133   1.919   0.441   6.662 -0.7535  2.5290  1.0365
   94SAPC   C28 9134   1.707   0.387   6.649 -0.7510  0.0240 -0.2416
   94SAPC   H8R 9135   1.622   0.348   6.708 -1.3104 -1.0733 -1.7190
   94SAPC   C29 9136   1.678   0.443   6.531 -0.4574 -0.4810  0.0163
   94SAPC   H9R 9137   1.580   0.435   6.481 -1.1525  2.7808  0.6102
   94SAPC  C210 9138   1.771   0.528   6.447  0.0629 -0.0396  0.6937
   94SAPC  H10R 9139   1.857   0.575   6.501 -0.5584  0.5184  1.2161
   94SAPC  H10S 9140   1.722   0.616   6.401  0.7999 -0.1212 -0.2853
   94SAPC  C211 9141   1.826   0.429   6.344  0.4430  0.6262  0.4225
   94SAPC  H11R 9142   1.908   0.368   6.384  1.6396  1.3658 -0.8206
   94SAPC  C212 9143   1.808   0.428   6.209  0.7871  0.8997  0.1170
   94SAPC  H12R 9144   1.873   0.365   6.147 -0.5443 -0.4795  0.0585
   94SAPC  C213 9145   1.693   0.504   6.140  0.6156 -0.0957  0.1123
   94SAPC  H13R 9146   1.635   0.563   6.214  0.0350 -2.1484  1.3640
   94SAPC  H13S 9147   1.621   0.431   6.097  0.9943  0.1756 -1.0468
   94SAPC  C214 9148   1.720   0.609   6.038 -0.2670  0.8376 -0.2341
   94SAPC  H14R 9149   1.672   0.705   6.060 -2.5336 -0.5078  1.0765
   94SAPC  C215 9150   1.776   0.585   5.919 -0.1824  0.0567 -0.3486
   94SAPC  H15R 9151   1.782   0.669   5.849  1.3123  1.1632  1.0308
   94SAPC  C216 9152   1.834   0.455   5.867 -0.6560  0.1792  0.2472
   94SAPC  H16R 9153   1.793   0.370   5.926  1.4589 -0.6974  0.5108
   94SAPC  H16S 9154   1.944   0.444   5.873 -0.7148 -0.1437  0.7855
   94SAPC  C217 9155   1.794   0.437   5.721 -0.4759 -0.0793  0.3249
   94SAPC  H17R 9156   1.692   0.477   5.703 -0.3906 -0.4651 -1.1659
   94SAPC  H17S 9157   1.796   0.328   5.700  1.9389  0.0270 -0.1860
   94SAPC  C218 9158   1.892   0.502   5.623 -0.7661  0.6155 -0.5618
   94SAPC  H18R 9159   1.908   0.607   5.654 -2.6494  0.6687  0.4102
   94SAPC  H18S 9160   1.838   0.498   5.526  0.7623  0.0417 -1.4167
   94SAPC  C219 9161   2.025   0.420   5.610  0.0055 -0.1504  0.1028
   94SAPC  H19R 9162   1.990   0.332   5.553 -0.9790  1.7535 -2.4356
   94SAPC  H19S 9163   2.074   0.401   5.708  1.8727  1.0488 -0.5399
   94SAPC  C220 9164   2.123   0.496   5.514  0.1472 -0.0901  0.7632
   94SAPC  H20R 9165   2.221   0.468   5.558 -0.3394 -1.7240  0.8657
   94SAPC  H20S 9166   2.103   0.605   5.516 -0.6266 -0.1857 -0.6618
   94SAPC  H20T 9167   2.114   0.457   5.410 -2.1398  1.6729  0.2191
   94SAPC   C33 9168   2.682   0.670   6.618 -0.1538  0.0126 -0.7779
   94SAPC   H3X 9169   2.785   0.711   6.620 -0.4418  1.0075 -3.2689
   94SAPC   H3Y 9170   2.601   0.741   6.641 -1.2584 -1.6981  0.9273
   94SAPC   C34 9171   2.664   0.626   6.474  0.2261  0.3337 -0.2066
   94SAPC   H4X 9172   2.578   0.556   6.471  1.1900 -0.8710 -0.1072
   94SAPC   H4Y 9173   2.758   0.573   6.451  0.3265  0.3434  0.1849
   94SAPC   C35 9174   2.641   0.735   6.371 -0.0839 -0.4717  0.1109
   94SAPC   H5X 9175   2.732   0.797   6.356 -2.0608  2.5966  0.0316
   94SAPC   H5Y 9176   2.561   0.805   6.402  0.3779  0.0960  0.0340
   94SAPC   C36 9177   2.616   0.665   6.235 -0.6044 -0.2939  0.1777
   94SAPC   H6X 9178   2.554   0.577   6.263 -1.1084  0.1376  0.4457
   94SAPC   H6Y 9179   2.716   0.637   6.195  1.2156  1.0574  3.3532
   94SAPC   C37 9180   2.548   0.754   6.135 -0.6982 -0.8369  0.0848
   94SAPC   H7X 9181   2.470   0.809   6.193  0.4229 -1.8487  2.7305
   94SAPC   H7Y 9182   2.497   0.692   6.059 -0.8886 -1.0356  0.3724
   94SAPC   C38 9183   2.623   0.872   6.076  0.4297 -0.4197  0.7391
   94SAPC   H8X 9184   2.635   0.944   6.160 -0.3741  2.3970 -1.4146
   94SAPC   H8Y 9185   2.562   0.930   6.005  0.0233 -0.9135  0.6775
   94SAPC   C39 9186   2.763   0.830   6.011  0.2055 -0.2863  0.2382
   94SAPC   H9X 9187   2.749   0.728   5.970  1.5170 -1.2744  2.0907
   94SAPC   H9Y 9188   2.840   0.830   6.091  1.3053 -0.9083 -0.7912
   94SAPC  C310 9189   2.827   0.922   5.902  0.1252 -0.1788 -0.7280
   94SAPC  H10X 9190   2.931   0.887   5.886  0.5617  0.8963 -0.2854
   94SAPC  H10Y 9191   2.842   1.021   5.950 -2.4006  0.4754 -1.1254
   94SAPC  C311 9192   2.747   0.929   5.772  0.1818  0.0146 -0.1421
   94SAPC  H11X 9193   2.641   0.908   5.795 -0.2004  0.4303 -1.4523
   94SAPC  H11Y 9194   2.781   0.841   5.714  1.1057 -0.5140  1.1518
   94SAPC  C312 9195   2.773   1.064   5.695  0.3446  0.2515 -0.7194
   94SAPC  H12X 9196   2.880   1.092   5.707 -0.0153  0.7394  2.0085
   94SAPC  H12Y 9197   2.718   1.144   5.750 -0.2035 -0.0257 -0.8589
   94SAPC  C313 9198   2.741   1.052   5.544  0.5401 -0.4981 -0.4135
   94SAPC  H13X 9199   2.646   0.998   5.522  1.0408 -0.8308 -1.8622
   94SAPC  H13Y 9200   2.825   1.008   5.487  0.3291 -0.3921 -0.8081
   94SAPC  C314 9201   2.728   1.190   5.474  0.0209 -0.2915 -0.6117
   94SAPC  H14X 9202   2.642   1.238   5.527 -1.2616 -1.6669 -1.3842
   94SAPC  H14Y 9203   2.709   1.181   5.365 -0.6682  0.8403 -0.6058
   94SAPC  C315 9204   2.853   1.284   5.503 -0.2994 -0.4474  0.3892
   94SAPC  H15X 9205   2.860   1.302   5.612  1.5303  1.4442  0.0184
   94SAPC  H15Y 9206   2.823   1.378   5.452 -0.2789 -1.0371 -0.7334
   94SAPC  C316 9207   2.985   1.237   5.444 -0.0568 -0.3051  0.6925
   94SAPC  H16X 9208   3.035   1.149   5.489 -2.0344 -2.1518 -0.5418
   94SAPC  H16Y 9209   3.060   1.319   5.445  0.2635 -0.5865  0.1832
   94SAPC  C317 9210   2.983   1.200   5.300 -0.3145 -0.6119 -0.3106
   94SAPC  H17X 9211   2.943   1.281   5.236  1.8717 -0.0313 -1.0244
   94SAPC  H17Y 9212   2.915   1.112   5.293  0.3276 -1.2590  1.0712
   94SAPC  C318 9213   3.118   1.161   5.244 -0.1153 -0.4403 -0.0587
   94SAPC  H18X 9214   3.174   1.255   5.224 -1.5257  1.2519  3.2309
   94SAPC  H18Y 9215   3.110   1.093   5.156  1.2246  1.2022 -1.5471
   94SAPC  H18Z 9216   3.183   1.112   5.319  0.5753  0.9579  0.3000
   95SAPC     N 9217   4.197   2.981   3.006  0.3989  1.0054 -0.2444
   95SAPC   C12 9218   4.111   2.931   3.127 -0.8075  0.3763 -0.0484
   95SAPC  H12A 9219   4.021   2.884   3.092 -0.3524 -0.3488 -0.2866
   95SAPC  H12B 9220   4.075   3.016   3.183  0.5601  0.4366  0.8028
   95SAPC   C13 9221   4.314   3.061   3.050 -0.2433  0.2911  0.9654
   95SAPC  H13A 9222   4.377   3.018   3.127 -0.3394 -1.3611  0.1697
   95SAPC  H13B 9223   4.376   3.083   2.965 -1.8460 -1.0349 -0.6342
   95SAPC  H13C 9224   4.276   3.151   3.096  0.0312  0.1156  1.5497
   95SAPC   C14 9225   4.254   2.866   2.934 -0.6731 -0.2257  0.0990
   95SAPC  H14A 9226   4.172   2.811   2.890 -2.2518  1.8562  0.2815
   95SAPC  H14B 9227   4.329   2.898   2.863 -1.6175 -1.5947 -1.5848
   95SAPC  H14C 9228   4.307   2.807   3.008  1.0263 -0.1317 -0.9819
   95SAPC   C15 9229   4.113   3.058   2.917  0.2565 -0.9210  1.2520
   95SAPC  H15A 9230   4.018   3.009   2.903 -0.6839  1.2111 -0.3429
   95SAPC  H15B 9231   4.089   3.151   2.967  1.7343 -0.7626  1.7186
   95SAPC  H15C 9232   4.177   3.088   2.835  2.0839  0.8752  3.1993
   95SAPC   C11 9233   4.175   2.837   3.235 -0.9675 -0.0861  0.0078
   95SAPC  H11A 9234   4.126   2.841   3.335 -0.6253  1.3475  0.1361
   95SAPC  H11B 9235   4.279   2.870   3.257 -0.3697 -1.7382 -0.2107
   95SAPC     P 9236   4.060   2.607   3.153 -0.0291 -0.3950  0.3259
   95SAPC   O13 9237   3.961   2.677   3.067 -0.3406 -0.0054 -0.3951
   95SAPC   O14 9238   4.097   2.470   3.108  0.3811 -0.3852 -0.2292
   95SAPC   O12 9239   4.191   2.700   3.182 -0.4523  0.7000  0.2019
   95SAPC   O11 9240   4.003   2.597   3.298 -0.2499 -0.4267 -0.2434
   95SAPC    C1 9241   4.074   2.518   3.403  0.2905 -0.0266  0.1681
   95SAPC    HA 9242   4.170   2.480   3.361  0.1588  0.0929 -0.2500
   95SAPC    HB 9243   4.083   2.584   3.492 -1.4916 -0.0880  0.4323
   95SAPC    C2 9244   3.992   2.388   3.452 -0.3266 -0.6470 -0.1066
   95SAPC    HS 9245   3.982   2.340   3.353  0.9394  0.1264 -0.6360
   95SAPC   O21 9246   3.873   2.434   3.515 -0.6266 -0.7458 -0.2660
   95SAPC   C21 9247   3.781   2.341   3.535 -0.0715  0.1855 -1.0500
   95SAPC   O22 9248   3.784   2.228   3.503  0.3109 -0.4006  0.1520
   95SAPC   C22 9249   3.668   2.416   3.612 -0.0459 -0.4308  0.3564
   95SAPC   H2R 9250   3.686   2.526   3.615 -1.3673 -0.1121 -1.3451
   95SAPC   H2S 9251   3.576   2.403   3.550 -0.0041  1.7221 -0.2413
   95SAPC    C3 9252   4.077   2.310   3.550  0.1304 -0.2608  0.0351
   95SAPC    HX 9253   4.150   2.276   3.474 -0.1829  0.1014 -0.4364
   95SAPC    HY 9254   4.025   2.219   3.589  1.9025 -1.6605 -0.7378
   95SAPC   O31 9255   4.138   2.396   3.650  0.1883  0.4057 -0.2842
   95SAPC   C31 9256   4.240   2.339   3.711  0.2408  0.0543 -0.0458
   95SAPC   O32 9257   4.274   2.221   3.698  0.3634  0.2950  0.1370
   95SAPC   C32 9258   4.289   2.454   3.795 -0.3830 -0.2366 -0.0934
   95SAPC   H2X 9259   4.200   2.508   3.834 -1.1419 -0.9766 -0.7563
   95SAPC   H2Y 9260   4.342   2.529   3.731 -0.3737 -0.1623  0.0016
   95SAPC   C23 9261   3.624   2.357   3.748 -0.0517 -0.4648 -0.1761
   95SAPC   H3R 9262   3.615   2.247   3.736  1.1280 -0.7596  1.2993
   95SAPC   H3S 9263   3.523   2.390   3.782  0.1226  0.0591 -0.1516
   95SAPC   C24 9264   3.719   2.387   3.863 -1.0422  0.6211  0.0957
   95SAPC   H4R 9265   3.680   2.358   3.963  1.9161 -1.0177  0.8915
   95SAPC   H4S 9266   3.733   2.497   3.868 -0.2038  0.4861  1.1945
   95SAPC   C25 9267   3.864   2.342   3.850  0.3100 -0.7192  0.0094
   95SAPC   H5R 9268   3.926   2.405   3.784 -0.5866 -1.2162 -1.3458
   95SAPC   C26 9269   3.912   2.223   3.897 -0.1797  0.3802  0.2564
   95SAPC   H6R 9270   4.018   2.197   3.880  0.0450  1.5593 -0.2699
   95SAPC   C27 9271   3.842   2.126   3.991  0.2244  0.1462  0.5736
   95SAPC   H7R 9272   3.732   2.124   3.973 -0.0679 -2.0267  2.1505
   95SAPC   H7S 9273   3.857   2.166   4.094  0.5596 -0.0899  0.6156
   95SAPC   C28 9274   3.887   1.984   3.976  0.4193  0.6501  0.0037
   95SAPC   H8R 9275   3.892   1.951   3.871  0.8438  0.4868  0.0727
   95SAPC   C29 9276   3.920   1.897   4.080 -1.2784  0.2430  0.6357
   95SAPC   H9R 9277   3.953   1.795   4.054 -2.0299 -0.8200  3.4781
   95SAPC  C210 9278   3.931   1.922   4.227 -1.1775 -0.6194 -0.3025
   95SAPC  H10R 9279   3.992   2.014   4.244 -3.1201  1.1650 -2.3432
   95SAPC  H10S 9280   3.991   1.844   4.278 -0.2813 -0.1347 -0.5949
   95SAPC  C211 9281   3.799   1.940   4.291  0.3792  0.3108 -0.7548
   95SAPC  H11R 9282   3.730   2.003   4.234 -0.6119  0.0748  0.1602
   95SAPC  C212 9283   3.747   1.897   4.416  0.4720  0.3962  0.3523
   95SAPC  H12R 9284   3.650   1.936   4.450  1.4675  2.3070  1.1604
   95SAPC  C213 9285   3.817   1.814   4.520 -0.0336 -0.7348  0.2910
   95SAPC  H13R 9286   3.847   1.715   4.478 -1.4003 -0.0358 -2.5861
   95SAPC  H13S 9287   3.734   1.801   4.592 -2.2330 -1.1448 -2.1809
   95SAPC  C214 9288   3.940   1.880   4.580 -0.5983 -0.3796 -0.4890
   95SAPC  H14R 9289   3.965   1.976   4.533 -0.5299 -0.5968 -0.9019
   95SAPC  C215 9290   4.003   1.840   4.693 -0.5584  0.4594  0.0631
   95SAPC  H15R 9291   4.091   1.898   4.725 -0.5885  0.4698  0.1280
   95SAPC  C216 9292   3.954   1.729   4.779  0.4239  1.3112  0.3176
   95SAPC  H16R 9293   4.029   1.675   4.840  0.7709  0.1045 -1.1301
   95SAPC  H16S 9294   3.900   1.658   4.712  2.1777  0.3487 -0.1262
   95SAPC  C217 9295   3.837   1.771   4.870  0.1800 -0.2623 -0.1875
   95SAPC  H17R 9296   3.765   1.834   4.813  1.7338  2.7304  0.9203
   95SAPC  H17S 9297   3.869   1.834   4.956 -1.3687 -0.3721  0.4971
   95SAPC  C218 9298   3.773   1.655   4.943 -0.2934  0.5104 -0.2953
   95SAPC  H18R 9299   3.765   1.581   4.860  0.1363  1.4664 -1.2063
   95SAPC  H18S 9300   3.674   1.679   4.987 -0.0580  2.2506 -0.6607
   95SAPC  C219 9301   3.849   1.601   5.071  0.6694  0.6682  0.0430
   95SAPC  H19R 9302   3.857   1.694   5.131  1.9710  1.8901 -1.9196
   95SAPC  H19S 9303   3.949   1.555   5.057  0.0902 -0.7422  0.3097
   95SAPC  C220 9304   3.766   1.499   5.154 -0.1053 -0.9647 -0.6818
   95SAPC  H20R 9305   3.675   1.551   5.190  0.3810 -0.0960 -0.6707
   95SAPC  H20S 9306   3.822   1.463   5.242  0.7722 -0.9582 -1.2239
   95SAPC  H20T 9307   3.722   1.421   5.089 -0.9272  0.2807 -1.6875
   95SAPC   C33 9308   4.379   2.399   3.904 -0.1416  0.0218 -0.4543
   95SAPC   H3X 9309   4.428   2.489   3.947 -2.2244  1.2235 -0.4687
   95SAPC   H3Y 9310   4.453   2.322   3.871 -0.3085 -0.8863  1.1341
   95SAPC   C34 9311   4.286   2.350   4.016 -0.0602 -0.4521  0.6593
   95SAPC   H4X 9312   4.228   2.260   3.986 -0.7010  0.4697 -1.0015
   95SAPC   H4Y 9313   4.216   2.430   4.048 -0.5732 -0.6268 -0.0098
   95SAPC   C35 9314   4.375   2.314   4.132  0.3444 -0.5061 -0.5382
   95SAPC   H5X 9315   4.420   2.407   4.175 -1.1838 -0.2976  0.6779
   95SAPC   H5Y 9316   4.458   2.252   4.091  0.1027 -1.1928  0.0007
   95SAPC   C36 9317   4.313   2.240   4.245  0.0995  0.2417 -0.5931
   95SAPC   H6X 9318   4.277   2.142   4.206  0.4559  0.2837 -1.0315
   95SAPC   H6Y 9319   4.220   2.293   4.275  1.1444  1.2463  1.0457
   95SAPC   C37 9320   4.405   2.225   4.370  0.1113  0.3807  0.3779
   95SAPC   H7X 9321   4.439   2.327   4.398  1.2532  0.0846  0.1090
   95SAPC   H7Y 9322   4.494   2.167   4.339 -0.9538 -2.6220  2.4454
   95SAPC   C38 9323   4.348   2.148   4.485 -0.1140  0.1752  0.0080
   95SAPC   H8X 9324   4.290   2.063   4.443 -0.4552  0.7901 -0.7915
   95SAPC   H8Y 9325   4.290   2.219   4.547 -0.9431 -1.2065  0.8798
   95SAPC   C39 9326   4.454   2.098   4.585  0.4204 -0.2102  0.2832
   95SAPC   H9X 9327   4.524   2.183   4.599  0.8875 -0.0809 -2.2425
   95SAPC   H9Y 9328   4.518   2.015   4.548 -0.6831 -1.6425  1.4883
   95SAPC  C310 9329   4.402   2.057   4.724  0.3831  0.6105 -0.1811
   95SAPC  H10X 9330   4.312   1.993   4.711 -1.9020  3.4479  0.7446
   95SAPC  H10Y 9331   4.374   2.145   4.785  0.3763 -0.1165  0.9040
   95SAPC  C311 9332   4.514   1.983   4.802 -0.0586  0.4815 -0.0034
   95SAPC  H11X 9333   4.601   2.051   4.800 -0.4416  0.9592 -1.2263
   95SAPC  H11Y 9334   4.534   1.891   4.744  0.8648  2.0452 -2.2939
   95SAPC  C312 9335   4.474   1.956   4.948  0.1449 -0.7319 -0.3697
   95SAPC  H12X 9336   4.431   2.048   4.992  2.8941 -0.7180  2.6390
   95SAPC  H12Y 9337   4.568   1.930   5.001  0.8620  0.3267 -1.0604
   95SAPC  C313 9338   4.372   1.846   4.966  0.2331 -0.6248  0.7229
   95SAPC  H13X 9339   4.419   1.757   4.920  1.7411  0.4643  0.0592
   95SAPC  H13Y 9340   4.275   1.852   4.913  0.5856  1.3754  0.2178
   95SAPC  C314 9341   4.349   1.819   5.114 -0.4983  0.4349  0.0350
   95SAPC  H14X 9342   4.301   1.895   5.180 -2.3438 -1.4841  1.0454
   95SAPC  H14Y 9343   4.450   1.789   5.149 -0.4306 -2.1764 -2.0743
   95SAPC  C315 9344   4.273   1.690   5.129 -0.0048 -0.0127  0.0178
   95SAPC  H15X 9345   4.324   1.616   5.064  1.1179  0.6886  0.0684
   95SAPC  H15Y 9346   4.166   1.707   5.106 -0.5866  0.1760  2.5464
   95SAPC  C316 9347   4.265   1.638   5.272  0.4478 -0.1806 -0.6197
   95SAPC  H16X 9348   4.179   1.568   5.274  0.7553 -0.5351  0.3708
   95SAPC  H16Y 9349   4.247   1.725   5.339 -0.4709  0.4527 -1.6406
   95SAPC  C317 9350   4.398   1.566   5.310  0.0453 -0.0584 -0.1214
   95SAPC  H17X 9351   4.483   1.636   5.297  0.4355 -0.2565  1.1738
   95SAPC  H17Y 9352   4.404   1.479   5.242 -2.5572 -0.8940  0.5760
   95SAPC  C318 9353   4.390   1.523   5.457 -0.6665  0.2463 -0.6714
   95SAPC  H18X 9354   4.289   1.482   5.475  0.0700 -1.4919 -0.3398
   95SAPC  H18Y 9355   4.406   1.614   5.519  2.3774  0.9499 -2.2689
   95SAPC  H18Z 9356   4.473   1.458   5.492 -2.1566 -1.5015 -0.2784
   96SAPC     N 9357   3.305   2.947   2.940  0.1915  0.1445  1.0430
   96SAPC   C12 9358   3.445   2.975   3.004  0.2487 -0.1324  0.3101
   96SAPC  H12A 9359   3.523   2.974   2.929 -0.3873  1.5808 -0.4208
   96SAPC  H12B 9360   3.466   2.888   3.064  0.9577 -0.6807 -0.7026
   96SAPC   C13 9361   3.190   2.946   3.037 -0.3492 -0.4102  0.0101
   96SAPC  H13A 9362   3.095   2.933   2.988 -0.5963  2.1538 -0.3350
   96SAPC  H13B 9363   3.198   2.868   3.111 -1.3030  0.5606  1.1769
   96SAPC  H13C 9364   3.183   3.032   3.102 -2.0649 -3.0408  3.6542
   96SAPC   C14 9365   3.284   3.060   2.845 -0.3127  0.4240  0.8946
   96SAPC  H14A 9366   3.194   3.035   2.790 -0.5134  2.9484 -0.0703
   96SAPC  H14B 9367   3.270   3.153   2.897 -1.5267  0.0748  1.2285
   96SAPC  H14C 9368   3.372   3.071   2.783  0.2156 -3.0220  0.8635
   96SAPC   C15 9369   3.305   2.823   2.866  0.3354  0.1699  0.7484
   96SAPC  H15A 9370   3.341   2.737   2.921  1.4911 -0.8549 -1.4522
   96SAPC  H15B 9371   3.207   2.801   2.825 -0.3131 -0.3634  2.4957
   96SAPC  H15C 9372   3.376   2.829   2.785 -1.8823  0.8079 -1.2606
   96SAPC   C11 9373   3.460   3.102   3.091 -0.2414 -0.1515  0.2354
   96SAPC  H11A 9374   3.544   3.095   3.164 -0.9969 -0.0733  1.1310
   96SAPC  H11B 9375   3.366   3.109   3.149 -2.2964  0.3957 -2.9059
   96SAPC     P 9376   3.411   3.353   3.039  0.3477 -0.1966 -0.4687
   96SAPC   O13 9377   3.444   3.441   2.923 -0.3051  0.3357  0.4425
   96SAPC   O14 9378   3.266   3.338   3.073  0.1707  0.4380 -0.3175
   96SAPC   O12 9379   3.483   3.213   3.007 -0.1051  0.3021  0.4808
   96SAPC   O11 9380   3.486   3.412   3.162 -0.0894  0.1166 -1.0300
   96SAPC    C1 9381   3.629   3.405   3.171 -0.1583  0.0525  0.0536
   96SAPC    HA 9382   3.659   3.302   3.200  2.5827  0.6197 -0.4774
   96SAPC    HB 9383   3.683   3.421   3.076  0.1565 -0.1360  0.1991
   96SAPC    C2 9384   3.691   3.494   3.280  0.0656 -0.3507 -0.8018
   96SAPC    HS 9385   3.802   3.487   3.278  0.2778  2.2045 -1.1967
   96SAPC   O21 9386   3.651   3.462   3.419 -0.2681 -0.6228 -0.6067
   96SAPC   C21 9387   3.712   3.365   3.483  0.2578  0.5212 -0.1611
   96SAPC   O22 9388   3.787   3.284   3.434  0.5580 -0.0080 -0.0679
   96SAPC   C22 9389   3.664   3.357   3.628  0.2877  0.0793  0.8786
   96SAPC   H2R 9390   3.732   3.425   3.685 -0.9158  1.4570  0.7430
   96SAPC   H2S 9391   3.559   3.393   3.633  0.2849  0.2798 -0.3947
   96SAPC    C3 9392   3.670   3.649   3.257 -0.2903 -0.0808 -0.3861
   96SAPC    HX 9393   3.570   3.683   3.289 -1.1566 -1.0337 -1.9670
   96SAPC    HY 9394   3.682   3.654   3.146 -1.0330  0.9940 -0.4280
   96SAPC   O31 9395   3.777   3.728   3.316 -0.2838  0.2072  0.0986
   96SAPC   C31 9396   3.773   3.859   3.300 -0.1084  0.4644  0.1941
   96SAPC   O32 9397   3.692   3.919   3.232  0.0018 -0.2977  0.4326
   96SAPC   C32 9398   3.888   3.914   3.384  0.0006  0.0312  0.4937
   96SAPC   H2X 9399   3.989   3.873   3.360 -0.5796 -0.6645 -0.8188
   96SAPC   H2Y 9400   3.866   3.885   3.489  0.1609 -0.4556  0.3972
   96SAPC   C23 9401   3.675   3.221   3.686  0.2743  0.6287 -0.7761
   96SAPC   H3R 9402   3.778   3.192   3.713 -0.0701 -2.2038 -2.1359
   96SAPC   H3S 9403   3.631   3.146   3.618 -3.4475 -0.3511  2.3190
   96SAPC   C24 9404   3.590   3.211   3.817  0.2914  0.5833  0.3311
   96SAPC   H4R 9405   3.567   3.114   3.866 -0.7533  1.4895  1.6924
   96SAPC   H4S 9406   3.491   3.249   3.782  0.7775  1.7056  0.1472
   96SAPC   C25 9407   3.646   3.305   3.924 -0.6973  0.7795  0.0871
   96SAPC   H5R 9408   3.608   3.407   3.914  0.3950  1.4589  2.1983
   96SAPC   C26 9409   3.743   3.281   4.016 -0.7610  0.2431 -0.5296
   96SAPC   H6R 9410   3.770   3.358   4.090 -1.1236 -0.4939  0.3984
   96SAPC   C27 9411   3.809   3.149   4.046  0.1315  1.2170  0.4743
   96SAPC   H7R 9412   3.917   3.154   4.071  0.2020  0.5256  0.3161
   96SAPC   H7S 9413   3.798   3.089   3.954 -0.2158  3.2824 -0.8980
   96SAPC   C28 9414   3.728   3.077   4.159 -0.6215 -0.5667 -0.6665
   96SAPC   H8R 9415   3.628   3.043   4.128 -1.2612  0.7128 -0.0765
   96SAPC   C29 9416   3.769   3.040   4.283 -0.2051  1.0470 -0.5977
   96SAPC   H9R 9417   3.691   2.988   4.340  0.6774 -0.1713 -0.4621
   96SAPC  C210 9418   3.900   3.070   4.346 -0.4336 -0.0361 -0.4181
   96SAPC  H10R 9419   3.968   3.115   4.271  0.0569 -0.3960 -0.1958
   96SAPC  H10S 9420   3.960   2.980   4.371  1.1342  1.1759  0.3908
   96SAPC  C211 9421   3.873   3.157   4.464 -0.6737  0.6933 -1.0264
   96SAPC  H11R 9422   3.800   3.239   4.459 -0.1942  1.4210  1.9660
   96SAPC  C212 9423   3.922   3.131   4.588  0.0707  0.4855  0.1820
   96SAPC  H12R 9424   3.898   3.202   4.669  0.3883  1.1502 -0.2913
   96SAPC  C213 9425   4.026   3.030   4.627  0.1226  0.6982  0.6287
   96SAPC  H13R 9426   4.079   3.063   4.719  1.0504 -0.6432  0.6133
   96SAPC  H13S 9427   4.108   3.017   4.553 -1.2515 -0.3377 -0.7649
   96SAPC  C214 9428   3.953   2.895   4.648 -0.3495 -0.3147  0.5171
   96SAPC  H14R 9429   3.871   2.877   4.576 -1.9164  2.5667  1.4193
   96SAPC  C215 9430   3.992   2.791   4.728 -0.3168  0.0576 -0.5980
   96SAPC  H15R 9431   3.924   2.704   4.732  0.5599 -0.6080  1.8124
   96SAPC  C216 9432   4.112   2.787   4.816  0.2342  0.5260 -1.0643
   96SAPC  H16R 9433   4.172   2.879   4.831 -1.0635  0.9515  2.6325
   96SAPC  H16S 9434   4.186   2.712   4.781  1.1638  1.2149 -0.6311
   96SAPC  C217 9435   4.086   2.746   4.968  0.1921 -0.3369  0.3375
   96SAPC  H17R 9436   4.008   2.810   5.016 -1.2014  0.2203 -2.4363
   96SAPC  H17S 9437   4.185   2.757   5.017  0.7638 -0.4387 -0.7740
   96SAPC  C218 9438   4.033   2.599   4.982 -0.3666  0.2020  0.3883
   96SAPC  H18R 9439   4.108   2.530   4.936  0.6155  0.4097  1.6297
   96SAPC  H18S 9440   3.936   2.589   4.928 -0.5056 -0.1606  0.7001
   96SAPC  C219 9441   4.017   2.555   5.124  0.3645  0.7660 -0.0762
   96SAPC  H19R 9442   4.118   2.541   5.168 -0.0548  0.7769  0.9349
   96SAPC  H19S 9443   3.962   2.458   5.124 -0.9218  1.4634 -1.1390
   96SAPC  C220 9444   3.950   2.657   5.208 -0.2219 -0.5853  0.0106
   96SAPC  H20R 9445   4.029   2.735   5.224 -1.0582  0.6504 -1.6155
   96SAPC  H20S 9446   3.923   2.620   5.310 -1.1637  0.1622  0.0458
   96SAPC  H20T 9447   3.860   2.704   5.164 -0.0009  1.7631  1.8123
   96SAPC   C33 9448   3.901   4.070   3.380  0.6134 -0.6337  0.2182
   96SAPC   H3X 9449   3.799   4.112   3.389  0.6113 -0.1688 -1.5532
   96SAPC   H3Y 9450   3.944   4.095   3.280  1.3496 -0.6986  0.5089
   96SAPC   C34 9451   3.984   4.125   3.497 -0.8622 -0.1666  0.1275
   96SAPC   H4X 9452   4.083   4.076   3.490 -0.3989  0.9100 -1.0994
   96SAPC   H4Y 9453   3.951   4.092   3.598  2.3102 -1.7521  0.7818
   96SAPC   C35 9454   4.005   4.282   3.493  0.4751 -0.4126 -0.4549
   96SAPC   H5X 9455   3.918   4.352   3.493  0.4580 -0.4268  0.2142
   96SAPC   H5Y 9456   4.054   4.305   3.396 -1.0312  1.3888 -0.8590
   96SAPC   C36 9457   4.096   4.333   3.608 -0.1319  0.0373  0.7479
   96SAPC   H6X 9458   4.196   4.286   3.594 -0.8871 -1.3848 -0.1449
   96SAPC   H6Y 9459   4.063   4.287   3.704 -0.1959 -0.6034  0.4255
   96SAPC   C37 9460   4.110   4.490   3.619  0.0476  0.1101  0.4123
   96SAPC   H7X 9461   4.025   4.538   3.567  1.4025  2.0873 -0.0943
   96SAPC   H7Y 9462   4.199   4.528   3.564 -1.5400  0.7440 -1.8646
   96SAPC   C38 9463   4.115   4.537   3.768  0.1822  0.0054 -0.2425
   96SAPC   H8X 9464   4.031   4.497   3.829  1.6211 -2.3767  0.3124
   96SAPC   H8Y 9465   4.109   4.647   3.761 -2.7586  0.0858  1.7695
   96SAPC   C39 9466   4.248   4.514   3.848  0.0362  0.4172  0.3275
   96SAPC   H9X 9467   4.335   4.555   3.793 -0.9963 -1.1593 -2.6937
   96SAPC   H9Y 9468   4.267   4.409   3.879  0.4080  0.8071  1.4795
   96SAPC  C310 9469   4.247   4.585   3.987  0.0990  0.2988  0.4431
   96SAPC  H10X 9470   4.348   4.558   4.025  0.6415 -0.3632 -1.3626
   96SAPC  H10Y 9471   4.165   4.551   4.053 -0.2797  1.1019  0.3948
   96SAPC  C311 9472   4.238   4.739   3.968  0.0841 -0.0001 -0.3918
   96SAPC  H11X 9473   4.135   4.771   3.941  0.5751  0.6976 -1.5341
   96SAPC  H11Y 9474   4.300   4.762   3.879  0.1471 -0.6771 -0.5301
   96SAPC  C312 9475   4.286   4.811   4.096 -0.6086 -0.1226  1.0196
   96SAPC  H12X 9476   4.294   4.919   4.070 -1.1610 -0.1149  0.8703
   96SAPC  H12Y 9477   4.392   4.787   4.121 -0.5145  0.9044  1.6645
   96SAPC  C313 9478   4.211   4.796   4.224 -0.3529  0.2856  0.3096
   96SAPC  H13X 9479   4.198   4.686   4.218 -2.0442  0.5110 -0.7769
   96SAPC  H13Y 9480   4.109   4.841   4.228  0.1111  1.6523 -1.9156
   96SAPC  C314 9481   4.286   4.838   4.352  0.5712  0.2962  0.4652
   96SAPC  H14X 9482   4.291   4.948   4.341  3.4453  0.3461  1.5885
   96SAPC  H14Y 9483   4.383   4.785   4.344  0.1560 -0.3078 -0.9891
   96SAPC  C315 9484   4.212   4.780   4.470  0.4908 -0.0714  0.6563
   96SAPC  H15X 9485   4.204   4.671   4.454  1.2072 -0.0125 -0.1748
   96SAPC  H15Y 9486   4.113   4.829   4.480 -0.0219 -1.1131  0.8100
   96SAPC  C316 9487   4.293   4.808   4.599  0.0456  0.1509  0.4057
   96SAPC  H16X 9488   4.303   4.919   4.596  1.0164  0.0434 -1.0875
   96SAPC  H16Y 9489   4.398   4.775   4.592 -0.3173 -0.6405 -2.7040
   96SAPC  C317 9490   4.212   4.778   4.723  0.0944 -0.0956  0.1747
   96SAPC  H17X 9491   4.149   4.687   4.729  0.6081 -0.5394 -0.9531
   96SAPC  H17Y 9492   4.137   4.858   4.704 -0.0012  0.0246  1.0373
   96SAPC  C318 9493   4.300   4.804   4.848  0.0224 -1.0032 -0.1688
   96SAPC  H18X 9494   4.232   4.798   4.936  0.3128  0.8660  0.2074
   96SAPC  H18Y 9495   4.371   4.889   4.839 -0.2899 -0.6508  0.5793
   96SAPC  H18Z 9496   4.371   4.719   4.859  0.8861 -0.0134  3.0515
   97SAPC     N 9497   2.884   4.090   2.717  0.8722  0.0942 -0.3077
   97SAPC   C12 9498   2.858   3.965   2.799 -0.1744 -0.5318  0.2345
   97SAPC  H12A 9499   2.952   3.931   2.840 -0.8349 -0.2066  2.1219
   97SAPC  H12B 9500   2.821   3.887   2.734  0.3120 -1.2481  0.7969
   97SAPC   C13 9501   2.757   4.145   2.662  0.0307 -0.1854 -0.5191
   97SAPC  H13A 9502   2.676   4.139   2.733 -0.2172  0.1754 -0.7656
   97SAPC  H13B 9503   2.773   4.248   2.638 -2.6673  0.6541  0.8712
   97SAPC  H13C 9504   2.730   4.084   2.576 -1.1232  2.3731 -2.0750
   97SAPC   C14 9505   2.945   4.186   2.811  0.2429 -0.0070 -0.4858
   97SAPC  H14A 9506   2.884   4.208   2.897  0.5733  0.5291 -0.3868
   97SAPC  H14B 9507   3.042   4.157   2.847  0.6337 -0.4465 -1.8193
   97SAPC  H14C 9508   2.960   4.283   2.765  1.4227 -1.5538 -3.7129
   97SAPC   C15 9509   2.983   4.067   2.608  0.0816  0.3715  0.0067
   97SAPC  H15A 9510   2.937   4.006   2.532  0.0878  1.5598 -0.9811
   97SAPC  H15B 9511   3.008   4.157   2.553  1.3892 -0.6028 -1.0868
   97SAPC  H15C 9512   3.079   4.024   2.633  1.1624  2.4184 -0.2983
   97SAPC   C11 9513   2.761   3.980   2.921  0.5667 -0.6674 -0.0067
   97SAPC  H11A 9514   2.787   4.067   2.985  0.8450 -0.5847 -0.2322
   97SAPC  H11B 9515   2.773   3.891   2.987  0.3314 -0.4120  0.3893
   97SAPC     P 9516   2.529   3.880   2.832  0.4519 -0.0039  0.1830
   97SAPC   O13 9517   2.445   3.931   2.724 -0.1205 -0.1540 -0.2174
   97SAPC   O14 9518   2.615   3.764   2.799  0.1887 -0.3591 -0.0535
   97SAPC   O12 9519   2.622   3.996   2.887 -0.2323 -0.1339 -0.1296
   97SAPC   O11 9520   2.438   3.845   2.960 -0.3026  0.0781  0.3766
   97SAPC    C1 9521   2.467   3.729   3.041 -0.7722  0.3079 -0.7959
   97SAPC    HA 9522   2.372   3.676   3.063  0.5021 -2.2498 -1.1057
   97SAPC    HB 9523   2.539   3.654   3.001 -0.7689 -0.0033 -0.2067
   97SAPC    C2 9524   2.531   3.780   3.175  0.1595 -0.6754  0.2472
   97SAPC    HS 9525   2.640   3.784   3.156  0.0032 -1.7852 -1.0633
   97SAPC   O21 9526   2.492   3.693   3.292 -0.4298  0.4597 -0.1677
   97SAPC   C21 9527   2.554   3.573   3.272  0.1084 -0.3714 -0.0075
   97SAPC   O22 9528   2.632   3.540   3.185 -0.1399 -0.5888  0.0065
   97SAPC   C22 9529   2.519   3.497   3.398  0.2436  0.5934 -0.1211
   97SAPC   H2R 9530   2.419   3.450   3.384  0.3002  0.0858  1.0530
   97SAPC   H2S 9531   2.598   3.419   3.394  0.8993  1.2930 -1.6983
   97SAPC    C3 9532   2.497   3.928   3.204 -0.1029 -0.7790  0.0107
   97SAPC    HX 9533   2.386   3.930   3.198 -0.1449 -1.4320  0.3872
   97SAPC    HY 9534   2.534   3.995   3.124 -1.0370 -2.8241 -2.2577
   97SAPC   O31 9535   2.558   3.970   3.325  0.5112  0.4938  0.0702
   97SAPC   C31 9536   2.480   3.964   3.431 -0.3092  0.3109  0.0819
   97SAPC   O32 9537   2.364   3.929   3.425 -0.0355  0.1561 -0.4253
   97SAPC   C32 9538   2.544   4.017   3.558  0.5523 -0.1455 -0.3992
   97SAPC   H2X 9539   2.506   4.121   3.565 -1.3673 -0.8304  0.0767
   97SAPC   H2Y 9540   2.651   4.028   3.534  0.1264  0.3754 -2.2128
   97SAPC   C23 9541   2.529   3.571   3.535 -0.3467  0.4715  0.0820
   97SAPC   H3R 9542   2.473   3.667   3.540  2.8869  2.4174  2.9004
   97SAPC   H3S 9543   2.634   3.607   3.546  0.0888 -0.6938 -0.1288
   97SAPC   C24 9544   2.503   3.487   3.665  0.5324  0.5890 -0.0056
   97SAPC   H4R 9545   2.419   3.419   3.639  0.1631  0.3039  1.7677
   97SAPC   H4S 9546   2.468   3.539   3.756 -0.7783 -1.1794  0.5645
   97SAPC   C25 9547   2.613   3.381   3.699  0.3769 -0.4736  0.4960
   97SAPC   H5R 9548   2.655   3.329   3.611 -0.1370  1.2343 -0.8326
   97SAPC   C26 9549   2.636   3.342   3.823  0.2075  0.2264 -0.3980
   97SAPC   H6R 9550   2.709   3.262   3.843 -0.7579 -0.1341  1.9971
   97SAPC   C27 9551   2.575   3.385   3.958 -0.0690  0.3225  0.6681
   97SAPC   H7R 9552   2.471   3.421   3.941 -0.0359 -0.4102 -1.3700
   97SAPC   H7S 9553   2.619   3.478   3.999 -0.9011  0.4580  1.2739
   97SAPC   C28 9554   2.584   3.275   4.058  0.2504  0.6050 -0.1392
   97SAPC   H8R 9555   2.500   3.204   4.051  0.6054  0.0804  0.7505
   97SAPC   C29 9556   2.692   3.240   4.136  0.5305  0.9200  0.0444
   97SAPC   H9R 9557   2.685   3.144   4.190  0.8386  1.5972  1.3356
   97SAPC  C210 9558   2.814   3.323   4.136  0.4224  1.2999  0.6071
   97SAPC  H10R 9559   2.783   3.430   4.130 -1.2223  0.8652  0.7943
   97SAPC  H10S 9560   2.864   3.303   4.039  0.1719 -1.7745  1.0311
   97SAPC  C211 9561   2.912   3.285   4.245 -0.4303  0.3843  0.0759
   97SAPC  H11R 9562   2.915   3.180   4.279 -0.7760  1.4588  3.8731
   97SAPC  C212 9563   2.969   3.370   4.335 -0.5300 -0.4721 -0.0497
   97SAPC  H12R 9564   3.034   3.321   4.410 -0.3050  1.1562  0.8611
   97SAPC  C213 9565   2.977   3.519   4.328  0.3313 -0.6782  0.7048
   97SAPC  H13R 9566   2.921   3.565   4.413 -2.9459 -1.6182 -0.7964
   97SAPC  H13S 9567   2.920   3.559   4.241  0.7964  2.6421  1.7826
   97SAPC  C214 9568   3.120   3.563   4.315  0.4486  0.0604 -0.4272
   97SAPC  H14R 9569   3.181   3.513   4.239 -0.1112  1.8793 -2.1364
   97SAPC  C215 9570   3.182   3.653   4.391 -0.4599  0.2400 -0.4565
   97SAPC  H15R 9571   3.286   3.677   4.364 -0.9265  3.6132  0.3001
   97SAPC  C216 9572   3.133   3.741   4.504 -0.0676 -0.4658  0.2297
   97SAPC  H16R 9573   3.022   3.739   4.509 -0.1304 -1.0458 -1.0526
   97SAPC  H16S 9574   3.162   3.844   4.475 -0.0399 -0.6413 -0.3739
   97SAPC  C217 9575   3.202   3.698   4.633 -0.9802  0.3821 -0.8916
   97SAPC  H17R 9576   3.168   3.771   4.709 -1.9172  1.6842 -2.5033
   97SAPC  H17S 9577   3.313   3.697   4.634 -0.9452 -0.5168  1.2644
   97SAPC  C218 9578   3.146   3.556   4.674  0.5814 -0.1621 -0.2371
   97SAPC  H18R 9579   3.201   3.476   4.620  2.0073  0.5955  0.0316
   97SAPC  H18S 9580   3.041   3.542   4.643  0.5511 -0.3949 -0.0282
   97SAPC  C219 9581   3.138   3.536   4.828 -0.6739  0.1771  0.1094
   97SAPC  H19R 9582   3.073   3.446   4.832 -1.8534  1.0257  1.3200
   97SAPC  H19S 9583   3.094   3.629   4.871  1.4857  0.5238  1.7189
   97SAPC  C220 9584   3.263   3.529   4.906  0.0417 -0.0954  0.3083
   97SAPC  H20R 9585   3.326   3.611   4.866  1.0378 -1.2363 -0.5573
   97SAPC  H20S 9586   3.323   3.435   4.903  0.2424  0.0229  0.5152
   97SAPC  H20T 9587   3.238   3.552   5.012  0.2377  0.3691  0.2555
   97SAPC   C33 9588   2.515   3.936   3.682 -0.9738  0.4161 -0.3099
   97SAPC   H3X 9589   2.566   3.837   3.683  1.3899  1.5393 -1.1822
   97SAPC   H3Y 9590   2.404   3.937   3.684 -1.0109 -1.4416  1.1644
   97SAPC   C34 9591   2.577   4.002   3.809  0.1368 -0.8339 -0.0457
   97SAPC   H4X 9592   2.534   4.102   3.832 -2.3396 -2.3838  2.7105
   97SAPC   H4Y 9593   2.687   4.016   3.801  0.0850 -0.0688  0.5229
   97SAPC   C35 9594   2.529   3.925   3.928 -0.1257 -0.3610  0.4119
   97SAPC   H5X 9595   2.544   3.816   3.918  1.6968 -0.3750  2.6106
   97SAPC   H5Y 9596   2.418   3.921   3.917  0.0439  1.1085 -3.5780
   97SAPC   C36 9597   2.565   3.983   4.067  0.6470  0.7538 -0.0608
   97SAPC   H6X 9598   2.523   3.897   4.125  1.2925 -0.8523 -1.8629
   97SAPC   H6Y 9599   2.508   4.076   4.087 -1.9899 -0.9196  0.8748
   97SAPC   C37 9600   2.718   3.995   4.087 -0.7442  0.9408 -0.1595
   97SAPC   H7X 9601   2.763   4.067   4.015 -0.4671  2.6683  1.6620
   97SAPC   H7Y 9602   2.777   3.903   4.067  0.6995  1.5285  1.1634
   97SAPC   C38 9603   2.754   4.036   4.231 -0.4598  0.2978  0.2794
   97SAPC   H8X 9604   2.700   4.126   4.268 -0.6316 -1.0084  3.6184
   97SAPC   H8Y 9605   2.863   4.054   4.240 -0.5345  0.0417  2.2563
   97SAPC   C39 9606   2.709   3.921   4.332  0.0171 -0.2325  0.1624
   97SAPC   H9X 9607   2.728   3.821   4.288  0.9264  1.2134 -3.0544
   97SAPC   H9Y 9608   2.599   3.932   4.341  0.1872 -0.3167  3.2346
   97SAPC  C310 9609   2.772   3.921   4.469  0.0184 -0.0535 -0.4325
   97SAPC  H10X 9610   2.883   3.910   4.463  0.6451  3.0142  2.4711
   97SAPC  H10Y 9611   2.723   3.837   4.521 -0.8386 -0.1244 -1.3237
   97SAPC  C311 9612   2.768   4.054   4.550  0.0590 -0.0105 -0.5145
   97SAPC  H11X 9613   2.686   4.065   4.624  0.8650  0.9936  0.2620
   97SAPC  H11Y 9614   2.764   4.144   4.485 -0.9796  0.9096  0.7617
   97SAPC  C312 9615   2.901   4.064   4.635 -0.0420 -0.0356  0.8514
   97SAPC  H12X 9616   2.981   4.101   4.566 -0.8295  0.3364  0.1221
   97SAPC  H12Y 9617   2.941   3.965   4.666  1.3831 -0.1371 -1.0882
   97SAPC  C313 9618   2.903   4.167   4.744 -0.6083 -0.0031  0.3156
   97SAPC  H13X 9619   2.871   4.260   4.691 -1.2731 -0.3107  0.1769
   97SAPC  H13Y 9620   3.003   4.185   4.790 -0.8564 -0.4008  1.0178
   97SAPC  C314 9621   2.798   4.149   4.854  0.4125 -0.5771 -0.2911
   97SAPC  H14X 9622   2.690   4.157   4.827 -0.6753 -1.7489  3.2172
   97SAPC  H14Y 9623   2.817   4.231   4.927 -0.7557  1.1576 -1.8121
   97SAPC  C315 9624   2.827   4.013   4.933  0.0865 -0.7330 -0.0954
   97SAPC  H15X 9625   2.936   4.014   4.957 -0.0303 -0.0037  0.4277
   97SAPC  H15Y 9626   2.815   3.935   4.855  1.3114  0.1148 -1.1867
   97SAPC  C316 9627   2.741   4.007   5.055 -0.4214 -0.8860  0.0945
   97SAPC  H16X 9628   2.633   4.028   5.038 -0.3197  0.6608  1.1755
   97SAPC  H16Y 9629   2.788   4.078   5.126  1.4956 -1.2856 -0.7107
   97SAPC  C317 9630   2.753   3.874   5.137  0.4281 -0.3940  0.4329
   97SAPC  H17X 9631   2.733   3.791   5.066 -0.9141  1.4028 -1.3863
   97SAPC  H17Y 9632   2.673   3.886   5.213  2.7672  0.9580  2.8695
   97SAPC  C318 9633   2.884   3.842   5.205 -0.7436 -0.2749 -0.2341
   97SAPC  H18X 9634   2.969   3.829   5.134  1.1820  2.5432  1.3765
   97SAPC  H18Y 9635   2.867   3.750   5.265 -1.4468  1.3447  2.1987
   97SAPC  H18Z 9636   2.923   3.924   5.269 -0.1252  0.2270 -1.2259
   98SAPC     N 9637   5.769   4.154   2.184 -0.3849 -0.1554 -0.0857
   98SAPC   C12 9638   5.812   4.280   2.265  0.4087  0.0268 -0.4199
   98SAPC  H12A 9639   5.722   4.300   2.322 -1.2430 -3.3638 -1.5943
   98SAPC  H12B 9640   5.819   4.366   2.200  2.7318  0.9214  0.8794
   98SAPC   C13 9641   5.654   4.186   2.098 -0.5204 -0.4407  0.2676
   98SAPC  H13A 9642   5.608   4.099   2.053 -0.5037 -0.2075 -0.2033
   98SAPC  H13B 9643   5.570   4.230   2.151 -0.2531 -0.5368  0.7749
   98SAPC  H13C 9644   5.690   4.253   2.022  4.0409 -2.6888  0.1221
   98SAPC   C14 9645   5.869   4.098   2.097 -0.3122 -0.2224  0.0880
   98SAPC  H14A 9646   5.956   4.066   2.152  0.4401 -0.2297 -1.0803
   98SAPC  H14B 9647   5.832   4.015   2.039 -1.2039 -1.1311  1.8660
   98SAPC  H14C 9648   5.911   4.171   2.029  1.4426 -1.2781 -0.0167
   98SAPC   C15 9649   5.726   4.050   2.278  0.0684  0.0315 -0.0490
   98SAPC  H15A 9650   5.792   4.042   2.363 -0.8701 -2.8924  0.5262
   98SAPC  H15B 9651   5.622   4.060   2.307 -0.4770 -3.0604 -0.5527
   98SAPC  H15C 9652   5.731   3.953   2.230  0.4345 -0.0649  0.1776
   98SAPC   C11 9653   5.935   4.276   2.356  0.3385  0.4755  0.4373
   98SAPC  H11A 9654   5.945   4.383   2.383  0.6030  0.4624  0.3938
   98SAPC  H11B 9655   6.018   4.244   2.289  0.2397  0.0508  0.5131
   98SAPC     P 9656   5.869   4.222   2.605  0.4888 -0.3498  0.2847
   98SAPC   O13 9657   5.852   4.101   2.683  0.1039 -0.2589  0.7690
   98SAPC   O14 9658   5.969   4.314   2.669 -0.1325  0.0174 -0.4649
   98SAPC   O12 9659   5.915   4.185   2.459  1.1456  0.4418 -0.2739
   98SAPC   O11 9660   5.728   4.287   2.575 -0.5627  0.2125 -0.6634
   98SAPC    C1 9661   5.702   4.427   2.577  0.0635 -0.6961 -0.9152
   98SAPC    HA 9662   5.792   4.491   2.592 -0.9003  0.1575  1.7240
   98SAPC    HB 9663   5.651   4.469   2.488 -2.2598 -0.3360  0.5264
   98SAPC    C2 9664   5.607   4.462   2.694  0.5396 -0.4972  0.4040
   98SAPC    HS 9665   5.575   4.568   2.686 -0.6695 -0.7911  1.0077
   98SAPC   O21 9666   5.658   4.426   2.827  0.3212  0.1484  0.3606
   98SAPC   C21 9667   5.753   4.509   2.869  0.8248 -0.0307  0.3041
   98SAPC   O22 9668   5.791   4.606   2.808 -0.4752  0.4267  0.1195
   98SAPC   C22 9669   5.812   4.465   3.000 -0.1351 -0.0239  0.2107
   98SAPC   H2R 9670   5.724   4.435   3.061 -1.0420 -1.1785 -1.5775
   98SAPC   H2S 9671   5.873   4.375   2.977  2.5912  1.6839  0.4144
   98SAPC    C3 9672   5.476   4.377   2.661 -0.8168 -0.0571  0.2176
   98SAPC    HX 9673   5.484   4.266   2.665  1.4636  0.0961  1.3134
   98SAPC    HY 9674   5.448   4.405   2.557 -0.2359  2.4329  0.6791
   98SAPC   O31 9675   5.373   4.417   2.757  0.1352 -0.3015  0.4529
   98SAPC   C31 9676   5.353   4.345   2.861  0.0999 -0.3700  0.3925
   98SAPC   O32 9677   5.399   4.234   2.882  0.6134  0.1813 -0.3230
   98SAPC   C32 9678   5.245   4.412   2.950 -0.6766 -0.4545 -0.3198
   98SAPC   H2X 9679   5.148   4.367   2.921 -1.3609  0.2043  0.8791
   98SAPC   H2Y 9680   5.246   4.518   2.918 -2.3616  0.2187  1.6471
   98SAPC   C23 9681   5.892   4.574   3.063 -0.5380  0.0028 -0.9770
   98SAPC   H3R 9682   5.825   4.661   3.079 -0.8114 -0.5799  1.5283
   98SAPC   H3S 9683   5.977   4.601   2.997  0.1201  0.9401  0.2157
   98SAPC   C24 9684   5.941   4.544   3.203 -0.0819  0.2033 -0.3361
   98SAPC   H4R 9685   5.857   4.526   3.273 -0.4585  0.6218 -0.6761
   98SAPC   H4S 9686   5.981   4.640   3.242 -1.9256  1.3303 -1.0910
   98SAPC   C25 9687   6.046   4.439   3.214  0.1997  1.1886  1.1228
   98SAPC   H5R 9688   6.038   4.360   3.137  0.0794  1.1475  1.1776
   98SAPC   C26 9689   6.127   4.430   3.324  0.5293 -1.1720  0.7485
   98SAPC   H6R 9690   6.201   4.348   3.324  1.9720  0.0851 -0.3919
   98SAPC   C27 9691   6.129   4.510   3.454  0.5889 -0.0847  0.1573
   98SAPC   H7R 9692   6.022   4.521   3.482  0.8626  2.4722  0.4281
   98SAPC   H7S 9693   6.168   4.612   3.436 -1.4355  0.6267 -0.4307
   98SAPC   C28 9694   6.222   4.440   3.554 -0.1498  0.2059 -0.8525
   98SAPC   H8R 9695   6.308   4.390   3.508  1.7758  2.4127  0.1369
   98SAPC   C29 9696   6.219   4.453   3.686 -0.2512  0.3625 -0.8665
   98SAPC   H9R 9697   6.294   4.401   3.747 -0.4381 -1.5361 -2.1611
   98SAPC  C210 9698   6.111   4.529   3.766  0.4880  0.0101 -0.3193
   98SAPC  H10R 9699   6.023   4.559   3.705  0.2202  0.8868  0.4802
   98SAPC  H10S 9700   6.163   4.625   3.788  1.6661 -0.3293 -1.4755
   98SAPC  C211 9701   6.062   4.479   3.900 -0.5918 -0.4987 -0.1280
   98SAPC  H11R 9702   6.034   4.373   3.892 -2.3762  0.0330 -1.3529
   98SAPC  C212 9703   6.064   4.544   4.013  0.6060  0.1155  0.2013
   98SAPC  H12R 9704   6.041   4.495   4.108  0.7639 -0.5024 -0.0723
   98SAPC  C213 9705   6.098   4.690   4.039  0.1902  0.3838 -0.1835
   98SAPC  H13R 9706   6.036   4.761   3.980  1.2041  1.4534 -0.0032
   98SAPC  H13S 9707   6.201   4.722   4.010  0.4669 -1.3164 -1.1986
   98SAPC  C214 9708   6.059   4.738   4.171  0.2333  0.3714  0.3163
   98SAPC  H14R 9709   5.954   4.719   4.199 -0.5746 -1.0430 -3.1734
   98SAPC  C215 9710   6.144   4.780   4.264 -0.0064 -0.1474 -0.3903
   98SAPC  H15R 9711   6.107   4.816   4.362 -2.0200 -1.6827 -0.5341
   98SAPC  C216 9712   6.293   4.817   4.234 -0.5600 -0.4101 -0.8672
   98SAPC  H16R 9713   6.305   4.887   4.150 -0.2156 -1.9862 -2.1832
   98SAPC  H16S 9714   6.349   4.732   4.188 -0.2355 -1.5944  1.5384
   98SAPC  C217 9715   6.371   4.870   4.352 -0.0273 -0.5352 -0.6818
   98SAPC  H17R 9716   6.376   4.784   4.423  3.8394  0.7452  0.8874
   98SAPC  H17S 9717   6.327   4.959   4.403 -0.8983 -1.0260 -0.5545
   98SAPC  C218 9718   6.520   4.912   4.333  0.0068 -0.4179  0.8098
   98SAPC  H18R 9719   6.558   4.824   4.277  2.4711  0.7063  0.5839
   98SAPC  H18S 9720   6.570   4.917   4.432 -0.5094 -0.2675  1.0663
   98SAPC  C219 9721   6.535   5.044   4.252  0.1982 -1.1177  0.0031
   98SAPC  H19R 9722   6.470   5.040   4.162 -0.6169 -1.2504  0.5917
   98SAPC  H19S 9723   6.637   5.067   4.214 -0.3866 -1.1382 -1.6480
   98SAPC  C220 9724   6.498   5.175   4.329 -0.8960 -0.2107  0.2116
   98SAPC  H20R 9725   6.391   5.184   4.354 -1.0471  1.8533 -0.9232
   98SAPC  H20S 9726   6.514   5.265   4.265 -1.1377 -0.9573 -0.9294
   98SAPC  H20T 9727   6.561   5.180   4.420  1.2465  1.3558 -1.2228
   98SAPC   C33 9728   5.266   4.393   3.101  0.2922 -0.0139  0.2156
   98SAPC   H3X 9729   5.272   4.284   3.122 -0.0814  0.0378  0.5992
   98SAPC   H3Y 9730   5.178   4.439   3.152  0.6500 -1.5869  2.4033
   98SAPC   C34 9731   5.392   4.457   3.157 -0.8035  0.2004 -0.0938
   98SAPC   H4X 9732   5.389   4.568   3.160  1.7542  0.3164 -0.0841
   98SAPC   H4Y 9733   5.479   4.427   3.096 -0.2888  2.8564 -0.7675
   98SAPC   C35 9734   5.418   4.432   3.306  0.4503 -0.0813  0.3117
   98SAPC   H5X 9735   5.449   4.326   3.312  3.4289  0.7460  2.3733
   98SAPC   H5Y 9736   5.320   4.445   3.357 -0.4905 -0.0767 -1.4229
   98SAPC   C36 9737   5.527   4.520   3.373 -0.4088 -0.4580 -0.4601
   98SAPC   H6X 9738   5.506   4.629   3.368 -0.0204 -0.1189  2.8816
   98SAPC   H6Y 9739   5.622   4.501   3.319 -1.1034 -0.7810 -1.5901
   98SAPC   C37 9740   5.550   4.477   3.524 -0.0447  0.3139  0.4278
   98SAPC   H7X 9741   5.573   4.368   3.535 -0.0419  0.3706  1.0405
   98SAPC   H7Y 9742   5.456   4.500   3.579 -0.7006  0.2514 -0.6292
   98SAPC   C38 9743   5.662   4.554   3.585 -0.3087 -0.5684  0.0960
   98SAPC   H8X 9744   5.644   4.663   3.577 -0.8591 -0.7069 -0.7089
   98SAPC   H8Y 9745   5.750   4.527   3.521  1.8087  0.6131  2.3591
   98SAPC   C39 9746   5.696   4.505   3.725 -0.2596  0.1802  0.2540
   98SAPC   H9X 9747   5.788   4.553   3.765  1.0868 -0.6728 -1.6612
   98SAPC   H9Y 9748   5.701   4.394   3.721 -2.0043 -0.0540  2.7232
   98SAPC  C310 9749   5.592   4.544   3.823  0.3600 -0.5425 -0.3765
   98SAPC  H10X 9750   5.505   4.476   3.813 -1.5937  1.3660  2.1944
   98SAPC  H10Y 9751   5.560   4.650   3.822 -1.6860 -1.1099 -1.8154
   98SAPC  C311 9752   5.640   4.515   3.968 -0.1134  0.2765 -0.7752
   98SAPC  H11X 9753   5.741   4.558   3.982  1.4847 -3.4029  0.2572
   98SAPC  H11Y 9754   5.660   4.406   3.974  1.9383  0.5985 -1.2826
   98SAPC  C312 9755   5.540   4.558   4.077 -0.0792 -0.1589 -0.8507
   98SAPC  H12X 9756   5.451   4.492   4.075 -0.6895  0.6316 -0.3441
   98SAPC  H12Y 9757   5.507   4.663   4.060  0.1932 -0.2139 -1.7597
   98SAPC  C313 9758   5.588   4.550   4.225  0.3162  0.3335  0.5526
   98SAPC  H13X 9759   5.633   4.450   4.246  0.8899  0.4802  0.0569
   98SAPC  H13Y 9760   5.506   4.558   4.299 -0.1593 -0.6782  0.1609
   98SAPC  C314 9761   5.694   4.659   4.263  0.7542  1.0483 -0.7772
   98SAPC  H14X 9762   5.673   4.766   4.242  0.3453  1.0927 -0.1630
   98SAPC  H14Y 9763   5.777   4.643   4.190 -0.0451 -2.0220 -1.1596
   98SAPC  C315 9764   5.745   4.649   4.405  0.6906 -0.1135  0.0614
   98SAPC  H15X 9765   5.823   4.726   4.419  2.6770 -1.7681 -1.4166
   98SAPC  H15Y 9766   5.788   4.547   4.421  1.9069  0.6228  1.8560
   98SAPC  C316 9767   5.628   4.669   4.506  0.1326  0.7908 -0.7245
   98SAPC  H16X 9768   5.538   4.718   4.462 -1.2762 -0.5689  0.5181
   98SAPC  H16Y 9769   5.664   4.741   4.583  0.5311 -1.2077  1.0778
   98SAPC  C317 9770   5.582   4.531   4.572 -0.0932 -0.1074  0.1168
   98SAPC  H17X 9771   5.673   4.482   4.612  1.0697  0.1807 -1.9978
   98SAPC  H17Y 9772   5.547   4.463   4.492  1.6124 -0.2149 -0.5890
   98SAPC  C318 9773   5.481   4.537   4.686  0.2901 -0.2025  0.3346
   98SAPC  H18X 9774   5.438   4.439   4.714 -0.0298  0.0249  0.6568
   98SAPC  H18Y 9775   5.403   4.610   4.654  0.9827 -0.8372 -3.0707
   98SAPC  H18Z 9776   5.521   4.577   4.782  0.2128  0.2769  0.1729
   99SAPC     N 9777   5.975   1.071   2.767  0.1745  0.1253 -0.3369
   99SAPC   C12 9778   5.947   1.217   2.800  0.1938  0.4686  0.5014
   99SAPC  H12A 9779   5.844   1.244   2.780  0.1505  0.5736  0.8598
   99SAPC  H12B 9780   5.998   1.279   2.728 -1.6463  0.4813 -0.8781
   99SAPC   C13 9781   5.939   1.044   2.624 -0.0758  0.0306  0.1815
   99SAPC  H13A 9782   5.846   1.095   2.606  1.3621  3.4775  1.6358
   99SAPC  H13B 9783   6.006   1.093   2.556  1.5227 -0.5935  1.2440
   99SAPC  H13C 9784   5.923   0.937   2.616 -0.5878  0.2483 -2.5183
   99SAPC   C14 9785   6.117   1.033   2.795 -0.2822 -0.0310  0.1317
   99SAPC  H14A 9786   6.129   1.045   2.901 -1.2091 -0.6816  0.3254
   99SAPC  H14B 9787   6.142   0.934   2.760 -1.7396 -0.4366  0.1805
   99SAPC  H14C 9788   6.185   1.107   2.755 -1.3410  0.3670 -1.0076
   99SAPC   C15 9789   5.881   0.988   2.853  0.4504  0.3927  0.7360
   99SAPC  H15A 9790   5.877   1.025   2.954 -0.7812  1.5113  0.3163
   99SAPC  H15B 9791   5.780   0.989   2.816  0.5618 -0.4740  0.3900
   99SAPC  H15C 9792   5.918   0.887   2.859 -0.1675  0.1415  0.3746
   99SAPC   C11 9793   5.984   1.282   2.937  0.0318  0.0664 -0.0867
   99SAPC  H11A 9794   5.905   1.250   3.008  0.6650 -0.5026  0.3737
   99SAPC  H11B 9795   5.962   1.390   2.928 -2.2958 -0.3534  0.0369
   99SAPC     P 9796   6.161   1.205   3.119  0.1937  0.4609  0.3796
   99SAPC   O13 9797   6.155   1.062   3.108 -0.1325 -0.2406 -0.1778
   99SAPC   O14 9798   6.295   1.262   3.149  0.1397  0.1513 -0.6463
   99SAPC   O12 9799   6.123   1.270   2.981  0.4594  0.1547 -0.1488
   99SAPC   O11 9800   6.051   1.262   3.223  0.0542 -0.3941  0.1002
   99SAPC    C1 9801   6.010   1.401   3.226  0.3639  0.1260  0.7030
   99SAPC    HA 9802   6.079   1.466   3.169  0.6234  0.3613  1.2700
   99SAPC    HB 9803   5.912   1.428   3.182  1.7463 -0.7557 -3.2754
   99SAPC    C2 9804   6.025   1.464   3.368  0.0137 -0.3854 -0.3719
   99SAPC    HS 9805   6.124   1.432   3.406  0.0507 -0.1526 -0.2704
   99SAPC   O21 9806   5.920   1.410   3.454 -0.4274 -0.2121 -0.5647
   99SAPC   C21 9807   5.955   1.323   3.555  0.4346 -0.5153  0.5134
   99SAPC   O22 9808   6.069   1.295   3.576 -0.2551  0.2173 -0.4188
   99SAPC   C22 9809   5.830   1.263   3.617  0.1533  0.1415  0.0678
   99SAPC   H2R 9810   5.739   1.321   3.588 -1.1472 -1.0614  1.5035
   99SAPC   H2S 9811   5.808   1.164   3.571 -1.0647  0.2936  0.2688
   99SAPC    C3 9812   6.027   1.616   3.359  0.3469  0.1918 -0.3315
   99SAPC    HX 9813   5.943   1.643   3.291 -0.3465 -0.8423  0.0881
   99SAPC    HY 9814   6.119   1.642   3.302  0.6757  2.0555  0.9688
   99SAPC   O31 9815   6.004   1.688   3.485 -0.1622  0.1982 -0.1814
   99SAPC   C31 9816   6.112   1.681   3.566 -0.2748  0.6963  0.3062
   99SAPC   O32 9817   6.219   1.635   3.534  0.1309  0.0809 -0.0215
   99SAPC   C32 9818   6.070   1.740   3.697  0.3500  0.5036 -1.4292
   99SAPC   H2X 9819   5.961   1.735   3.718  0.6640 -0.6989  0.0686
   99SAPC   H2Y 9820   6.085   1.850   3.699 -1.7749  0.8209 -1.2808
   99SAPC   C23 9821   5.836   1.261   3.774  0.7334 -0.1200 -0.0390
   99SAPC   H3R 9822   5.852   1.363   3.815 -0.0738 -0.0948  0.2342
   99SAPC   H3S 9823   5.933   1.211   3.798  1.5546  1.0435 -0.7986
   99SAPC   C24 9824   5.731   1.183   3.857  0.3539  0.6954 -0.1054
   99SAPC   H4R 9825   5.748   1.074   3.844 -0.3527  0.5132  0.4476
   99SAPC   H4S 9826   5.630   1.193   3.813  0.7753  0.6967 -1.1035
   99SAPC   C25 9827   5.744   1.201   4.003  0.1515 -0.7318 -0.0339
   99SAPC   H5R 9828   5.706   1.298   4.040  0.1895 -0.8525  0.3329
   99SAPC   C26 9829   5.799   1.120   4.101  0.1421 -0.4268  1.0255
   99SAPC   H6R 9830   5.811   1.163   4.201 -1.7130 -0.8549  1.4665
   99SAPC   C27 9831   5.861   0.982   4.081 -0.4472 -1.2592 -0.2794
   99SAPC   H7R 9832   5.901   0.970   3.978  0.3780 -0.5134 -0.0573
   99SAPC   H7S 9833   5.782   0.906   4.100  0.2228 -2.1083 -0.8311
   99SAPC   C28 9834   5.980   0.970   4.172 -0.3721 -0.4820  0.9295
   99SAPC   H8R 9835   6.079   0.974   4.123 -1.1234 -1.8645 -0.7912
   99SAPC   C29 9836   5.981   0.955   4.304 -1.1840 -0.6750 -0.5291
   99SAPC   H9R 9837   6.077   0.934   4.352 -0.2298  0.5947 -1.7859
   99SAPC  C210 9838   5.863   0.949   4.394  0.8864 -0.0994  0.1554
   99SAPC  H10R 9839   5.875   0.873   4.474  2.4619  2.6203  2.7092
   99SAPC  H10S 9840   5.779   0.909   4.332  1.1162  0.1130 -0.2994
   99SAPC  C211 9841   5.816   1.077   4.451 -0.3387  0.1879 -0.0083
   99SAPC  H11R 9842   5.861   1.167   4.406 -0.9052  0.2752 -0.4144
   99SAPC  C212 9843   5.706   1.094   4.523 -0.7830  0.1919 -0.1813
   99SAPC  H12R 9844   5.680   1.194   4.558  2.5987  0.4187  2.0548
   99SAPC  C213 9845   5.623   0.988   4.592  0.2360  0.2060  0.3540
   99SAPC  H13R 9846   5.675   0.956   4.685 -1.2272 -1.8038  0.5449
   99SAPC  H13S 9847   5.613   0.894   4.534  0.9053 -0.4823  1.3264
   99SAPC  C214 9848   5.484   1.033   4.619 -0.2332  1.0787  0.1614
   99SAPC  H14R 9849   5.404   0.980   4.564 -0.6547  1.5617  0.2977
   99SAPC  C215 9850   5.437   1.137   4.690  0.4341  0.5160  0.6160
   99SAPC  H15R 9851   5.329   1.156   4.696  0.2506 -0.2635 -0.0120
   99SAPC  C216 9852   5.523   1.242   4.764  0.2992  0.3203  0.0938
   99SAPC  H16R 9853   5.564   1.323   4.700  1.4582 -0.0528  0.3439
   99SAPC  H16S 9854   5.607   1.194   4.819 -1.6383  0.7060  3.7411
   99SAPC  C217 9855   5.437   1.322   4.861  0.5889  0.8717 -0.7810
   99SAPC  H17R 9856   5.511   1.354   4.938 -1.0007 -0.4533  1.3978
   99SAPC  H17S 9857   5.371   1.259   4.924  0.7622  2.9359  1.6410
   99SAPC  C218 9858   5.360   1.444   4.803 -0.4207 -0.0841  0.5304
   99SAPC  H18R 9859   5.278   1.408   4.737  0.5757  1.5455 -1.7252
   99SAPC  H18S 9860   5.425   1.494   4.729  0.4492 -1.1840  0.5346
   99SAPC  C219 9861   5.317   1.539   4.908  0.0242  0.2352 -0.2488
   99SAPC  H19R 9862   5.270   1.629   4.862 -0.4939 -0.1607 -0.4998
   99SAPC  H19S 9863   5.413   1.564   4.959  0.5189  1.6783 -1.7648
   99SAPC  C220 9864   5.226   1.473   5.010  0.1523  0.0806  0.2697
   99SAPC  H20R 9865   5.194   1.556   5.077 -1.0901  0.5460 -0.8595
   99SAPC  H20S 9866   5.277   1.390   5.063 -1.8601 -1.2323  0.2198
   99SAPC  H20T 9867   5.140   1.421   4.963  0.2386 -0.2932  0.5236
   99SAPC   C33 9868   6.145   1.684   3.817  0.1030 -0.3047  0.5971
   99SAPC   H3X 9869   6.249   1.705   3.784 -0.2183 -1.0520 -0.9374
   99SAPC   H3Y 9870   6.139   1.575   3.835  1.9346 -0.6140 -0.4223
   99SAPC   C34 9871   6.105   1.758   3.944  0.6546  0.5746  0.7620
   99SAPC   H4X 9872   6.006   1.719   3.976  0.2349  0.3897 -0.6579
   99SAPC   H4Y 9873   6.090   1.865   3.918 -2.1881  0.7854  2.8006
   99SAPC   C35 9874   6.217   1.749   4.054 -0.1702 -0.3752 -0.2160
   99SAPC   H5X 9875   6.303   1.808   4.017 -1.7803  1.2337 -1.5410
   99SAPC   H5Y 9876   6.233   1.640   4.069 -2.3024 -0.4688  2.0953
   99SAPC   C36 9877   6.173   1.810   4.189  0.4557 -0.0820  0.5614
   99SAPC   H6X 9878   6.062   1.811   4.201  0.2244  3.0933 -0.7734
   99SAPC   H6Y 9879   6.225   1.908   4.199  1.5934 -0.6762  0.5028
   99SAPC   C37 9880   6.229   1.739   4.313  0.6505  0.1572  0.3713
   99SAPC   H7X 9881   6.339   1.743   4.301  0.5333  2.1413 -0.3918
   99SAPC   H7Y 9882   6.189   1.635   4.310  0.6623  0.1088  1.4231
   99SAPC   C38 9883   6.209   1.818   4.443  0.3752 -1.1541  0.5029
   99SAPC   H8X 9884   6.099   1.821   4.460  0.5221 -2.9347  2.2096
   99SAPC   H8Y 9885   6.245   1.921   4.428  0.3720 -0.9567  1.7698
   99SAPC   C39 9886   6.284   1.754   4.564  0.5374  1.1728  0.2650
   99SAPC   H9X 9887   6.393   1.756   4.543  0.4017 -1.2759 -1.0108
   99SAPC   H9Y 9888   6.253   1.652   4.596  1.9656  1.2818  2.2292
   99SAPC  C310 9889   6.266   1.834   4.688  0.4756 -0.1531 -0.3125
   99SAPC  H10X 9890   6.255   1.941   4.659 -0.8111 -0.3015 -0.4205
   99SAPC  H10Y 9891   6.345   1.825   4.765  1.7891  2.2266 -1.2842
   99SAPC  C311 9892   6.145   1.800   4.770  0.4246  0.4144  0.4809
   99SAPC  H11X 9893   6.160   1.695   4.803  1.9684  0.0776 -1.0901
   99SAPC  H11Y 9894   6.056   1.820   4.707 -0.0941  1.4001  1.4945
   99SAPC  C312 9895   6.134   1.896   4.885 -0.4686  0.0449 -0.3493
   99SAPC  H12X 9896   6.115   1.997   4.843  2.0916  0.0743 -1.5929
   99SAPC  H12Y 9897   6.229   1.906   4.941 -1.0747  0.5587  0.6190
   99SAPC  C313 9898   6.030   1.842   4.989 -0.2099 -0.1382  0.2541
   99SAPC  H13X 9899   6.069   1.745   5.028  0.8408 -0.1213 -0.6880
   99SAPC  H13Y 9900   5.936   1.825   4.932 -0.0590 -1.8125  0.4517
   99SAPC  C314 9901   5.986   1.932   5.104  0.3776  0.5443  0.6472
   99SAPC  H14X 9902   5.902   1.874   5.147 -1.5241  2.1999 -0.6066
   99SAPC  H14Y 9903   5.938   2.019   5.053 -2.1918 -0.5063  1.1346
   99SAPC  C315 9904   6.098   1.963   5.200  0.1552  0.3809  0.1814
   99SAPC  H15X 9905   6.164   2.042   5.158  1.5072 -1.1536 -0.6929
   99SAPC  H15Y 9906   6.155   1.870   5.222  0.6579  0.6863  0.1850
   99SAPC  C316 9907   6.057   2.010   5.343 -0.2376  0.4938  0.0770
   99SAPC  H16X 9908   6.017   1.921   5.395 -1.3393  0.3206 -1.0149
   99SAPC  H16Y 9909   5.970   2.079   5.328 -1.1169 -0.6762 -0.3274
   99SAPC  C317 9910   6.159   2.093   5.414 -0.0377 -0.3548 -0.1501
   99SAPC  H17X 9911   6.180   2.182   5.351 -0.9802 -0.2283 -0.3036
   99SAPC  H17Y 9912   6.258   2.050   5.436  0.1289  0.8855  1.7236
   99SAPC  C318 9913   6.118   2.159   5.551 -0.1627  0.0813  0.7092
   99SAPC  H18X 9914   6.207   2.215   5.587  1.2917 -0.5380 -1.6888
   99SAPC  H18Y 9915   6.100   2.074   5.621  0.2068 -0.2553  0.4016
   99SAPC  H18Z 9916   6.029   2.224   5.536  0.7429  1.2594  0.2282
  100SAPC     N 9917   2.668   1.866   3.132 -0.1046 -0.5900  0.8414
  100SAPC   C12 9918   2.780   1.762   3.105 -0.2025 -0.1956 -0.3505
  100SAPC  H12A 9919   2.806   1.762   3.000 -0.3277  0.5614 -0.3844
  100SAPC  H12B 9920   2.731   1.666   3.112  2.3911 -1.5142  1.1888
  100SAPC   C13 9921   2.625   1.865   3.270  0.6901 -0.8435 -0.4406
  100SAPC  H13A 9922   2.592   1.767   3.300 -1.4584  0.3044  1.2874
  100SAPC  H13B 9923   2.705   1.893   3.336 -0.8030 -0.1742  1.1838
  100SAPC  H13C 9924   2.544   1.936   3.281 -0.4954 -2.2385  0.3014
  100SAPC   C14 9925   2.713   2.005   3.101 -0.0130  0.0550  0.4382
  100SAPC  H14A 9926   2.633   2.076   3.120  1.4113  1.5530  1.0249
  100SAPC  H14B 9927   2.794   2.044   3.160  0.3886  0.0526 -0.1066
  100SAPC  H14C 9928   2.752   2.017   3.001 -1.2140  2.0754  0.1562
  100SAPC   C15 9929   2.542   1.837   3.055 -0.5566  0.2612 -0.0346
  100SAPC  H15A 9930   2.457   1.902   3.068 -1.1990 -0.2012 -1.7121
  100SAPC  H15B 9931   2.556   1.828   2.949 -0.8298 -0.3911 -0.0191
  100SAPC  H15C 9932   2.506   1.737   3.074 -1.2383  0.1931 -1.5968
  100SAPC   C11 9933   2.903   1.764   3.192 -0.9616 -0.5872  0.2229
  100SAPC  H11A 9934   2.926   1.872   3.203  1.1813 -1.0211  0.3326
  100SAPC  H11B 9935   2.989   1.721   3.136 -1.8027 -0.5068 -1.1808
  100SAPC     P 9936   2.965   1.677   3.433 -0.0462  0.6444 -0.2532
  100SAPC   O13 9937   2.979   1.535   3.453 -0.3088 -0.0195  0.0706
  100SAPC   O14 9938   3.086   1.754   3.400  0.1484  0.7730  0.0903
  100SAPC   O12 9939   2.866   1.700   3.313 -0.6897 -0.1757 -0.1770
  100SAPC   O11 9940   2.895   1.737   3.556 -0.6470 -0.3753  0.0792
  100SAPC    C1 9941   2.866   1.880   3.569 -0.4652  0.1523 -0.1558
  100SAPC    HA 9942   2.912   1.943   3.490  0.9544  1.6302  1.7591
  100SAPC    HB 9943   2.758   1.905   3.577 -0.4410  0.8104 -1.6277
  100SAPC    C2 9944   2.940   1.947   3.697 -0.2416 -0.2668 -0.4158
  100SAPC    HS 9945   2.945   2.058   3.683 -3.7479 -0.1077 -1.1987
  100SAPC   O21 9946   3.071   1.889   3.726 -0.6331 -0.3747  0.2339
  100SAPC   C21 9947   3.155   1.972   3.789  0.1967 -0.5610 -0.2455
  100SAPC   O22 9948   3.124   2.088   3.824  0.4963  0.1071 -0.0361
  100SAPC   C22 9949   3.282   1.903   3.832  0.1158 -0.3016 -0.8804
  100SAPC   H2R 9950   3.312   1.907   3.939  0.6856  0.8516 -1.0666
  100SAPC   H2S 9951   3.282   1.797   3.801  1.5802 -1.1048  1.6041
  100SAPC    C3 9952   2.839   1.949   3.820 -0.6554  0.9910  0.3258
  100SAPC    HX 9953   2.897   1.974   3.912 -1.5890 -0.3120  1.2972
  100SAPC    HY 9954   2.801   1.845   3.827  0.0371  0.8085  1.6256
  100SAPC   O31 9955   2.726   2.039   3.793 -0.0035 -0.4458 -0.5618
  100SAPC   C31 9956   2.744   2.162   3.846  0.3004 -0.4774  0.8590
  100SAPC   O32 9957   2.844   2.200   3.903  0.1821  0.3949 -0.2072
  100SAPC   C32 9958   2.625   2.255   3.828  0.4086  0.0757  0.0730
  100SAPC   H2X 9959   2.541   2.182   3.830 -0.0181  0.5010 -1.3483
  100SAPC   H2Y 9960   2.628   2.306   3.730  1.6080  1.2735  0.7089
  100SAPC   C23 9961   3.402   1.976   3.764 -0.2232 -0.3110  0.2931
  100SAPC   H3R 9962   3.395   2.077   3.809  0.0041 -1.8302  4.1293
  100SAPC   H3S 9963   3.405   1.976   3.653 -1.3485 -0.0729  0.2559
  100SAPC   C24 9964   3.529   1.917   3.825 -0.5563 -0.0562 -0.4169
  100SAPC   H4R 9965   3.539   1.940   3.933  2.2079 -1.5237 -0.2701
  100SAPC   H4S 9966   3.615   1.970   3.777 -0.8866  1.4847  0.6029
  100SAPC   C25 9967   3.547   1.764   3.795 -0.1053  0.1347 -0.0053
  100SAPC   H5R 9968   3.564   1.734   3.691 -0.4066  1.2736 -0.3940
  100SAPC   C26 9969   3.555   1.670   3.887 -0.2648  0.4977 -0.2173
  100SAPC   H6R 9970   3.582   1.570   3.851 -2.1794  0.7547 -2.5726
  100SAPC   C27 9971   3.540   1.687   4.034 -0.0384  0.3042  0.8755
  100SAPC   H7R 9972   3.449   1.747   4.056  0.0565  1.1464 -0.8868
  100SAPC   H7S 9973   3.622   1.746   4.079  2.5834 -1.3600 -1.4052
  100SAPC   C28 9974   3.538   1.556   4.106  0.3375  0.2613  1.4805
  100SAPC   H8R 9975   3.448   1.493   4.112  0.5761 -0.1661  0.7057
  100SAPC   C29 9976   3.650   1.486   4.141  0.8180  0.4657 -0.5293
  100SAPC   H9R 9977   3.649   1.383   4.179 -0.5010  0.7297  0.2104
  100SAPC  C210 9978   3.794   1.538   4.142 -0.2273  0.4671 -0.5414
  100SAPC  H10R 9979   3.811   1.614   4.221  1.4175 -0.4239 -0.0027
  100SAPC  H10S 9980   3.814   1.586   4.044 -0.4716 -2.0255 -1.8822
  100SAPC  C211 9981   3.904   1.431   4.157 -0.0694  0.2410 -0.1077
  100SAPC  H11R 9982   3.921   1.375   4.064 -2.1638 -2.4120  0.9752
  100SAPC  C212 9983   3.971   1.390   4.265  0.6614 -0.1927 -0.0213
  100SAPC  H12R 9984   4.049   1.313   4.254 -0.8859 -1.7745 -0.2788
  100SAPC  C213 9985   3.958   1.451   4.403 -0.0616 -0.3044 -1.0404
  100SAPC  H13R 9986   3.870   1.518   4.407 -0.0645 -0.3214 -0.7849
  100SAPC  H13S 9987   4.042   1.524   4.411 -1.2360  0.9741  0.2795
  100SAPC  C214 9988   3.970   1.351   4.520 -0.0787 -0.3613 -0.1963
  100SAPC  H14R 9989   4.071   1.347   4.562  0.2478  1.3623 -0.7481
  100SAPC  C215 9990   3.868   1.279   4.569  0.1880  0.1987  0.5247
  100SAPC  H15R 9991   3.901   1.208   4.646  2.3555  1.8472  1.2083
  100SAPC  C216 9992   3.724   1.275   4.523 -0.7978  0.3162  0.6001
  100SAPC  H16R 9993   3.675   1.185   4.565  0.6816 -0.3323  1.0054
  100SAPC  H16S 9994   3.728   1.267   4.412  0.4933 -1.2444  0.7207
  100SAPC  C217 9995   3.639   1.399   4.550 -0.3375  0.2220  0.4023
  100SAPC  H17R 9996   3.558   1.400   4.473 -0.5799 -0.7803  0.6263
  100SAPC  H17S 9997   3.698   1.490   4.527  0.0731 -0.2953 -0.6997
  100SAPC  C218 9998   3.579   1.401   4.689 -0.3989  0.5842 -0.0977
  100SAPC  H18R 9999   3.655   1.396   4.770 -0.3559 -2.0963 -0.2014
  100SAPC  H18S10000   3.507   1.320   4.714  0.8555 -1.4852 -2.6975
  100SAPC  C21910001   3.498   1.524   4.714  0.2970  0.2432 -0.2765
  100SAPC  H19R10002   3.407   1.528   4.650 -1.7855  1.7129  2.5400
  100SAPC  H19S10003   3.540   1.618   4.673 -2.5528  2.2652  1.1080
  100SAPC  C22010004   3.450   1.547   4.856 -0.2933  0.9053  0.3553
  100SAPC  H20R10005   3.357   1.488   4.873 -0.0667  0.3409 -0.3379
  100SAPC  H20S10006   3.428   1.655   4.871  0.0309  1.1147 -0.5997
  100SAPC  H20T10007   3.532   1.519   4.925  2.4519 -0.2397 -3.1385
  100SAPC   C3310008   2.612   2.373   3.924  0.0436  0.1612 -0.4837
  100SAPC   H3X10009   2.524   2.434   3.892 -0.0010  0.2153 -0.2573
  100SAPC   H3Y10010   2.706   2.431   3.917  0.2798 -0.1595  0.0071
  100SAPC   C3410011   2.593   2.331   4.071 -0.5262  0.6601 -0.1149
  100SAPC   H4X10012   2.675   2.262   4.101 -0.5139  0.1802 -1.1824
  100SAPC   H4Y10013   2.499   2.274   4.074  1.3782 -2.9417 -1.9857
  100SAPC   C3510014   2.587   2.457   4.154 -0.4164 -0.0364  0.0621
  100SAPC   H5X10015   2.499   2.512   4.114  1.1849  1.9167 -1.0157
  100SAPC   H5Y10016   2.677   2.522   4.142 -0.2236 -0.1048  1.0705
  100SAPC   C3610017   2.584   2.421   4.304 -0.3933  0.9526 -0.7513
  100SAPC   H6X10018   2.646   2.331   4.322 -0.2479  0.7534 -2.1830
  100SAPC   H6Y10019   2.479   2.399   4.335 -0.5431  1.7286 -0.6946
  100SAPC   C3710020   2.633   2.543   4.389 -0.0389 -0.0769  0.5061
  100SAPC   H7X10021   2.567   2.626   4.359  0.8661  0.7635  0.7826
  100SAPC   H7Y10022   2.739   2.569   4.367 -0.6060  1.5547 -0.4524
  100SAPC   C3810023   2.625   2.529   4.539 -0.1054  0.0729 -0.4691
  100SAPC   H8X10024   2.692   2.455   4.587 -0.2286  0.6245  0.5821
  100SAPC   H8Y10025   2.524   2.489   4.561 -0.7654  0.8791 -1.8940
  100SAPC   C3910026   2.636   2.662   4.620  0.6716 -0.1887 -0.1653
  100SAPC   H9X10027   2.539   2.704   4.587 -0.2967 -2.4621 -0.3617
  100SAPC   H9Y10028   2.730   2.711   4.586  0.6231 -0.6153 -0.9396
  100SAPC  C31010029   2.640   2.645   4.775  0.2819  0.4946  0.2087
  100SAPC  H10X10030   2.717   2.570   4.806 -0.1141  0.1401  0.3385
  100SAPC  H10Y10031   2.545   2.605   4.815  0.1642 -1.3192 -1.6775
  100SAPC  C31110032   2.696   2.775   4.836  0.2290  0.1374 -0.0263
  100SAPC  H11X10033   2.625   2.856   4.807 -1.5367  0.3199  4.0827
  100SAPC  H11Y10034   2.803   2.793   4.813  0.4422 -0.6609  0.3220
  100SAPC  C31210035   2.695   2.760   4.989 -0.0887  0.5464 -1.3271
  100SAPC  H12X10036   2.792   2.720   5.027 -0.9133 -1.0625 -0.8335
  100SAPC  H12Y10037   2.607   2.698   5.017  1.4809 -0.9256  0.6288
  100SAPC  C31310038   2.680   2.899   5.060 -0.4138 -0.1638  0.3985
  100SAPC  H13X10039   2.601   2.959   5.011 -1.1416 -0.0726  1.6258
  100SAPC  H13Y10040   2.779   2.950   5.063  1.2551 -2.9139 -2.3216
  100SAPC  C31410041   2.630   2.887   5.203 -1.1162 -0.5565 -0.6766
  100SAPC  H14X10042   2.699   2.837   5.275 -2.3362 -0.7746  0.3891
  100SAPC  H14Y10043   2.553   2.807   5.198  1.2199 -3.0635  0.7162
  100SAPC  C31510044   2.573   3.021   5.254  0.4604 -1.1970  0.9779
  100SAPC  H15X10045   2.497   3.059   5.182  2.1517  1.8278  0.6387
  100SAPC  H15Y10046   2.650   3.100   5.266  0.2523 -0.8599  0.1869
  100SAPC  C31610047   2.507   3.010   5.387 -0.4824 -0.6105  0.1227
  100SAPC  H16X10048   2.589   2.990   5.460  0.9386 -2.7807 -1.9267
  100SAPC  H16Y10049   2.437   2.924   5.393 -1.2680  0.0258  0.1964
  100SAPC  C31710050   2.429   3.136   5.439 -0.6001 -0.4571  0.3735
  100SAPC  H17X10051   2.354   3.164   5.362  0.4275  2.4412  0.2675
  100SAPC  H17Y10052   2.502   3.220   5.438 -0.0601 -0.9223  0.0393
  100SAPC  C31810053   2.375   3.106   5.575 -0.8364 -0.6405 -0.7770
  100SAPC  H18X10054   2.294   3.176   5.602  0.2163  0.7371 -1.0851
  100SAPC  H18Y10055   2.457   3.117   5.650 -2.4936  1.4311  0.8717
  100SAPC  H18Z10056   2.339   3.001   5.585 -0.7090 -0.6775 -0.6968
  101OSM      N10057   4.995   4.308   7.005 -0.1857 -0.1373  0.2504
  101OSM    C1510058   4.869   4.349   7.073  0.4264 -0.3596 -0.7106
  101OSM   H15A10059   4.785   4.326   7.009  0.3703  2.2185 -1.6498
  101OSM   H15B10060   4.869   4.455   7.094 -0.4484 -0.7460  1.6102
  101OSM   H15C10061   4.843   4.292   7.162  0.5213  1.5455  0.5856
  101OSM    C1410062   5.108   4.314   7.096 -0.5498  0.1441  0.1235
  101OSM   H14A10063   5.084   4.393   7.166  0.8071  1.0851 -0.4323
  101OSM   H14B10064   5.199   4.348   7.050 -1.2127 -0.3633 -1.6331
  101OSM   H14C10065   5.121   4.222   7.151 -0.2471 -0.6493 -1.2389
  101OSM    C1310066   4.980   4.171   6.952 -0.5649 -0.2287  0.5315
  101OSM   H13A10067   4.992   4.105   7.036 -0.5102  0.0624  0.7529
  101OSM   H13B10068   5.056   4.144   6.880  1.5005  0.1163  2.4934
  101OSM   H13C10069   4.887   4.155   6.899 -0.6928 -2.4430  1.3485
  101OSM    C1210070   5.018   4.405   6.896 -0.0736  0.3515  0.2910
  101OSM   H12A10071   5.029   4.496   6.953 -2.2867  0.0015  1.3742
  101OSM   H12B10072   4.931   4.422   6.835  0.1369  1.5648  0.3030
  101OSM    C1110073   5.142   4.397   6.807 -0.4311 -0.6081  0.2219
  101OSM   H11A10074   5.131   4.474   6.728 -0.8619 -0.1219  0.7445
  101OSM   H11B10075   5.140   4.306   6.743  0.6177 -0.1632 -0.4797
  101OSM      P10076   5.343   4.538   6.882  0.1333 -0.3164 -0.3586
  101OSM    O1310077   5.261   4.638   6.957  0.4034  0.3842 -0.3738
  101OSM    O1410078   5.482   4.525   6.934  0.2525 -0.0881  0.1131
  101OSM    O1110079   5.351   4.583   6.735  0.3859 -0.1298  0.3978
  101OSM    O1210080   5.264   4.401   6.884 -0.2398 -0.0603  0.3289
  101OSM    C1S10081   5.399   4.707   6.695  0.3231  0.2339  0.2478
  101OSM    H1S10082   5.509   4.697   6.713  0.6109  0.6781 -1.1568
  101OSM    H1T10083   5.373   4.794   6.759  0.3485 -0.0518  0.6536
  101OSM     NF10084   5.451   4.840   6.491 -0.0507 -0.2440 -0.5862
  101OSM    HNF10085   5.422   4.935   6.479  0.2151  0.3425  2.5279
  101OSM    C2S10086   5.350   4.750   6.552  0.0648  0.3124  0.0171
  101OSM    H2S10087   5.349   4.660   6.487  1.2571 -0.2322  0.7073
  101OSM    C3S10088   5.196   4.789   6.560 -0.2958 -0.1287 -0.1014
  101OSM    H3S10089   5.177   4.879   6.623 -0.5823  0.7453 -1.3958
  101OSM     O310090   5.117   4.691   6.630 -0.7822  0.3031  0.0321
  101OSM    HO310091   5.185   4.633   6.666 -1.3307 -0.7614 -0.6031
  101OSM    C4S10092   5.158   4.808   6.415 -0.0811  0.4395 -0.2666
  101OSM    H4S10093   5.194   4.909   6.391  1.0478  0.5897  1.9015
  101OSM    C5S10094   5.077   4.732   6.341  0.0729 -0.0382  0.8910
  101OSM    H5S10095   5.011   4.658   6.388 -0.0057 -0.3782  0.2569
  101OSM    C6S10096   5.040   4.778   6.200 -0.4579 -0.1601 -0.6152
  101OSM    H6S10097   4.934   4.810   6.188 -0.4627 -0.4338 -1.3539
  101OSM    H6T10098   5.045   4.689   6.134 -0.2686 -1.0374  0.5479
  101OSM    C7S10099   5.123   4.886   6.131 -0.3497 -0.8085  0.3093
  101OSM    H7S10100   5.227   4.848   6.116  0.4364  2.1575 -3.1936
  101OSM    H7T10101   5.125   4.982   6.186 -0.9755 -0.6236  0.0217
  101OSM    C8S10102   5.055   4.933   6.002 -0.8852  0.1992 -0.4609
  101OSM    H8S10103   5.114   5.023   5.976 -2.3560  1.4172  0.2367
  101OSM    H8T10104   4.949   4.961   6.023 -0.4635  0.7855  1.0315
  101OSM    C9S10105   5.075   4.832   5.889  0.0558 -0.1491  0.1384
  101OSM    H9S10106   5.024   4.740   5.924  1.1611 -1.0311 -0.5145
  101OSM    H9T10107   5.184   4.810   5.888 -0.2155 -1.7593  1.3889
  101OSM   C10S10108   5.037   4.889   5.750  0.2695  0.1492 -0.6131
  101OSM   H10S10109   5.103   4.973   5.720  0.8363 -0.5556 -1.3511
  101OSM   H10T10110   4.933   4.921   5.775 -0.4919 -3.6523  1.8324
  101OSM   C11S10111   5.026   4.788   5.644  0.9168  0.4145  1.1297
  101OSM   H11S10112   4.970   4.704   5.689  3.0222 -1.0860  1.0892
  101OSM   H11T10113   5.124   4.741   5.621 -0.6121 -2.5043  0.0244
  101OSM   C12S10114   4.948   4.855   5.524  0.3624  0.3371  0.3453
  101OSM   H12S10115   5.007   4.942   5.487  0.7763 -0.0224  0.1489
  101OSM   H12T10116   4.850   4.884   5.568 -0.0566  0.6592 -0.7683
  101OSM   C13S10117   4.937   4.757   5.403  0.5174 -0.7141 -0.8817
  101OSM   H13S10118   4.874   4.669   5.424 -2.9081  1.2109 -2.2607
  101OSM   H13T10119   5.040   4.727   5.373  1.0693 -1.4182  1.5122
  101OSM   C14S10120   4.867   4.829   5.289 -0.4142  0.4432  0.3196
  101OSM   H14S10121   4.775   4.876   5.329 -1.0811 -0.0871 -0.5492
  101OSM   H14T10122   4.838   4.756   5.211 -1.2150  1.4599 -0.3705
  101OSM   C15S10123   4.945   4.953   5.218  0.7753 -0.0066 -0.5222
  101OSM   H15S10124   4.997   5.015   5.294  1.0493 -0.7369 -0.0981
  101OSM   H15T10125   4.868   5.021   5.178 -0.2312 -2.3986 -2.9478
  101OSM   C16S10126   5.026   4.923   5.097  0.9722 -0.0178  0.1204
  101OSM   H16S10127   4.968   4.872   5.017  3.5392  1.2268 -2.7485
  101OSM   H16T10128   5.101   4.847   5.130  0.3433  0.0460  1.7964
  101OSM   C17S10129   5.108   5.042   5.043  0.5673 -0.3224  0.4617
  101OSM   H17S10130   5.192   4.999   4.984  1.0441  1.5250 -0.3137
  101OSM   H17T10131   5.147   5.097   5.131  0.2732 -0.6986  0.8251
  101OSM   C18S10132   5.028   5.118   4.940  0.1962 -0.0434  0.1802
  101OSM   H18S10133   4.973   5.048   4.872  0.2656  0.3591 -0.2953
  101OSM   H18T10134   5.095   5.184   4.881  0.3855 -2.2654 -2.2868
  101OSM   H18U10135   4.952   5.181   4.991  0.9020  1.8593 -1.0277
  101OSM    C1F10136   5.571   4.799   6.449  0.2621 -0.4614 -0.3241
  101OSM     OF10137   5.617   4.689   6.485 -0.0580  0.0285  0.7656
  101OSM    C2F10138   5.656   4.895   6.360 -0.2292  0.0643 -0.2636
  101OSM    H2F10139   5.740   4.933   6.422 -0.6755 -0.0195  0.4011
  101OSM    H2G10140   5.594   4.985   6.340  0.8127  0.8231 -0.1953
  101OSM    C3F10141   5.707   4.823   6.235 -0.2358  0.1969 -0.2681
  101OSM    H3F10142   5.626   4.758   6.196  1.1987 -1.6982 -0.1916
  101OSM    H3G10143   5.771   4.745   6.281 -1.3885 -1.7006 -1.7271
  101OSM    C4F10144   5.786   4.922   6.142  0.2960  1.0691  0.1770
  101OSM    H4F10145   5.868   4.973   6.197  2.2277 -0.7049 -0.9374
  101OSM    H4G10146   5.709   4.995   6.109 -2.5733 -2.2815 -1.0413
  101OSM    C5F10147   5.844   4.848   6.021 -0.3417  0.0646  0.4360
  101OSM    H5F10148   5.846   4.739   6.043 -1.5144  0.2443  1.6222
  101OSM    H5G10149   5.950   4.879   6.007  0.2038 -2.0762 -0.5029
  101OSM    C6F10150   5.770   4.885   5.890  0.0397 -0.3686 -0.1556
  101OSM    H6F10151   5.780   4.995   5.886 -0.4987 -0.3550 -2.0244
  101OSM    H6G10152   5.664   4.852   5.903  0.1083 -0.3396  0.5518
  101OSM    C7F10153   5.836   4.809   5.771  0.0241 -0.1435  0.3483
  101OSM    H7F10154   5.850   4.701   5.793 -0.0163 -0.4536 -1.0466
  101OSM    H7G10155   5.941   4.846   5.767  0.3090 -0.9408  0.3820
  101OSM    C8F10156   5.754   4.829   5.641  0.6498 -0.4414  0.3572
  101OSM    H8F10157   5.645   4.820   5.665  0.4014  0.5428 -0.3661
  101OSM    H8G10158   5.777   4.752   5.564  0.0223  0.7590 -1.0798
  101OSM    C9F10159   5.767   4.960   5.580 -0.1577 -0.5232 -0.0633
  101OSM    H9F10160   5.700   5.037   5.623  0.2283 -0.6981  0.8953
  101OSM   C10F10161   5.843   4.998   5.474 -0.4289 -0.3448 -0.3695
  101OSM   H10F10162   5.841   5.102   5.440  0.0934 -0.4446 -0.7164
  101OSM   C11F10163   5.925   4.901   5.399 -0.1881 -0.4939 -0.1842
  101OSM   H11F10164   5.859   4.853   5.324 -1.9455  1.6171 -0.1130
  101OSM   H11G10165   5.965   4.825   5.469  1.2458 -0.6034 -1.0852
  101OSM   C12F10166   6.048   4.967   5.314 -0.0324 -0.0815 -0.6362
  101OSM   H12F10167   6.136   4.983   5.380 -0.8757  0.1758  0.4293
  101OSM   H12G10168   6.027   5.069   5.275 -0.2343  1.1006  2.3611
  101OSM   C13F10169   6.075   4.879   5.188  0.7205  0.1551 -0.0130
  101OSM   H13F10170   5.978   4.869   5.135  1.3424  2.4070 -1.6996
  101OSM   H13G10171   6.115   4.782   5.226  0.8538  0.4193  0.5270
  101OSM   C14F10172   6.178   4.946   5.107  0.3056 -0.4165  0.1790
  101OSM   H14F10173   6.262   4.969   5.176  0.4032 -0.6225  0.1302
  101OSM   H14G10174   6.135   5.048   5.092  1.3513 -0.4375 -3.9658
  101OSM   C15F10175   6.216   4.895   4.973 -0.6643  0.1554  0.3638
  101OSM   H15F10176   6.127   4.863   4.915 -0.2777  0.5182 -0.4325
  101OSM   H15G10177   6.272   4.806   5.007 -1.0713 -0.6241 -0.9477
  101OSM   C16F10178   6.321   4.983   4.898 -0.2009  0.7995 -0.6546
  101OSM   H16F10179   6.415   4.971   4.956 -0.2308 -0.8170 -0.9064
  101OSM   H16G10180   6.282   5.087   4.907  0.1333  0.8533  0.3351
  101OSM   C17F10181   6.353   4.950   4.758 -0.0389 -0.7641  0.2729
  101OSM   H17F10182   6.265   4.965   4.693 -0.0727  2.0724  0.8244
  101OSM   H17G10183   6.377   4.842   4.766 -0.9396 -1.2661 -2.6075
  101OSM   C18F10184   6.470   5.033   4.711  0.3811  0.6666  0.5357
  101OSM   H18F10185   6.555   5.038   4.782  0.8439 -0.3958  0.0809
  101OSM   H18G10186   6.434   5.135   4.684 -2.6537 -0.4282  0.0497
  101OSM   H18H10187   6.510   4.990   4.616  1.5254  2.8751 -0.0503
  102OSM      N10188   0.490   3.893   7.583  0.0007  0.3205 -0.0479
  102OSM    C1510189   0.439   3.969   7.705 -0.0549  0.1262  0.6650
  102OSM   H15A10190   0.349   4.027   7.687 -0.3326  0.2687  2.3802
  102OSM   H15B10191   0.517   4.036   7.737  0.8216 -0.0501 -1.0136
  102OSM   H15C10192   0.416   3.896   7.780 -0.1008  0.6542  1.1718
  102OSM    C1410193   0.547   3.985   7.487 -0.0909 -0.5825  0.1000
  102OSM   H14A10194   0.588   3.931   7.404 -0.2528 -0.2615 -0.1928
  102OSM   H14B10195   0.623   4.050   7.528 -0.6195  0.6462 -0.7892
  102OSM   H14C10196   0.469   4.047   7.445 -0.4825 -0.8686  0.3880
  102OSM    C1310197   0.610   3.805   7.617 -0.2105  0.4492  0.1601
  102OSM   H13A10198   0.578   3.709   7.656  0.0418  0.3053  0.0085
  102OSM   H13B10199   0.663   3.852   7.699  1.6874  0.8735 -1.2550
  102OSM   H13C10200   0.688   3.796   7.544 -0.2194 -0.5991  0.2623
  102OSM    C1210201   0.381   3.803   7.524  0.4193  0.0170 -0.0257
  102OSM   H12A10202   0.331   3.752   7.604  1.1127  2.4539  2.0894
  102OSM   H12B10203   0.430   3.724   7.468  2.8668  0.1423  1.7956
  102OSM    C1110204   0.275   3.874   7.443  0.1523  0.2183 -0.9799
  102OSM   H11A10205   0.198   3.800   7.412  1.1767 -0.7639 -1.2606
  102OSM   H11B10206   0.315   3.901   7.342  0.9631 -0.6375 -0.8991
  102OSM      P10207   0.081   3.954   7.594  0.0069  0.0288 -0.0340
  102OSM    O1310208   0.095   3.829   7.663  0.3440  0.2754 -0.0227
  102OSM    O1410209   0.043   4.071   7.685  0.2490  0.1969  0.2198
  102OSM    O1110210  -0.028   3.932   7.489 -0.0472 -0.2548  0.1341
  102OSM    O1210211   0.208   3.990   7.511 -0.6768  0.9324  0.1289
  102OSM    C1S10212  -0.048   4.021   7.382  0.3932 -0.1526  0.4158
  102OSM    H1S10213   0.008   4.115   7.401  1.0761 -0.4786  0.0442
  102OSM    H1T10214  -0.154   4.054   7.371  0.7126  1.3554  1.5167
  102OSM     NF10215  -0.052   4.073   7.142  0.2219 -0.1204  0.0898
  102OSM    HNF10216  -0.141   4.053   7.101 -0.4645  0.4940  1.2008
  102OSM    C2S10217  -0.016   3.976   7.241 -0.6174 -0.0197 -0.8890
  102OSM    H2S10218   0.094   3.964   7.240 -0.2104  2.2541  2.2133
  102OSM    C3S10219  -0.062   3.826   7.220  0.2306 -0.3248 -0.5045
  102OSM    H3S10220  -0.173   3.833   7.223 -0.0360 -3.5099 -0.0119
  102OSM     O310221  -0.039   3.735   7.329 -0.9567 -0.3489  0.1412
  102OSM    HO310222  -0.034   3.793   7.405  1.5980  1.2149 -1.0731
  102OSM    C4S10223  -0.024   3.767   7.089  0.1146 -0.9426  0.4973
  102OSM    H4S10224   0.073   3.801   7.050 -0.7225  0.0198 -0.8219
  102OSM    C5S10225  -0.105   3.706   7.002  0.3692 -0.2669  0.3540
  102OSM    H5S10226  -0.212   3.691   7.025  0.1758 -0.8076 -0.8141
  102OSM    C6S10227  -0.071   3.665   6.863 -0.8806 -0.3016 -0.1955
  102OSM    H6S10228  -0.125   3.568   6.857  2.4739 -2.4119  0.8586
  102OSM    H6T10229   0.037   3.641   6.867 -0.5270  1.2181 -0.0309
  102OSM    C7S10230  -0.095   3.772   6.757 -0.4817  0.1644 -0.2157
  102OSM    H7S10231  -0.040   3.864   6.786 -1.3614 -0.2789  3.3187
  102OSM    H7T10232  -0.200   3.794   6.731 -0.2811  0.8413 -0.4900
  102OSM    C8S10233  -0.051   3.745   6.617  0.5058 -0.0277  0.4495
  102OSM    H8S10234  -0.073   3.640   6.588  2.3355 -0.9379  2.0988
  102OSM    H8T10235   0.060   3.752   6.605  0.5765  0.0081  1.0789
  102OSM    C9S10236  -0.107   3.841   6.519 -1.0005  0.3031  0.0214
  102OSM    H9S10237  -0.085   3.944   6.555  0.5662  0.0714 -0.2227
  102OSM    H9T10238  -0.218   3.836   6.520 -0.9592 -2.2457 -0.0163
  102OSM   C10S10239  -0.057   3.817   6.374  0.2119  0.2581  0.5455
  102OSM   H10S10240  -0.077   3.710   6.352  0.7208  0.1533  0.5818
  102OSM   H10T10241   0.052   3.831   6.358  0.2330  0.5365  0.9185
  102OSM   C11S10242  -0.135   3.895   6.270 -1.3379  0.1862  0.3969
  102OSM   H11S10243  -0.070   3.890   6.180  0.8179  0.7546  1.8542
  102OSM   H11T10244  -0.149   3.998   6.308 -0.9317 -0.0943  1.3218
  102OSM   C12S10245  -0.267   3.827   6.238  0.1137 -0.6566  0.0799
  102OSM   H12S10246  -0.331   3.795   6.323  1.1501 -0.6402  0.8973
  102OSM   H12T10247  -0.253   3.731   6.184 -2.2267 -1.2362  0.4015
  102OSM   C13S10248  -0.349   3.926   6.153 -0.4589  0.1314 -0.0928
  102OSM   H13S10249  -0.344   4.023   6.208 -1.8740  0.6007 -0.7371
  102OSM   H13T10250  -0.454   3.898   6.175 -0.4425 -1.0038 -1.3689
  102OSM   C14S10251  -0.295   3.927   6.007  0.6204 -0.6891  0.2543
  102OSM   H14S10252  -0.303   3.825   5.963 -0.2827 -1.3769  1.9286
  102OSM   H14T10253  -0.188   3.958   6.011  0.1253  1.0373  2.1763
  102OSM   C15S10254  -0.380   4.022   5.920 -0.0230 -0.5219 -0.5070
  102OSM   H15S10255  -0.378   4.121   5.971  0.3608 -0.7452 -0.0851
  102OSM   H15T10256  -0.483   3.981   5.925 -1.2364  2.4203  2.3779
  102OSM   C16S10257  -0.340   4.029   5.772 -0.0685  0.1010  0.1733
  102OSM   H16S10258  -0.317   3.929   5.731  2.2995  1.1159 -1.1758
  102OSM   H16T10259  -0.251   4.095   5.760  1.1058 -1.7474 -2.1436
  102OSM   C17S10260  -0.452   4.088   5.685  0.4997  0.5645 -0.5514
  102OSM   H17S10261  -0.544   4.048   5.733  2.5297 -0.1326  3.1737
  102OSM   H17T10262  -0.444   4.033   5.588 -0.2454 -0.2717 -0.1621
  102OSM   C18S10263  -0.459   4.244   5.675 -0.0705 -0.3499  0.2171
  102OSM   H18S10264  -0.500   4.280   5.772  2.7778  0.1234  1.3358
  102OSM   H18T10265  -0.525   4.278   5.593  0.2409  2.0232  0.8815
  102OSM   H18U10266  -0.360   4.292   5.661 -0.5000  0.0627 -1.6496
  102OSM    C1F10267  -0.014   4.203   7.139  0.3141  0.3128 -0.2805
  102OSM     OF10268   0.085   4.226   7.205 -0.1985 -0.0078 -0.4494
  102OSM    C2F10269  -0.087   4.303   7.073 -0.0437  0.5093  0.0796
  102OSM    H2F10270  -0.171   4.345   7.132  1.5342  3.3194  0.4886
  102OSM    H2G10271  -0.139   4.250   6.989 -0.7115  0.0359  0.7806
  102OSM    C3F10272  -0.003   4.423   7.025 -0.3072  0.4301  0.1017
  102OSM    H3F10273   0.081   4.391   6.960 -0.5842  0.6988 -0.3949
  102OSM    H3G10274   0.034   4.474   7.117  0.6137 -1.0709  0.5948
  102OSM    C4F10275  -0.075   4.532   6.947  0.5941 -0.1292  0.0556
  102OSM    H4F10276  -0.010   4.621   6.936  0.1976  0.2935  1.0083
  102OSM    H4G10277  -0.165   4.565   7.004 -0.2250 -0.6889 -0.8795
  102OSM    C5F10278  -0.129   4.486   6.807  0.2991 -0.9064  0.6923
  102OSM    H5F10279  -0.209   4.553   6.769  1.4812  0.5989  0.7502
  102OSM    H5G10280  -0.173   4.384   6.808  0.9883 -1.2157  0.4610
  102OSM    C6F10281  -0.013   4.478   6.697  0.6953 -0.4670 -0.1182
  102OSM    H6F10282  -0.063   4.427   6.612  1.5242  1.0579 -1.5925
  102OSM    H6G10283   0.061   4.408   6.741  0.0247 -1.0322  0.1262
  102OSM    C7F10284   0.062   4.601   6.650  0.8089  0.1902  0.2877
  102OSM    H7F10285   0.158   4.615   6.705  1.6519  1.3268 -1.3927
  102OSM    H7G10286  -0.007   4.688   6.663  0.1912 -0.0262 -1.3385
  102OSM    C8F10287   0.084   4.597   6.501 -0.5940  0.0841  0.0959
  102OSM    H8F10288   0.123   4.692   6.457  2.4048 -1.2706 -0.4100
  102OSM    H8G10289  -0.020   4.586   6.462 -0.4164 -1.3954 -0.0000
  102OSM    C9F10290   0.178   4.487   6.456  0.5321 -0.6816 -0.4689
  102OSM    H9F10291   0.207   4.414   6.533 -0.1622 -0.4864 -0.0170
  102OSM   C10F10292   0.236   4.478   6.334  0.1030  0.0691 -0.4911
  102OSM   H10F10293   0.315   4.402   6.321 -1.3342 -1.7095  0.5396
  102OSM   C11F10294   0.217   4.565   6.207  0.3364  0.6156 -0.3956
  102OSM   H11F10295   0.189   4.667   6.240  0.4915  0.4446  0.2736
  102OSM   H11G10296   0.131   4.535   6.144  0.4492  1.6993 -1.1048
  102OSM   C12F10297   0.334   4.563   6.111  0.5519 -0.4401 -0.7439
  102OSM   H12F10298   0.415   4.616   6.166 -0.1804  1.1214 -1.1081
  102OSM   H12G10299   0.308   4.633   6.029 -1.3889  3.4541  2.8095
  102OSM   C13F10300   0.376   4.432   6.067  0.0820  0.2810 -0.0467
  102OSM   H13F10301   0.295   4.386   6.006  0.1375  0.0237  0.0725
  102OSM   H13G10302   0.397   4.356   6.145 -1.1577 -0.8973 -0.8101
  102OSM   C14F10303   0.506   4.444   5.979  0.1921  0.2770  0.2335
  102OSM   H14F10304   0.593   4.490   6.030 -0.0852  1.5345 -0.4042
  102OSM   H14G10305   0.487   4.505   5.888  3.7587 -0.5168 -1.2155
  102OSM   C15F10306   0.539   4.303   5.924 -0.4582 -0.0563 -0.5841
  102OSM   H15F10307   0.449   4.243   5.898 -1.2927  0.8083  0.1876
  102OSM   H15G10308   0.600   4.255   6.003 -0.8257  2.2884  1.2438
  102OSM   C16F10309   0.625   4.317   5.800 -0.1407  0.2344  0.0163
  102OSM   H16F10310   0.570   4.369   5.718  0.7223 -1.2269 -1.5445
  102OSM   H16G10311   0.645   4.210   5.780 -0.7561  0.3226 -1.1381
  102OSM   C17F10312   0.758   4.378   5.824  0.1293 -0.0052 -0.2764
  102OSM   H17F10313   0.793   4.371   5.929  0.7265  1.9166 -0.3104
  102OSM   H17G10314   0.750   4.485   5.799  2.0053  0.2613  0.0997
  102OSM   C18F10315   0.864   4.321   5.729  0.4001 -0.8553 -0.3695
  102OSM   H18F10316   0.838   4.319   5.621 -2.3911 -0.1713  0.2179
  102OSM   H18G10317   0.883   4.215   5.756 -0.7367 -0.6074  1.5576
  102OSM   H18H10318   0.960   4.377   5.733  1.7006 -2.8901 -1.2937
  103OSM      N10319   4.091   5.492   7.375 -0.5272  1.4747  0.3589
  103OSM    C1510320   4.197   5.410   7.447 -0.4599  0.2424  0.2791
  103OSM   H15A10321   4.245   5.342   7.377 -1.8145 -1.0869  0.5977
  103OSM   H15B10322   4.152   5.347   7.522 -0.4465  2.5545  2.3381
  103OSM   H15C10323   4.265   5.472   7.503 -0.1319  1.9548 -1.8597
  103OSM    C1410324   3.993   5.395   7.315 -0.0489 -0.3374  0.1414
  103OSM   H14A10325   4.044   5.322   7.255 -0.4911  0.1534 -0.8453
  103OSM   H14B10326   3.938   5.442   7.234  1.9494 -1.4185 -1.9395
  103OSM   H14C10327   3.930   5.343   7.386  0.6487  2.1983  2.8360
  103OSM    C1310328   4.020   5.587   7.463  0.6493 -0.3522  0.0049
  103OSM   H13A10329   3.925   5.612   7.417 -0.7628 -1.5296  2.0985
  103OSM   H13B10330   4.076   5.676   7.487 -1.5924  1.2874 -0.4481
  103OSM   H13C10331   3.990   5.548   7.559 -2.4048  0.6992 -0.3929
  103OSM    C1210332   4.159   5.574   7.263  0.2990  0.6938  0.3019
  103OSM   H12A10333   4.093   5.617   7.189 -0.9003 -1.2468  0.1537
  103OSM   H12B10334   4.209   5.498   7.203 -1.3716 -0.3002  0.1043
  103OSM    C1110335   4.266   5.680   7.306  0.1296 -0.6613 -0.0791
  103OSM   H11A10336   4.314   5.699   7.208  0.8198 -0.4610  0.2915
  103OSM   H11B10337   4.345   5.624   7.362 -1.3550 -1.2123  1.5519
  103OSM      P10338   4.321   5.915   7.404 -0.1876 -0.0491  0.0120
  103OSM    O1310339   4.238   6.030   7.439 -0.0799  0.0646 -0.2075
  103OSM    O1410340   4.418   5.863   7.507  0.6152 -0.0280  0.7883
  103OSM    O1110341   4.396   5.933   7.269 -0.6622 -0.3753  0.1453
  103OSM    O1210342   4.223   5.802   7.368  0.4792  0.2702 -0.0588
  103OSM    C1S10343   4.325   5.961   7.152 -0.0605  0.5854 -0.5600
  103OSM    H1S10344   4.270   6.057   7.156 -0.0968  0.5231  1.4001
  103OSM    H1T10345   4.252   5.880   7.129  1.6060 -1.2163  0.1881
  103OSM     NF10346   4.348   6.009   6.908  0.0141  0.2857 -0.7459
  103OSM    HNF10347   4.352   5.944   6.832  0.4608 -1.0014  0.3473
  103OSM    C2S10348   4.420   5.974   7.029  0.0256  0.0889  0.0035
  103OSM    H2S10349   4.477   6.067   7.051 -4.2007  2.2957  2.9200
  103OSM    C3S10350   4.510   5.850   7.013  0.1937  1.1038  0.3157
  103OSM    H3S10351   4.446   5.771   6.969 -0.5823  0.3565  2.6107
  103OSM     O310352   4.563   5.792   7.134 -0.2378 -0.7147  0.4352
  103OSM    HO310353   4.516   5.841   7.202 -2.1859 -2.2467  0.2694
  103OSM    C4S10354   4.610   5.869   6.908  0.2621 -0.3399 -0.7208
  103OSM    H4S10355   4.565   5.845   6.810 -1.9253 -1.0602  0.3940
  103OSM    C5S10356   4.733   5.907   6.919 -0.4988 -0.2522  0.4093
  103OSM    H5S10357   4.768   5.925   7.021 -0.0824  0.5952  0.1258
  103OSM    C6S10358   4.824   5.945   6.801  0.1182  0.2240 -0.4818
  103OSM    H6S10359   4.861   6.050   6.804  0.5013  0.1870 -2.4289
  103OSM    H6T10360   4.767   5.940   6.706  0.5313  4.5595 -1.1926
  103OSM    C7S10361   4.947   5.856   6.789 -1.1332 -0.3562  0.1982
  103OSM    H7S10362   4.912   5.750   6.790 -0.0734 -0.7223  1.9465
  103OSM    H7T10363   5.007   5.874   6.881 -0.0404  0.3240 -0.6313
  103OSM    C8S10364   5.029   5.878   6.662 -0.1758 -0.1662  0.0140
  103OSM    H8S10365   4.973   5.839   6.575 -2.0172 -2.1070  1.9612
  103OSM    H8T10366   5.126   5.824   6.669  1.0402  2.0499  1.8573
  103OSM    C9S10367   5.081   6.023   6.647 -0.1937  0.6653 -0.4345
  103OSM    H9S10368   5.119   6.059   6.745  0.2708 -1.7989  0.3600
  103OSM    H9T10369   4.989   6.080   6.621  0.6601  2.2778 -0.0588
  103OSM   C10S10370   5.187   6.035   6.538 -0.0100  0.2110  0.1014
  103OSM   H10S10371   5.148   5.986   6.446  1.5379  0.6480 -0.8291
  103OSM   H10T10372   5.283   5.987   6.566 -0.0487 -0.1409 -0.3607
  103OSM   C11S10373   5.218   6.177   6.504 -0.2111 -0.4057  0.4762
  103OSM   H11S10374   5.325   6.201   6.484 -0.1229 -0.4871  0.8390
  103OSM   H11T10375   5.196   6.247   6.588 -1.6513 -0.7457  0.4125
  103OSM   C12S10376   5.131   6.240   6.397 -0.0960 -0.3721 -0.2331
  103OSM   H12S10377   5.124   6.348   6.422 -0.4782 -0.1849 -1.1343
  103OSM   H12T10378   5.031   6.192   6.400 -0.2762 -0.0318 -0.6865
  103OSM   C13S10379   5.174   6.233   6.250 -0.8193  0.3727  0.5608
  103OSM   H13S10380   5.079   6.256   6.197 -1.9476 -2.8890  0.9591
  103OSM   H13T10381   5.199   6.131   6.216  0.4381  1.0080 -0.5437
  103OSM   C14S10382   5.283   6.341   6.214  0.1943 -0.2011 -0.7052
  103OSM   H14S10383   5.379   6.320   6.266  1.1878  3.0542 -1.0141
  103OSM   H14T10384   5.244   6.436   6.254  0.6121 -0.6610  0.8619
  103OSM   C15S10385   5.317   6.351   6.065 -0.3054 -0.2574  0.2410
  103OSM   H15S10386   5.227   6.361   6.002  0.7066 -1.0011 -1.3786
  103OSM   H15T10387   5.358   6.252   6.034 -1.0863 -0.8367  0.9825
  103OSM   C16S10388   5.429   6.450   6.027  0.0797 -0.2031 -0.2842
  103OSM   H16S10389   5.528   6.415   6.064  0.4302  0.1887 -0.8443
  103OSM   H16T10390   5.404   6.543   6.081  2.3317  1.1445 -1.4313
  103OSM   C17S10391   5.439   6.474   5.872  0.0862  0.4808  0.0391
  103OSM   H17S10392   5.494   6.569   5.857 -0.2160  1.4977  4.1079
  103OSM   H17T10393   5.341   6.493   5.823  2.3539  3.1183 -3.9912
  103OSM   C18S10394   5.496   6.356   5.794 -0.3193  0.3913  0.9250
  103OSM   H18S10395   5.599   6.342   5.833  0.3744 -1.0317 -1.2408
  103OSM   H18T10396   5.498   6.381   5.686 -1.4778  0.0222  0.8035
  103OSM   H18U10397   5.434   6.265   5.804  1.2081 -0.8477 -0.3503
  103OSM    C1F10398   4.267   6.110   6.883 -0.2631  0.3776 -0.8622
  103OSM     OF10399   4.256   6.193   6.965 -0.4469 -0.2459 -0.7852
  103OSM    C2F10400   4.207   6.121   6.748  0.0864  0.2677  0.0275
  103OSM    H2F10401   4.116   6.059   6.757  1.1648 -1.5183 -0.9093
  103OSM    H2G10402   4.273   6.067   6.678 -0.1868 -1.8776  1.3530
  103OSM    C3F10403   4.160   6.265   6.714 -0.2765  0.6201 -0.0868
  103OSM    H3F10404   4.249   6.331   6.725  0.6091 -0.7250  1.2571
  103OSM    H3G10405   4.090   6.291   6.797 -0.9159  0.9766 -0.7321
  103OSM    C4F10406   4.088   6.261   6.580  1.0191  0.2844  0.2718
  103OSM    H4F10407   4.018   6.343   6.558 -1.4168 -2.0574 -1.3311
  103OSM    H4G10408   4.025   6.170   6.568  0.4220  0.7499 -0.1074
  103OSM    C5F10409   4.185   6.243   6.460 -0.7527 -0.2376 -0.7272
  103OSM    H5F10410   4.234   6.144   6.465 -0.3083  0.0347  1.9075
  103OSM    H5G10411   4.263   6.322   6.469  0.3101 -1.2975 -0.4173
  103OSM    C6F10412   4.093   6.259   6.332 -0.3260 -0.3905 -0.1299
  103OSM    H6F10413   4.028   6.346   6.355 -0.7009 -1.0020  1.1935
  103OSM    H6G10414   4.035   6.166   6.313  0.3829 -0.6702 -1.0354
  103OSM    C7F10415   4.171   6.289   6.202  0.1157  0.0807  0.3213
  103OSM    H7F10416   4.226   6.199   6.167  0.5964  0.9685 -1.3351
  103OSM    H7G10417   4.245   6.364   6.236  2.7089 -1.4223 -1.6172
  103OSM    C8F10418   4.075   6.337   6.088  0.1943  0.1790 -0.2321
  103OSM    H8F10419   4.018   6.424   6.127 -1.6779 -0.1962 -1.9412
  103OSM    H8G10420   3.997   6.259   6.073  0.1464  0.3029 -0.6122
  103OSM    C9F10421   4.151   6.376   5.966 -0.4615 -0.3685  0.6576
  103OSM    H9F10422   4.224   6.458   5.971  0.6640 -1.4313  3.4476
  103OSM   C10F10423   4.140   6.304   5.851  0.0078  0.2338  0.4485
  103OSM   H10F10424   4.218   6.311   5.773  0.9666 -2.4010  1.0835
  103OSM   C11F10425   4.045   6.193   5.822 -1.0784  0.0755 -0.0407
  103OSM   H11F10426   3.948   6.231   5.860 -1.0310  1.2087 -0.9710
  103OSM   H11G10427   4.063   6.095   5.871 -0.7031 -0.5409 -1.3583
  103OSM   C12F10428   4.025   6.154   5.682 -0.3141 -0.5792  0.3809
  103OSM   H12F10429   3.999   6.243   5.621  1.8468 -1.5898 -2.2355
  103OSM   H12G10430   3.939   6.086   5.665 -0.0876 -0.2334 -2.6742
  103OSM   C13F10431   4.154   6.100   5.614  0.0112 -0.1932 -0.6498
  103OSM   H13F10432   4.202   6.016   5.668  1.3120  1.3657  0.7215
  103OSM   H13G10433   4.224   6.186   5.608  0.1705 -0.3250 -0.6861
  103OSM   C14F10434   4.108   6.062   5.467 -0.2108 -0.3469  0.5773
  103OSM   H14F10435   4.029   5.986   5.480  0.2699 -0.4528  3.6256
  103OSM   H14G10436   4.197   6.013   5.421  1.9103  2.4169  1.4307
  103OSM   C15F10437   4.059   6.186   5.378 -0.2014 -0.4745  0.5783
  103OSM   H15F10438   4.110   6.280   5.408  3.8174 -1.5699 -2.0704
  103OSM   H15G10439   3.951   6.207   5.393  0.2111  3.1643 -0.6133
  103OSM   C16F10440   4.092   6.170   5.239  0.1195 -0.1921 -0.5461
  103OSM   H16F10441   4.029   6.238   5.177  0.1869  0.6189  0.2499
  103OSM   H16G10442   4.077   6.064   5.210 -3.2563 -1.2360  3.9349
  103OSM   C17F10443   4.236   6.200   5.206  0.1167 -0.4185  0.2115
  103OSM   H17F10444   4.299   6.123   5.256  0.6374 -0.6440 -0.7475
  103OSM   H17G10445   4.272   6.296   5.249 -0.4371  0.4148 -1.1235
  103OSM   C18F10446   4.273   6.200   5.058  0.2890 -0.1705  0.1500
  103OSM   H18F10447   4.235   6.281   4.993  2.7156  0.1254 -0.9978
  103OSM   H18G10448   4.238   6.107   5.007 -1.2045 -0.1331  1.0477
  103OSM   H18H10449   4.383   6.216   5.053  0.1198  0.7071 -1.3643
  104OSM      N10450   4.957   6.196   7.568 -0.2917 -1.1722  0.5303
  104OSM    C1510451   4.917   6.060   7.525  0.3510 -0.0915  0.0060
  104OSM   H15A10452   4.988   6.026   7.451  0.9977 -0.7106  0.8936
  104OSM   H15B10453   4.827   6.062   7.466  0.0758 -0.2927  0.4140
  104OSM   H15C10454   4.902   5.987   7.603  0.6828  0.2072  0.3551
  104OSM    C1410455   4.852   6.243   7.659 -0.2054 -0.3718 -0.7456
  104OSM   H14A10456   4.810   6.164   7.721 -0.9562  0.1978 -0.5120
  104OSM   H14B10457   4.764   6.285   7.613 -0.6170  0.4681  0.7378
  104OSM   H14C10458   4.900   6.314   7.725  0.5787 -0.3949 -1.2859
  104OSM    C1310459   5.085   6.201   7.647  0.1540 -0.1204  0.4881
  104OSM   H13A10460   5.170   6.156   7.597 -0.7179 -2.4594  0.9488
  104OSM   H13B10461   5.084   6.171   7.750 -0.1268 -1.0132  0.2403
  104OSM   H13C10462   5.106   6.306   7.655 -2.6160  0.5292  0.0584
  104OSM    C1210463   4.960   6.300   7.449 -0.2564  0.4564 -0.6840
  104OSM   H12A10464   4.957   6.401   7.487 -0.3522  0.4401 -0.6456
  104OSM   H12B10465   4.868   6.305   7.393 -0.1152  0.5667 -0.9059
  104OSM    C1110466   5.081   6.270   7.358  0.3525 -0.2714  0.5114
  104OSM   H11A10467   5.177   6.286   7.412  0.0635  0.9431  0.6968
  104OSM   H11B10468   5.077   6.352   7.282  0.6955 -0.8723 -0.1683
  104OSM      P10469   5.017   6.135   7.147 -0.2141 -0.1944 -0.5522
  104OSM    O1310470   5.057   6.001   7.091  0.4595 -0.4088  0.2180
  104OSM    O1410471   4.870   6.163   7.151  0.3415  0.1815 -0.4921
  104OSM    O1110472   5.079   6.250   7.063 -0.1819  0.0406  0.1359
  104OSM    O1210473   5.076   6.141   7.293  0.2934  0.4622  0.2498
  104OSM    C1S10474   5.223   6.263   7.064  0.3411  0.4657  0.1026
  104OSM    H1S10475   5.271   6.165   7.042  1.4610  1.3763 -1.7912
  104OSM    H1T10476   5.265   6.306   7.157 -0.4424  1.6250 -0.0535
  104OSM     NF10477   5.419   6.323   6.902  0.5528 -0.1125  0.0764
  104OSM    HNF10478   5.485   6.397   6.887  0.2252  0.1621 -0.0312
  104OSM    C2S10479   5.278   6.342   6.938  0.3977 -0.4690 -0.0625
  104OSM    H2S10480   5.225   6.291   6.855 -2.0421  1.4443  0.2228
  104OSM    C3S10481   5.225   6.485   6.928 -0.6430 -0.0472 -0.0171
  104OSM    H3S10482   5.254   6.549   7.014  0.5109  1.5633 -1.5475
  104OSM     O310483   5.085   6.486   6.924 -0.4584  0.0522 -0.4077
  104OSM    HO310484   5.070   6.393   6.938 -2.8741  0.2868 -0.9590
  104OSM    C4S10485   5.280   6.554   6.802 -0.5619  0.1594  0.1228
  104OSM    H4S10486   5.364   6.623   6.816  2.3782 -3.2085  0.5869
  104OSM    C5S10487   5.248   6.522   6.674  0.2234 -0.6588 -0.5702
  104OSM    H5S10488   5.170   6.447   6.656  0.3453 -1.1383  0.8218
  104OSM    C6S10489   5.325   6.573   6.556  0.3642 -0.8531  0.7123
  104OSM    H6S10490   5.275   6.662   6.512 -0.9881 -2.0466 -0.2375
  104OSM    H6T10491   5.329   6.499   6.474 -0.1571 -1.3522  1.1302
  104OSM    C7S10492   5.472   6.621   6.579  0.0812  0.4505 -0.9549
  104OSM    H7S10493   5.529   6.550   6.643 -0.4731 -0.6436 -1.6456
  104OSM    H7T10494   5.455   6.715   6.637 -0.9133 -0.5706  0.4990
  104OSM    C8S10495   5.562   6.655   6.459  0.0870  0.1195  0.8387
  104OSM    H8S10496   5.596   6.554   6.426 -1.6536  0.1412 -1.1519
  104OSM    H8T10497   5.654   6.707   6.493  0.2218 -0.0826  0.7875
  104OSM    C9S10498   5.487   6.739   6.356  0.7074  0.1262  0.5069
  104OSM    H9S10499   5.459   6.835   6.405  2.2093  0.2923  1.0902
  104OSM    H9T10500   5.392   6.687   6.328  1.2885 -1.6390  1.6606
  104OSM   C10S10501   5.573   6.778   6.236  0.5760  0.3884 -0.0406
  104OSM   H10S10502   5.608   6.689   6.179  0.2368  0.4541 -0.3590
  104OSM   H10T10503   5.659   6.828   6.285  0.9170 -0.0180 -0.2149
  104OSM   C11S10504   5.485   6.869   6.146  0.7388 -0.2481  0.1904
  104OSM   H11S10505   5.440   6.949   6.209  1.3340 -0.9717  1.5903
  104OSM   H11T10506   5.396   6.812   6.113  0.1307  0.7363  0.1081
  104OSM   C12S10507   5.551   6.915   6.016 -0.6731 -0.1168 -0.0532
  104OSM   H12S10508   5.608   6.827   5.982 -2.7395 -1.5514  0.0375
  104OSM   H12T10509   5.616   7.002   6.040 -2.1383  0.1139  3.9448
  104OSM   C13S10510   5.455   6.940   5.903 -0.1281  0.1138 -0.0091
  104OSM   H13S10511   5.364   6.977   5.954 -0.1788  1.3118 -0.9305
  104OSM   H13T10512   5.417   6.842   5.866 -0.6796  0.4393 -0.3187
  104OSM   C14S10513   5.505   7.016   5.775  0.1315  0.0283 -0.0588
  104OSM   H14S10514   5.597   6.964   5.741 -1.0500 -2.0933 -0.1873
  104OSM   H14T10515   5.541   7.119   5.796  0.5406 -0.5422  2.4845
  104OSM   C15S10516   5.420   7.015   5.648  0.0449 -0.4944  0.4197
  104OSM   H15S10517   5.427   6.907   5.622 -0.8919 -0.8036  1.3907
  104OSM   H15T10518   5.465   7.066   5.561  3.0675  0.1455  2.2202
  104OSM   C16S10519   5.272   7.043   5.666  0.1087 -0.7108  0.1386
  104OSM   H16S10520   5.261   7.101   5.760  2.0334 -1.5737  0.9561
  104OSM   H16T10521   5.221   6.944   5.668  0.1627 -0.7616 -0.6710
  104OSM   C17S10522   5.207   7.125   5.549  0.3548  0.0965  0.0200
  104OSM   H17S10523   5.250   7.076   5.459  2.1685  0.6806  0.5247
  104OSM   H17T10524   5.225   7.234   5.536 -1.6011  0.3197 -1.2619
  104OSM   C18S10525   5.058   7.115   5.556 -0.3207 -0.2190  0.2546
  104OSM   H18S10526   5.034   7.021   5.500 -0.0461  0.2216 -0.6305
  104OSM   H18T10527   5.006   7.191   5.494 -1.4348 -0.4833  0.8390
  104OSM   H18U10528   5.021   7.126   5.660  0.3679  2.8959  0.2600
  104OSM    C1F10529   5.475   6.205   6.877  0.1009 -0.3478 -0.4879
  104OSM     OF10530   5.404   6.105   6.863  0.3896  0.2959 -0.4571
  104OSM    C2F10531   5.626   6.209   6.841 -0.6143 -0.0193  0.2902
  104OSM    H2F10532   5.683   6.237   6.932 -0.9428 -0.0314  0.5027
  104OSM    H2G10533   5.649   6.296   6.776  1.0687  0.6302  1.6871
  104OSM    C3F10534   5.672   6.089   6.772  0.9043  0.9076 -0.1878
  104OSM    H3F10535   5.675   6.000   6.838 -1.5190  2.6109  2.4231
  104OSM    H3G10536   5.779   6.106   6.750  1.8248 -2.5741  0.9381
  104OSM    C4F10537   5.605   6.060   6.637 -0.1206 -0.3100  0.1951
  104OSM    H4F10538   5.494   6.055   6.640 -0.2813  0.7553 -1.8803
  104OSM    H4G10539   5.635   5.958   6.603  3.6267  0.5767  0.4545
  104OSM    C5F10540   5.650   6.156   6.524 -0.4807 -0.1554 -0.7557
  104OSM    H5F10541   5.761   6.155   6.516 -0.5584 -0.6623 -1.9848
  104OSM    H5G10542   5.613   6.259   6.543 -4.3208 -1.6789  0.9615
  104OSM    C6F10543   5.614   6.105   6.388  0.6529  0.1417  0.1638
  104OSM    H6F10544   5.504   6.088   6.387  0.7059 -0.5314 -2.6769
  104OSM    H6G10545   5.659   6.003   6.380  0.2175 -0.0275 -0.1620
  104OSM    C7F10546   5.642   6.199   6.280 -0.3436 -0.1491 -0.7078
  104OSM    H7F10547   5.752   6.215   6.280 -0.2609 -0.2924  2.1239
  104OSM    H7G10548   5.592   6.296   6.301  0.2024  0.0223 -0.1761
  104OSM    C8F10549   5.602   6.154   6.141 -0.2329  0.1123  0.9649
  104OSM    H8F10550   5.616   6.236   6.068 -2.1432 -0.2739  0.1011
  104OSM    H8G10551   5.497   6.119   6.135  0.7315 -2.8895 -0.3975
  104OSM    C9F10552   5.677   6.033   6.087  0.4475 -0.3539 -0.7551
  104OSM    H9F10553   5.721   5.972   6.167 -2.2030 -0.8097  0.4807
  104OSM   C10F10554   5.700   5.985   5.965 -0.0107 -0.5772 -0.5574
  104OSM   H10F10555   5.766   5.898   5.956  0.7136 -0.0792 -0.1555
  104OSM   C11F10556   5.672   6.056   5.839  0.1175  0.6645 -0.1660
  104OSM   H11F10557   5.660   6.166   5.848 -0.1802  0.6490 -0.3624
  104OSM   H11G10558   5.578   6.017   5.794  1.0653 -0.3370 -1.3771
  104OSM   C12F10559   5.789   6.038   5.734 -0.2031  0.4981  0.5797
  104OSM   H12F10560   5.799   5.929   5.716  1.0455  0.5070  1.1436
  104OSM   H12G10561   5.886   6.081   5.767  0.0450  1.3314 -1.0864
  104OSM   C13F10562   5.744   6.102   5.609  0.8058  0.1923 -0.4198
  104OSM   H13F10563   5.721   6.208   5.633 -0.4695 -0.1612  0.0424
  104OSM   H13G10564   5.651   6.046   5.583  1.5871 -1.4648  0.2187
  104OSM   C14F10565   5.847   6.094   5.500 -0.3025  0.1374  0.5688
  104OSM   H14F10566   5.926   6.018   5.518  1.3044  1.4536 -0.5331
  104OSM   H14G10567   5.904   6.190   5.504 -2.0594  1.2775 -0.3622
  104OSM   C15F10568   5.787   6.061   5.366  0.4661 -0.8365  0.6265
  104OSM   H15F10569   5.712   6.140   5.343  1.2750  0.8497  3.2934
  104OSM   H15G10570   5.724   5.970   5.377 -0.9980  0.0600  0.0304
  104OSM   C16F10571   5.890   6.054   5.246 -0.2667 -0.2425  0.0442
  104OSM   H16F10572   5.921   6.160   5.241 -4.4475  1.2088  0.7821
  104OSM   H16G10573   5.839   6.029   5.150  0.2689 -0.7155 -0.1216
  104OSM   C17F10574   6.014   5.960   5.271  0.8102  0.0141 -0.1615
  104OSM   H17F10575   6.083   5.996   5.351 -0.3218  0.3168  0.7128
  104OSM   H17G10576   6.068   5.957   5.174 -2.4468 -1.3222 -2.1034
  104OSM   C18F10577   5.974   5.810   5.304 -0.2474  0.2770  0.7337
  104OSM   H18F10578   5.900   5.827   5.384  2.6264  2.0538  3.2636
  104OSM   H18G10579   6.066   5.762   5.345 -0.6104 -0.5429  0.5900
  104OSM   H18H10580   5.938   5.760   5.212  2.3657  0.4206 -0.4606
  105OSM      N10581   6.044   0.422   7.641 -0.4327  0.8290  0.4790
  105OSM    C1510582   6.017   0.432   7.780  0.2398 -0.3557 -0.1661
  105OSM   H15A10583   6.108   0.447   7.837  0.1623  0.1734 -0.1736
  105OSM   H15B10584   5.953   0.350   7.808 -1.0140 -0.3412 -2.7395
  105OSM   H15C10585   5.962   0.524   7.791  0.9178  0.1433 -0.8196
  105OSM    C1410586   6.147   0.532   7.607 -0.1930  0.5261 -0.4800
  105OSM   H14A10587   6.238   0.530   7.665  0.2635 -3.2380 -1.0650
  105OSM   H14B10588   6.095   0.626   7.612 -0.6224  0.2957 -0.5801
  105OSM   H14C10589   6.181   0.515   7.506 -0.0252  1.6933 -0.6308
  105OSM    C1310590   6.109   0.289   7.603 -0.6445  0.6954 -0.4555
  105OSM   H13A10591   6.115   0.296   7.495 -1.0135  0.6704 -0.4797
  105OSM   H13B10592   6.047   0.203   7.623  0.8102  0.0384  1.5753
  105OSM   H13C10593   6.202   0.278   7.656  0.7725 -2.7502 -3.2698
  105OSM    C1210594   5.915   0.436   7.557 -0.1277 -0.1291  0.2058
  105OSM   H12A10595   5.860   0.523   7.589  0.0464 -0.3115  1.0289
  105OSM   H12B10596   5.844   0.356   7.572 -1.0782  0.6021 -0.3007
  105OSM    C1110597   5.939   0.450   7.405  0.1359 -0.4990  0.7188
  105OSM   H11A10598   6.022   0.521   7.383 -0.3324 -0.5813 -1.5235
  105OSM   H11B10599   5.857   0.501   7.352 -0.2783 -1.0336  0.8379
  105OSM      P10600   5.864   0.232   7.276 -0.4118  0.2292 -0.0033
  105OSM    O1310601   5.866   0.097   7.332  0.0285 -0.5800 -0.5555
  105OSM    O1410602   5.735   0.302   7.272  0.7700 -0.5761  0.1137
  105OSM    O1110603   5.931   0.222   7.130 -0.0286  0.4270  0.3835
  105OSM    O1210604   5.973   0.320   7.349  0.0983  0.4597  0.0914
  105OSM    C1S10605   6.068   0.190   7.118  0.5416  0.6381  0.2236
  105OSM    H1S10606   6.097   0.122   7.201 -2.5485 -1.0673  0.0695
  105OSM    H1T10607   6.135   0.276   7.137  0.3358  1.3467 -1.9183
  105OSM     NF10608   6.234   0.070   6.974 -0.2223  0.0259 -0.7135
  105OSM    HNF10609   6.297   0.130   6.926 -2.6366  1.3471 -2.4999
  105OSM    C2S10610   6.096   0.132   6.976 -0.6233  0.5571  1.1977
  105OSM    H2S10611   6.028   0.046   6.959 -1.0933  0.6749  2.3830
  105OSM    C3S10612   6.074   0.242   6.875  0.5627 -0.0557 -0.4482
  105OSM    H3S10613   6.142   0.325   6.903  0.0096  1.1363 -2.5048
  105OSM     O310614   5.941   0.296   6.876  0.4843 -0.3023 -0.7127
  105OSM    HO310615   5.902   0.263   6.957  1.6552  2.2694  1.0158
  105OSM    C4S10616   6.120   0.187   6.739  0.5992  0.3559 -0.1825
  105OSM    H4S10617   6.229   0.180   6.724  0.5889 -0.8696  0.1806
  105OSM    C5S10618   6.046   0.157   6.630  0.4082  0.4430 -0.4420
  105OSM    H5S10619   5.939   0.182   6.636  0.2581 -0.2824  0.1071
  105OSM    C6S10620   6.100   0.131   6.487 -0.4553  0.3204  0.1533
  105OSM    H6S10621   6.083   0.022   6.471  1.2842 -0.1509  1.1957
  105OSM    H6T10622   6.205   0.154   6.459  0.1960 -1.6403  0.8012
  105OSM    C7S10623   6.011   0.205   6.394 -0.5267 -0.0257 -0.1967
  105OSM    H7S10624   6.024   0.314   6.411 -0.9621 -0.1762  1.2731
  105OSM    H7T10625   5.901   0.187   6.395 -0.3079 -1.5094 -0.6533
  105OSM    C8S10626   6.037   0.165   6.247 -0.2274  0.6474 -0.8690
  105OSM    H8S10627   6.012   0.058   6.231  1.3798  0.1283 -0.1454
  105OSM    H8T10628   6.145   0.178   6.223  0.7022 -3.3345  0.2326
  105OSM    C9S10629   5.961   0.250   6.144 -0.0731  0.6267  0.3863
  105OSM    H9S10630   5.979   0.357   6.167  0.5859  0.3757  1.1020
  105OSM    H9T10631   5.853   0.235   6.164  0.1726 -1.5494  0.3524
  105OSM   C10S10632   5.988   0.208   6.001  0.2343 -0.0619  1.0139
  105OSM   H10S10633   5.927   0.118   5.978  0.9204  0.2531 -2.5999
  105OSM   H10T10634   6.095   0.179   5.989  0.0911 -0.3610  0.4283
  105OSM   C11S10635   5.940   0.314   5.894  0.4906 -0.0073  0.3707
  105OSM   H11S10636   6.010   0.400   5.885 -0.7219  1.3763  2.8805
  105OSM   H11T10637   5.837   0.353   5.906  1.1750  2.5046 -1.1184
  105OSM   C12S10638   5.921   0.240   5.755 -0.5597 -0.1011  0.0503
  105OSM   H12S10639   5.839   0.167   5.770 -0.2117 -0.1724  1.9249
  105OSM   H12T10640   6.015   0.182   5.739  0.4836  1.4194  0.4670
  105OSM   C13S10641   5.910   0.344   5.647 -0.0255  0.7857 -0.2808
  105OSM   H13S10642   5.924   0.286   5.554  0.5398  0.1656  0.1745
  105OSM   H13T10643   5.988   0.423   5.647 -0.7105  1.4716 -0.7467
  105OSM   C14S10644   5.771   0.407   5.632  0.4809 -0.2546  0.6329
  105OSM   H14S10645   5.731   0.451   5.725  2.3388  1.6255  0.6007
  105OSM   H14T10646   5.706   0.333   5.580  0.3879  2.0979 -2.9631
  105OSM   C15S10647   5.774   0.524   5.539 -0.1733 -0.1059  0.3080
  105OSM   H15S10648   5.836   0.489   5.454 -0.1102  0.9034 -0.0746
  105OSM   H15T10649   5.838   0.601   5.587  0.7304 -0.6779  0.0434
  105OSM   C16S10650   5.636   0.571   5.490  0.8000  0.4051  0.4295
  105OSM   H16S10651   5.568   0.591   5.575  2.7350 -1.9676  2.6945
  105OSM   H16T10652   5.603   0.475   5.445  0.7436  0.4373  0.4027
  105OSM   C17S10653   5.636   0.683   5.383  0.5385 -0.2741 -0.1487
  105OSM   H17S10654   5.707   0.657   5.301 -0.1892  0.4586 -1.0333
  105OSM   H17T10655   5.671   0.776   5.432 -1.4547 -0.5417  1.9984
  105OSM   C18S10656   5.495   0.716   5.322  0.0998  0.2845  0.5338
  105OSM   H18S10657   5.417   0.738   5.399 -1.6803  4.0548 -2.0045
  105OSM   H18T10658   5.458   0.623   5.274 -0.4730  2.5711 -3.8964
  105OSM   H18U10659   5.501   0.794   5.244  1.7022 -1.3138 -1.0105
  105OSM    C1F10660   6.253  -0.049   7.035  0.2489  0.0392 -0.1410
  105OSM     OF10661   6.170  -0.093   7.119  0.0739 -0.0042  0.0179
  105OSM    C2F10662   6.378  -0.129   7.004  0.4632 -0.0764 -0.2376
  105OSM    H2F10663   6.384  -0.188   7.098 -0.9228 -1.2291 -0.8419
  105OSM    H2G10664   6.464  -0.060   6.993 -1.3589  2.1998 -0.9445
  105OSM    C3F10665   6.377  -0.216   6.880  0.4969  0.2209 -0.4975
  105OSM    H3F10666   6.294  -0.286   6.905  0.4887 -0.3436 -1.9922
  105OSM    H3G10667   6.474  -0.269   6.870 -0.0737 -1.6573  2.5356
  105OSM    C4F10668   6.360  -0.137   6.752  0.0183  1.3207 -0.3975
  105OSM    H4F10669   6.430  -0.052   6.765  2.3496 -0.8423  2.8259
  105OSM    H4G10670   6.263  -0.084   6.745 -0.2962  0.6028 -1.7501
  105OSM    C5F10671   6.391  -0.215   6.633 -0.3865  0.0078 -0.1948
  105OSM    H5F10672   6.324  -0.299   6.608  1.1760 -0.7857 -1.9723
  105OSM    H5G10673   6.494  -0.257   6.641 -0.7448 -1.0952 -1.1089
  105OSM    C6F10674   6.378  -0.139   6.495  0.5043 -0.5535  0.2285
  105OSM    H6F10675   6.429  -0.040   6.495  0.8517 -0.7278 -0.7450
  105OSM    H6G10676   6.270  -0.135   6.470  0.9321  0.3646 -1.5897
  105OSM    C7F10677   6.441  -0.218   6.377 -0.6824  0.6538  0.0421
  105OSM    H7F10678   6.373  -0.301   6.347  0.6519 -0.9843  1.3004
  105OSM    H7G10679   6.528  -0.273   6.420 -1.1985 -0.8501 -0.7533
  105OSM    C8F10680   6.475  -0.128   6.255 -0.5174 -0.6183 -0.5235
  105OSM    H8F10681   6.542  -0.171   6.177  3.9663  3.7144  0.4646
  105OSM    H8G10682   6.541  -0.048   6.295  1.4854 -1.8879 -1.1746
  105OSM    C9F10683   6.353  -0.057   6.197  0.0332 -0.1251  0.2825
  105OSM    H9F10684   6.274  -0.019   6.264 -1.1421 -0.8171 -0.6700
  105OSM   C10F10685   6.341  -0.028   6.069  0.9946  0.4694  0.7633
  105OSM   H10F10686   6.241  -0.001   6.033  0.7836 -0.2983  0.7473
  105OSM   C11F10687   6.440  -0.056   5.961  0.0665  0.4839  0.2690
  105OSM   H11F10688   6.467  -0.160   5.931 -0.4855  0.9973 -2.2077
  105OSM   H11G10689   6.540  -0.013   5.984  0.6870  0.0599 -1.5207
  105OSM   C12F10690   6.392   0.001   5.833  0.5089 -0.6398 -0.0303
  105OSM   H12F10691   6.294  -0.036   5.797  0.5255 -0.6472 -0.0676
  105OSM   H12G10692   6.455  -0.042   5.753  0.7901  0.0898 -0.2145
  105OSM   C13F10693   6.387   0.153   5.838  0.7236  0.1978 -0.1025
  105OSM   H13F10694   6.480   0.199   5.877  0.9845  2.0301 -2.6575
  105OSM   H13G10695   6.304   0.184   5.906  2.3196  1.9028  1.1679
  105OSM   C14F10696   6.369   0.209   5.692  0.0135 -0.2601 -0.2181
  105OSM   H14F10697   6.282   0.153   5.652  0.2625 -0.5787 -0.3214
  105OSM   H14G10698   6.450   0.178   5.623 -1.5553  0.1530 -2.3320
  105OSM   C15F10699   6.343   0.359   5.677  0.0572  0.1042  0.0448
  105OSM   H15F10700   6.438   0.416   5.689 -0.6291  1.1321  0.6106
  105OSM   H15G10701   6.277   0.376   5.764 -1.1505  1.3932 -1.0865
  105OSM   C16F10702   6.274   0.400   5.548 -0.7438  0.3846  0.4789
  105OSM   H16F10703   6.257   0.509   5.557 -0.4627  0.5950 -1.2114
  105OSM   H16G10704   6.183   0.339   5.530 -0.8628  0.6379  0.2195
  105OSM   C17F10705   6.362   0.390   5.418 -0.3496  0.8249 -0.6131
  105OSM   H17F10706   6.459   0.441   5.432 -0.3607  1.1307 -1.6005
  105OSM   H17G10707   6.329   0.450   5.330  2.7842  2.2144 -0.9849
  105OSM   C18F10708   6.388   0.252   5.371 -0.1716  0.1028  0.0671
  105OSM   H18F10709   6.487   0.219   5.410 -0.1602 -1.3102 -1.0716
  105OSM   H18G10710   6.390   0.249   5.260 -1.8943 -2.3887  0.0367
  105OSM   H18H10711   6.311   0.177   5.397 -0.8801 -0.2403 -2.7155
  106OSM      N10712   5.431   3.937   7.590 -0.2661  0.2306  0.8406
  106OSM    C1510713   5.509   4.065   7.587  0.3111  0.4051 -0.1256
  106OSM   H15A10714   5.442   4.147   7.563  0.5513  0.6833  0.1409
  106OSM   H15B10715   5.585   4.056   7.511 -0.9260 -0.0385 -1.3399
  106OSM   H15C10716   5.554   4.099   7.680 -1.4427  4.0992 -0.4115
  106OSM    C1410717   5.525   3.829   7.643  0.5025 -0.0199  0.1423
  106OSM   H14A10718   5.476   3.733   7.653 -0.9067  0.6056 -0.5420
  106OSM   H14B10719   5.558   3.867   7.739 -0.7478  1.8793 -0.1351
  106OSM   H14C10720   5.608   3.812   7.576  0.9378 -0.4960  0.7846
  106OSM    C1310721   5.324   3.949   7.695 -0.8414  0.1617  0.0184
  106OSM   H13A10722   5.262   4.027   7.654 -0.6059  0.1568 -0.3572
  106OSM   H13B10723   5.357   3.984   7.792 -1.1129 -0.3369  0.2955
  106OSM   H13C10724   5.269   3.857   7.708  0.0824 -0.3883  0.1265
  106OSM    C1210725   5.372   3.898   7.458  0.1530  0.2285  0.1585
  106OSM   H12A10726   5.307   3.980   7.430 -0.2488  0.0183  0.4679
  106OSM   H12B10727   5.300   3.819   7.472  1.0901 -1.2240 -2.4247
  106OSM    C1110728   5.474   3.877   7.339  1.1106  0.7756 -0.0019
  106OSM   H11A10729   5.413   3.832   7.257  0.6346  0.2660  0.6182
  106OSM   H11B10730   5.551   3.802   7.367  0.5599  0.7763  1.6281
  106OSM      P10731   5.476   4.105   7.189  0.1801 -0.2577 -0.4998
  106OSM    O1310732   5.357   4.165   7.247  0.8085 -0.4142  0.6326
  106OSM    O1410733   5.589   4.194   7.143 -0.3764  0.3620 -0.6176
  106OSM    O1110734   5.426   4.026   7.061 -0.5232 -0.5694 -0.0198
  106OSM    O1210735   5.540   3.993   7.282 -0.0610 -0.3852 -0.5379
  106OSM    C1S10736   5.386   4.096   6.938 -0.0445 -0.2809 -0.1734
  106OSM    H1S10737   5.424   4.200   6.932 -1.5063  0.3081  0.2202
  106OSM    H1T10738   5.275   4.106   6.933 -0.1254 -1.1321 -0.1953
  106OSM     NF10739   5.424   4.103   6.693  0.0135 -0.2557 -0.3081
  106OSM    HNF10740   5.344   4.096   6.634  0.0735  1.0470 -0.5851
  106OSM    C2S10741   5.428   4.013   6.807 -0.5620 -0.5926 -0.3659
  106OSM    H2S10742   5.531   3.977   6.831 -1.6511 -1.5990  3.3487
  106OSM    C3S10743   5.341   3.886   6.784 -0.3708 -0.0965  0.0414
  106OSM    H3S10744   5.230   3.898   6.784 -0.5875 -1.7139  1.3349
  106OSM     O310745   5.356   3.782   6.886 -0.0012  0.7000  0.1994
  106OSM    HO310746   5.412   3.826   6.951  0.5372  1.4004 -0.7259
  106OSM    C4S10747   5.379   3.838   6.646  0.0257  0.0492 -1.1084
  106OSM    H4S10748   5.304   3.865   6.570  1.2920 -0.1532 -2.4881
  106OSM    C5S10749   5.468   3.750   6.603 -0.3355  0.0017 -0.2690
  106OSM    H5S10750   5.539   3.713   6.678 -0.4828 -0.0076 -0.1338
  106OSM    C6S10751   5.504   3.723   6.458 -0.0887 -0.8972  0.4273
  106OSM    H6S10752   5.488   3.616   6.434  1.7127 -0.9481 -0.8347
  106OSM    H6T10753   5.613   3.740   6.442 -0.2068 -0.5512 -0.0052
  106OSM    C7S10754   5.428   3.804   6.353  0.5417 -0.1243  0.0788
  106OSM    H7S10755   5.453   3.910   6.371 -0.7177  0.4279 -1.2138
  106OSM    H7T10756   5.320   3.801   6.379  1.1475  0.4401  2.9866
  106OSM    C8S10757   5.458   3.769   6.202  0.1904  0.2317 -0.7372
  106OSM    H8S10758   5.443   3.659   6.192  1.0867 -0.1604  1.4417
  106OSM    H8T10759   5.562   3.795   6.173  0.4961 -0.6760 -0.4892
  106OSM    C9S10760   5.351   3.833   6.121 -0.2305  0.6272 -0.3776
  106OSM    H9S10761   5.255   3.815   6.172  0.4765  0.3845  0.9173
  106OSM    H9T10762   5.352   3.779   6.025  0.7788 -0.5861  0.2909
  106OSM   C10S10763   5.385   3.982   6.100  0.8911 -0.6372  0.3990
  106OSM   H10S10764   5.495   3.987   6.080  0.7769 -1.4948 -0.5355
  106OSM   H10T10765   5.373   4.045   6.190  1.4388  0.0702 -0.0062
  106OSM   C11S10766   5.305   4.051   5.989 -0.5013 -0.4113  0.5176
  106OSM   H11S10767   5.366   4.136   5.951  0.9387 -1.0573  1.2935
  106OSM   H11T10768   5.207   4.086   6.029 -0.6880  0.1587 -0.4035
  106OSM   C12S10769   5.272   3.960   5.863 -0.0634  0.4253  1.0999
  106OSM   H12S10770   5.211   4.022   5.794  0.8507  1.0479  0.8377
  106OSM   H12T10771   5.211   3.873   5.895  0.7628 -1.0702 -1.1865
  106OSM   C13S10772   5.398   3.903   5.799  0.1312  0.4707  0.0970
  106OSM   H13S10773   5.450   3.828   5.863  0.1320 -0.6447 -1.1495
  106OSM   H13T10774   5.462   3.994   5.791  1.5264 -0.1440  3.0255
  106OSM   C14S10775   5.370   3.846   5.661 -0.7602 -0.1597  0.4301
  106OSM   H14S10776   5.314   3.913   5.593  0.4683  0.5123  0.0496
  106OSM   H14T10777   5.308   3.754   5.676  0.5841 -1.0990  0.4154
  106OSM   C15S10778   5.503   3.797   5.597  0.0770  0.0315  1.1737
  106OSM   H15S10779   5.546   3.723   5.667  0.3424 -1.1575 -0.2122
  106OSM   H15T10780   5.567   3.888   5.591 -2.1944  1.6006 -1.3248
  106OSM   C16S10781   5.473   3.732   5.456 -0.6813 -0.1638 -0.7004
  106OSM   H16S10782   5.407   3.642   5.463 -0.2410 -0.3857  1.2902
  106OSM   H16T10783   5.569   3.694   5.415  0.0906  0.7945  0.1674
  106OSM   C17S10784   5.404   3.826   5.352 -0.0449  0.1541 -0.1278
  106OSM   H17S10785   5.470   3.916   5.349  2.2191 -1.3544  1.2326
  106OSM   H17T10786   5.306   3.862   5.389  0.6131  1.1271  0.7087
  106OSM   C18S10787   5.387   3.763   5.209 -0.2040 -0.9661 -0.7957
  106OSM   H18S10788   5.489   3.769   5.164 -0.2094  1.1253 -0.6447
  106OSM   H18T10789   5.314   3.825   5.152 -0.7901  0.1411  1.0668
  106OSM   H18U10790   5.340   3.665   5.230  1.6784 -1.4373  1.6938
  106OSM    C1F10791   5.509   4.212   6.680  0.1815  0.1365 -0.2829
  106OSM     OF10792   5.609   4.229   6.748 -0.2785 -0.0751  0.5323
  106OSM    C2F10793   5.467   4.306   6.575  0.4018  0.5571 -0.2952
  106OSM    H2F10794   5.465   4.413   6.604  1.4547  0.3517  0.5862
  106OSM    H2G10795   5.363   4.274   6.549  0.4003 -1.5820  1.9524
  106OSM    C3F10796   5.553   4.282   6.451 -0.0708  0.6084 -0.0129
  106OSM    H3F10797   5.537   4.175   6.424  0.5436 -0.1869  2.5080
  106OSM    H3G10798   5.659   4.311   6.469  1.7788 -1.9771 -4.8624
  106OSM    C4F10799   5.508   4.370   6.325 -0.0073  0.0467  0.6723
  106OSM    H4F10800   5.535   4.476   6.344 -1.0844  0.2319  1.2146
  106OSM    H4G10801   5.398   4.370   6.316  0.0885 -1.4518 -1.0808
  106OSM    C5F10802   5.575   4.326   6.193 -0.3970 -0.7221 -0.3748
  106OSM    H5F10803   5.534   4.227   6.161 -0.8219 -1.1692  1.4301
  106OSM    H5G10804   5.682   4.310   6.220 -0.3875 -0.0618 -0.0168
  106OSM    C6F10805   5.579   4.435   6.084  0.0914  0.3580 -0.3752
  106OSM    H6F10806   5.657   4.393   6.016  1.3409  0.4497  0.9644
  106OSM    H6G10807   5.609   4.535   6.123 -0.4938  0.4501 -0.1489
  106OSM    C7F10808   5.451   4.451   6.007 -0.3719  0.0300 -0.0707
  106OSM    H7F10809   5.373   4.497   6.071  0.5185 -0.8034  1.7002
  106OSM    H7G10810   5.423   4.353   5.963 -1.8487  1.6784 -3.0468
  106OSM    C8F10811   5.471   4.537   5.888 -0.3320  0.0831  0.8070
  106OSM    H8F10812   5.506   4.635   5.928  1.2380  0.3468 -1.0688
  106OSM    H8G10813   5.369   4.554   5.848 -0.1903 -0.4074  0.2275
  106OSM    C9F10814   5.559   4.495   5.768 -0.0908  0.7327  0.8287
  106OSM    H9F10815   5.653   4.545   5.738 -0.6541  1.0258 -0.5538
  106OSM   C10F10816   5.520   4.412   5.669  0.0827 -0.1812  0.2362
  106OSM   H10F10817   5.590   4.398   5.586  0.6505  0.7471  0.5371
  106OSM   C11F10818   5.393   4.331   5.654 -0.6791  0.1881 -0.2303
  106OSM   H11F10819   5.305   4.397   5.642 -4.7220 -4.6026 -0.4405
  106OSM   H11G10820   5.381   4.278   5.751 -0.0953  1.0162  0.3047
  106OSM   C12F10821   5.393   4.233   5.539  0.4840 -0.0393 -0.6094
  106OSM   H12F10822   5.312   4.159   5.559 -0.8428  0.8671 -2.2804
  106OSM   H12G10823   5.492   4.184   5.544  0.8758  0.7417 -0.5268
  106OSM   C13F10824   5.374   4.293   5.400  0.1177 -0.2521  0.3066
  106OSM   H13F10825   5.378   4.216   5.320 -0.3961 -3.1775  2.9459
  106OSM   H13G10826   5.458   4.361   5.371 -0.0915  0.8574  2.1404
  106OSM   C14F10827   5.240   4.376   5.372 -0.7419 -0.0765  0.1899
  106OSM   H14F10828   5.248   4.471   5.430  1.8247 -0.6283  0.8873
  106OSM   H14G10829   5.153   4.321   5.415  0.3803 -2.4965 -0.4659
  106OSM   C15F10830   5.231   4.410   5.220 -0.9199  0.2838  0.0447
  106OSM   H15F10831   5.261   4.324   5.156 -4.1647  0.9561 -2.6052
  106OSM   H15G10832   5.306   4.489   5.199 -1.4650  1.5804  2.5896
  106OSM   C16F10833   5.087   4.448   5.171  0.5865  0.3261 -0.1227
  106OSM   H16F10834   5.052   4.545   5.213  1.5118  0.4148  0.4667
  106OSM   H16G10835   5.017   4.373   5.213  1.0402  0.0344  0.1160
  106OSM   C17F10836   5.072   4.445   5.019  0.3771 -0.1351  0.1428
  106OSM   H17F10837   5.080   4.337   4.991  0.7258 -0.2189  0.5638
  106OSM   H17G10838   5.146   4.509   4.965  0.3093  0.4896  0.7798
  106OSM   C18F10839   4.930   4.489   4.978  0.2124  0.2863  0.4075
  106OSM   H18F10840   4.909   4.590   5.020 -0.7816 -0.1017  0.8862
  106OSM   H18G10841   4.847   4.427   5.019 -0.2429 -0.1845 -1.1778
  106OSM   H18H10842   4.914   4.490   4.868  1.8413 -0.9024  0.1245
  107OSM      N10843   6.066   1.922   7.548 -0.4539  0.0719  0.1892
  107OSM    C1510844   6.040   2.064   7.580  0.8334 -0.1700  0.5071
  107OSM   H15A10845   5.939   2.095   7.556  1.1482 -0.8967 -2.0533
  107OSM   H15B10846   6.092   2.131   7.514 -0.5627  1.6404  1.1482
  107OSM   H15C10847   6.078   2.072   7.680 -0.0209 -1.5842  0.9749
  107OSM    C1410848   6.216   1.915   7.563 -0.2061  0.6545 -0.1513
  107OSM   H14A10849   6.246   1.818   7.525  1.1193  1.0937 -0.2720
  107OSM   H14B10850   6.250   1.920   7.665 -0.9124  1.1523  0.0676
  107OSM   H14C10851   6.258   1.993   7.502 -0.1585  1.5203  0.9593
  107OSM    C1310852   6.011   1.826   7.652  0.3717  0.6583  0.3413
  107OSM   H13A10853   6.062   1.841   7.746  1.9605 -1.9424 -0.0092
  107OSM   H13B10854   6.031   1.724   7.625 -1.0731  0.1479  1.1029
  107OSM   H13C10855   5.907   1.842   7.674  0.4105  1.4529  0.0043
  107OSM    C1210856   6.016   1.878   7.408 -0.4577  0.2232  0.2277
  107OSM   H12A10857   6.057   1.947   7.336  2.6952 -1.1347  0.5593
  107OSM   H12B10858   5.908   1.888   7.402 -0.6546 -1.7371 -0.3020
  107OSM    C1110859   6.050   1.739   7.360 -0.2309 -0.5559 -0.2517
  107OSM   H11A10860   6.015   1.724   7.256 -0.8699 -1.1128  0.0386
  107OSM   H11B10861   5.975   1.677   7.414 -0.0038 -2.1246 -1.6542
  107OSM      P10862   6.289   1.686   7.260  0.0983 -0.1638 -0.2014
  107OSM    O1310863   6.408   1.741   7.326  0.5427 -0.3767  0.6431
  107OSM    O1410864   6.288   1.548   7.215 -0.9145 -0.1990  0.3453
  107OSM    O1110865   6.226   1.784   7.155 -0.0361 -0.5717  0.6856
  107OSM    O1210866   6.187   1.701   7.377 -0.5005 -0.3548  0.3949
  107OSM    C1S10867   6.305   1.897   7.105  0.5995 -0.5448  0.4611
  107OSM    H1S10868   6.412   1.868   7.095  1.2845  1.2918  1.9027
  107OSM    H1T10869   6.304   1.983   7.175  1.7333  1.7968 -2.2099
  107OSM     NF10870   6.324   2.071   6.932  0.1320  0.1273  0.0546
  107OSM    HNF10871   6.277   2.157   6.954  0.8875 -0.0176  2.5701
  107OSM    C2S10872   6.251   1.955   6.965  0.5596  0.3041  0.6361
  107OSM    H2S10873   6.264   1.881   6.883 -0.0110  3.4014 -2.5240
  107OSM    C3S10874   6.091   1.968   6.964 -0.0599 -0.1553  0.2859
  107OSM    H3S10875   6.055   2.052   7.028 -3.3092 -0.8045 -0.5148
  107OSM     O310876   6.015   1.852   7.011 -0.4337  0.1808  0.3102
  107OSM    HO310877   6.074   1.824   7.080 -1.5601  0.3974  1.3971
  107OSM    C4S10878   6.044   2.008   6.827 -0.5523 -0.7920 -0.0277
  107OSM    H4S10879   6.076   2.110   6.799 -0.4903 -1.0994 -1.1115
  107OSM    C5S10880   5.969   1.944   6.734 -0.2206 -0.4079 -0.6418
  107OSM    H5S10881   5.926   1.845   6.754 -2.8423  0.7985  0.2304
  107OSM    C6S10882   5.936   2.003   6.598 -0.2925  0.3071  0.4199
  107OSM    H6S10883   5.826   2.021   6.595 -0.5492  0.1716  4.1326
  107OSM    H6T10884   5.959   1.924   6.524  0.9665  0.8719  0.1802
  107OSM    C7S10885   6.022   2.121   6.545 -0.1761  0.0522  0.1113
  107OSM    H7S10886   6.131   2.103   6.549 -0.2553 -0.6367 -0.5670
  107OSM    H7T10887   6.008   2.208   6.613  6.1436  1.3936  0.3052
  107OSM    C8S10888   5.979   2.185   6.406 -0.1104 -0.9286 -0.2483
  107OSM    H8S10889   6.038   2.278   6.387 -0.1267 -1.3124 -2.3746
  107OSM    H8T10890   5.876   2.224   6.416  0.1351  0.0912 -1.3853
  107OSM    C9S10891   5.968   2.091   6.291  0.0357  1.0744 -0.1353
  107OSM    H9S10892   5.875   2.031   6.307  1.8424 -2.0322 -0.5288
  107OSM    H9T10893   6.046   2.014   6.277 -1.4975 -0.5975  0.1351
  107OSM   C10S10894   5.935   2.164   6.164  0.3815 -0.2359 -0.0028
  107OSM   H10S10895   5.854   2.239   6.181  2.1311  2.0611 -1.1559
  107OSM   H10T10896   5.906   2.096   6.081 -0.4588  0.6684 -0.4766
  107OSM   C11S10897   6.048   2.249   6.107 -0.0865  0.0461  0.4007
  107OSM   H11S10898   6.113   2.180   6.050 -0.4829  0.6043 -0.7531
  107OSM   H11T10899   6.117   2.288   6.185 -0.3586  0.5027  0.4195
  107OSM   C12S10900   6.009   2.370   6.023 -0.2910 -0.2426 -1.1324
  107OSM   H12S10901   6.095   2.438   6.006 -1.1016  0.7444 -1.3973
  107OSM   H12T10902   5.931   2.429   6.077 -0.8841  0.1094 -2.3354
  107OSM   C13S10903   5.969   2.334   5.885  0.2056  0.1491  0.7265
  107OSM   H13S10904   5.880   2.269   5.878 -0.2111  0.6521  1.2370
  107OSM   H13T10905   6.041   2.270   5.830 -0.5620  0.2965 -0.4921
  107OSM   C14S10906   5.938   2.466   5.806 -0.6095  0.3138  0.3220
  107OSM   H14S10907   5.870   2.524   5.872  0.3845  2.5641 -0.5315
  107OSM   H14T10908   5.897   2.456   5.704  3.9330  1.7340 -1.8944
  107OSM   C15S10909   6.060   2.555   5.781 -0.1072 -0.6766  0.1204
  107OSM   H15S10910   6.149   2.498   5.746  0.0816 -1.9989  2.5831
  107OSM   H15T10911   6.090   2.601   5.877  0.5660 -1.1048  0.1232
  107OSM   C16S10912   6.022   2.685   5.696  0.5987  0.4286 -0.2596
  107OSM   H16S10913   6.012   2.764   5.774  0.1247  1.0953 -0.9873
  107OSM   H16T10914   5.927   2.673   5.641  0.8359  0.3886 -0.6628
  107OSM   C17S10915   6.134   2.716   5.598 -0.5558 -0.3194  0.4663
  107OSM   H17S10916   6.105   2.788   5.519 -0.2335 -0.7775 -0.0713
  107OSM   H17T10917   6.142   2.622   5.541  0.5312 -1.0968  1.8176
  107OSM   C18S10918   6.264   2.764   5.653  0.1558  0.5375 -0.7736
  107OSM   H18S10919   6.347   2.780   5.580  1.1041  0.8267  0.3401
  107OSM   H18T10920   6.302   2.688   5.725  0.5169  0.1906 -1.3231
  107OSM   H18U10921   6.253   2.863   5.703  0.6219 -0.0328  0.5073
  107OSM    C1F10922   6.445   2.077   6.900 -0.6771  0.0075  0.3997
  107OSM     OF10923   6.501   1.970   6.871 -0.2329  0.1885  0.0148
  107OSM    C2F10924   6.521   2.205   6.907 -0.1239 -0.2896  0.2213
  107OSM    H2F10925   6.595   2.208   6.990  1.2613  1.4804 -0.9900
  107OSM    H2G10926   6.441   2.280   6.926  1.7303  2.3145 -1.5954
  107OSM    C3F10927   6.593   2.245   6.775  0.6184  0.0136 -0.1106
  107OSM    H3F10928   6.683   2.179   6.782  0.5197  0.0570  2.5764
  107OSM    H3G10929   6.621   2.352   6.773 -0.0482  0.1760 -1.4408
  107OSM    C4F10930   6.514   2.221   6.640  0.3934 -0.0175 -0.3433
  107OSM    H4F10931   6.478   2.116   6.630 -0.7324  0.3696 -0.4626
  107OSM    H4G10932   6.588   2.243   6.559  1.9977  0.3761  1.1771
  107OSM    C5F10933   6.424   2.340   6.624  0.0106  0.3043  0.3242
  107OSM    H5F10934   6.480   2.426   6.665  1.7108 -0.2169 -0.8380
  107OSM    H5G10935   6.339   2.330   6.696  1.8450 -0.3890  2.5129
  107OSM    C6F10936   6.374   2.367   6.486  0.3774 -0.3669 -0.6910
  107OSM    H6F10937   6.313   2.278   6.460 -1.0299  0.3791 -0.0919
  107OSM    H6G10938   6.458   2.368   6.413 -0.4660  0.5890 -1.6869
  107OSM    C7F10939   6.288   2.494   6.476 -0.6998 -0.4444  0.3383
  107OSM    H7F10940   6.359   2.567   6.521  1.0191 -1.5547 -0.4873
  107OSM    H7G10941   6.198   2.475   6.538 -1.2332 -0.9798 -0.5895
  107OSM    C8F10942   6.229   2.521   6.337  0.6171  0.4159  0.7623
  107OSM    H8F10943   6.149   2.446   6.319  1.0720  0.0737  0.1366
  107OSM    H8G10944   6.309   2.505   6.262  0.7041 -0.6880  1.0740
  107OSM    C9F10945   6.178   2.666   6.336 -0.1588 -0.4047  0.3963
  107OSM    H9F10946   6.097   2.677   6.410 -0.4794 -0.6907  0.0893
  107OSM   C10F10947   6.215   2.767   6.257 -0.0480  0.0579  0.9218
  107OSM   H10F10948   6.191   2.869   6.290  2.0664  0.1416  2.3482
  107OSM   C11F10949   6.315   2.773   6.143 -0.2148  1.0771  0.1731
  107OSM   H11F10950   6.263   2.823   6.059  1.3151  3.1061  0.3611
  107OSM   H11G10951   6.352   2.670   6.122  0.6780  0.9974  1.9547
  107OSM   C12F10952   6.442   2.858   6.177  0.0313  0.0566  0.4793
  107OSM   H12F10953   6.511   2.778   6.210  0.3752 -0.3864 -1.2021
  107OSM   H12G10954   6.419   2.928   6.260 -0.8759 -0.8946  1.0441
  107OSM   C13F10955   6.499   2.932   6.055  0.5422  0.4774 -0.2440
  107OSM   H13F10956   6.593   2.987   6.073  2.7066 -2.8557 -0.5258
  107OSM   H13G10957   6.417   2.999   6.020 -1.0269 -2.0782 -1.8352
  107OSM   C14F10958   6.537   2.823   5.949  0.2380 -0.2740 -0.0973
  107OSM   H14F10959   6.445   2.796   5.893 -0.1218  0.2004  0.2591
  107OSM   H14G10960   6.583   2.731   5.991  1.3662  1.8086  3.6222
  107OSM   C15F10961   6.630   2.876   5.841  0.6696 -0.8392 -0.3314
  107OSM   H15F10962   6.731   2.895   5.884  0.9004 -2.8240  0.1366
  107OSM   H15G10963   6.586   2.974   5.815  0.3745 -1.1621 -1.0832
  107OSM   C16F10964   6.633   2.787   5.718  0.4478  0.4488 -0.0794
  107OSM   H16F10965   6.536   2.750   5.680  0.3862 -0.0910  0.5852
  107OSM   H16G10966   6.684   2.693   5.749 -1.3125 -0.1229  1.2152
  107OSM   C17F10967   6.704   2.842   5.590 -0.1781 -0.7344 -0.3188
  107OSM   H17F10968   6.779   2.765   5.561  1.2019 -0.8941  3.0996
  107OSM   H17G10969   6.759   2.931   5.628 -0.5376  0.1989 -1.8969
  107OSM   C18F10970   6.612   2.866   5.464  0.4718  0.0864  0.3208
  107OSM   H18F10971   6.661   2.909   5.374 -2.3261  3.4441  0.1757
  107OSM   H18G10972   6.531   2.938   5.492 -0.6045 -2.0904  3.3531
  107OSM   H18H10973   6.568   2.771   5.429  2.9897 -0.9099 -0.3403
  108OSM      N10974   2.428   3.057   7.841  0.3063 -0.0340 -0.3483
  108OSM    C1510975   2.433   2.905   7.837 -0.6890 -0.4663  0.1143
  108OSM   H15A10976   2.410   2.867   7.738 -0.2698 -1.0030  0.2147
  108OSM   H15B10977   2.364   2.868   7.911 -0.0471 -1.9379  0.0251
  108OSM   H15C10978   2.533   2.872   7.860  0.6619  4.9944  3.9500
  108OSM    C1410979   2.439   3.109   7.978 -0.1210  0.1185 -0.0829
  108OSM   H14A10980   2.533   3.087   8.027 -0.4567 -0.0167  0.5179
  108OSM   H14B10981   2.363   3.081   8.051 -0.3907 -2.7634 -1.3445
  108OSM   H14C10982   2.443   3.217   7.981  1.3893  0.0711  0.8920
  108OSM    C1310983   2.538   3.119   7.764  0.6482  0.3174 -0.7519
  108OSM   H13A10984   2.530   3.078   7.665  1.6641  2.1504 -1.6286
  108OSM   H13B10985   2.635   3.119   7.812 -0.4692 -0.4063  1.6506
  108OSM   H13C10986   2.514   3.224   7.757 -0.3282  0.1226 -0.5595
  108OSM    C1210987   2.297   3.106   7.787 -0.2249 -0.7642  0.3792
  108OSM   H12A10988   2.294   3.212   7.808  2.3060 -0.7452  1.0553
  108OSM   H12B10989   2.215   3.072   7.848 -1.9906 -0.0784 -1.4965
  108OSM    C1110990   2.262   3.079   7.638  0.1027  0.3570  0.2326
  108OSM   H11A10991   2.326   3.128   7.561 -2.5029  0.3850 -2.0906
  108OSM   H11B10992   2.166   3.136   7.628 -0.3525 -0.4366  0.0388
  108OSM      P10993   2.100   2.875   7.585 -0.0288  0.0629 -0.2760
  108OSM    O1310994   2.120   2.733   7.565 -0.7925 -0.3292 -0.0799
  108OSM    O1410995   2.015   2.912   7.698  0.2482 -0.8455  0.3045
  108OSM    O1110996   2.056   2.952   7.457  0.0153  0.4857 -0.3051
  108OSM    O1210997   2.245   2.934   7.610 -0.2814 -0.2891  0.1021
  108OSM    C1S10998   2.120   2.926   7.334  0.2145 -0.0498 -0.6506
  108OSM    H1S10999   2.130   2.818   7.313  1.0960  0.1064 -1.0733
  108OSM    H1T11000   2.220   2.973   7.333  0.4508 -0.2461  2.9726
  108OSM     NF11001   2.124   2.968   7.095  0.3574  0.0581 -0.0748
  108OSM    HNF11002   2.200   3.031   7.083 -1.2393  1.9949 -0.6034
  108OSM    C2S11003   2.037   2.987   7.211 -0.5978 -0.2635 -0.0717
  108OSM    H2S11004   1.946   2.925   7.199  0.6404 -2.3617  0.8022
  108OSM    C3S11005   2.004   3.136   7.246  0.4124  0.7680 -0.3823
  108OSM    H3S11006   2.076   3.193   7.307 -1.7289  2.1755  0.9846
  108OSM     O311007   1.889   3.132   7.328 -0.8882  0.0026  0.4102
  108OSM    HO311008   1.927   3.077   7.397 -0.1212  0.5514  0.4285
  108OSM    C4S11009   1.969   3.210   7.124  0.1032 -0.8856 -0.1801
  108OSM    H4S11010   1.871   3.193   7.079 -0.2948 -0.1989  0.4036
  108OSM    C5S11011   2.046   3.289   7.057 -0.3802  0.7572 -0.4496
  108OSM    H5S11012   2.150   3.309   7.087  0.0473 -1.0294 -0.6029
  108OSM    C6S11013   2.009   3.355   6.930 -0.5592 -0.6401 -0.0979
  108OSM    H6S11014   2.068   3.446   6.909  0.0072 -0.9149  0.2726
  108OSM    H6T11015   1.907   3.396   6.947  0.3411  1.7610 -0.1813
  108OSM    C7S11016   2.017   3.260   6.813 -0.1810 -0.1134  0.4466
  108OSM    H7S11017   1.940   3.180   6.811 -0.4301  0.0778 -2.6657
  108OSM    H7T11018   2.116   3.211   6.817  0.7784  1.8440  2.7643
  108OSM    C8S11019   1.974   3.329   6.686 -0.6465 -0.2103  0.6054
  108OSM    H8S11020   1.981   3.273   6.591 -2.3138  1.7716 -0.7948
  108OSM    H8T11021   2.049   3.409   6.666 -0.5531 -0.5242 -0.3485
  108OSM    C9S11022   1.831   3.376   6.680 -0.0451 -0.6015 -0.3933
  108OSM    H9S11023   1.810   3.461   6.749  0.7897  1.3045 -2.3911
  108OSM    H9T11024   1.754   3.302   6.711  1.4389 -1.2280  2.1173
  108OSM   C10S11025   1.793   3.440   6.544 -0.3601  0.2751  0.0881
  108OSM   H10S11026   1.855   3.397   6.463  1.3835  0.9691  1.0018
  108OSM   H10T11027   1.799   3.549   6.565 -1.8978  0.1382  1.4648
  108OSM   C11S11028   1.646   3.422   6.512  0.7208 -0.1504 -0.3086
  108OSM   H11S11029   1.592   3.462   6.601  1.0870 -0.3000 -0.0149
  108OSM   H11T11030   1.634   3.313   6.501  1.0031 -0.3814  1.4035
  108OSM   C12S11031   1.599   3.502   6.388 -0.0898  0.0895 -0.0438
  108OSM   H12S11032   1.568   3.603   6.422 -2.1558 -0.1690 -0.9646
  108OSM   H12T11033   1.502   3.462   6.351  1.3954 -2.3938 -1.5868
  108OSM   C13S11034   1.704   3.526   6.281  0.8110 -0.0332 -0.3914
  108OSM   H13S11035   1.797   3.571   6.322 -0.3186  1.0195  1.1389
  108OSM   H13T11036   1.656   3.586   6.202 -0.6177  0.5526  0.8645
  108OSM   C14S11037   1.727   3.393   6.208  0.3251  0.1994 -0.6545
  108OSM   H14S11038   1.630   3.355   6.169  0.5972  0.4892 -1.6520
  108OSM   H14T11039   1.769   3.317   6.278 -1.3101 -0.4858 -0.3733
  108OSM   C15S11040   1.801   3.420   6.080 -0.0603 -0.0315  0.5494
  108OSM   H15S11041   1.909   3.427   6.102  0.2265 -2.2364  0.0574
  108OSM   H15T11042   1.762   3.510   6.026  1.3606  0.5549  0.4751
  108OSM   C16S11043   1.819   3.294   5.984  1.1732 -0.5798 -0.2680
  108OSM   H16S11044   1.722   3.248   5.957  2.4911 -2.4611 -2.1405
  108OSM   H16T11045   1.876   3.224   6.049  1.8700  0.8579  0.7284
  108OSM   C17S11046   1.902   3.322   5.856  0.1089 -0.0503  0.0207
  108OSM   H17S11047   1.927   3.225   5.806 -1.1701 -0.2050 -0.3699
  108OSM   H17T11048   1.995   3.379   5.875  0.7078 -1.7516  2.7910
  108OSM   C18S11049   1.822   3.397   5.745  0.7728  0.3840  0.1859
  108OSM   H18S11050   1.867   3.399   5.643 -1.7825  2.2594 -1.0282
  108OSM   H18T11051   1.798   3.503   5.764 -0.7886  0.4308 -1.7347
  108OSM   H18U11052   1.721   3.360   5.717  0.9468  0.4635 -0.5957
  108OSM    C1F11053   2.133   2.850   7.030  0.7489  0.4217 -0.3914
  108OSM     OF11054   2.053   2.764   7.061  0.4626 -0.0912  0.6438
  108OSM    C2F11055   2.255   2.826   6.942 -0.0765 -0.3144 -0.4035
  108OSM    H2F11056   2.268   2.716   6.932  1.4245 -0.1508 -0.3687
  108OSM    H2G11057   2.339   2.886   6.982  0.4544 -0.9403 -0.5722
  108OSM    C3F11058   2.225   2.866   6.796  0.7977 -0.3542 -0.7784
  108OSM    H3F11059   2.212   2.976   6.789  2.2891 -0.0951 -0.0157
  108OSM    H3G11060   2.134   2.809   6.768 -0.3335  0.9149  0.1670
  108OSM    C4F11061   2.338   2.820   6.707  0.6541  0.2892 -0.0031
  108OSM    H4F11062   2.342   2.709   6.703  0.0895  0.2156  0.9981
  108OSM    H4G11063   2.434   2.863   6.740  0.1332  2.1639 -0.8108
  108OSM    C5F11064   2.308   2.863   6.560  0.2566  0.2357  1.1903
  108OSM    H5F11065   2.285   2.971   6.551 -0.9689 -0.1387 -0.9507
  108OSM    H5G11066   2.219   2.808   6.524  1.2497 -0.3720 -0.5086
  108OSM    C6F11067   2.428   2.845   6.464  0.5312 -0.2854 -1.1310
  108OSM    H6F11068   2.519   2.895   6.504 -1.2956  1.1621  1.5839
  108OSM    H6G11069   2.403   2.910   6.377 -1.9047  0.8713  0.3110
  108OSM    C7F11070   2.463   2.707   6.441 -0.1054 -0.0459 -0.1229
  108OSM    H7F11071   2.375   2.656   6.397 -0.1541 -1.7679  1.8367
  108OSM    H7G11072   2.483   2.657   6.538 -0.2314  1.1854  0.5564
  108OSM    C8F11073   2.586   2.703   6.354 -0.5254  0.7044 -0.4081
  108OSM    H8F11074   2.636   2.604   6.368 -0.7202  0.7437  0.6322
  108OSM    H8G11075   2.661   2.778   6.386 -1.3281  1.1117  0.5636
  108OSM    C9F11076   2.557   2.722   6.204 -0.1903 -0.5981  0.3656
  108OSM    H9F11077   2.522   2.824   6.180  0.0933 -0.2563  1.3630
  108OSM   C10F11078   2.567   2.642   6.100 -0.2442 -0.0314 -1.1008
  108OSM   H10F11079   2.527   2.687   6.008 -1.0686  0.3959 -0.5451
  108OSM   C11F11080   2.599   2.492   6.093  0.0759 -0.3263 -0.1512
  108OSM   H11F11081   2.695   2.473   6.146  0.2357 -0.8558 -0.6222
  108OSM   H11G11082   2.609   2.466   5.985  0.2126  0.7141 -0.4037
  108OSM   C12F11083   2.495   2.411   6.158  0.8310  0.1785 -0.4594
  108OSM   H12F11084   2.395   2.414   6.111  0.6365 -1.0423 -0.1465
  108OSM   H12G11085   2.480   2.444   6.263 -0.5766  3.7858 -1.6209
  108OSM   C13F11086   2.532   2.257   6.163  0.7184  0.2624 -0.4767
  108OSM   H13F11087   2.431   2.220   6.189 -0.4719  1.6972 -2.7353
  108OSM   H13G11088   2.604   2.251   6.247  0.9178 -0.5119 -0.6935
  108OSM   C14F11089   2.574   2.211   6.024  0.9473  0.0615 -0.3469
  108OSM   H14F11090   2.595   2.102   6.022  0.4725 -0.0616  0.9026
  108OSM   H14G11091   2.666   2.262   5.988 -0.1552  1.8832 -0.7289
  108OSM   C15F11092   2.466   2.228   5.920 -0.3821 -0.6367  0.3594
  108OSM   H15F11093   2.460   2.334   5.889 -0.6416 -0.3694  1.2768
  108OSM   H15G11094   2.368   2.186   5.952 -1.0943  1.0007  0.4327
  108OSM   C16F11095   2.506   2.161   5.784 -0.1578 -0.7709  0.4537
  108OSM   H16F11096   2.484   2.054   5.801  3.1951 -1.4830  0.8783
  108OSM   H16G11097   2.611   2.182   5.754 -0.3447 -1.8696 -1.0594
  108OSM   C17F11098   2.436   2.221   5.666 -0.4726  0.4476  0.3179
  108OSM   H17F11099   2.446   2.330   5.681 -1.4454  0.5055  0.6013
  108OSM   H17G11100   2.331   2.188   5.683 -0.3841 -0.0954 -0.1501
  108OSM   C18F11101   2.487   2.185   5.525  0.5878  0.5634  0.7909
  108OSM   H18F11102   2.485   2.076   5.507 -0.1034  0.6547  0.2948
  108OSM   H18G11103   2.589   2.221   5.496  0.6862 -1.0481 -1.0617
  108OSM   H18H11104   2.428   2.244   5.451  0.4968  1.1107  1.2946
  109OSM      N11105   3.660   4.171   7.553  0.3532  0.0784 -0.0118
  109OSM    C1511106   3.627   4.098   7.679  0.7149  0.5170  1.0016
  109OSM   H15A11107   3.713   4.106   7.744  0.5679  1.2290  1.1169
  109OSM   H15B11108   3.622   3.992   7.659 -0.7930  0.7124  0.2271
  109OSM   H15C11109   3.535   4.126   7.728 -0.1586  0.5174 -0.5818
  109OSM    C1411110   3.660   4.317   7.584  0.5790 -0.3894  0.3041
  109OSM   H14A11111   3.559   4.355   7.581  0.8744  0.3676 -0.7951
  109OSM   H14B11112   3.712   4.370   7.505  0.9840 -1.5074 -0.2127
  109OSM   H14C11113   3.707   4.349   7.676  0.1672 -0.4427  0.5330
  109OSM    C1311114   3.799   4.121   7.519 -0.0265 -0.3868  0.4401
  109OSM   H13A11115   3.869   4.167   7.587  0.9678 -2.6877  1.0569
  109OSM   H13B11116   3.822   4.141   7.415  1.1193 -2.4730  0.2481
  109OSM   H13C11117   3.812   4.016   7.541 -1.1609 -0.6202  0.0388
  109OSM    C1211118   3.564   4.138   7.438  0.5165  0.3176 -0.7351
  109OSM   H12A11119   3.460   4.152   7.466 -0.1035 -2.2225 -1.5018
  109OSM   H12B11120   3.567   4.032   7.417  0.5261  0.0646  0.4775
  109OSM    C1111121   3.591   4.202   7.299  0.2186  0.3578 -0.3902
  109OSM   H11A11122   3.590   4.313   7.307  3.4559  0.4510  0.2640
  109OSM   H11B11123   3.507   4.184   7.229  1.2822  0.2492 -1.6623
  109OSM      P11124   3.723   4.019   7.176 -0.2639  0.0388 -0.0047
  109OSM    O1311125   3.868   3.994   7.144 -0.2595 -0.2857  0.1477
  109OSM    O1411126   3.667   3.916   7.265  0.0476  0.8003 -0.0343
  109OSM    O1111127   3.642   4.031   7.047 -0.0198  0.0656  0.3326
  109OSM    O1211128   3.709   4.156   7.247  0.1616  0.5249  0.1788
  109OSM    C1S11129   3.664   4.138   6.952  0.2701  0.2029  0.4532
  109OSM    H1S11130   3.773   4.153   6.941  0.6527 -2.3758  0.1344
  109OSM    H1T11131   3.606   4.229   6.980 -0.4196 -0.7692  2.3359
  109OSM     NF11132   3.637   4.170   6.704  0.3255  0.3921 -0.1005
  109OSM    HNF11133   3.564   4.230   6.669 -0.9902 -1.5450 -0.8308
  109OSM    C2S11134   3.595   4.091   6.813 -0.0954  0.1150 -0.4506
  109OSM    H2S11135   3.636   3.988   6.799  4.0557  1.8174 -2.3919
  109OSM    C3S11136   3.442   4.085   6.830 -0.0062  0.3621 -0.1254
  109OSM    H3S11137   3.409   4.190   6.847 -0.9238 -0.0877  1.0274
  109OSM     O311138   3.396   4.019   6.953 -0.1657 -0.1757  1.0896
  109OSM    HO311139   3.478   3.994   6.996  0.7571  1.2913  0.2360
  109OSM    C4S11140   3.372   4.048   6.706 -0.2649 -0.0947  0.8845
  109OSM    H4S11141   3.353   4.130   6.636  1.4143  0.5348  1.1289
  109OSM    C5S11142   3.323   3.930   6.656 -0.5059  0.8131  0.3485
  109OSM    H5S11143   3.335   3.834   6.708 -0.9825  2.1205  3.0559
  109OSM    C6S11144   3.236   3.914   6.540  0.2754  0.2047 -0.7257
  109OSM    H6S11145   3.184   4.009   6.516 -0.2788  0.2752  0.6221
  109OSM    H6T11146   3.146   3.851   6.561  0.0926  1.4067  2.7328
  109OSM    C7S11147   3.317   3.852   6.421 -0.2727 -0.1512  0.2502
  109OSM    H7S11148   3.359   3.750   6.432  2.5691  0.6799 -1.5553
  109OSM    H7T11149   3.400   3.924   6.407 -0.0047 -0.4216  0.4365
  109OSM    C8S11150   3.236   3.859   6.295 -0.4496 -0.1985 -0.3287
  109OSM    H8S11151   3.197   3.962   6.279  1.4566  0.9065  1.5225
  109OSM    H8T11152   3.151   3.793   6.321  0.6620 -1.9206 -0.8396
  109OSM    C9S11153   3.314   3.809   6.167  0.1463 -0.1304  0.3972
  109OSM    H9S11154   3.361   3.716   6.208  2.1472  1.3310  1.6394
  109OSM    H9T11155   3.399   3.876   6.141  1.3176 -0.6183  2.6633
  109OSM   C10S11156   3.220   3.779   6.044 -0.3306 -0.1490  0.6672
  109OSM   H10S11157   3.162   3.868   6.011 -0.2481 -0.0355  0.8272
  109OSM   H10T11158   3.151   3.694   6.061 -0.4137  0.0520  1.3844
  109OSM   C11S11159   3.296   3.741   5.912  0.3120 -0.3008 -0.0119
  109OSM   H11S11160   3.357   3.649   5.931  0.5981 -0.0421  0.3394
  109OSM   H11T11161   3.365   3.827   5.905  0.7127 -0.3160  2.6992
  109OSM   C12S11162   3.211   3.726   5.784  0.2303 -0.3983  0.7050
  109OSM   H12S11163   3.152   3.819   5.776 -0.5571 -0.8399  1.2199
  109OSM   H12T11164   3.136   3.644   5.791  0.6856 -0.9214 -0.3164
  109OSM   C13S11165   3.295   3.714   5.657 -0.4460  0.3310 -0.4601
  109OSM   H13S11166   3.356   3.621   5.664  0.5193  1.0271  0.7031
  109OSM   H13T11167   3.367   3.799   5.656  0.9269 -0.7724  0.5632
  109OSM   C14S11168   3.215   3.714   5.517  0.6904 -0.2099  0.4534
  109OSM   H14S11169   3.173   3.816   5.508 -3.1170 -1.5919  0.5224
  109OSM   H14T11170   3.130   3.643   5.527  0.6822 -0.4174 -0.8492
  109OSM   C15S11171   3.300   3.695   5.392  0.0904  0.3890 -0.3473
  109OSM   H15S11172   3.353   3.598   5.406  1.3490  1.2009  0.8220
  109OSM   H15T11173   3.374   3.778   5.396  1.6518 -0.9738  2.5877
  109OSM   C16S11174   3.218   3.684   5.256 -0.2905  0.0705  0.0362
  109OSM   H16S11175   3.306   3.674   5.190  0.9970  2.2809  1.3002
  109OSM   H16T11176   3.181   3.788   5.241  1.1025  0.8273  1.4599
  109OSM   C17S11177   3.101   3.585   5.243  0.6903 -0.3407  0.1182
  109OSM   H17S11178   3.067   3.590   5.138  0.7587  0.7958  0.1416
  109OSM   H17T11179   3.008   3.610   5.298  0.3326  0.8292 -1.0064
  109OSM   C18S11180   3.139   3.442   5.282  0.6747 -0.0949  0.4430
  109OSM   H18S11181   3.155   3.436   5.392  2.4829  1.8126  0.3301
  109OSM   H18T11182   3.235   3.412   5.237  2.2020  0.2538  3.2267
  109OSM   H18U11183   3.054   3.376   5.251  0.8854  0.4739 -1.4660
  109OSM    C1F11184   3.761   4.173   6.666 -0.4248 -0.9174  0.0433
  109OSM     OF11185   3.855   4.121   6.722 -0.2772  0.3963 -0.4900
  109OSM    C2F11186   3.778   4.229   6.532  0.3460 -0.7066 -0.3300
  109OSM    H2F11187   3.763   4.339   6.536  2.4814 -0.3884  3.0385
  109OSM    H2G11188   3.715   4.168   6.465 -1.9325 -1.6959  2.4991
  109OSM    C3F11189   3.925   4.215   6.487 -0.1996 -0.2230 -0.2663
  109OSM    H3F11190   3.963   4.111   6.480 -0.3239 -0.3279  0.4997
  109OSM    H3G11191   3.990   4.270   6.559  0.5999  0.2014 -1.2928
  109OSM    C4F11192   3.962   4.293   6.356  0.3347 -0.3052  0.4104
  109OSM    H4F11193   4.072   4.286   6.351  0.2321 -4.3126  0.7895
  109OSM    H4G11194   3.923   4.397   6.371  1.1190  0.1035 -0.2887
  109OSM    C5F11195   3.903   4.226   6.234 -0.0794  0.5362  0.3063
  109OSM    H5F11196   3.792   4.230   6.232 -0.1959 -1.8257 -1.1092
  109OSM    H5G11197   3.942   4.122   6.229  1.3889  1.1108 -1.3041
  109OSM    C6F11198   3.965   4.296   6.107  0.2375  0.4476 -0.9384
  109OSM    H6F11199   3.955   4.221   6.025 -2.3221 -0.2137 -0.0936
  109OSM    H6G11200   4.074   4.318   6.116  0.5629 -0.7999 -1.5958
  109OSM    C7F11201   3.899   4.425   6.072  0.1461 -0.0992 -0.4258
  109OSM    H7F11202   3.970   4.492   6.019  0.4418 -0.1204 -0.0588
  109OSM    H7G11203   3.868   4.475   6.166 -3.0821 -0.4799 -1.1971
  109OSM    C8F11204   3.765   4.403   5.990  0.2489 -0.9438 -0.0066
  109OSM    H8F11205   3.718   4.503   5.980 -2.8045 -2.2670  0.0382
  109OSM    H8G11206   3.691   4.348   6.052 -2.2714  0.0960 -1.9327
  109OSM    C9F11207   3.785   4.337   5.857 -0.6207  0.5778  0.4834
  109OSM    H9F11208   3.743   4.236   5.847  3.0710 -1.3252  2.0381
  109OSM   C10F11209   3.851   4.382   5.746  0.0720 -0.0444 -0.5090
  109OSM   H10F11210   3.854   4.319   5.656  0.0690 -1.0333  0.1684
  109OSM   C11F11211   3.928   4.515   5.728 -0.0573  0.1346  0.2651
  109OSM   H11F11212   4.035   4.487   5.732  0.0743  0.6820  0.7692
  109OSM   H11G11213   3.926   4.574   5.822  0.1655 -0.6781  0.7916
  109OSM   C12F11214   3.889   4.609   5.612 -0.1756  0.7597  0.4120
  109OSM   H12F11215   3.943   4.585   5.518 -1.2048  0.4549 -0.1232
  109OSM   H12G11216   3.942   4.701   5.644  2.1397 -0.7811  1.2878
  109OSM   C13F11217   3.742   4.611   5.570  0.8110 -0.0988 -0.0542
  109OSM   H13F11218   3.682   4.636   5.660  1.2353 -1.5794  0.6651
  109OSM   H13G11219   3.704   4.509   5.547 -3.0691  0.8442  1.3705
  109OSM   C14F11220   3.712   4.698   5.455  0.0241  0.3819  0.1287
  109OSM   H14F11221   3.777   4.662   5.372  0.8812 -1.5185  1.5436
  109OSM   H14G11222   3.731   4.807   5.465  1.2586  0.3749 -1.6669
  109OSM   C15F11223   3.564   4.699   5.420 -0.1565  0.8899 -0.3110
  109OSM   H15F11224   3.499   4.761   5.486 -1.8382 -1.6859  0.6163
  109OSM   H15G11225   3.515   4.603   5.450 -0.5197  1.6897  1.8578
  109OSM   C16F11226   3.538   4.719   5.266 -0.3300  0.0862 -1.1401
  109OSM   H16F11227   3.544   4.633   5.196 -1.2949 -0.9697  0.0368
  109OSM   H16G11228   3.603   4.801   5.227  0.5781 -0.0472  0.0168
  109OSM   C17F11229   3.399   4.766   5.252  1.2131 -0.1517  0.2643
  109OSM   H17F11230   3.391   4.861   5.309 -1.9036 -1.2032  1.8444
  109OSM   H17G11231   3.327   4.698   5.304  0.0685  1.0432  0.3065
  109OSM   C18F11232   3.351   4.782   5.106 -0.1878 -0.1766 -0.5361
  109OSM   H18F11233   3.243   4.809   5.110 -0.3721 -0.6225 -2.1096
  109OSM   H18G11234   3.369   4.686   5.053  1.2361  0.2583 -0.8744
  109OSM   H18H11235   3.410   4.856   5.049  0.2022 -1.0706 -1.3149
  110OSM      N11236   1.322   1.036   7.522 -0.9204 -0.6077  0.5023
  110OSM    C1511237   1.389   1.106   7.406  0.2559 -0.2698 -0.7322
  110OSM   H15A11238   1.322   1.165   7.345 -0.4025  1.3274  1.4387
  110OSM   H15B11239   1.439   1.048   7.330  0.4526  0.8328 -1.4758
  110OSM   H15C11240   1.461   1.183   7.428 -0.6493  0.5712 -0.6755
  110OSM    C1411241   1.418   0.954   7.600 -0.1648  0.6456  0.4452
  110OSM   H14A11242   1.442   0.867   7.540  1.2228  1.3945 -0.1207
  110OSM   H14B11243   1.369   0.904   7.683 -1.1599 -0.7658 -0.9293
  110OSM   H14C11244   1.510   1.002   7.627  0.9410 -1.1859  0.1423
  110OSM    C1311245   1.254   1.138   7.609  0.3139  0.3198  0.4147
  110OSM   H13A11246   1.319   1.181   7.683  1.2502  0.0729 -0.2509
  110OSM   H13B11247   1.163   1.096   7.650  0.1702  0.6711  0.4555
  110OSM   H13C11248   1.229   1.227   7.553  1.6511  1.7957  2.0534
  110OSM    C1211249   1.206   0.951   7.460  0.2370 -0.2786  0.5288
  110OSM   H12A11250   1.260   0.884   7.395 -0.6307 -1.3251  0.8460
  110OSM   H12B11251   1.138   1.003   7.395 -0.6315 -2.0432 -0.0464
  110OSM    C1111252   1.131   0.848   7.547  0.3423 -0.0805 -0.4214
  110OSM   H11A11253   1.191   0.764   7.589 -0.6156 -1.5935 -1.9156
  110OSM   H11B11254   1.064   0.794   7.476 -0.2328  1.1728 -0.8601
  110OSM      P11255   0.907   0.934   7.685  0.0122  0.0380 -0.0895
  110OSM    O1311256   0.864   0.834   7.780  0.3848  0.2374  0.5049
  110OSM    O1411257   0.874   1.066   7.731 -0.1596 -0.1570 -0.1815
  110OSM    O1111258   0.829   0.902   7.550 -0.6943  0.0705  0.2187
  110OSM    O1211259   1.060   0.923   7.649 -0.0116  0.6265 -0.5188
  110OSM    C1S11260   0.801   1.017   7.462  0.2918 -0.4394  0.1201
  110OSM    H1S11261   0.873   1.101   7.464 -1.5210  1.2204 -0.9852
  110OSM    H1T11262   0.697   1.054   7.475 -0.8012 -2.7458 -1.4156
  110OSM     NF11263   0.837   1.105   7.235 -0.4365 -0.9398  0.7534
  110OSM    HNF11264   0.750   1.125   7.189 -0.4759 -3.2157 -0.3387
  110OSM    C2S11265   0.833   0.985   7.313 -0.1905  0.3454  0.2457
  110OSM    H2S11266   0.926   0.924   7.311 -0.7768 -0.5506 -0.6890
  110OSM    C3S11267   0.714   0.893   7.268  0.3725 -0.4939 -0.6934
  110OSM    H3S11268   0.618   0.945   7.284  0.0475 -1.0284 -0.8609
  110OSM     O311269   0.704   0.772   7.340 -0.0925 -0.3577  0.1160
  110OSM    HO311270   0.768   0.794   7.408  0.8812 -2.5811  0.0155
  110OSM    C4S11271   0.718   0.858   7.116  0.0366  0.3627  1.2360
  110OSM    H4S11272   0.685   0.939   7.049 -1.7725 -2.4023 -1.5067
  110OSM    C5S11273   0.749   0.739   7.047  0.3907 -0.8341 -0.1223
  110OSM    H5S11274   0.815   0.668   7.100  3.8218  0.5276 -2.2511
  110OSM    C6S11275   0.747   0.730   6.894 -0.2540 -0.1575 -0.3839
  110OSM    H6S11276   0.674   0.651   6.867  1.2847 -1.6761 -0.2632
  110OSM    H6T11277   0.850   0.699   6.866 -0.1984  0.0542 -0.4120
  110OSM    C7S11278   0.715   0.860   6.822 -0.0237  0.1235 -0.0522
  110OSM    H7S11279   0.779   0.946   6.850  0.4468 -0.3268  0.2629
  110OSM    H7T11280   0.608   0.889   6.828 -0.1402 -0.0876 -0.9544
  110OSM    C8S11281   0.741   0.830   6.673  0.6856  0.0029 -0.4315
  110OSM    H8S11282   0.673   0.746   6.645 -0.8429  1.2726 -0.6761
  110OSM    H8T11283   0.844   0.789   6.670  1.4673  1.9083 -2.7248
  110OSM    C9S11284   0.733   0.941   6.577  0.4229 -0.7311  0.3633
  110OSM    H9S11285   0.791   1.033   6.599  0.8443 -0.7551 -0.5874
  110OSM    H9T11286   0.626   0.965   6.559 -0.1852 -4.4642 -1.9871
  110OSM   C10S11287   0.778   0.883   6.434 -0.4567 -0.0960 -0.4367
  110OSM   H10S11288   0.724   0.787   6.415  0.5634 -0.8448  0.3532
  110OSM   H10T11289   0.883   0.850   6.450 -0.4745 -0.3305 -0.7951
  110OSM   C11S11290   0.772   0.981   6.317 -0.9070 -0.0326  0.1727
  110OSM   H11S11291   0.853   1.056   6.326 -1.0907  0.1540  0.2679
  110OSM   H11T11292   0.676   1.034   6.302  0.3556  1.7807 -2.2401
  110OSM   C12S11293   0.784   0.895   6.189  0.2881 -0.6199 -0.6729
  110OSM   H12S11294   0.689   0.837   6.183  0.6022 -1.2043 -0.1911
  110OSM   H12T11295   0.870   0.825   6.195  1.2960  0.3364 -2.9590
  110OSM   C13S11296   0.799   0.982   6.063  0.0045 -0.5379  0.1813
  110OSM   H13S11297   0.778   0.913   5.978  1.5785 -2.3010  1.1396
  110OSM   H13T11298   0.908   1.000   6.047  0.2721 -2.2702 -0.1126
  110OSM   C14S11299   0.712   1.109   6.052  1.2409  0.4905 -0.0812
  110OSM   H14S11300   0.748   1.189   6.120  2.0562  0.7564 -0.7972
  110OSM   H14T11301   0.606   1.079   6.069  1.6810 -1.2884 -0.2617
  110OSM   C15S11302   0.710   1.175   5.907  0.2351  0.4282 -0.1398
  110OSM   H15S11303   0.635   1.256   5.901  0.3699  0.4839 -1.4142
  110OSM   H15T11304   0.680   1.099   5.832  1.0662 -0.6595  0.5996
  110OSM   C16S11305   0.847   1.227   5.857 -0.4799 -0.1875 -0.4495
  110OSM   H16S11306   0.909   1.141   5.825  2.4644  1.9072 -0.7437
  110OSM   H16T11307   0.895   1.279   5.943 -0.4699  1.9429 -1.6770
  110OSM   C17S11308   0.842   1.313   5.732 -0.9322  0.0771  0.1097
  110OSM   H17S11309   0.815   1.417   5.759 -0.5718  0.0066  0.7693
  110OSM   H17T11310   0.762   1.265   5.672  0.2647 -2.7201  0.6053
  110OSM   C18S11311   0.977   1.331   5.659 -0.1741 -0.8581  0.2710
  110OSM   H18S11312   1.003   1.227   5.629 -0.5335 -0.6372 -0.8670
  110OSM   H18T11313   1.065   1.368   5.717  0.9746 -1.1950 -1.1893
  110OSM   H18U11314   0.964   1.391   5.566  0.3667  0.4228  1.0036
  110OSM    C1F11315   0.950   1.171   7.210 -0.6563  0.2543 -0.5637
  110OSM     OF11316   1.043   1.142   7.291 -0.1397  0.7639 -0.2974
  110OSM    C2F11317   0.949   1.276   7.105  0.0056  0.6810  0.0407
  110OSM    H2F11318   0.873   1.347   7.144 -0.2778  0.5565 -0.2832
  110OSM    H2G11319   0.932   1.242   7.001  2.6636 -0.8288  0.0121
  110OSM    C3F11320   1.087   1.352   7.103 -0.1289  0.4914  0.4525
  110OSM    H3F11321   1.173   1.284   7.085  0.1403  0.6292  1.1792
  110OSM    H3G11322   1.104   1.377   7.209  1.2717  1.2645  0.0698
  110OSM    C4F11323   1.085   1.456   6.994  0.3136  0.0469  0.0562
  110OSM    H4F11324   1.180   1.511   7.007 -0.5819  1.4621  0.8791
  110OSM    H4G11325   1.001   1.528   7.007  0.7330  0.8114 -1.3176
  110OSM    C5F11326   1.088   1.387   6.857 -0.1597 -0.4488  0.1608
  110OSM    H5F11327   0.982   1.354   6.842 -0.4141 -0.0405  1.0150
  110OSM    H5G11328   1.146   1.293   6.844 -2.4438 -1.6742 -2.3419
  110OSM    C6F11329   1.136   1.489   6.756 -0.2675  0.2159  0.0699
  110OSM    H6F11330   1.227   1.546   6.784 -0.8241  1.2688 -0.1824
  110OSM    H6G11331   1.058   1.568   6.759  0.5027  0.9372  2.1324
  110OSM    C7F11332   1.158   1.435   6.613 -0.1891 -0.6560  0.2651
  110OSM    H7F11333   1.089   1.352   6.587  0.6190 -1.2276 -0.0856
  110OSM    H7G11334   1.257   1.385   6.604  0.1746  0.1010 -0.0590
  110OSM    C8F11335   1.151   1.543   6.509 -0.1156  0.1548  1.2797
  110OSM    H8F11336   1.227   1.624   6.516  1.7268 -1.3024 -0.6225
  110OSM    H8G11337   1.049   1.587   6.499 -0.3667 -0.6712  0.0191
  110OSM    C9F11338   1.174   1.480   6.374  0.0747  0.2356 -0.1223
  110OSM    H9F11339   1.137   1.376   6.372  0.3338  0.1527 -1.2496
  110OSM   C10F11340   1.232   1.531   6.265 -0.1763 -0.0704 -0.0023
  110OSM   H10F11341   1.249   1.462   6.180 -0.3354  0.7792 -0.7425
  110OSM   C11F11342   1.280   1.672   6.245  0.4707  1.0287  0.2979
  110OSM   H11F11343   1.390   1.669   6.255  0.7032 -0.1453 -1.9560
  110OSM   H11G11344   1.250   1.739   6.329 -0.7766 -0.0307  0.7330
  110OSM   C12F11345   1.243   1.702   6.096  0.0120  0.0248  0.3022
  110OSM   H12F11346   1.261   1.809   6.070  0.8829 -0.2837 -0.3997
  110OSM   H12G11347   1.137   1.677   6.074 -0.3786  1.7241  0.0697
  110OSM   C13F11348   1.331   1.628   5.995 -0.3788  0.1911  0.2248
  110OSM   H13F11349   1.326   1.518   6.002 -0.5846  0.1888  0.0578
  110OSM   H13G11350   1.431   1.676   5.992 -0.4546  0.3168 -0.3770
  110OSM   C14F11351   1.276   1.648   5.852 -0.3082 -0.1060  0.1702
  110OSM   H14F11352   1.278   1.758   5.834  2.5273 -0.1678 -0.3476
  110OSM   H14G11353   1.170   1.614   5.851 -0.4004 -0.0061  2.2900
  110OSM   C15F11354   1.365   1.587   5.732 -1.0635  0.5773  0.3789
  110OSM   H15F11355   1.343   1.479   5.717  1.8770 -0.2019  0.8728
  110OSM   H15G11356   1.469   1.593   5.773 -1.4774 -0.4957  1.6754
  110OSM   C16F11357   1.349   1.663   5.601 -0.4082 -0.2770 -0.7678
  110OSM   H16F11358   1.353   1.771   5.626  0.8671 -0.4812 -0.0137
  110OSM   H16G11359   1.244   1.648   5.568 -0.9630 -0.4577  0.9959
  110OSM   C17F11360   1.453   1.612   5.495 -0.2620 -0.1294 -0.1050
  110OSM   H17F11361   1.423   1.508   5.470  1.0576 -0.7397  0.7524
  110OSM   H17G11362   1.552   1.611   5.546  0.6523 -0.7074 -1.8153
  110OSM   C18F11363   1.450   1.709   5.375 -0.3373 -0.1916  0.8061
  110OSM   H18F11364   1.489   1.804   5.416 -1.1415  1.3851 -1.8216
  110OSM   H18G11365   1.348   1.707   5.330  0.4234 -2.2388 -1.0193
  110OSM   H18H11366   1.523   1.673   5.300 -0.9119  0.3048 -0.0123
  111OSM      N11367   2.780   5.460   7.369  0.2692 -0.0204  0.9287
  111OSM    C1511368   2.892   5.423   7.278 -0.0014 -0.7903  0.0958
  111OSM   H15A11369   2.854   5.353   7.206 -0.7896  1.3750 -1.7149
  111OSM   H15B11370   2.971   5.378   7.336  1.0904 -0.5473 -1.1645
  111OSM   H15C11371   2.934   5.504   7.220  0.3942  0.5502  2.1393
  111OSM    C1411372   2.774   5.325   7.449 -0.2293  0.2384  0.2656
  111OSM   H14A11373   2.869   5.306   7.495  0.2005  0.6831 -0.4188
  111OSM   H14B11374   2.747   5.242   7.386  0.0432  0.7692 -0.5640
  111OSM   H14C11375   2.703   5.334   7.531 -1.0741  0.3897 -0.4620
  111OSM    C1311376   2.822   5.572   7.461  0.0343 -0.4618 -0.5777
  111OSM   H13A11377   2.747   5.607   7.530  0.9625  1.7232 -0.5911
  111OSM   H13B11378   2.854   5.657   7.402 -0.4336 -0.1102 -0.3340
  111OSM   H13C11379   2.913   5.550   7.515  1.2811  1.9946 -1.5210
  111OSM    C1211380   2.644   5.505   7.295 -0.5104 -0.8490 -0.5131
  111OSM   H12A11381   2.624   5.444   7.209 -0.8068 -0.6983 -0.5523
  111OSM   H12B11382   2.656   5.607   7.262  2.1011 -1.4456 -1.6764
  111OSM    C1111383   2.523   5.491   7.385  0.5934 -0.4708 -0.6843
  111OSM   H11A11384   2.512   5.386   7.421 -1.4362 -0.0790 -0.0312
  111OSM   H11B11385   2.423   5.510   7.341 -0.8179 -1.0796  2.0374
  111OSM      P11386   2.459   5.720   7.489 -0.0837 -0.0848 -0.3368
  111OSM    O1311387   2.314   5.707   7.477  0.6953  0.0320  0.3037
  111OSM    O1411388   2.511   5.799   7.605 -0.0982 -0.3707 -0.3366
  111OSM    O1111389   2.519   5.780   7.353 -0.2512  0.2807  0.0688
  111OSM    O1211390   2.530   5.578   7.496  0.2981  0.6115 -0.0602
  111OSM    C1S11391   2.516   5.926   7.339 -1.5912  0.1511 -0.7798
  111OSM    H1S11392   2.609   5.959   7.391 -1.4941 -0.0767 -0.8057
  111OSM    H1T11393   2.427   5.959   7.397 -0.4032 -0.8751  1.8145
  111OSM     NF11394   2.498   6.107   7.185  0.1347  0.9582  0.3427
  111OSM    HNF11395   2.411   6.157   7.185  0.2176  1.1213 -0.7118
  111OSM    C2S11396   2.506   5.964   7.189 -0.4993  0.2812 -0.2701
  111OSM    H2S11397   2.602   5.925   7.148  0.5092  0.5939  1.6545
  111OSM    C3S11398   2.401   5.892   7.107 -0.8298 -0.6840  0.1767
  111OSM    H3S11399   2.299   5.923   7.136 -0.0280  2.3390  0.0155
  111OSM     O311400   2.409   5.749   7.121 -0.4331  0.5144  0.1212
  111OSM    HO311401   2.453   5.747   7.206 -2.5455  1.9715  1.3399
  111OSM    C4S11402   2.407   5.922   6.967 -0.2695  0.1623  0.6234
  111OSM    H4S11403   2.503   5.903   6.916 -0.6968 -1.6055  0.4186
  111OSM    C5S11404   2.317   5.994   6.895 -0.3775  0.4042 -0.0767
  111OSM    H5S11405   2.243   6.047   6.956  1.5390  2.6612  0.4413
  111OSM    C6S11406   2.340   6.053   6.758  0.1276  0.3478  0.7666
  111OSM    H6S11407   2.444   6.078   6.730  0.5835 -0.3513  1.7754
  111OSM    H6T11408   2.278   6.145   6.745 -1.0950 -0.3897  1.2152
  111OSM    C7S11409   2.290   5.953   6.655 -0.3028 -0.1489  0.2468
  111OSM    H7S11410   2.192   5.914   6.690 -1.2735  0.4090 -1.7077
  111OSM    H7T11411   2.373   5.879   6.647 -0.0465  0.3703 -3.7344
  111OSM    C8S11412   2.270   6.028   6.521 -0.3194  0.0609 -0.6432
  111OSM    H8S11413   2.355   6.099   6.508  0.3661 -0.4325  0.9560
  111OSM    H8T11414   2.184   6.097   6.533 -1.0802 -0.6839 -1.6836
  111OSM    C9S11415   2.269   5.926   6.410  1.1400 -0.6519  0.8682
  111OSM    H9S11416   2.187   5.853   6.426  0.6895 -0.0869  1.1707
  111OSM    H9T11417   2.364   5.868   6.409  1.5303 -0.0271 -0.2706
  111OSM   C10S11418   2.260   5.995   6.271  1.1434 -0.1320 -0.4074
  111OSM   H10S11419   2.336   6.075   6.261  0.4967  0.6431  0.6365
  111OSM   H10T11420   2.160   6.043   6.272  1.1295 -0.1226 -1.3296
  111OSM   C11S11421   2.282   5.898   6.147 -0.4088 -0.9597 -0.0747
  111OSM   H11S11422   2.228   5.807   6.180  0.2734 -1.3152  0.0731
  111OSM   H11T11423   2.384   5.856   6.139  0.0601  0.1667 -0.1527
  111OSM   C12S11424   2.227   5.954   6.019 -0.1942 -0.6016  0.0627
  111OSM   H12S11425   2.116   5.958   6.020 -0.1677  0.9027  1.1871
  111OSM   H12T11426   2.266   5.876   5.951  0.2699  0.6754 -1.2017
  111OSM   C13S11427   2.282   6.101   5.989  1.2576 -0.3845  0.4518
  111OSM   H13S11428   2.392   6.107   5.998  1.2574  1.7300 -0.2544
  111OSM   H13T11429   2.236   6.167   6.066  0.0032 -1.3675  0.5612
  111OSM   C14S11430   2.242   6.141   5.846 -0.8396 -0.1220  0.0098
  111OSM   H14S11431   2.135   6.117   5.832 -0.2812 -1.7840 -1.8345
  111OSM   H14T11432   2.300   6.086   5.769  0.4928 -3.4260  3.0681
  111OSM   C15S11433   2.262   6.294   5.822 -0.1732  0.9209 -0.2048
  111OSM   H15S11434   2.368   6.313   5.849 -0.8027  2.8987  1.2026
  111OSM   H15T11435   2.200   6.348   5.898  0.1221  1.7125 -0.5203
  111OSM   C16S11436   2.225   6.330   5.672 -0.1410  1.0178 -0.3423
  111OSM   H16S11437   2.121   6.304   5.645 -0.7981  1.3472  1.7452
  111OSM   H16T11438   2.292   6.268   5.608 -1.8460 -0.0418 -1.1782
  111OSM   C17S11439   2.253   6.479   5.642  0.2427  0.0597 -0.3708
  111OSM   H17S11440   2.362   6.498   5.645 -0.1168  2.3325 -0.0493
  111OSM   H17T11441   2.200   6.535   5.722  0.4655  1.1733 -0.9804
  111OSM   C18S11442   2.198   6.520   5.504  0.3340 -0.8968  0.0627
  111OSM   H18S11443   2.225   6.447   5.425  0.8465 -2.8990  1.9985
  111OSM   H18T11444   2.237   6.623   5.495 -1.2567 -0.4491 -2.5834
  111OSM   H18U11445   2.087   6.527   5.517  0.2667 -0.5317 -0.6672
  111OSM    C1F11446   2.604   6.180   7.210  0.6037 -0.5328 -0.1711
  111OSM     OF11447   2.708   6.133   7.264 -0.0796 -0.1686  0.0538
  111OSM    C2F11448   2.603   6.325   7.181 -0.3947 -0.0669 -0.0748
  111OSM    H2F11449   2.703   6.339   7.133  0.3130 -1.7149  0.8217
  111OSM    H2G11450   2.606   6.382   7.277  0.6329  0.5983 -0.4816
  111OSM    C3F11451   2.491   6.371   7.089  0.0123 -0.1575  0.2916
  111OSM    H3F11452   2.486   6.479   7.111 -1.1541 -0.1067 -0.1564
  111OSM    H3G11453   2.394   6.325   7.120 -0.1104 -1.0669 -1.3406
  111OSM    C4F11454   2.504   6.331   6.939 -0.3633  0.3013  0.4324
  111OSM    H4F11455   2.448   6.241   6.908 -1.6632  1.7546 -1.7300
  111OSM    H4G11456   2.612   6.319   6.919 -0.4856 -1.7237  0.7957
  111OSM    C5F11457   2.442   6.441   6.860  0.4987 -1.2345  0.8586
  111OSM    H5F11458   2.497   6.535   6.883 -0.8350  1.1730 -4.4027
  111OSM    H5G11459   2.336   6.450   6.892  0.8443 -0.7297  1.9000
  111OSM    C6F11460   2.453   6.418   6.704  0.7490 -0.3915 -0.7340
  111OSM    H6F11461   2.438   6.309   6.690  0.6281 -0.3639 -0.8152
  111OSM    H6G11462   2.555   6.447   6.670  1.3276  0.6084  1.6261
  111OSM    C7F11463   2.358   6.507   6.622  0.1101 -0.0092  0.4530
  111OSM    H7F11464   2.373   6.616   6.635 -0.3385  0.1091  0.0229
  111OSM    H7G11465   2.251   6.483   6.644  0.0915 -1.6065 -1.1080
  111OSM    C8F11466   2.381   6.466   6.472  0.8591  1.0903  0.2699
  111OSM    H8F11467   2.374   6.355   6.467 -2.5926  1.2749 -2.1035
  111OSM    H8G11468   2.486   6.495   6.450  0.8784 -0.5776 -2.1846
  111OSM    C9F11469   2.282   6.535   6.382  0.0002  0.0991 -0.1594
  111OSM    H9F11470   2.221   6.615   6.426  1.0286 -0.6488  2.8541
  111OSM   C10F11471   2.260   6.509   6.258  0.2582 -0.3167  0.4128
  111OSM   H10F11472   2.174   6.563   6.215 -0.5276 -0.4887  1.7167
  111OSM   C11F11473   2.331   6.403   6.168 -0.2225 -0.2612  0.4726
  111OSM   H11F11474   2.283   6.372   6.073  1.7673 -0.1063 -0.6292
  111OSM   H11G11475   2.354   6.309   6.223  1.0055 -0.6186 -0.6220
  111OSM   C12F11476   2.465   6.469   6.132  0.4223 -0.4571  0.2806
  111OSM   H12F11477   2.530   6.388   6.094 -2.5953 -3.1578  0.4125
  111OSM   H12G11478   2.528   6.511   6.213 -0.7879 -0.4549  1.2505
  111OSM   C13F11479   2.457   6.588   6.036 -0.1178 -0.4568  0.2449
  111OSM   H13F11480   2.407   6.674   6.086 -2.8460 -2.0450  0.4468
  111OSM   H13G11481   2.376   6.568   5.962 -0.3008  2.0713 -0.3408
  111OSM   C14F11482   2.581   6.629   5.963  0.7966  0.3372 -0.7385
  111OSM   H14F11483   2.667   6.658   6.028 -0.0158  3.0154 -0.7530
  111OSM   H14G11484   2.555   6.721   5.907  1.7460  0.4924 -0.9517
  111OSM   C15F11485   2.630   6.534   5.851  0.3947 -0.3104 -0.3140
  111OSM   H15F11486   2.539   6.501   5.796 -0.3069 -1.3165  1.3648
  111OSM   H15G11487   2.687   6.452   5.901 -0.3838 -0.0987  0.9811
  111OSM   C16F11488   2.707   6.608   5.742  0.5993  0.1268  0.8988
  111OSM   H16F11489   2.772   6.531   5.696  0.0377 -0.0868  0.4526
  111OSM   H16G11490   2.768   6.693   5.779  0.8563  0.3242  0.0285
  111OSM   C17F11491   2.607   6.667   5.643 -0.2542 -0.3825  0.4275
  111OSM   H17F11492   2.565   6.763   5.679  0.2554 -1.0797  3.0902
  111OSM   H17G11493   2.522   6.598   5.622 -0.0916 -0.0564 -1.4559
  111OSM   C18F11494   2.671   6.694   5.504  0.0851  0.9019  0.1732
  111OSM   H18F11495   2.774   6.736   5.507 -0.0516  1.2179  0.5167
  111OSM   H18G11496   2.614   6.756   5.432  1.5090  1.2298 -0.7340
  111OSM   H18H11497   2.663   6.597   5.451  0.4507  0.7474  0.3949
  112OSM      N11498   6.489   3.860   7.779 -0.4982 -0.0029 -0.3354
  112OSM    C1511499   6.357   3.839   7.835 -0.3842 -0.5617 -0.0251
  112OSM   H15A11500   6.339   3.733   7.824  2.6668 -0.9554 -2.3506
  112OSM   H15B11501   6.283   3.884   7.770 -0.3444  0.7318  0.7910
  112OSM   H15C11502   6.350   3.881   7.934 -2.0259  0.7083 -0.6325
  112OSM    C1411503   6.522   4.002   7.785  0.6554  0.3306  0.0133
  112OSM   H14A11504   6.613   4.026   7.731 -0.7610  0.6917 -2.3457
  112OSM   H14B11505   6.542   4.034   7.886  1.3752 -1.3650  0.4620
  112OSM   H14C11506   6.445   4.060   7.738 -1.5828 -2.0224  0.5599
  112OSM    C1311507   6.586   3.775   7.856  0.5351 -0.2626 -0.5586
  112OSM   H13A11508   6.577   3.668   7.847  2.2317 -0.4746 -0.1670
  112OSM   H13B11509   6.560   3.793   7.959  0.5683 -0.6389 -0.4842
  112OSM   H13C11510   6.689   3.804   7.838  1.5295 -2.1583  1.6450
  112OSM    C1211511   6.495   3.828   7.626 -0.0505 -0.1260  0.3439
  112OSM   H12A11512   6.601   3.818   7.607 -0.6917 -0.9816 -3.8393
  112OSM   H12B11513   6.462   3.912   7.566  0.6019 -0.6090 -0.7356
  112OSM    C1111514   6.433   3.699   7.574 -0.3601  0.0742  0.1570
  112OSM   H11A11515   6.472   3.612   7.631  0.2445 -0.1559 -0.5795
  112OSM   H11B11516   6.469   3.679   7.470  1.4886 -1.6686  1.0652
  112OSM      P11517   6.201   3.795   7.505 -0.2902  0.1177 -0.2216
  112OSM    O1311518   6.066   3.737   7.503  0.1119  0.1710 -0.3105
  112OSM    O1411519   6.220   3.930   7.565 -0.6917  0.1191  0.9137
  112OSM    O1111520   6.258   3.795   7.368  0.9177  0.2563  0.3135
  112OSM    O1211521   6.293   3.703   7.589  0.2729 -0.4027 -0.4050
  112OSM    C1S11522   6.234   3.893   7.273  0.6941  0.4998  0.3251
  112OSM    H1S11523   6.298   3.980   7.300  0.3726  1.4065 -1.6324
  112OSM    H1T11524   6.127   3.921   7.262  0.7031  0.0259 -1.2292
  112OSM     NF11525   6.275   3.941   7.027 -0.7923  0.3541  0.2345
  112OSM    HNF11526   6.186   3.938   6.982 -0.3278 -2.6331 -0.7184
  112OSM    C2S11527   6.290   3.836   7.132  1.2721 -0.1821 -0.7778
  112OSM    H2S11528   6.396   3.810   7.148  1.0979 -1.8158 -1.9633
  112OSM    C3S11529   6.219   3.706   7.099 -0.9100 -0.5263  0.0109
  112OSM    H3S11530   6.109   3.711   7.115 -0.8051 -4.1080  3.1498
  112OSM     O311531   6.269   3.604   7.185  0.1642 -0.1523  0.0819
  112OSM    HO311532   6.266   3.646   7.271 -0.1266 -0.0066  0.0013
  112OSM    C4S11533   6.246   3.672   6.951 -0.1256  0.2940  0.6914
  112OSM    H4S11534   6.184   3.727   6.879  0.5945 -1.5278 -1.4283
  112OSM    C5S11535   6.336   3.585   6.894  0.2332  0.7910 -0.5039
  112OSM    H5S11536   6.404   3.530   6.960 -1.6911 -0.0081  0.9081
  112OSM    C6S11537   6.361   3.568   6.746  0.7316  0.2094  0.1559
  112OSM    H6S11538   6.357   3.461   6.716 -0.6457  0.3022 -0.0814
  112OSM    H6T11539   6.466   3.600   6.726  0.6133  2.6993  2.8761
  112OSM    C7S11540   6.261   3.643   6.649 -0.2288 -0.3067  0.5902
  112OSM    H7S11541   6.270   3.751   6.674  1.3864  0.0237 -1.2212
  112OSM    H7T11542   6.155   3.617   6.672 -0.3745  1.2440  1.8519
  112OSM    C8S11543   6.290   3.611   6.496  0.3416  0.2589  0.8051
  112OSM    H8S11544   6.274   3.501   6.490 -1.9522  0.6134 -1.6232
  112OSM    H8T11545   6.389   3.628   6.447 -0.7774  0.7669 -1.3935
  112OSM    C9S11546   6.184   3.669   6.395  0.4695 -0.0950  0.1318
  112OSM    H9S11547   6.185   3.781   6.394 -2.0127  0.0270 -2.1761
  112OSM    H9T11548   6.084   3.651   6.439 -0.0116  2.0547  0.0380
  112OSM   C10S11549   6.183   3.609   6.255 -0.3820 -0.4997  0.5578
  112OSM   H10S11550   6.174   3.499   6.262 -1.3374 -0.4415  0.3107
  112OSM   H10T11551   6.285   3.626   6.212 -0.3034  0.1780  0.9983
  112OSM   C11S11552   6.064   3.653   6.162  0.6901 -0.6290 -0.0202
  112OSM   H11S11553   6.054   3.762   6.180  0.1514 -0.3047 -2.0425
  112OSM   H11T11554   5.975   3.605   6.208 -0.4820  1.0795 -0.4139
  112OSM   C12S11555   6.094   3.614   6.016 -0.9959  0.1163 -1.1461
  112OSM   H12S11556   6.093   3.503   6.032  0.9000  0.3633  1.2907
  112OSM   H12T11557   6.196   3.655   6.004 -1.5931  1.7125 -1.0006
  112OSM   C13S11558   6.000   3.667   5.904 -0.5786  0.0832 -0.1438
  112OSM   H13S11559   6.009   3.776   5.884 -0.6611 -0.1064 -1.3072
  112OSM   H13T11560   5.897   3.651   5.941 -0.1142 -0.4933  0.9307
  112OSM   C14S11561   6.034   3.604   5.773 -0.0625  0.1914  0.2089
  112OSM   H14S11562   6.027   3.493   5.780 -1.9160  0.3599  1.5636
  112OSM   H14T11563   6.139   3.631   5.748  0.1465 -0.4060  0.4089
  112OSM   C15S11564   5.953   3.653   5.652  0.0952  0.3487  0.1992
  112OSM   H15S11565   5.964   3.763   5.663  1.0501  0.2270  0.5397
  112OSM   H15T11566   5.849   3.625   5.676  1.1895 -1.8453  3.0004
  112OSM   C16S11567   6.009   3.613   5.516  0.0215 -0.0884  0.2915
  112OSM   H16S11568   6.120   3.609   5.519  0.1409  1.7168 -0.4253
  112OSM   H16T11569   5.989   3.691   5.440  3.2062  1.0399  0.4496
  112OSM   C17S11570   5.937   3.494   5.463 -0.3467  0.8239  0.3511
  112OSM   H17S11571   5.835   3.534   5.449 -0.2228  0.7766 -0.8695
  112OSM   H17T11572   5.934   3.411   5.536 -1.0017  1.4348  1.0289
  112OSM   C18S11573   5.997   3.439   5.329 -0.3659 -0.3687 -0.1322
  112OSM   H18S11574   5.942   3.361   5.273  0.6731 -0.0666 -1.6053
  112OSM   H18T11575   6.099   3.401   5.351 -0.5572  0.2995  2.1639
  112OSM   H18U11576   6.005   3.527   5.262  0.3762  0.1927  0.6568
  112OSM    C1F11577   6.353   4.047   7.013  0.1228  0.0546  0.1530
  112OSM     OF11578   6.454   4.062   7.082 -0.4602  0.1343 -0.4739
  112OSM    C2F11579   6.312   4.147   6.908  0.2370  0.1011 -0.2606
  112OSM    H2F11580   6.350   4.248   6.933 -2.2040  0.8911  0.5123
  112OSM    H2G11581   6.203   4.166   6.908  0.3234  0.6276  0.1348
  112OSM    C3F11582   6.360   4.100   6.769 -1.0823  0.7934  0.7871
  112OSM    H3F11583   6.293   4.022   6.726 -1.2516  1.2635  0.1755
  112OSM    H3G11584   6.466   4.065   6.775 -0.1212  2.3784 -3.4928
  112OSM    C4F11585   6.360   4.220   6.673 -0.1852  0.6229 -0.0181
  112OSM    H4F11586   6.398   4.311   6.724 -3.1474  2.0953 -0.2747
  112OSM    H4G11587   6.255   4.245   6.650  0.2045  2.3090 -0.0742
  112OSM    C5F11588   6.439   4.194   6.539 -0.2261  0.1827  0.1649
  112OSM    H5F11589   6.394   4.105   6.490 -0.9879  0.1625  0.8865
  112OSM    H5G11590   6.539   4.162   6.575  0.8423  3.4318  0.4599
  112OSM    C6F11591   6.457   4.316   6.442  0.3064 -0.2593 -0.9539
  112OSM    H6F11592   6.500   4.404   6.494  0.2212  1.5124 -3.6548
  112OSM    H6G11593   6.355   4.349   6.413 -0.1950 -1.1211 -0.2140
  112OSM    C7F11594   6.547   4.276   6.331  0.8489  0.5009  0.1978
  112OSM    H7F11595   6.509   4.186   6.278 -0.2510  0.0098  1.7519
  112OSM    H7G11596   6.643   4.250   6.380 -0.2982  0.2435  2.4419
  112OSM    C8F11597   6.584   4.396   6.232 -0.0294  0.0792 -0.1492
  112OSM    H8F11598   6.688   4.366   6.207  1.0670 -0.1199  3.9184
  112OSM    H8G11599   6.590   4.483   6.300  2.1433  0.4060 -0.6630
  112OSM    C9F11600   6.497   4.406   6.111 -0.0644  0.3496  1.0289
  112OSM    H9F11601   6.392   4.372   6.120 -0.5207  0.3268 -2.5756
  112OSM   C10F11602   6.534   4.441   5.981 -0.3881 -0.1615 -1.0022
  112OSM   H10F11603   6.454   4.448   5.906 -0.9151  0.0458 -0.4284
  112OSM   C11F11604   6.664   4.498   5.936  0.0633 -0.2321 -0.2631
  112OSM   H11F11605   6.713   4.550   6.021  1.5059 -0.3990 -0.9680
  112OSM   H11G11606   6.636   4.577   5.862 -2.2535 -0.0937  0.6764
  112OSM   C12F11607   6.770   4.402   5.880  1.0323  0.0224  1.0861
  112OSM   H12F11608   6.764   4.318   5.953 -2.0616 -0.5546  0.3289
  112OSM   H12G11609   6.868   4.455   5.888 -0.0013  1.9701  1.3660
  112OSM   C13F11610   6.737   4.349   5.740  0.5220 -0.6736  0.2686
  112OSM   H13F11611   6.632   4.314   5.733 -0.4155  1.8783  0.4697
  112OSM   H13G11612   6.813   4.273   5.713  0.8521 -0.4149  0.4522
  112OSM   C14F11613   6.751   4.464   5.631 -0.2278 -0.3707 -0.4273
  112OSM   H14F11614   6.852   4.504   5.655 -0.2305 -1.3107  1.3122
  112OSM   H14G11615   6.674   4.544   5.647  0.5692  1.0714 -3.2369
  112OSM   C15F11616   6.727   4.418   5.492 -0.8535 -0.2498 -0.2469
  112OSM   H15F11617   6.730   4.513   5.434 -0.0307 -0.2395 -0.2017
  112OSM   H15G11618   6.626   4.375   5.471 -1.6547  1.0886  0.6760
  112OSM   C16F11619   6.836   4.316   5.436 -0.2451  0.5789 -0.6964
  112OSM   H16F11620   6.827   4.228   5.504  1.8594 -0.3134 -1.5014
  112OSM   H16G11621   6.937   4.362   5.448 -0.5554  0.8712  1.1171
  112OSM   C17F11622   6.810   4.281   5.292 -0.7477 -0.0480  0.6250
  112OSM   H17F11623   6.793   4.369   5.227 -2.8779  0.5351  1.8685
  112OSM   H17G11624   6.711   4.232   5.311 -0.0959 -2.2861 -1.2443
  112OSM   C18F11625   6.901   4.182   5.228 -1.0489 -0.0716 -0.2074
  112OSM   H18F11626   6.880   4.082   5.270 -0.3084 -0.4854 -0.7949
  112OSM   H18G11627   7.004   4.214   5.256 -0.2555 -0.4838 -2.3949
  112OSM   H18H11628   6.902   4.174   5.117 -1.8596 -1.7179 -0.1211
  113OSM      N11629   2.092   4.216   7.442 -0.0068 -0.0091 -0.0041
  113OSM    C1511630   1.977   4.246   7.537 -0.1331 -0.2632  0.4507
  113OSM   H15A11631   1.926   4.154   7.562 -0.7790 -0.0697 -0.1387
  113OSM   H15B11632   1.907   4.315   7.490 -0.6886 -0.8673  0.3734
  113OSM   H15C11633   2.015   4.289   7.629 -1.0299 -1.2961  1.3303
  113OSM    C1411634   2.201   4.144   7.521 -0.4993  0.0354 -0.1995
  113OSM   H14A11635   2.279   4.110   7.454  1.1006 -2.4164  2.6193
  113OSM   H14B11636   2.160   4.057   7.570 -0.7580  1.0027  1.3653
  113OSM   H14C11637   2.259   4.208   7.586 -0.5821  1.2362 -1.2858
  113OSM    C1311638   2.040   4.139   7.332 -0.2714 -0.0605 -0.2743
  113OSM   H13A11639   2.044   4.033   7.354  0.4092 -0.1001 -0.5580
  113OSM   H13B11640   2.086   4.151   7.235 -0.6969 -0.2661 -0.5011
  113OSM   H13C11641   1.935   4.154   7.316 -0.3077  0.6874  0.6039
  113OSM    C1211642   2.147   4.350   7.382 -0.1519 -0.3312 -0.8473
  113OSM   H12A11643   2.213   4.320   7.302  1.5112 -1.4755  0.8734
  113OSM   H12B11644   2.204   4.399   7.459  1.9416 -1.2327 -1.7639
  113OSM    C1111645   2.039   4.447   7.325 -0.2062  0.1557 -0.0843
  113OSM   H11A11646   1.989   4.493   7.413 -1.4585 -1.1845 -0.0564
  113OSM   H11B11647   1.972   4.395   7.253 -1.0002  1.1356 -0.0719
  113OSM      P11648   2.194   4.662   7.310 -0.5353 -0.2217 -0.2938
  113OSM    O1311649   2.121   4.790   7.300 -0.3083  0.5672 -0.0383
  113OSM    O1411650   2.246   4.613   7.445 -0.4455 -0.5835  0.1321
  113OSM    O1111651   2.324   4.666   7.211  0.0853  0.2824 -0.2250
  113OSM    O1211652   2.100   4.548   7.253 -0.1472 -0.0428 -0.2258
  113OSM    C1S11653   2.381   4.550   7.162 -0.5591 -0.2382  0.1346
  113OSM    H1S11654   2.376   4.457   7.223  1.2711 -1.1308 -0.9919
  113OSM    H1T11655   2.489   4.571   7.151 -0.5917  1.2422  2.2028
  113OSM     NF11656   2.365   4.389   6.969  0.0601  0.2376 -0.4244
  113OSM    HNF11657   2.454   4.386   6.925  1.1109  0.6923  1.5447
  113OSM    C2S11658   2.325   4.522   7.012  0.6530  0.0226 -0.0185
  113OSM    H2S11659   2.215   4.529   7.024  0.8849  2.1147  1.3679
  113OSM    C3S11660   2.376   4.636   6.913 -0.2296 -0.0926 -0.3283
  113OSM    H3S11661   2.486   4.627   6.906 -0.2503 -0.3919 -0.2778
  113OSM     O311662   2.346   4.770   6.950  0.2579 -0.3199 -0.1464
  113OSM    HO311663   2.343   4.768   7.046  2.0228 -0.6500 -0.0604
  113OSM    C4S11664   2.313   4.615   6.776 -0.5112  0.5899 -0.0935
  113OSM    H4S11665   2.206   4.641   6.776 -0.3744  1.2217 -1.0879
  113OSM    C5S11666   2.368   4.576   6.664 -0.4226  0.0132  0.5229
  113OSM    H5S11667   2.477   4.561   6.662 -0.3986  0.1638 -1.3954
  113OSM    C6S11668   2.304   4.566   6.531  0.1840 -0.0597 -0.3466
  113OSM    H6S11669   2.332   4.463   6.498  0.8945  0.2388 -0.7047
  113OSM    H6T11670   2.360   4.628   6.458  2.6131 -1.3532  0.2978
  113OSM    C7S11671   2.149   4.589   6.529 -0.3564 -0.7138 -0.0065
  113OSM    H7S11672   2.128   4.691   6.569 -0.5041 -0.3897 -0.8800
  113OSM    H7T11673   2.102   4.524   6.605 -1.2350  1.7017  1.6441
  113OSM    C8S11674   2.093   4.578   6.385  0.5871  0.3974  0.2027
  113OSM    H8S11675   2.157   4.630   6.310  1.3328 -2.9314 -1.6675
  113OSM    H8T11676   1.993   4.627   6.381 -0.2478 -1.2143 -3.4739
  113OSM    C9S11677   2.060   4.435   6.356  0.0554  0.2925  0.1999
  113OSM    H9S11678   1.992   4.393   6.433  1.3166  0.5354  1.4778
  113OSM    H9T11679   2.156   4.379   6.355  0.5384  0.9264 -3.0312
  113OSM   C10S11680   1.984   4.430   6.223  0.5981  0.3546  0.2378
  113OSM   H10S11681   1.892   4.492   6.220 -1.2825 -2.2639 -1.3244
  113OSM   H10T11682   1.952   4.323   6.222  1.4415  0.0785  1.3268
  113OSM   C11S11683   2.077   4.458   6.112  0.3945 -0.0162  0.3555
  113OSM   H11S11684   2.174   4.405   6.123 -0.4941 -1.6951  0.5273
  113OSM   H11T11685   2.108   4.565   6.111 -0.5519  0.2655 -0.5122
  113OSM   C12S11686   2.027   4.413   5.972  1.2740  0.0138  0.1619
  113OSM   H12S11687   2.021   4.303   5.984  1.8844 -0.1452 -0.8944
  113OSM   H12T11688   2.101   4.431   5.892  0.0436  0.2408 -0.9571
  113OSM   C13S11689   1.884   4.455   5.924  0.4529 -0.2412  0.4445
  113OSM   H13S11690   1.880   4.566   5.925 -0.5711 -0.2642 -0.2435
  113OSM   H13T11691   1.809   4.420   5.998 -1.0985  0.8503 -0.5676
  113OSM   C14S11692   1.845   4.406   5.792 -0.1945  0.4924  1.0322
  113OSM   H14S11693   1.919   4.430   5.713 -0.2200 -5.5681 -1.3615
  113OSM   H14T11694   1.752   4.460   5.764 -0.8508 -0.8301  0.5665
  113OSM   C15S11695   1.826   4.248   5.784 -0.4303 -0.0187 -0.0518
  113OSM   H15S11696   1.775   4.202   5.872 -0.0279 -2.0567 -0.8245
  113OSM   H15T11697   1.930   4.210   5.778  0.8744  3.3034 -0.4689
  113OSM   C16S11698   1.768   4.196   5.652  0.4636  0.0877 -0.5582
  113OSM   H16S11699   1.677   4.248   5.614 -0.7319 -1.7906 -0.4086
  113OSM   H16T11700   1.739   4.091   5.673 -0.0604  0.4677  0.7611
  113OSM   C17S11701   1.881   4.175   5.544 -0.1851 -1.2135 -0.4063
  113OSM   H17S11702   1.966   4.124   5.594 -0.9446  1.0237  3.6411
  113OSM   H17T11703   1.914   4.279   5.525 -1.9540 -0.5055  0.2037
  113OSM   C18S11704   1.819   4.114   5.416 -0.3689  0.0472 -0.2877
  113OSM   H18S11705   1.748   4.179   5.361  0.3129  0.1336 -1.0779
  113OSM   H18T11706   1.762   4.024   5.449  0.1144  0.1565  0.8970
  113OSM   H18U11707   1.903   4.083   5.351  0.5460  0.8768  0.4690
  113OSM    C1F11708   2.305   4.271   7.018 -0.1768 -0.2216  0.0802
  113OSM     OF11709   2.216   4.276   7.098  1.0643 -0.1841 -0.2737
  113OSM    C2F11710   2.365   4.144   6.973  0.8157  0.1454 -1.0537
  113OSM    H2F11711   2.370   4.072   7.058 -0.0803 -0.3537 -1.4123
  113OSM    H2G11712   2.467   4.155   6.930  1.0205  1.3030 -0.3315
  113OSM    C3F11713   2.277   4.074   6.867  0.0481  0.4956 -0.8229
  113OSM    H3F11714   2.172   4.066   6.899  0.3193 -1.2136 -0.2414
  113OSM    H3G11715   2.310   3.969   6.853  1.3569  0.0328  4.1040
  113OSM    C4F11716   2.270   4.156   6.734 -0.7399  0.0888 -0.2725
  113OSM    H4F11717   2.220   4.255   6.742 -0.5473  0.0233  2.6942
  113OSM    H4G11718   2.198   4.101   6.668 -0.4096 -1.3805  0.5511
  113OSM    C5F11719   2.399   4.154   6.651  0.4092  0.3010 -0.3507
  113OSM    H5F11720   2.456   4.067   6.689 -0.1846  0.5712  1.2594
  113OSM    H5G11721   2.460   4.244   6.674 -0.4054  0.3704  1.8236
  113OSM    C6F11722   2.380   4.134   6.499 -0.2160  0.5641 -0.0534
  113OSM    H6F11723   2.332   4.220   6.447  0.6833  1.3964  0.4554
  113OSM    H6G11724   2.323   4.039   6.485  1.0923 -0.4914  1.4641
  113OSM    C7F11725   2.521   4.113   6.429  0.8942  0.1111 -0.1464
  113OSM    H7F11726   2.585   4.031   6.468  3.4199  1.4900 -1.1113
  113OSM    H7G11727   2.573   4.209   6.448 -0.9925  1.4264 -1.3509
  113OSM    C8F11728   2.518   4.103   6.275  0.0497 -0.8594 -0.0729
  113OSM    H8F11729   2.618   4.107   6.228  0.4005  0.0873  0.7117
  113OSM    H8G11730   2.459   4.191   6.241 -1.9420 -1.9359  0.4394
  113OSM    C9F11731   2.439   3.985   6.217  0.7061  0.2777  0.4009
  113OSM    H9F11732   2.380   3.932   6.293 -0.9175  0.6351 -0.5562
  113OSM   C10F11733   2.435   3.946   6.088 -0.4830 -0.6637  0.0442
  113OSM   H10F11734   2.374   3.857   6.067 -1.3387 -0.3169  0.9857
  113OSM   C11F11735   2.498   4.023   5.970 -0.6816  0.2031 -0.5967
  113OSM   H11F11736   2.603   3.995   5.948 -0.7564 -2.5735  1.9710
  113OSM   H11G11737   2.490   4.128   6.004  0.5873 -0.4003  1.7634
  113OSM   C12F11738   2.415   4.007   5.845 -0.0181 -0.4349  0.1533
  113OSM   H12F11739   2.309   4.031   5.865 -0.8133 -0.7627 -3.0463
  113OSM   H12G11740   2.417   3.901   5.813 -1.9571 -0.4216 -0.1273
  113OSM   C13F11741   2.448   4.101   5.733  0.4221 -0.5237 -0.2892
  113OSM   H13F11742   2.553   4.083   5.703  1.1668  1.1399  1.1274
  113OSM   H13G11743   2.436   4.208   5.760 -0.0007 -0.6148 -0.0992
  113OSM   C14F11744   2.367   4.080   5.606 -0.2603  0.6801 -0.3131
  113OSM   H14F11745   2.259   4.089   5.631 -0.2004  1.7689 -0.4176
  113OSM   H14G11746   2.393   3.978   5.569  0.6611  0.7316  0.1578
  113OSM   C15F11747   2.418   4.174   5.500  0.3568  0.3435  0.6815
  113OSM   H15F11748   2.529   4.170   5.499  0.3585 -0.3897 -1.7005
  113OSM   H15G11749   2.395   4.279   5.527  0.6264  1.0887 -1.7244
  113OSM   C16F11750   2.380   4.141   5.356  0.5721 -0.7891  0.7971
  113OSM   H16F11751   2.270   4.153   5.341  0.3481 -1.7506  1.5684
  113OSM   H16G11752   2.406   4.040   5.319 -0.9513 -0.4642 -1.3529
  113OSM   C17F11753   2.446   4.230   5.245 -0.4391  0.1826 -0.2073
  113OSM   H17F11754   2.553   4.217   5.272 -0.5618  0.0080  0.2005
  113OSM   H17G11755   2.411   4.335   5.256  0.3931  0.4771 -0.3256
  113OSM   C18F11756   2.427   4.175   5.102 -0.1138  0.0942  0.0636
  113OSM   H18F11757   2.457   4.069   5.091  1.5329  0.7533 -3.2130
  113OSM   H18G11758   2.478   4.238   5.026  1.9905 -0.5696  0.8385
  113OSM   H18H11759   2.319   4.173   5.078 -1.1655 -1.0685  4.1138
  114OSM      N11760   1.467   2.332   7.886 -0.0998 -0.0726  0.1545
  114OSM    C1511761   1.559   2.220   7.916 -0.2890 -0.9875  0.7151
  114OSM   H15A11762   1.578   2.160   7.828 -2.2365 -0.2861 -0.2442
  114OSM   H15B11763   1.518   2.157   7.993 -0.7933 -2.0725 -0.4124
  114OSM   H15C11764   1.654   2.251   7.957 -1.0177  2.8896 -0.1771
  114OSM    C1411765   1.329   2.280   7.856  0.0825  0.0264  0.3611
  114OSM   H14A11766   1.310   2.205   7.931 -0.8789  0.4308  0.5377
  114OSM   H14B11767   1.331   2.249   7.752 -1.7615  1.5686 -0.1830
  114OSM   H14C11768   1.255   2.356   7.873 -0.1573 -0.0734 -0.1973
  114OSM    C1311769   1.464   2.431   8.003  0.8197 -0.0971 -0.3390
  114OSM   H13A11770   1.562   2.458   8.040  0.0849  3.1709 -0.4636
  114OSM   H13B11771   1.407   2.408   8.092  3.2905  1.7900  1.8821
  114OSM   H13C11772   1.424   2.525   7.967  0.1764 -0.0393  0.5017
  114OSM    C1211773   1.525   2.404   7.761  0.3545 -0.5198 -0.2113
  114OSM   H12A11774   1.543   2.329   7.685 -0.7348 -1.7280  0.6819
  114OSM   H12B11775   1.621   2.442   7.791  2.3976 -5.8046  1.0379
  114OSM    C1111776   1.448   2.521   7.701  1.1465 -0.3704  0.4281
  114OSM   H11A11777   1.345   2.487   7.675  2.0499 -0.9982 -2.6473
  114OSM   H11B11778   1.488   2.552   7.603  0.2418  0.1392  0.2135
  114OSM      P11779   1.565   2.738   7.815  0.3103  0.0588 -0.0763
  114OSM    O1311780   1.510   2.828   7.921  0.0746  0.0930 -0.4879
  114OSM    O1411781   1.685   2.661   7.847  0.6468  0.0426  0.1571
  114OSM    O1111782   1.572   2.816   7.672  0.8606  0.2620  0.9500
  114OSM    O1211783   1.443   2.630   7.789 -0.3300  0.1412  0.1894
  114OSM    C1S11784   1.445   2.873   7.628 -0.4767  0.5321 -0.2188
  114OSM    H1S11785   1.410   2.951   7.700 -2.2052  0.1726 -0.6257
  114OSM    H1T11786   1.363   2.799   7.632 -0.0458  0.1009  1.7843
  114OSM     NF11787   1.301   2.971   7.457 -0.5934  0.2951 -0.0107
  114OSM    HNF11788   1.246   2.927   7.386 -1.2054  2.2863 -0.8145
  114OSM    C2S11789   1.440   2.928   7.486  0.6904  0.5647 -0.2315
  114OSM    H2S11790   1.505   3.018   7.482 -1.1531  1.9905  0.6216
  114OSM    C3S11791   1.499   2.829   7.380  0.0907  0.2798  0.2427
  114OSM    H3S11792   1.439   2.735   7.375 -0.1543  0.3944  0.9159
  114OSM     O311793   1.632   2.780   7.404 -0.5444 -0.5986  0.2701
  114OSM    HO311794   1.642   2.796   7.498  0.1863  1.9074 -0.1499
  114OSM    C4S11795   1.492   2.891   7.248 -0.5027 -0.8956 -0.1323
  114OSM    H4S11796   1.407   2.861   7.184  1.1197  0.0907 -2.8946
  114OSM    C5S11797   1.583   2.967   7.187  0.5979 -0.1313  0.1551
  114OSM    H5S11798   1.676   2.983   7.243 -0.6750 -1.4412  2.8471
  114OSM    C6S11799   1.560   3.027   7.056  0.1307  0.5830 -0.3365
  114OSM    H6S11800   1.571   3.137   7.049  0.6950  0.4841 -1.0450
  114OSM    H6T11801   1.461   3.008   7.010 -0.1837  3.6254 -1.1149
  114OSM    C7S11802   1.674   2.967   6.967 -0.0125 -0.2525 -0.0769
  114OSM    H7S11803   1.653   2.860   6.942  3.7878 -1.3871  0.7897
  114OSM    H7T11804   1.770   2.962   7.023 -1.9936 -0.1831  3.6636
  114OSM    C8S11805   1.676   3.033   6.832  0.2385 -0.8208  1.0634
  114OSM    H8S11806   1.672   3.144   6.838  2.2175 -0.7622  1.8388
  114OSM    H8T11807   1.581   3.006   6.780 -1.7399  2.4597  2.6202
  114OSM    C9S11808   1.791   2.971   6.752 -0.7878  1.5188  0.4579
  114OSM    H9S11809   1.800   2.861   6.760  1.8446  1.3979 -2.3629
  114OSM    H9T11810   1.891   2.993   6.794  0.4395 -0.4354 -1.2408
  114OSM   C10S11811   1.785   3.010   6.601  0.1826  0.7250 -0.3462
  114OSM   H10S11812   1.791   3.121   6.611  2.1251  0.5525  1.0799
  114OSM   H10T11813   1.687   2.996   6.551  0.3291 -2.8540  0.1167
  114OSM   C11S11814   1.905   2.954   6.528 -0.1584  0.4931 -0.1579
  114OSM   H11S11815   1.887   2.847   6.504  1.9812  0.1273 -0.3562
  114OSM   H11T11816   2.003   2.958   6.581  1.4812 -1.4113 -2.7853
  114OSM   C12S11817   1.915   3.025   6.394  0.7417 -0.6432 -0.4590
  114OSM   H12S11818   1.932   3.135   6.396 -0.8354 -0.3610 -0.8196
  114OSM   H12T11819   1.818   3.007   6.343  0.5961 -1.0321 -0.0562
  114OSM   C13S11820   2.032   2.968   6.310  0.5159  0.8520 -0.5671
  114OSM   H13S11821   2.015   2.859   6.308 -0.4033  0.9738 -0.2405
  114OSM   H13T11822   2.123   2.985   6.371  0.3606 -2.6094  0.8616
  114OSM   C14S11823   2.049   3.011   6.163  0.3115  0.7045  0.3823
  114OSM   H14S11824   2.066   3.121   6.170  0.5145  0.7236 -0.3418
  114OSM   H14T11825   1.959   2.981   6.105 -0.7966  0.1551  2.2780
  114OSM   C15S11826   2.162   2.944   6.096  0.1404 -0.5856  1.2288
  114OSM   H15S11827   2.138   2.835   6.094  0.1309 -0.5862 -0.3682
  114OSM   H15T11828   2.258   2.965   6.148  0.5573 -0.2606  0.3504
  114OSM   C16S11829   2.172   2.990   5.951  0.1945  0.6265  0.1173
  114OSM   H16S11830   2.196   3.098   5.943 -0.7252  0.7140 -2.4625
  114OSM   H16T11831   2.074   2.977   5.900  0.0003 -0.5301  0.7487
  114OSM   C17S11832   2.268   2.908   5.865 -0.0603 -0.2969  0.1825
  114OSM   H17S11833   2.259   2.949   5.762 -0.2616 -1.6652 -0.3561
  114OSM   H17T11834   2.244   2.800   5.863 -2.0971  0.1347 -1.6262
  114OSM   C18S11835   2.419   2.934   5.901  1.0095  0.2219  0.2117
  114OSM   H18S11836   2.488   2.886   5.829  2.0207  3.2283 -0.9898
  114OSM   H18T11837   2.430   2.879   5.997  4.0447  0.1383 -0.0917
  114OSM   H18U11838   2.449   3.040   5.911  1.1734  0.2437 -0.4783
  114OSM    C1F11839   1.240   3.071   7.512  0.3783 -0.8658 -0.0594
  114OSM     OF11840   1.290   3.143   7.603  0.2769  0.4858  0.2765
  114OSM    C2F11841   1.095   3.098   7.468 -1.3703 -0.0538  0.3876
  114OSM    H2F11842   1.071   3.200   7.507 -0.6258  0.7740 -1.2234
  114OSM    H2G11843   1.026   3.026   7.517 -1.5123  0.1623  0.5104
  114OSM    C3F11844   1.083   3.095   7.312  0.0126  0.3402  0.5942
  114OSM    H3F11845   0.976   3.119   7.297 -0.5818 -1.1433  2.1023
  114OSM    H3G11846   1.093   2.990   7.276  0.0760  0.9032 -1.1320
  114OSM    C4F11847   1.176   3.189   7.238 -0.2182  0.3570  1.0425
  114OSM    H4F11848   1.278   3.155   7.268 -0.2016 -0.9592 -0.3601
  114OSM    H4G11849   1.160   3.289   7.283  2.4761  0.9906  0.7937
  114OSM    C5F11850   1.167   3.181   7.086  0.4133  0.3380 -0.2532
  114OSM    H5F11851   1.061   3.215   7.083  0.6075  1.3963  2.1739
  114OSM    H5G11852   1.185   3.079   7.045  2.7606  1.6217 -2.7757
  114OSM    C6F11853   1.254   3.283   7.003  0.1702 -0.7572  0.4780
  114OSM    H6F11854   1.356   3.242   6.990 -0.1642 -1.7153  0.7747
  114OSM    H6G11855   1.256   3.384   7.047 -1.2121 -0.5267  0.0738
  114OSM    C7F11856   1.190   3.310   6.866  0.1190 -0.2718 -0.0775
  114OSM    H7F11857   1.109   3.384   6.882  2.7108  2.8169 -0.1550
  114OSM    H7G11858   1.152   3.213   6.829 -1.1921 -0.1527  0.8869
  114OSM    C8F11859   1.289   3.379   6.773  0.0986  0.9191  0.5954
  114OSM    H8F11860   1.363   3.442   6.827  1.1444 -0.0291  0.3092
  114OSM    H8G11861   1.225   3.443   6.708  1.6152  3.1379  1.1820
  114OSM    C9F11862   1.370   3.280   6.698 -0.0967 -0.6662  1.0206
  114OSM    H9F11863   1.469   3.252   6.738  0.4939 -0.0622  0.0253
  114OSM   C10F11864   1.347   3.216   6.585 -0.5856 -0.3788  0.7118
  114OSM   H10F11865   1.421   3.140   6.555 -0.2735 -0.8558  2.5461
  114OSM   C11F11866   1.226   3.223   6.500  0.5123 -0.4534 -0.2647
  114OSM   H11F11867   1.157   3.296   6.546 -0.0354 -0.5396 -0.9236
  114OSM   H11G11868   1.176   3.125   6.516  0.3533 -0.4186 -0.5400
  114OSM   C12F11869   1.244   3.267   6.353  0.1241 -0.0994 -0.2358
  114OSM   H12F11870   1.305   3.358   6.335 -2.3242  1.3595 -1.7398
  114OSM   H12G11871   1.145   3.289   6.307 -0.3566 -1.6465  0.0199
  114OSM   C13F11872   1.298   3.148   6.268 -0.2816 -0.7146  0.1997
  114OSM   H13F11873   1.227   3.063   6.282  0.0567 -0.9669  0.3891
  114OSM   H13G11874   1.397   3.111   6.301  1.7525  2.5679 -1.6945
  114OSM   C14F11875   1.323   3.202   6.124 -0.8205  0.4710 -0.4234
  114OSM   H14F11876   1.400   3.281   6.122  0.7231 -0.9747 -0.6998
  114OSM   H14G11877   1.229   3.240   6.079 -0.9351 -0.9121 -1.4279
  114OSM   C15F11878   1.339   3.084   6.020  0.0062  0.1358 -0.0474
  114OSM   H15F11879   1.278   2.992   6.037  1.4899 -0.8577  0.0552
  114OSM   H15G11880   1.443   3.047   6.034 -0.9825 -2.2329  1.9051
  114OSM   C16F11881   1.344   3.120   5.871 -1.1289 -0.5170 -0.5243
  114OSM   H16F11882   1.410   3.046   5.820  0.0682 -0.6025  1.0609
  114OSM   H16G11883   1.392   3.218   5.855  1.0626 -1.5051 -0.3711
  114OSM   C17F11884   1.206   3.109   5.804  1.2793 -1.0917  0.7151
  114OSM   H17F11885   1.154   3.205   5.827  1.2941 -1.2464  1.4030
  114OSM   H17G11886   1.146   3.024   5.842  0.2500 -1.8074 -2.2201
  114OSM   C18F11887   1.205   3.106   5.649 -0.1523  0.2570  0.0539
  114OSM   H18F11888   1.252   3.009   5.623 -0.8571 -0.0745  0.0055
  114OSM   H18G11889   1.271   3.190   5.617  0.0101 -0.0986 -0.5584
  114OSM   H18H11890   1.107   3.122   5.600 -0.4263  0.9157  0.7801
  115OSM      N11891   1.407   6.447   7.862 -0.2537 -0.0958  0.3826
  115OSM    C1511892   1.423   6.534   7.979  0.5880  0.3057  0.7795
  115OSM   H15A11893   1.490   6.496   8.055  0.3166 -0.0294  0.8529
  115OSM   H15B11894   1.333   6.570   8.025  0.7713  2.3148 -0.3167
  115OSM   H15C11895   1.474   6.626   7.954  0.7439  0.0516  0.1421
  115OSM    C1411896   1.291   6.495   7.778 -0.2769 -0.7420 -0.3336
  115OSM   H14A11897   1.293   6.601   7.754  1.0475 -1.0191 -1.6087
  115OSM   H14B11898   1.197   6.466   7.822 -0.4168 -0.8374 -0.6952
  115OSM   H14C11899   1.300   6.443   7.683 -1.3106 -0.9284 -0.3416
  115OSM    C1311900   1.540   6.450   7.785  0.3792 -0.5519 -0.4756
  115OSM   H13A11901   1.527   6.391   7.696 -0.4899  0.1424 -0.8166
  115OSM   H13B11902   1.626   6.419   7.843 -0.8847 -1.7875  0.8490
  115OSM   H13C11903   1.559   6.551   7.753 -0.0757 -0.0046  0.8949
  115OSM    C1211904   1.382   6.302   7.905  0.5937  0.3877 -0.1901
  115OSM   H12A11905   1.463   6.270   7.969 -0.2220 -1.5365 -0.0276
  115OSM   H12B11906   1.399   6.243   7.816  0.7914  1.3496 -0.7986
  115OSM    C1111907   1.240   6.272   7.960 -0.3200  0.4304  0.3647
  115OSM   H11A11908   1.208   6.364   8.014  1.7180  2.7485 -2.0961
  115OSM   H11B11909   1.245   6.184   8.027 -0.6419 -0.3412 -0.5918
  115OSM      P11910   1.121   6.103   7.795 -0.1349  0.1850  0.1431
  115OSM    O1311911   1.226   6.060   7.699  0.1652  0.3964 -0.4447
  115OSM    O1411912   1.104   6.015   7.912 -0.2528  0.1710  0.2672
  115OSM    O1111913   0.984   6.134   7.725  0.6006  0.1641 -0.5322
  115OSM    O1211914   1.152   6.245   7.854 -0.0264  0.3382 -0.1759
  115OSM    C1S11915   0.981   6.254   7.643  0.2623 -0.1542  0.2039
  115OSM    H1S11916   1.042   6.340   7.677  2.1859 -1.2245 -0.4033
  115OSM    H1T11917   0.878   6.297   7.651  1.7285  3.5578  1.2248
  115OSM     NF11918   1.009   6.361   7.416  0.1660 -0.1260  1.2186
  115OSM    HNF11919   0.944   6.395   7.349 -0.5710  0.7181  2.3068
  115OSM    C2S11920   0.991   6.237   7.484  0.8899 -0.0856 -0.5811
  115OSM    H2S11921   1.086   6.180   7.472  0.4391 -0.7616 -0.9804
  115OSM    C3S11922   0.875   6.153   7.435 -0.1797 -0.0298 -0.1038
  115OSM    H3S11923   0.782   6.213   7.433 -0.5608 -0.6241 -1.6263
  115OSM     O311924   0.862   6.035   7.513  0.2670  0.4467  0.0563
  115OSM    HO311925   0.918   6.056   7.589  0.1217  2.6603 -0.3657
  115OSM    C4S11926   0.907   6.120   7.287  0.5104 -0.1343  0.0789
  115OSM    H4S11927   0.982   6.042   7.273  2.6100  1.2307  2.8564
  115OSM    C5S11928   0.831   6.162   7.176 -0.7546 -0.8695  0.4417
  115OSM    H5S11929   0.737   6.213   7.202  0.2051  0.6237  1.1138
  115OSM    C6S11930   0.843   6.119   7.033 -1.5730  0.1282  0.3234
  115OSM    H6S11931   0.808   6.194   6.958 -2.7217 -0.4183  0.2881
  115OSM    H6T11932   0.787   6.024   7.017  0.8789 -1.0293 -2.2833
  115OSM    C7S11933   0.989   6.087   6.990  0.5262 -0.0261 -1.0856
  115OSM    H7S11934   1.054   6.034   7.063 -0.3059  0.1193 -0.2169
  115OSM    H7T11935   1.039   6.187   6.990 -0.4903  0.5270  0.4223
  115OSM    C8S11936   0.988   6.016   6.858  0.1717 -0.0562 -0.8663
  115OSM    H8S11937   0.959   6.091   6.781  0.5491  2.2560  1.1118
  115OSM    H8T11938   0.930   5.921   6.855  1.0496 -0.7221  1.2788
  115OSM    C9S11939   1.133   5.983   6.824 -0.2621 -0.6571 -0.0101
  115OSM    H9S11940   1.194   5.930   6.899  0.2646  0.2649  0.2345
  115OSM    H9T11941   1.179   6.084   6.834 -0.4529 -0.7412  2.1023
  115OSM   C10S11942   1.156   5.945   6.676  0.3939  0.0695 -0.0602
  115OSM   H10S11943   1.260   5.922   6.647  0.0413 -2.6408  0.5684
  115OSM   H10T11944   1.124   6.029   6.610 -0.7945 -0.4144 -0.1287
  115OSM   C11S11945   1.069   5.822   6.629 -0.1969  0.0629 -0.7649
  115OSM   H11S11946   0.962   5.849   6.621 -0.1735 -0.2194 -2.4154
  115OSM   H11T11947   1.071   5.748   6.712  0.4299  0.3603 -0.5094
  115OSM   C12S11948   1.118   5.768   6.495  0.0366 -0.5527 -0.6404
  115OSM   H12S11949   1.069   5.670   6.478 -2.5273  0.7647 -1.3344
  115OSM   H12T11950   1.229   5.765   6.501  0.1328  2.4480  0.5641
  115OSM   C13S11951   1.091   5.857   6.382 -0.1808  0.4054 -0.4939
  115OSM   H13S11952   1.158   5.946   6.382  1.1197 -0.5245 -1.5912
  115OSM   H13T11953   0.984   5.886   6.379 -1.4057 -3.3875  0.7032
  115OSM   C14S11954   1.108   5.793   6.243  0.3712 -0.2513  0.0407
  115OSM   H14S11955   1.023   5.722   6.231 -1.9074  2.2550  0.4381
  115OSM   H14T11956   1.200   5.732   6.240  0.7760  0.2134 -4.4859
  115OSM   C15S11957   1.115   5.896   6.132 -0.0984 -0.2881 -0.1794
  115OSM   H15S11958   1.192   5.976   6.142 -0.8210  0.5163 -0.8723
  115OSM   H15T11959   1.020   5.954   6.135  0.3862  0.5010  0.2143
  115OSM   C16S11960   1.120   5.822   5.994  0.0236  0.0062  0.5051
  115OSM   H16S11961   1.025   5.771   5.970  1.2268 -1.0038 -2.6734
  115OSM   H16T11962   1.206   5.753   6.006 -1.4353 -1.5184  2.9956
  115OSM   C17S11963   1.150   5.919   5.872 -0.2962  0.2039 -0.1107
  115OSM   H17S11964   1.236   5.986   5.895 -1.3838  2.1997 -1.5308
  115OSM   H17T11965   1.068   5.994   5.859 -0.3908  0.2473  0.7244
  115OSM   C18S11966   1.168   5.844   5.740 -0.9752  0.2036  0.1644
  115OSM   H18S11967   1.076   5.793   5.706 -0.7973  0.4057 -0.6508
  115OSM   H18T11968   1.254   5.774   5.731  0.0562  1.5091 -0.5003
  115OSM   H18U11969   1.185   5.926   5.667  0.3339  0.9190  1.2167
  115OSM    C1F11970   1.116   6.442   7.429  0.3681  0.4034 -0.8714
  115OSM     OF11971   1.214   6.400   7.487  0.0706 -0.3611 -0.3715
  115OSM    C2F11972   1.100   6.582   7.388 -0.5467  0.6694 -0.1021
  115OSM    H2F11973   1.147   6.645   7.467 -2.3970 -1.2724  2.7429
  115OSM    H2G11974   0.994   6.615   7.376 -0.5993 -0.3072 -3.2564
  115OSM    C3F11975   1.173   6.613   7.256  0.1500  0.4883 -0.0122
  115OSM    H3F11976   1.168   6.529   7.183 -1.8114  2.1061 -1.8762
  115OSM    H3G11977   1.281   6.630   7.274  0.7680 -0.4859 -2.3832
  115OSM    C4F11978   1.119   6.751   7.212  0.0927 -0.4785 -1.0222
  115OSM    H4F11979   1.131   6.820   7.299 -1.7211  1.6394 -2.3283
  115OSM    H4G11980   1.010   6.751   7.190 -0.0227  0.8462 -0.5806
  115OSM    C5F11981   1.205   6.815   7.105  0.1372 -0.0570 -0.1662
  115OSM    H5F11982   1.307   6.834   7.143 -0.5506 -2.1908  3.1918
  115OSM    H5G11983   1.176   6.919   7.079  1.9000  0.3440 -0.6488
  115OSM    C6F11984   1.201   6.736   6.974  0.3250  0.8751 -0.1416
  115OSM    H6F11985   1.097   6.738   6.936  0.2410  0.9877  0.0925
  115OSM    H6G11986   1.223   6.630   7.001  0.5089  0.4702 -1.7749
  115OSM    C7F11987   1.286   6.807   6.872  0.3272 -0.9134  0.3530
  115OSM    H7F11988   1.391   6.824   6.905 -0.6611  2.9763  2.0294
  115OSM    H7G11989   1.249   6.911   6.866 -0.2874 -1.1088  0.6023
  115OSM    C8F11990   1.266   6.737   6.740  0.3505  0.4831 -0.1814
  115OSM    H8F11991   1.156   6.742   6.721  0.0800 -1.8724  0.5250
  115OSM    H8G11992   1.295   6.632   6.759  2.8921  1.0537 -0.6283
  115OSM    C9F11993   1.347   6.789   6.621  0.2119  0.1705 -0.4629
  115OSM    H9F11994   1.456   6.791   6.638 -0.0180 -0.1835  1.2483
  115OSM   C10F11995   1.300   6.840   6.508  0.3979 -0.8903  0.4010
  115OSM   H10F11996   1.377   6.867   6.434 -0.5197  0.7452 -0.0141
  115OSM   C11F11997   1.153   6.860   6.468 -0.2808  0.2985 -0.1909
  115OSM   H11F11998   1.116   6.965   6.468 -0.5030  0.2284  0.3105
  115OSM   H11G11999   1.096   6.802   6.544 -1.5992  0.9904 -0.6094
  115OSM   C12F12000   1.114   6.798   6.327  0.3716 -0.1332  0.0726
  115OSM   H12F12001   1.005   6.781   6.318  0.3955  0.0784 -0.6855
  115OSM   H12G12002   1.153   6.694   6.321 -1.2056 -0.6903 -1.3668
  115OSM   C13F12003   1.167   6.881   6.206  0.1060 -0.1632  0.2420
  115OSM   H13F12004   1.273   6.847   6.205  0.4382  0.8313 -0.9555
  115OSM   H13G12005   1.186   6.989   6.223 -1.2647  0.2571 -0.6882
  115OSM   C14F12006   1.104   6.856   6.072  0.0208 -0.1906  0.6247
  115OSM   H14F12007   1.087   6.749   6.046  4.1260 -0.9895  0.5909
  115OSM   H14G12008   1.153   6.912   5.990 -0.9072  4.5753  2.9686
  115OSM   C15F12009   0.965   6.919   6.072 -0.7303  0.2831  0.4443
  115OSM   H15F12010   0.979   7.020   6.117  1.6484 -0.2935  1.1266
  115OSM   H15G12011   0.896   6.853   6.129 -0.0525 -0.3467  0.5473
  115OSM   C16F12012   0.907   6.933   5.925 -0.7270  0.0661 -0.7712
  115OSM   H16F12013   0.878   6.831   5.892 -1.7915 -0.3470  1.2850
  115OSM   H16G12014   0.978   6.982   5.854 -1.0487  2.1787  0.2943
  115OSM   C17F12015   0.769   7.005   5.919  0.1133 -0.0952 -0.1291
  115OSM   H17F12016   0.688   6.940   5.957  0.4232 -1.5794 -1.8541
  115OSM   H17G12017   0.756   7.025   5.811 -2.1203 -1.9135 -0.2606
  115OSM   C18F12018   0.778   7.143   5.988  0.4293 -0.3035 -0.1964
  115OSM   H18F12019   0.687   7.203   5.968 -0.1975 -2.0427 -3.0873
  115OSM   H18G12020   0.864   7.198   5.944  1.1325 -0.7760  0.5468
  115OSM   H18H12021   0.793   7.138   6.098  0.4138  0.2940 -0.1630
  116OSM      N12022   1.937   3.199   8.302 -0.1462 -0.2707 -0.6484
  116OSM    C1512023   1.890   3.219   8.447  0.1705  0.7269  0.0380
  116OSM   H15A12024   1.954   3.284   8.505 -0.4787 -0.1475  1.8244
  116OSM   H15B12025   1.889   3.127   8.505 -1.1176  1.0069  0.4789
  116OSM   H15C12026   1.789   3.257   8.453 -0.2534 -0.5209  1.8381
  116OSM    C1412027   2.091   3.188   8.297  0.0658  0.1935 -0.0049
  116OSM   H14A12028   2.116   3.176   8.192  1.7852 -1.1497  0.5225
  116OSM   H14B12029   2.119   3.095   8.343  0.3077  1.3483  2.3575
  116OSM   H14C12030   2.137   3.274   8.344  0.9680 -1.5821  2.5320
  116OSM    C1312031   1.869   3.071   8.254  0.4879 -0.3078 -0.1849
  116OSM   H13A12032   1.891   2.986   8.316 -1.6881 -1.6651 -1.1535
  116OSM   H13B12033   1.885   3.060   8.148 -2.8938  0.5709 -0.9318
  116OSM   H13C12034   1.761   3.081   8.256  0.5079 -0.1169 -0.0109
  116OSM    C1212035   1.892   3.314   8.214 -0.8248 -0.6608 -0.8881
  116OSM   H12A12036   1.950   3.404   8.230 -2.4463  0.3427 -0.5010
  116OSM   H12B12037   1.795   3.348   8.245  0.6895  3.3371  0.0455
  116OSM    C1112038   1.895   3.292   8.059 -0.3475  0.1770  0.1034
  116OSM   H11A12039   1.838   3.370   8.004  0.8970  0.0214 -1.4766
  116OSM   H11B12040   1.852   3.195   8.028 -0.0876  0.3539 -0.8236
  116OSM      P12041   2.090   3.415   7.949  0.1383  0.2045  0.3471
  116OSM    O1312042   2.093   3.518   8.053 -0.0630 -0.6142 -0.9797
  116OSM    O1412043   2.210   3.384   7.874 -0.0048 -0.4311 -0.1864
  116OSM    O1112044   1.977   3.455   7.843  0.0981  0.1429  0.3202
  116OSM    O1212045   2.026   3.283   8.008 -0.4125  0.4814  0.0724
  116OSM    C1S12046   1.938   3.357   7.743 -0.8354 -0.1124 -0.9234
  116OSM    H1S12047   1.834   3.329   7.770 -0.8817  1.0403  0.1416
  116OSM    H1T12048   2.002   3.266   7.739 -1.3896 -0.5136 -0.7093
  116OSM     NF12049   1.811   3.350   7.531  0.4611 -0.0703  0.7230
  116OSM    HNF12050   1.831   3.284   7.459 -0.1712  0.0377  0.4408
  116OSM    C2S12051   1.922   3.410   7.599  0.2709  0.2083  0.1361
  116OSM    H2S12052   1.895   3.518   7.606  1.4145  0.4566  1.0893
  116OSM    C3S12053   2.060   3.396   7.524  0.4455 -0.3997 -0.0723
  116OSM    H3S12054   2.078   3.290   7.496 -0.0461 -0.5775  0.2688
  116OSM     O312055   2.176   3.439   7.602 -0.5712 -0.4445  0.3008
  116OSM    HO312056   2.147   3.426   7.692  1.2149 -2.5160  0.6538
  116OSM    C4S12057   2.046   3.464   7.386 -0.3457  0.6242 -0.0410
  116OSM    H4S12058   1.980   3.409   7.317  0.2572  0.6434 -0.6454
  116OSM    C5S12059   2.097   3.579   7.341 -0.9324  0.1039 -0.1849
  116OSM    H5S12060   2.172   3.626   7.405 -1.8141  1.8648 -0.3880
  116OSM    C6S12061   2.076   3.622   7.198 -0.4982  0.0767  0.3220
  116OSM    H6S12062   2.051   3.729   7.185  0.0871 -0.0904 -2.6948
  116OSM    H6T12063   1.991   3.563   7.156  0.0557 -0.9177  0.5633
  116OSM    C7S12064   2.198   3.604   7.108 -0.5196  0.0370  0.6742
  116OSM    H7S12065   2.169   3.612   7.001  2.0720  0.0214 -0.0804
  116OSM    H7T12066   2.232   3.498   7.112 -0.5317  0.0720  1.9502
  116OSM    C8S12067   2.316   3.695   7.144 -0.5228 -0.5384 -0.7611
  116OSM    H8S12068   2.388   3.636   7.203  0.2086  0.4531 -0.6345
  116OSM    H8T12069   2.280   3.772   7.216  2.0010 -0.0026  0.0037
  116OSM    C9S12070   2.387   3.765   7.028  0.2862  0.6246  0.7063
  116OSM    H9S12071   2.457   3.842   7.068  3.2009 -0.5511 -1.7554
  116OSM    H9T12072   2.314   3.826   6.971 -0.2261 -0.1258  0.5395
  116OSM   C10S12073   2.475   3.676   6.950 -0.0396  0.5443  0.2984
  116OSM   H10S12074   2.420   3.593   6.902 -0.2281  0.0253  1.3920
  116OSM   H10T12075   2.560   3.627   7.002  0.0039  1.2997  0.9636
  116OSM   C11S12076   2.558   3.749   6.845 -0.4568  0.0380 -0.1620
  116OSM   H11S12077   2.613   3.833   6.893 -0.0363 -1.8352  2.8892
  116OSM   H11T12078   2.488   3.780   6.764  1.4800 -0.3907 -2.0937
  116OSM   C12S12079   2.669   3.659   6.781  0.7571  0.4524 -0.0510
  116OSM   H12S12080   2.630   3.564   6.738 -1.4190  0.7313  1.1672
  116OSM   H12T12081   2.726   3.630   6.872  0.3549  1.5529  0.5717
  116OSM   C13S12082   2.761   3.732   6.682 -0.3067 -0.4207  0.3780
  116OSM   H13S12083   2.869   3.713   6.702  0.0211 -0.6220 -1.3753
  116OSM   H13T12084   2.745   3.841   6.693  1.2651 -0.0233 -0.8998
  116OSM   C14S12085   2.736   3.685   6.542 -0.1256  0.3698  0.4022
  116OSM   H14S12086   2.633   3.710   6.510  0.6674 -0.3969 -3.1261
  116OSM   H14T12087   2.747   3.574   6.543 -1.9878  0.1576  0.8646
  116OSM   C15S12088   2.826   3.768   6.448 -0.3506 -0.4329 -0.1759
  116OSM   H15S12089   2.934   3.754   6.470 -0.5522 -2.2223 -0.1495
  116OSM   H15T12090   2.807   3.875   6.471 -0.3027 -0.7699  1.5665
  116OSM   C16S12091   2.791   3.735   6.302 -0.5643  0.1015  0.8444
  116OSM   H16S12092   2.686   3.762   6.276 -0.5405  1.7979  2.3280
  116OSM   H16T12093   2.816   3.629   6.277  3.4949  1.4251 -1.8308
  116OSM   C17S12094   2.876   3.802   6.192  0.3385 -0.1710 -0.2162
  116OSM   H17S12095   2.982   3.775   6.213  0.1267 -0.5311  0.3885
  116OSM   H17T12096   2.869   3.912   6.210  1.7622 -0.2186  0.7961
  116OSM   C18S12097   2.835   3.767   6.050 -0.0608  0.6376  0.2933
  116OSM   H18S12098   2.740   3.823   6.034 -0.8508 -0.8466 -0.3488
  116OSM   H18T12099   2.824   3.658   6.031  3.2693  0.7776 -4.2739
  116OSM   H18U12100   2.910   3.797   5.974  0.1141 -0.6714 -0.0653
  116OSM    C1F12101   1.687   3.368   7.563 -0.2853 -0.5106  0.2464
  116OSM     OF12102   1.659   3.448   7.648  0.4243 -0.2427 -0.4353
  116OSM    C2F12103   1.584   3.290   7.492  0.5134  0.6370  0.2570
  116OSM    H2F12104   1.529   3.223   7.563 -0.9966  1.8181  0.2541
  116OSM    H2G12105   1.620   3.223   7.411  0.1758  2.3540 -1.3761
  116OSM    C3F12106   1.469   3.378   7.442 -0.0377 -0.7107 -0.2004
  116OSM    H3F12107   1.417   3.435   7.522 -2.8723 -1.5878 -1.2973
  116OSM    H3G12108   1.396   3.305   7.402  3.0444 -3.3754 -1.4142
  116OSM    C4F12109   1.506   3.472   7.329  0.0453 -1.1109  0.6348
  116OSM    H4F12110   1.567   3.557   7.368  0.7218 -1.6562  0.7852
  116OSM    H4G12111   1.407   3.504   7.289  0.1463 -1.2422  0.2730
  116OSM    C5F12112   1.591   3.410   7.221 -0.1464 -0.5295  0.3572
  116OSM    H5F12113   1.544   3.313   7.193 -0.2469  0.0031 -1.4304
  116OSM    H5G12114   1.687   3.384   7.270 -0.1981  1.4570  1.6572
  116OSM    C6F12115   1.601   3.495   7.092 -0.1529  0.1108 -0.1033
  116OSM    H6F12116   1.498   3.514   7.054 -0.1077 -1.7430 -1.2919
  116OSM    H6G12117   1.669   3.448   7.017 -1.2130 -0.3260 -0.8137
  116OSM    C7F12118   1.668   3.634   7.128  0.3251  0.8464  0.2511
  116OSM    H7F12119   1.748   3.615   7.203 -0.7478 -0.6152  1.1034
  116OSM    H7G12120   1.586   3.691   7.178 -1.1848 -1.9312  1.1991
  116OSM    C8F12121   1.734   3.683   7.000  0.4503  0.3919 -0.4458
  116OSM    H8F12122   1.655   3.691   6.923  0.9342  0.7430 -0.9087
  116OSM    H8G12123   1.802   3.609   6.952  1.5384 -0.2822  1.9547
  116OSM    C9F12124   1.800   3.817   7.027  0.5740  1.0071  0.1447
  116OSM    H9F12125   1.746   3.885   7.095  1.6577  1.0114  1.0197
  116OSM   C10F12126   1.909   3.863   6.958 -0.4157  0.7745  0.7412
  116OSM   H10F12127   1.949   3.964   6.979  1.3908  1.0119 -3.0010
  116OSM   C11F12128   1.983   3.789   6.852 -0.1694  0.0868  0.0349
  116OSM   H11F12129   1.955   3.682   6.844 -0.5528  0.2440 -0.8401
  116OSM   H11G12130   2.092   3.788   6.875 -0.3986  1.7951  1.4472
  116OSM   C12F12131   1.951   3.851   6.714  0.7573 -0.5458  0.5402
  116OSM   H12F12132   1.995   3.953   6.719  1.9739 -1.0335  0.1659
  116OSM   H12G12133   1.840   3.858   6.704  0.9104  2.9640 -0.0530
  116OSM   C13F12134   2.010   3.776   6.595 -0.5736 -0.2265  0.1172
  116OSM   H13F12135   1.988   3.846   6.511 -0.3831  1.2430  1.2446
  116OSM   H13G12136   1.955   3.683   6.572  0.7694 -1.0986  0.3249
  116OSM   C14F12137   2.164   3.762   6.604 -0.3054  0.2181 -0.0257
  116OSM   H14F12138   2.194   3.671   6.660 -0.9308  0.0438  0.0303
  116OSM   H14G12139   2.222   3.849   6.642  2.1528 -0.9016 -0.9460
  116OSM   C15F12140   2.217   3.733   6.466 -0.1140 -0.2966 -0.3841
  116OSM   H15F12141   2.328   3.745   6.465 -0.0946 -0.4926 -0.7422
  116OSM   H15G12142   2.187   3.817   6.400  0.6904 -0.2209 -0.6685
  116OSM   C16F12143   2.173   3.602   6.403  0.3788 -0.2157  0.1230
  116OSM   H16F12144   2.064   3.610   6.382  0.2574 -0.1742  0.7536
  116OSM   H16G12145   2.184   3.523   6.479 -1.0546 -1.4349 -0.8894
  116OSM   C17F12146   2.248   3.568   6.273 -0.1181 -0.4031 -0.0832
  116OSM   H17F12147   2.358   3.566   6.289  0.1900  0.8551 -1.7267
  116OSM   H17G12148   2.228   3.645   6.195 -1.2147  0.6391  1.1832
  116OSM   C18F12149   2.205   3.428   6.229  0.4485  0.3505  0.6859
  116OSM   H18F12150   2.244   3.347   6.294  1.9753  0.1079 -0.4828
  116OSM   H18G12151   2.240   3.410   6.125 -0.6859 -1.6287  0.6035
  116OSM   H18H12152   2.094   3.427   6.220  0.4914  1.2682 -0.2167
  117OSM      N12153   2.569   6.186   7.892 -0.0799  0.1918 -0.2451
  117OSM    C1512154   2.629   6.320   7.853 -0.7528  0.6480 -0.3543
  117OSM   H15A12155   2.661   6.314   7.750  3.1747 -1.7495  0.7958
  117OSM   H15B12156   2.712   6.342   7.918 -1.4013 -1.3513  1.2637
  117OSM   H15C12157   2.555   6.398   7.859  1.0036  2.3980 -0.5342
  117OSM    C1412158   2.664   6.086   7.830 -0.7950 -0.3104  0.9781
  117OSM   H14A12159   2.752   6.074   7.892  0.0058  0.9279  0.1051
  117OSM   H14B12160   2.696   6.114   7.731  0.4254 -1.2034  1.0957
  117OSM   H14C12161   2.616   5.989   7.825 -1.4919  0.0729  0.0960
  117OSM    C1312162   2.569   6.161   8.037  1.1252  0.1672  0.1041
  117OSM   H13A12163   2.548   6.058   8.061 -0.5399  0.2904 -0.6664
  117OSM   H13B12164   2.483   6.208   8.083  0.0018 -0.3753 -1.3576
  117OSM   H13C12165   2.656   6.204   8.085  0.4119 -1.8722  3.6171
  117OSM    C1212166   2.441   6.154   7.814 -0.0928  1.0550  0.0986
  117OSM   H12A12167   2.406   6.060   7.853  4.0424 -1.2003 -1.0621
  117OSM   H12B12168   2.473   6.136   7.713  3.8203  1.3207  1.1553
  117OSM    C1112169   2.332   6.263   7.814 -0.2480 -0.5704 -0.1280
  117OSM   H11A12170   2.335   6.297   7.920  0.3687  2.2457 -0.9660
  117OSM   H11B12171   2.230   6.221   7.806 -0.9458  1.0639 -0.1718
  117OSM      P12172   2.357   6.359   7.567  0.0069  0.1634 -0.0114
  117OSM    O1312173   2.319   6.480   7.494  0.6800 -0.7727 -0.1500
  117OSM    O1412174   2.489   6.296   7.540 -0.1979  0.1125 -0.0932
  117OSM    O1112175   2.244   6.247   7.539 -1.0482  0.6041 -0.1362
  117OSM    O1212176   2.347   6.378   7.723  0.4869 -0.2616  0.0595
  117OSM    C1S12177   2.104   6.275   7.528 -0.1402  0.7176 -0.0135
  117OSM    H1S12178   2.063   6.343   7.606 -0.2605 -1.4740  1.9503
  117OSM    H1T12179   2.045   6.182   7.547  1.0741 -0.5448 -2.0526
  117OSM     NF12180   1.911   6.355   7.387 -0.6432  1.1233 -0.0840
  117OSM    HNF12181   1.857   6.281   7.347 -0.9002 -0.0111  2.1772
  117OSM    C2S12182   2.053   6.323   7.387  0.4174 -0.1108  0.2637
  117OSM    H2S12183   2.112   6.416   7.371  1.1761 -0.7464 -0.8079
  117OSM    C3S12184   2.098   6.224   7.270 -0.4548 -0.4633  0.7706
  117OSM    H3S12185   2.052   6.124   7.284  0.1526 -1.5164 -3.4076
  117OSM     O312186   2.241   6.208   7.268 -0.0667 -0.1308  0.5262
  117OSM    HO312187   2.271   6.217   7.359  1.8452 -1.4919  0.0900
  117OSM    C4S12188   2.062   6.289   7.140 -0.5883  0.4462  0.2430
  117OSM    H4S12189   2.119   6.379   7.113  0.6168 -0.5284 -0.5672
  117OSM    C5S12190   1.971   6.252   7.048 -0.5184 -0.1205 -0.2990
  117OSM    H5S12191   1.918   6.156   7.062 -1.5225  0.5803  0.8769
  117OSM    C6S12192   1.943   6.325   6.921 -0.9606  0.0161  0.3294
  117OSM    H6S12193   1.968   6.433   6.917 -2.0768  0.4157  2.5397
  117OSM    H6T12194   1.833   6.318   6.910 -0.8696 -0.1239 -0.5410
  117OSM    C7S12195   2.003   6.279   6.779 -0.1658 -0.4282  0.3477
  117OSM    H7S12196   1.961   6.178   6.757 -2.2625  0.2209  1.1207
  117OSM    H7T12197   2.114   6.276   6.777 -0.0185  2.3035  0.6859
  117OSM    C8S12198   1.959   6.375   6.668  0.3752 -0.8522 -0.5700
  117OSM    H8S12199   1.997   6.478   6.686 -3.0291  0.5700 -0.7832
  117OSM    H8T12200   1.848   6.376   6.664 -0.0780  0.8021  4.6506
  117OSM    C9S12201   2.018   6.333   6.532 -0.0278 -0.3666  0.3070
  117OSM    H9S12202   2.117   6.283   6.545  1.3149  1.0581 -3.1402
  117OSM    H9T12203   2.054   6.417   6.469 -1.1678  0.1792  0.3581
  117OSM   C10S12204   1.919   6.257   6.446 -0.6265  0.3802  0.0640
  117OSM   H10S12205   1.813   6.287   6.455 -0.1022  2.0335  1.3592
  117OSM   H10T12206   1.920   6.149   6.472 -0.2330  0.0647 -1.1868
  117OSM   C11S12207   1.965   6.258   6.296  0.5156  0.1944 -0.0946
  117OSM   H11S12208   1.964   6.162   6.240  3.1764  1.0690 -1.8409
  117OSM   H11T12209   2.073   6.282   6.302  0.3749  1.0073 -0.5691
  117OSM   C12S12210   1.896   6.364   6.214 -0.5271  0.4928  0.0811
  117OSM   H12S12211   1.911   6.464   6.259  1.5637  0.1174  0.2971
  117OSM   H12T12212   1.786   6.347   6.207 -0.1975 -2.1296  0.2743
  117OSM   C13S12213   1.933   6.361   6.065 -0.3958 -0.0019 -0.1278
  117OSM   H13S12214   1.893   6.264   6.027  0.2156  0.2303 -1.4290
  117OSM   H13T12215   2.042   6.367   6.043 -0.4309 -1.3551 -0.7992
  117OSM   C14S12216   1.857   6.458   5.971  0.4748  0.1184 -0.1132
  117OSM   H14S12217   1.886   6.561   6.001  1.1659 -1.0102  3.6438
  117OSM   H14T12218   1.747   6.452   5.984  0.7338  1.1939  3.4564
  117OSM   C15S12219   1.904   6.431   5.826 -0.4143  0.2057  0.4794
  117OSM   H15S12220   1.866   6.333   5.789 -0.2128  0.5160 -0.5951
  117OSM   H15T12221   2.015   6.426   5.821 -0.4286  0.8888 -0.8248
  117OSM   C16S12222   1.858   6.544   5.730 -0.1163 -0.0041 -0.2210
  117OSM   H16S12223   1.748   6.556   5.722  0.0828  1.9943 -0.4379
  117OSM   H16T12224   1.881   6.533   5.622  0.2650  3.2060 -0.5663
  117OSM   C17S12225   1.912   6.680   5.765  0.3579 -0.4916 -0.4370
  117OSM   H17S12226   2.018   6.663   5.794  0.3319 -1.1699 -0.7103
  117OSM   H17T12227   1.866   6.719   5.857  0.5407 -1.3792  0.0449
  117OSM   C18S12228   1.914   6.782   5.655  0.2265  0.0953 -0.1845
  117OSM   H18S12229   1.935   6.722   5.565 -0.1565  1.6353 -1.3428
  117OSM   H18T12230   1.998   6.854   5.659 -0.9612  1.4870  1.0559
  117OSM   H18U12231   1.815   6.830   5.639 -0.2728 -1.0870 -0.7345
  117OSM    C1F12232   1.852   6.454   7.458 -0.5144 -0.0185  0.1367
  117OSM     OF12233   1.921   6.528   7.526  0.2742  0.4222 -0.0105
  117OSM    C2F12234   1.702   6.469   7.452  0.1456  0.7809  0.3584
  117OSM    H2F12235   1.663   6.417   7.542 -1.1268  1.1369  0.0322
  117OSM    H2G12236   1.672   6.410   7.362  1.3507  0.4859  0.1290
  117OSM    C3F12237   1.656   6.616   7.444 -0.1482  0.3441 -0.0432
  117OSM    H3F12238   1.659   6.670   7.541 -0.6190  0.1346  0.0947
  117OSM    H3G12239   1.545   6.604   7.438 -0.1634 -0.0147  0.7342
  117OSM    C4F12240   1.693   6.688   7.323 -0.4482 -0.7419  0.1301
  117OSM    H4F12241   1.804   6.683   7.317 -0.1453  1.7523  1.9774
  117OSM    H4G12242   1.666   6.796   7.331  2.1833  0.2983 -2.8704
  117OSM    C5F12243   1.633   6.629   7.196  0.0411  0.3751  0.3614
  117OSM    H5F12244   1.524   6.632   7.217 -0.5100  2.2078 -2.2219
  117OSM    H5G12245   1.678   6.527   7.187 -2.7047 -0.8990 -0.0044
  117OSM    C6F12246   1.662   6.713   7.068 -0.8344 -0.2771  0.4147
  117OSM    H6F12247   1.615   6.813   7.080 -1.7709 -0.7395  0.7153
  117OSM    H6G12248   1.610   6.674   6.978 -2.7379  1.5684  0.6243
  117OSM    C7F12249   1.819   6.725   7.044 -0.0073  0.4829  0.4349
  117OSM    H7F12250   1.858   6.621   7.042 -0.8735  0.1368  1.1020
  117OSM    H7G12251   1.857   6.777   7.134 -0.9626  0.9760  0.5673
  117OSM    C8F12252   1.855   6.809   6.916 -0.2215  0.1574 -0.5255
  117OSM    H8F12253   1.965   6.827   6.918 -0.3516  1.2120 -1.6878
  117OSM    H8G12254   1.796   6.896   6.950 -0.2151 -0.6661  1.7700
  117OSM    C9F12255   1.801   6.764   6.779 -0.1319  0.6945 -0.5677
  117OSM    H9F12256   1.694   6.742   6.795  0.2246 -0.7438  0.0571
  117OSM   C10F12257   1.859   6.744   6.657 -0.5123  0.0287  0.2153
  117OSM   H10F12258   1.795   6.692   6.584 -1.5687  1.2129  0.2617
  117OSM   C11F12259   2.005   6.765   6.622 -0.0496 -0.5124  0.0409
  117OSM   H11F12260   2.053   6.672   6.584 -0.8854 -0.6862 -0.6198
  117OSM   H11G12261   2.058   6.804   6.711  0.0155 -1.3617  0.3862
  117OSM   C12F12262   2.032   6.868   6.508 -0.5428  0.3692 -0.3510
  117OSM   H12F12263   2.143   6.868   6.501 -0.6146 -0.2887 -1.7843
  117OSM   H12G12264   2.001   6.973   6.527  0.2360  1.0812 -2.6581
  117OSM   C13F12265   1.986   6.830   6.366  0.0248  0.4760 -0.1300
  117OSM   H13F12266   1.878   6.858   6.370  0.2110  1.0456  1.7474
  117OSM   H13G12267   1.979   6.719   6.362 -1.1715  0.4552  1.4190
  117OSM   C14F12268   2.071   6.901   6.258  0.5012  0.0966 -1.0485
  117OSM   H14F12269   2.175   6.879   6.292  0.2587  3.0882  2.2726
  117OSM   H14G12270   2.065   7.012   6.263 -0.3258  0.0103  0.8219
  117OSM   C15F12271   2.027   6.859   6.117  0.5917  0.4548  0.0295
  117OSM   H15F12272   1.916   6.855   6.116  0.6052 -0.8880  0.6680
  117OSM   H15G12273   2.063   6.755   6.098  3.3874  1.4155 -0.3868
  117OSM   C16F12274   2.089   6.944   6.004 -0.2767 -0.1708  0.7387
  117OSM   H16F12275   2.079   7.054   6.021  0.2609  0.4582 -2.4712
  117OSM   H16G12276   2.021   6.919   5.921  0.5522 -1.3371  0.3926
  117OSM   C17F12277   2.236   6.906   5.964  0.2025  0.2263 -0.1804
  117OSM   H17F12278   2.246   6.796   5.961 -0.4319  0.0505  2.1306
  117OSM   H17G12279   2.301   6.939   6.048  1.4963 -0.2479 -0.9682
  117OSM   C18F12280   2.278   6.973   5.834  0.2761 -0.1088 -0.5440
  117OSM   H18F12281   2.382   6.938   5.815  1.0931  2.0764 -0.3549
  117OSM   H18G12282   2.280   7.084   5.826  0.4727 -0.1398 -0.9430
  117OSM   H18H12283   2.216   6.932   5.752  0.9924 -1.0044 -0.6546
  118OSM      N12284   2.455   4.989   7.512 -0.5354  0.1356 -0.3306
  118OSM    C1512285   2.465   5.137   7.476  0.1561  0.2460 -0.7091
  118OSM   H15A12286   2.565   5.176   7.490  0.3555 -0.1957 -0.8743
  118OSM   H15B12287   2.402   5.192   7.544  2.1773  2.3877 -0.4553
  118OSM   H15C12288   2.430   5.144   7.374 -0.8870  0.9359 -0.3194
  118OSM    C1412289   2.511   4.958   7.650 -0.1076 -0.2843 -0.3227
  118OSM   H14A12290   2.481   4.863   7.693 -2.6931  1.3245  1.7447
  118OSM   H14B12291   2.480   5.019   7.734 -0.6519 -1.1408  0.1180
  118OSM   H14C12292   2.619   4.960   7.643 -0.1568  0.8821 -1.0320
  118OSM    C1312293   2.313   4.940   7.509 -1.1773 -0.0589 -0.7222
  118OSM   H13A12294   2.268   4.951   7.411  1.4209  0.0766 -1.9940
  118OSM   H13B12295   2.271   5.010   7.580  2.5821  2.1589 -0.4054
  118OSM   H13C12296   2.299   4.838   7.539 -2.1637  0.2421 -0.1132
  118OSM    C1212297   2.546   4.911   7.416 -0.1142 -1.3845  0.2875
  118OSM   H12A12298   2.545   4.804   7.428 -3.3577 -1.4766  0.0631
  118OSM   H12B12299   2.646   4.945   7.436  0.6602 -2.5882 -1.3270
  118OSM    C1112300   2.518   4.935   7.264 -0.0399  0.6278  0.0815
  118OSM   H11A12301   2.408   4.930   7.252  0.1471 -0.7924 -1.2533
  118OSM   H11B12302   2.548   4.848   7.202  0.4786 -0.5868  1.9520
  118OSM      P12303   2.724   5.066   7.167 -0.4396 -0.0265 -0.1836
  118OSM    O1312304   2.730   5.188   7.083 -0.0417 -0.0118 -0.0182
  118OSM    O1412305   2.809   5.060   7.288  0.0872  0.3602  0.3887
  118OSM    O1112306   2.742   4.941   7.071 -0.2521  0.0054 -0.5690
  118OSM    O1212307   2.569   5.058   7.214  0.1388 -0.7128 -0.1653
  118OSM    C1S12308   2.673   4.914   6.946 -0.0387 -0.8988 -0.2148
  118OSM    H1S12309   2.570   4.957   6.942  0.3485  0.0087 -0.6322
  118OSM    H1T12310   2.660   4.805   6.926 -0.9645 -1.2817  2.1049
  118OSM     NF12311   2.663   4.946   6.694  0.6423  0.3626 -0.6808
  118OSM    HNF12312   2.687   4.885   6.618 -1.5424 -0.7039 -0.6262
  118OSM    C2S12313   2.748   4.969   6.815 -0.3483  1.0841  0.2113
  118OSM    H2S12314   2.749   5.079   6.829 -0.3266  0.9338  1.4799
  118OSM    C3S12315   2.892   4.911   6.802  0.2473  0.3473  0.0459
  118OSM    H3S12316   2.885   4.800   6.798 -0.4168  0.1909  3.3126
  118OSM     O312317   2.966   4.931   6.923 -0.1075 -0.8288 -0.5281
  118OSM    HO312318   2.898   4.974   6.976  1.1004  1.3911 -0.6876
  118OSM    C4S12319   2.957   4.955   6.677 -0.0006  0.3923  0.2196
  118OSM    H4S12320   2.904   4.917   6.589 -1.5314 -1.0005  1.6785
  118OSM    C5S12321   3.081   5.011   6.663  1.2733 -0.3542 -0.3618
  118OSM    H5S12322   3.139   5.023   6.755  0.5767 -0.4838  0.1071
  118OSM    C6S12323   3.154   5.032   6.533 -0.1278 -0.4379  0.2307
  118OSM    H6S12324   3.229   4.953   6.510 -2.2436 -1.9906 -1.6994
  118OSM    H6T12325   3.208   5.128   6.550  1.5581 -1.4286  0.7075
  118OSM    C7S12326   3.072   5.033   6.397  0.0693  0.3995 -0.2671
  118OSM    H7S12327   2.998   5.115   6.391 -0.6256 -0.2607 -0.8850
  118OSM    H7T12328   3.026   4.932   6.393  1.6104 -0.3462 -0.1619
  118OSM    C8S12329   3.163   5.062   6.271  0.8746 -0.2267  0.0795
  118OSM    H8S12330   3.253   4.998   6.286  2.0983  1.4719  0.3024
  118OSM    H8T12331   3.192   5.168   6.286  0.8417 -0.1330 -0.4952
  118OSM    C9S12332   3.104   5.040   6.131  0.1480 -0.0651  0.6307
  118OSM    H9S12333   2.999   5.075   6.146 -0.5336 -1.4193 -0.7067
  118OSM    H9T12334   3.118   4.932   6.109  0.9679  0.1596  0.0231
  118OSM   C10S12335   3.181   5.123   6.033 -0.6844 -0.5416 -0.1463
  118OSM   H10S12336   3.291   5.108   6.031 -0.6653 -0.8616  1.4049
  118OSM   H10T12337   3.178   5.230   6.062 -0.8004 -0.4708 -0.4193
  118OSM   C11S12338   3.124   5.122   5.891  0.5528 -0.5459  0.3203
  118OSM   H11S12339   3.160   5.206   5.830 -1.7381  0.4942  0.3176
  118OSM   H11T12340   3.014   5.139   5.898  0.4929 -0.3246 -0.9370
  118OSM   C12S12341   3.146   4.989   5.815  0.0868 -0.3561 -0.1388
  118OSM   H12S12342   3.093   4.912   5.874  1.9283  1.0384  3.6436
  118OSM   H12T12343   3.256   4.970   5.809  0.3438  0.5914  1.1333
  118OSM   C13S12344   3.105   5.014   5.669  0.7069  0.8806  0.1674
  118OSM   H13S12345   3.143   5.112   5.632 -1.2354  1.5623 -0.1501
  118OSM   H13T12346   2.997   5.037   5.679  0.6374  1.6711 -1.9806
  118OSM   C14S12347   3.130   4.896   5.572  0.1097 -0.5696 -0.3934
  118OSM   H14S12348   3.103   4.805   5.630 -1.7676 -0.4749 -1.0398
  118OSM   H14T12349   3.240   4.894   5.558  0.5245  2.6962  1.3628
  118OSM   C15S12350   3.057   4.891   5.436 -0.6202 -0.0391 -0.1041
  118OSM   H15S12351   2.953   4.852   5.448 -0.8625  0.7009  0.2957
  118OSM   H15T12352   3.115   4.817   5.378  0.0653  0.7792 -0.4766
  118OSM   C16S12353   3.064   5.027   5.370 -0.4982 -0.2940  0.1977
  118OSM   H16S12354   3.158   5.077   5.401 -1.1400  0.2918  1.2790
  118OSM   H16T12355   2.987   5.090   5.421 -1.4179 -1.7613  0.6715
  118OSM   C17S12356   3.056   5.034   5.225  0.4791  0.3756  0.4995
  118OSM   H17S12357   2.953   5.063   5.197  0.0424  0.1083  1.7610
  118OSM   H17T12358   3.080   4.930   5.192  0.3066 -0.3391  2.4715
  118OSM   C18S12359   3.150   5.134   5.162 -0.4238 -0.5137  0.4861
  118OSM   H18S12360   3.094   5.229   5.156 -1.5775 -1.2727 -2.8653
  118OSM   H18T12361   3.194   5.110   5.063 -1.8107 -1.5688  0.0886
  118OSM   H18U12362   3.237   5.156   5.228 -1.5142  3.2068  0.9104
  118OSM    C1F12363   2.536   4.995   6.681  0.1025  0.1947  0.1034
  118OSM     OF12364   2.484   5.075   6.761 -0.0854 -0.0099 -0.0516
  118OSM    C2F12365   2.457   4.946   6.564  0.0703 -0.1386 -0.1481
  118OSM    H2F12366   2.431   4.838   6.574 -0.6355  0.0523  0.1804
  118OSM    H2G12367   2.528   4.966   6.482 -0.5607 -2.0560 -1.2200
  118OSM    C3F12368   2.324   5.023   6.546  0.2192 -0.4905 -0.5848
  118OSM    H3F12369   2.339   5.128   6.514  0.4919 -0.2842  0.2139
  118OSM    H3G12370   2.265   5.020   6.640  1.0415 -3.2490 -0.0596
  118OSM    C4F12371   2.237   4.962   6.432 -0.5766 -0.8382  0.7000
  118OSM    H4F12372   2.134   5.004   6.434 -0.5431 -0.3939 -2.1347
  118OSM    H4G12373   2.216   4.854   6.449  0.2810 -1.1903 -0.3818
  118OSM    C5F12374   2.312   4.991   6.297 -0.1171 -0.1013 -0.7734
  118OSM    H5F12375   2.411   4.942   6.298 -0.2458 -0.4741  2.1061
  118OSM    H5G12376   2.330   5.101   6.296 -0.5697  0.0077  0.5474
  118OSM    C6F12377   2.222   4.948   6.183 -0.1233  0.0619 -0.2640
  118OSM    H6F12378   2.121   4.995   6.186  0.3748  1.1538  2.7247
  118OSM    H6G12379   2.207   4.840   6.204  0.7063  0.2368  1.3523
  118OSM    C7F12380   2.268   5.004   6.054  0.1926 -0.2703  0.3316
  118OSM    H7F12381   2.367   4.958   6.037  0.6263  0.9095 -0.4135
  118OSM    H7G12382   2.273   5.115   6.058 -0.9032 -0.0165 -2.7196
  118OSM    C8F12383   2.178   4.973   5.933  0.7065  0.6268 -0.2567
  118OSM    H8F12384   2.220   5.018   5.841  2.4423 -0.5232 -0.0892
  118OSM    H8G12385   2.081   5.019   5.960  0.1571 -0.6552  0.0395
  118OSM    C9F12386   2.166   4.817   5.925  0.3036 -0.0832 -0.2047
  118OSM    H9F12387   2.135   4.768   6.018 -2.8498  0.9170 -0.6294
  118OSM   C10F12388   2.221   4.739   5.822  0.0523 -0.9953 -0.6406
  118OSM   H10F12389   2.213   4.629   5.830  1.3713 -1.4252 -3.9042
  118OSM   C11F12390   2.278   4.800   5.691 -0.6089  0.3173  0.1243
  118OSM   H11F12391   2.322   4.725   5.622 -0.7884 -1.5096  1.9042
  118OSM   H11G12392   2.360   4.866   5.728  1.3171 -1.4936 -0.6983
  118OSM   C12F12393   2.187   4.890   5.598  0.3489 -0.1284  0.0331
  118OSM   H12F12394   2.116   4.953   5.657 -0.7286 -0.4410 -0.9015
  118OSM   H12G12395   2.137   4.815   5.535  0.2770 -0.6756  0.7285
  118OSM   C13F12396   2.261   4.998   5.511 -0.0830  0.0535 -0.2638
  118OSM   H13F12397   2.332   5.049   5.579 -0.3845  1.1789 -0.7668
  118OSM   H13G12398   2.184   5.069   5.474 -1.0499 -0.5931  0.4637
  118OSM   C14F12399   2.349   4.945   5.389  0.1397 -0.1389  0.9657
  118OSM   H14F12400   2.410   4.859   5.423  0.0271 -0.2829  0.8083
  118OSM   H14G12401   2.421   5.025   5.362  0.4255 -1.1612 -1.6004
  118OSM   C15F12402   2.260   4.925   5.261  0.3348  0.1922  0.4915
  118OSM   H15F12403   2.219   5.024   5.233 -2.8338 -1.5307 -1.4878
  118OSM   H15G12404   2.178   4.861   5.300  2.1284 -1.6288  1.4818
  118OSM   C16F12405   2.341   4.872   5.138 -0.4830 -0.4788 -0.3587
  118OSM   H16F12406   2.389   4.774   5.159  1.8873 -0.1097 -3.2970
  118OSM   H16G12407   2.418   4.943   5.102 -1.6930  1.6269  0.9971
  118OSM   C17F12408   2.246   4.858   5.014 -0.1799  0.0772 -0.7500
  118OSM   H17F12409   2.195   4.950   4.979 -1.9037 -1.1421 -1.6321
  118OSM   H17G12410   2.160   4.798   5.050 -0.6279  0.7172 -0.7368
  118OSM   C18F12411   2.304   4.783   4.896  0.1891  0.1878  0.1808
  118OSM   H18F12412   2.324   4.674   4.910 -1.7575 -0.4216 -1.3443
  118OSM   H18G12413   2.406   4.822   4.874  0.4886  0.3774  1.7616
  118OSM   H18H12414   2.240   4.790   4.806 -2.8746  0.1634  2.2209
  119OSM      N12415   5.512   2.162   7.662 -0.2149 -0.2783 -0.8803
  119OSM    C1512416   5.551   2.169   7.522 -0.1929 -0.4152  0.1830
  119OSM   H15A12417   5.596   2.265   7.497  0.7794 -0.5310  1.3517
  119OSM   H15B12418   5.469   2.146   7.456 -0.0640 -0.6224  0.0958
  119OSM   H15C12419   5.637   2.106   7.504 -0.7157 -0.3509 -3.1915
  119OSM    C1412420   5.439   2.032   7.691  0.6647  0.5709  0.5082
  119OSM   H14A12421   5.497   1.941   7.680  1.3536  1.0903 -0.3333
  119OSM   H14B12422   5.360   2.028   7.618  0.1729 -2.5922  1.0830
  119OSM   H14C12423   5.389   2.027   7.786  0.5988 -1.9729  0.4077
  119OSM    C1312424   5.637   2.149   7.750  0.3532 -0.0574  0.8139
  119OSM   H13A12425   5.603   2.152   7.852  0.6049  0.7588  0.8772
  119OSM   H13B12426   5.711   2.227   7.739 -1.1007  1.0598 -2.5716
  119OSM   H13C12427   5.686   2.053   7.739  0.3813  0.1934 -1.9180
  119OSM    C1212428   5.435   2.285   7.711  1.0603  0.2808  0.6320
  119OSM   H12A12429   5.498   2.372   7.696 -0.0866  1.1476  0.7006
  119OSM   H12B12430   5.410   2.284   7.816  1.1346 -0.2765  0.6481
  119OSM    C1112431   5.298   2.319   7.644 -0.2701  0.1426 -0.6676
  119OSM   H11A12432   5.224   2.248   7.687  0.6403 -0.8382 -0.6752
  119OSM   H11B12433   5.303   2.290   7.537 -1.7271 -1.5883 -0.3032
  119OSM      P12434   5.352   2.557   7.590 -0.0772 -0.1896 -0.2521
  119OSM    O1312435   5.309   2.696   7.612  0.0763  0.5905  0.5267
  119OSM    O1412436   5.500   2.541   7.606  0.1807 -0.1320  0.3763
  119OSM    O1112437   5.321   2.525   7.441  0.4773  0.5711  0.0019
  119OSM    O1212438   5.261   2.449   7.670 -0.4033  0.4021 -0.6650
  119OSM    C1S12439   5.188   2.483   7.397 -0.4918  0.0782  0.2509
  119OSM    H1S12440   5.110   2.557   7.421 -0.7244  0.9320 -2.7327
  119OSM    H1T12441   5.149   2.383   7.427 -1.5211 -0.1249 -1.6288
  119OSM     NF12442   5.052   2.473   7.190  0.7678 -0.4283 -0.2874
  119OSM    HNF12443   5.031   2.389   7.140 -2.8683  1.2482 -1.9331
  119OSM    C2S12444   5.195   2.474   7.238 -0.0865  0.5897 -0.0965
  119OSM    H2S12445   5.242   2.570   7.206 -0.9600  1.1853  0.3459
  119OSM    C3S12446   5.280   2.353   7.201  0.0293 -0.4563  0.0703
  119OSM    H3S12447   5.219   2.266   7.234  0.5651 -0.3879  1.2884
  119OSM     O312448   5.387   2.318   7.292 -0.2676  0.2505 -0.3075
  119OSM    HO312449   5.390   2.391   7.355 -0.7140  0.3873 -0.4436
  119OSM    C4S12450   5.304   2.334   7.052  0.1742 -0.4446  0.0591
  119OSM    H4S12451   5.218   2.295   6.997 -0.1360 -2.9195  2.1008
  119OSM    C5S12452   5.408   2.374   6.978  0.1904  0.1003 -0.0415
  119OSM    H5S12453   5.499   2.403   7.032 -0.2875 -2.8972  2.6667
  119OSM    C6S12454   5.422   2.355   6.828 -0.5308 -0.8994  0.0533
  119OSM    H6S12455   5.493   2.273   6.806 -0.2451 -1.4034  2.4902
  119OSM    H6T12456   5.465   2.440   6.772 -0.5429 -0.3018  0.9196
  119OSM    C7S12457   5.291   2.317   6.761  0.7172 -0.2009  0.5149
  119OSM    H7S12458   5.219   2.399   6.780 -0.2287 -0.8815 -0.0340
  119OSM    H7T12459   5.242   2.228   6.807  1.2884 -1.0350 -0.4579
  119OSM    C8S12460   5.291   2.311   6.611  0.3761 -0.3706  0.2346
  119OSM    H8S12461   5.193   2.266   6.583  1.4897 -3.0039  0.2485
  119OSM    H8T12462   5.380   2.258   6.571 -0.3538  0.1113 -2.1872
  119OSM    C9S12463   5.277   2.448   6.546  1.2423  0.6581 -0.1730
  119OSM    H9S12464   5.372   2.504   6.560  1.0860  1.1571 -0.9991
  119OSM    H9T12465   5.196   2.499   6.602 -0.6550  1.4018 -3.3221
  119OSM   C10S12466   5.262   2.434   6.399  0.7579  0.5573 -0.0860
  119OSM   H10S12467   5.187   2.354   6.383  1.4037  0.0994 -0.9160
  119OSM   H10T12468   5.348   2.407   6.334 -0.3543 -0.6118 -1.1321
  119OSM   C11S12469   5.198   2.572   6.348 -0.6432  0.1075 -0.6850
  119OSM   H11S12470   5.273   2.654   6.343  0.3319 -0.6899  0.2418
  119OSM   H11T12471   5.110   2.608   6.405 -0.9850  0.5039 -1.4596
  119OSM   C12S12472   5.143   2.551   6.205  0.4553 -0.5501  0.1206
  119OSM   H12S12473   5.080   2.639   6.181  0.0404 -0.6805  0.7025
  119OSM   H12T12474   5.072   2.465   6.212 -0.1788 -0.2877 -2.1299
  119OSM   C13S12475   5.251   2.526   6.099  0.1807  0.2559  0.8640
  119OSM   H13S12476   5.280   2.420   6.089 -1.1985 -0.1809  1.2722
  119OSM   H13T12477   5.342   2.580   6.133  0.8722 -1.0964  1.2402
  119OSM   C14S12478   5.198   2.584   5.966  0.1786 -0.9128 -0.3329
  119OSM   H14S12479   5.271   2.589   5.883 -1.9566  3.3263 -2.2277
  119OSM   H14T12480   5.157   2.683   5.993 -0.9415 -1.5406  0.3565
  119OSM   C15S12481   5.077   2.506   5.895 -0.0086  0.4040  0.2981
  119OSM   H15S12482   4.986   2.494   5.958  0.3816 -1.6040  0.5284
  119OSM   H15T12483   5.131   2.412   5.871 -1.6286 -0.6788  0.7647
  119OSM   C16S12484   5.016   2.580   5.770  1.5885 -0.4405  0.4446
  119OSM   H16S12485   5.100   2.607   5.702  2.2146  0.4161  1.5244
  119OSM   H16T12486   4.981   2.677   5.811  1.7718  0.1965 -0.8469
  119OSM   C17S12487   4.892   2.501   5.705 -0.4168  0.1528 -0.1266
  119OSM   H17S12488   4.805   2.494   5.773  1.0410 -0.1520  1.8113
  119OSM   H17T12489   4.934   2.400   5.685  1.9424  1.3391 -1.6578
  119OSM   C18S12490   4.832   2.554   5.571 -0.1784  1.0187 -0.0029
  119OSM   H18S12491   4.776   2.649   5.582 -0.8376  0.5077  1.2191
  119OSM   H18T12492   4.761   2.472   5.548 -1.5635  2.2193 -0.1155
  119OSM   H18U12493   4.910   2.570   5.493 -1.1148 -1.0968 -1.4622
  119OSM    C1F12494   4.975   2.583   7.210 -0.3375 -0.5799  0.7054
  119OSM     OF12495   5.027   2.683   7.261  0.1346  0.1099  0.2249
  119OSM    C2F12496   4.834   2.581   7.174 -0.6873 -0.7612 -0.5749
  119OSM    H2F12497   4.772   2.584   7.266 -2.8170 -0.6776 -1.9326
  119OSM    H2G12498   4.817   2.480   7.132 -1.1962 -0.1296 -1.9411
  119OSM    C3F12499   4.807   2.692   7.070 -0.0403  0.1297 -0.0462
  119OSM    H3F12500   4.837   2.788   7.117  1.9565  0.4645 -1.8598
  119OSM    H3G12501   4.696   2.702   7.064 -0.1144 -0.9928 -0.8393
  119OSM    C4F12502   4.870   2.679   6.932 -0.2360  0.5987  0.2205
  119OSM    H4F12503   4.979   2.665   6.950 -0.5989 -1.9695  0.7284
  119OSM    H4G12504   4.855   2.768   6.868  1.5552  1.0565  0.3658
  119OSM    C5F12505   4.835   2.548   6.861 -0.8273 -0.3709  0.1513
  119OSM    H5F12506   4.725   2.543   6.846 -1.0104 -0.7541  1.4597
  119OSM    H5G12507   4.869   2.464   6.925  0.2255 -0.2860 -0.2775
  119OSM    C6F12508   4.896   2.534   6.726  0.4172 -0.3817 -0.2926
  119OSM    H6F12509   5.006   2.521   6.738  0.4311  0.4487  0.4993
  119OSM    H6G12510   4.876   2.630   6.674 -1.0505 -0.8109 -0.5763
  119OSM    C7F12511   4.828   2.413   6.653  0.3247  0.5323  0.1375
  119OSM    H7F12512   4.720   2.435   6.636  0.4048  0.1957 -0.8538
  119OSM    H7G12513   4.845   2.331   6.727 -1.1755 -0.7305 -0.8449
  119OSM    C8F12514   4.893   2.379   6.521 -0.3962 -0.0059  0.1160
  119OSM    H8F12515   4.856   2.278   6.491  1.4507 -0.0790 -2.2312
  119OSM    H8G12516   5.004   2.377   6.522 -0.3530  1.4175  0.0104
  119OSM    C9F12517   4.849   2.487   6.423 -0.3360 -0.5697  0.0889
  119OSM    H9F12518   4.905   2.579   6.445  0.2885 -0.8993 -0.0951
  119OSM   C10F12519   4.792   2.477   6.306 -0.0891  0.6112  0.3323
  119OSM   H10F12520   4.762   2.568   6.251  1.8522  0.9802 -0.2177
  119OSM   C11F12521   4.739   2.342   6.250 -0.5893 -0.2154 -0.0589
  119OSM   H11F12522   4.711   2.274   6.333 -1.4844 -0.1159 -0.2616
  119OSM   H11G12523   4.818   2.287   6.194 -1.2218  0.8469 -2.1007
  119OSM   C12F12524   4.617   2.354   6.157  0.2305 -0.9772 -0.3741
  119OSM   H12F12525   4.533   2.412   6.201  0.0852  0.0964 -2.0041
  119OSM   H12G12526   4.579   2.250   6.141 -1.8834 -0.9593  3.3164
  119OSM   C13F12527   4.657   2.401   6.013  0.2144  0.7246 -0.3076
  119OSM   H13F12528   4.761   2.375   5.985  0.0048 -0.4907 -0.0505
  119OSM   H13G12529   4.655   2.511   6.020  0.8316  0.6524  1.4240
  119OSM   C14F12530   4.568   2.365   5.898 -0.0694 -0.6848 -0.0261
  119OSM   H14F12531   4.610   2.436   5.824 -1.3313  0.8751  0.7092
  119OSM   H14G12532   4.461   2.392   5.900 -0.3256 -1.6657  0.3760
  119OSM   C15F12533   4.584   2.216   5.853 -0.3013  0.4415  0.6430
  119OSM   H15F12534   4.531   2.164   5.936 -0.2582  1.2271  1.1740
  119OSM   H15G12535   4.690   2.188   5.869  0.0315  2.5308  2.5671
  119OSM   C16F12536   4.502   2.191   5.721  0.0196 -0.1153 -0.6447
  119OSM   H16F12537   4.402   2.237   5.721  0.6123  1.3341  1.8409
  119OSM   H16G12538   4.498   2.079   5.721 -2.4059 -0.0781 -0.3992
  119OSM   C17F12539   4.579   2.230   5.599  0.5500  0.4216 -0.2074
  119OSM   H17F12540   4.681   2.187   5.608  0.0717 -0.8728 -0.7464
  119OSM   H17G12541   4.587   2.341   5.604  1.3152  0.3827 -0.4315
  119OSM   C18F12542   4.514   2.194   5.464 -0.3186 -0.0346 -0.6299
  119OSM   H18F12543   4.479   2.089   5.462  1.6927 -0.9622  2.9737
  119OSM   H18G12544   4.597   2.213   5.392 -0.6750  1.0141 -0.7771
  119OSM   H18H12545   4.430   2.261   5.435 -1.3967 -0.5808  1.1002
  120OSM      N12546   0.788   1.414   7.724  0.3877  0.4373 -0.1500
  120OSM    C1512547   0.882   1.493   7.641  0.7842  1.0822  0.0715
  120OSM   H15A12548   0.825   1.527   7.555 -2.7596 -0.8422  1.4544
  120OSM   H15B12549   0.964   1.430   7.609 -1.5109 -2.7438  1.0929
  120OSM   H15C12550   0.911   1.585   7.689 -4.2465  2.3048  1.3046
  120OSM    C1412551   0.867   1.351   7.836  0.3464 -0.5935  0.9299
  120OSM   H14A12552   0.925   1.268   7.796 -3.0405 -1.7059 -2.2010
  120OSM   H14B12553   0.807   1.306   7.913  0.0967 -0.1525  0.9964
  120OSM   H14C12554   0.928   1.424   7.888 -0.3155  0.6881 -0.0461
  120OSM    C1312555   0.675   1.497   7.791 -0.0192 -0.0841  0.3075
  120OSM   H13A12556   0.596   1.436   7.832 -1.8173  1.8175 -0.1708
  120OSM   H13B12557   0.621   1.556   7.719  1.5554  1.2826  0.1747
  120OSM   H13C12558   0.697   1.565   7.872 -2.4229 -0.1193  1.0766
  120OSM    C1212559   0.729   1.293   7.642  0.1274 -0.2133 -0.6221
  120OSM   H12A12560   0.661   1.241   7.707 -0.8466  3.6834  1.7988
  120OSM   H12B12561   0.811   1.225   7.626  1.4815  1.4466 -1.1604
  120OSM    C1112562   0.646   1.340   7.519 -0.5154 -0.3490 -0.5917
  120OSM   H11A12563   0.632   1.247   7.459  0.3804 -0.2589 -0.9546
  120OSM   H11B12564   0.698   1.418   7.460 -1.0562 -0.8782 -1.8088
  120OSM      P12565   0.408   1.295   7.635  0.0007 -0.0816  0.0846
  120OSM    O1312566   0.459   1.213   7.748  0.6331 -0.2654 -0.0512
  120OSM    O1412567   0.291   1.374   7.662  0.2024 -0.3612  0.4201
  120OSM    O1112568   0.370   1.195   7.519  0.1178  0.5560 -0.1052
  120OSM    O1212569   0.521   1.392   7.568  0.3990 -0.3387 -0.0853
  120OSM    C1S12570   0.336   1.224   7.387  0.0647 -0.1230  0.3534
  120OSM    H1S12571   0.391   1.309   7.343 -1.6745 -0.5893 -3.0135
  120OSM    H1T12572   0.227   1.244   7.384  0.1953  0.7270  0.9225
  120OSM     NF12573   0.371   1.132   7.156  0.0407  0.0144 -0.1518
  120OSM    HNF12574   0.292   1.112   7.099 -1.1883 -0.1909  1.5670
  120OSM    C2S12575   0.363   1.101   7.294  0.2176  1.0092  0.4082
  120OSM    H2S12576   0.467   1.080   7.328  0.5063  1.2069 -0.3465
  120OSM    C3S12577   0.266   0.994   7.332 -0.7562  0.5931 -0.7233
  120OSM    H3S12578   0.164   1.028   7.302 -1.6855  0.1684  1.7415
  120OSM     O312579   0.264   0.959   7.469  0.1262 -0.0434  0.0216
  120OSM    HO312580   0.316   1.027   7.512  2.1218 -0.9946 -0.7651
  120OSM    C4S12581   0.281   0.873   7.242  0.3813 -0.3564  0.3162
  120OSM    H4S12582   0.207   0.877   7.160 -1.6676  2.8920  2.1083
  120OSM    C5S12583   0.372   0.778   7.247  0.1933 -0.2537  0.4677
  120OSM    H5S12584   0.442   0.784   7.332  1.6763  1.4543 -0.7970
  120OSM    C6S12585   0.372   0.657   7.157 -0.6565  0.4566  0.7242
  120OSM    H6S12586   0.324   0.568   7.202  2.2644  0.2271  3.8014
  120OSM    H6T12587   0.473   0.614   7.142 -0.8711 -0.0625  0.7656
  120OSM    C7S12588   0.302   0.660   7.016  0.0585 -0.0960 -0.3194
  120OSM    H7S12589   0.198   0.699   7.021 -0.5890 -1.8822  1.9927
  120OSM    H7T12590   0.286   0.556   6.980 -0.8128 -0.5601  1.2799
  120OSM    C8S12591   0.389   0.730   6.907 -0.2658  0.1979 -0.0064
  120OSM    H8S12592   0.459   0.654   6.867 -1.2782  0.2749 -2.0198
  120OSM    H8T12593   0.438   0.812   6.963 -0.8139 -0.4451  1.4698
  120OSM    C9S12594   0.298   0.794   6.799  0.0991 -0.5250 -0.2903
  120OSM    H9S12595   0.236   0.878   6.836  1.5514  0.4066  0.1067
  120OSM    H9T12596   0.233   0.712   6.760  1.7536 -2.9746  1.7456
  120OSM   C10S12597   0.382   0.831   6.674  0.7794 -0.5432 -0.7004
  120OSM   H10S12598   0.455   0.750   6.655  0.0345 -1.1260 -1.1812
  120OSM   H10T12599   0.440   0.924   6.691  1.3045 -1.1164  0.8584
  120OSM   C11S12600   0.301   0.834   6.546 -0.1305 -0.0939 -0.2316
  120OSM   H11S12601   0.235   0.923   6.545  1.1013  0.8765  0.4325
  120OSM   H11T12602   0.234   0.747   6.533 -0.0672 -0.0086 -1.2029
  120OSM   C12S12603   0.376   0.846   6.411 -0.0864 -0.3187 -0.6038
  120OSM   H12S12604   0.462   0.776   6.422 -0.6669 -0.9548  0.0394
  120OSM   H12T12605   0.412   0.950   6.404 -0.8364 -0.0163 -0.1630
  120OSM   C13S12606   0.296   0.812   6.289  0.1733 -0.8640  0.9399
  120OSM   H13S12607   0.216   0.884   6.263  3.3887  2.6243 -0.1051
  120OSM   H13T12608   0.256   0.709   6.301  2.3247 -1.6161  2.2678
  120OSM   C14S12609   0.386   0.807   6.172 -0.2031  0.2119  0.0572
  120OSM   H14S12610   0.464   0.729   6.185  0.7315  1.3481  1.5377
  120OSM   H14T12611   0.439   0.904   6.158 -1.3405  0.8980  0.3726
  120OSM   C15S12612   0.309   0.781   6.039  0.6982 -0.0489 -0.5503
  120OSM   H15S12613   0.253   0.872   6.007  1.9233  0.5838 -0.9709
  120OSM   H15T12614   0.227   0.714   6.071  1.1414  0.4825  1.9116
  120OSM   C16S12615   0.392   0.722   5.922 -0.2426 -0.1724 -0.4703
  120OSM   H16S12616   0.324   0.701   5.836 -1.3164  1.1965  0.0028
  120OSM   H16T12617   0.445   0.629   5.952 -2.3340 -0.9963  0.8805
  120OSM   C17S12618   0.489   0.830   5.864 -0.4163  0.0358 -0.1386
  120OSM   H17S12619   0.554   0.873   5.944  0.6145  0.1467 -1.0233
  120OSM   H17T12620   0.433   0.921   5.833 -0.2035  0.1897 -0.0793
  120OSM   C18S12621   0.581   0.775   5.764  0.2102 -0.3751  0.5225
  120OSM   H18S12622   0.655   0.702   5.803  0.8013 -0.1614 -0.1618
  120OSM   H18T12623   0.629   0.864   5.718 -1.3837 -0.5029 -1.5390
  120OSM   H18U12624   0.527   0.731   5.677 -1.1769  0.1962  1.0797
  120OSM    C1F12625   0.472   1.203   7.109 -0.1930  0.6639  0.1672
  120OSM     OF12626   0.567   1.228   7.175  0.0984  0.1358 -0.1585
  120OSM    C2F12627   0.454   1.267   6.971 -0.4784  0.9119 -0.2803
  120OSM    H2F12628   0.426   1.373   6.988 -1.0380  0.6314  0.5993
  120OSM    H2G12629   0.376   1.211   6.915  1.2595  0.7223 -2.6654
  120OSM    C3F12630   0.584   1.247   6.897 -0.1610 -0.7948  0.5561
  120OSM    H3F12631   0.622   1.143   6.905 -2.2191 -1.5570  1.1101
  120OSM    H3G12632   0.655   1.318   6.945 -0.9148  0.9775 -0.8301
  120OSM    C4F12633   0.565   1.286   6.758 -0.3251 -0.4296 -0.2989
  120OSM    H4F12634   0.503   1.378   6.746 -1.2517 -0.7523  1.7137
  120OSM    H4G12635   0.501   1.204   6.719  0.0467 -1.7133  1.6892
  120OSM    C5F12636   0.698   1.305   6.682  0.5808  0.3818  0.9195
  120OSM    H5F12637   0.779   1.232   6.704  1.3492  0.5120 -1.2483
  120OSM    H5G12638   0.740   1.401   6.718 -0.8275  2.1935 -1.8886
  120OSM    C6F12639   0.673   1.331   6.532  0.1714 -0.5001  0.5439
  120OSM    H6F12640   0.590   1.403   6.518 -0.2952 -1.3507 -1.3852
  120OSM    H6G12641   0.640   1.239   6.479  1.9441 -0.7208 -0.2559
  120OSM    C7F12642   0.802   1.388   6.475  0.4839 -0.0076  0.6622
  120OSM    H7F12643   0.884   1.322   6.511  1.0028 -1.0582 -2.2106
  120OSM    H7G12644   0.813   1.495   6.504  2.4931 -0.0718  0.2754
  120OSM    C8F12645   0.800   1.376   6.321 -0.2772  0.3044  0.0416
  120OSM    H8F12646   0.811   1.267   6.308 -1.6875 -0.1694  2.3693
  120OSM    H8G12647   0.891   1.416   6.270 -0.7742  0.0270 -1.0825
  120OSM    C9F12648   0.675   1.417   6.245 -0.7342 -0.0334  0.8244
  120OSM    H9F12649   0.589   1.350   6.229 -0.2531 -0.0405 -2.4115
  120OSM   C10F12650   0.670   1.536   6.176  0.3946  0.4353 -0.0948
  120OSM   H10F12651   0.583   1.549   6.110  1.3120 -2.4876 -2.1045
  120OSM   C11F12652   0.776   1.642   6.178  0.0667 -1.3488 -0.1722
  120OSM   H11F12653   0.854   1.630   6.257 -0.4642 -0.1553  0.5692
  120OSM   H11G12654   0.734   1.744   6.186 -1.5363 -1.9508 -0.4024
  120OSM   C12F12655   0.869   1.649   6.048  0.3336  0.3671 -0.6627
  120OSM   H12F12656   0.921   1.552   6.037  0.5669  0.2259  1.4474
  120OSM   H12G12657   0.941   1.732   6.063  1.3393 -0.5699 -0.2284
  120OSM   C13F12658   0.793   1.669   5.923  0.4959  0.5253  0.3401
  120OSM   H13F12659   0.726   1.756   5.943  1.0284  0.5722  2.0752
  120OSM   H13G12660   0.736   1.577   5.898  1.1065 -0.6976  3.0519
  120OSM   C14F12661   0.893   1.707   5.807 -0.1052  0.0666 -0.0308
  120OSM   H14F12662   0.976   1.636   5.787 -1.1269 -0.5507 -2.4867
  120OSM   H14G12663   0.932   1.809   5.827  0.0752  0.0189 -0.1358
  120OSM   C15F12664   0.822   1.713   5.666 -0.1069  0.0790 -0.7528
  120OSM   H15F12665   0.739   1.786   5.676  1.2500  1.5833  0.0799
  120OSM   H15G12666   0.775   1.615   5.645 -0.2276 -0.0056 -0.0928
  120OSM   C16F12667   0.906   1.773   5.555  0.1231 -0.4870  0.2898
  120OSM   H16F12668   1.000   1.715   5.552  0.2298 -0.2636 -1.9674
  120OSM   H16G12669   0.930   1.880   5.574 -2.2087 -0.0448  1.1938
  120OSM   C17F12670   0.832   1.767   5.416 -0.6926 -0.3945  0.0073
  120OSM   H17F12671   0.739   1.827   5.409 -1.7921 -1.9125  1.0479
  120OSM   H17G12672   0.808   1.662   5.388 -0.0532 -0.3538 -0.7434
  120OSM   C18F12673   0.921   1.819   5.304 -0.2718  0.0636  1.1131
  120OSM   H18F12674   0.865   1.847   5.212  1.7834 -0.9294 -0.5236
  120OSM   H18G12675   0.984   1.732   5.277 -2.5698 -1.8234  1.5341
  120OSM   H18H12676   0.973   1.909   5.345 -1.3146 -0.0575  2.7912
  121OSM      N12677   0.751   3.138   8.033  0.6456  0.6171 -0.1917
  121OSM    C1512678   0.657   3.015   8.034 -0.2605 -0.3816  0.1597
  121OSM   H15A12679   0.602   2.998   8.126 -1.0844 -2.1089 -0.5931
  121OSM   H15B12680   0.727   2.933   8.023 -2.1886 -2.0672 -0.0464
  121OSM   H15C12681   0.590   3.013   7.950 -0.9085 -0.6103  0.6689
  121OSM    C1412682   0.684   3.272   8.063 -0.2620 -0.2102 -0.2320
  121OSM   H14A12683   0.628   3.265   8.155 -0.5291  1.7884 -0.1914
  121OSM   H14B12684   0.619   3.295   7.980 -0.7926  3.7623  1.0831
  121OSM   H14C12685   0.751   3.356   8.071 -2.1245  1.4675 -1.3473
  121OSM    C1312686   0.849   3.110   8.143 -0.2466 -0.1675 -0.0008
  121OSM   H13A12687   0.802   3.088   8.238  0.5216  0.0603  0.4400
  121OSM   H13B12688   0.911   3.198   8.152  0.0562  0.1388 -3.6326
  121OSM   H13C12689   0.909   3.022   8.128 -2.2518 -1.3556 -1.6323
  121OSM    C1212690   0.826   3.153   7.902 -1.0869  1.0155 -0.3137
  121OSM   H12A12691   0.883   3.063   7.883 -1.3035  0.5302  1.1979
  121OSM   H12B12692   0.900   3.231   7.912  0.4044 -0.5614  2.1291
  121OSM    C1112693   0.738   3.178   7.776 -0.0063  0.2789  0.0983
  121OSM   H11A12694   0.670   3.091   7.775  1.0452 -0.5913  0.9976
  121OSM   H11B12695   0.806   3.183   7.688  1.3948 -1.1700  1.0431
  121OSM      P12696   0.742   3.435   7.752 -0.3291 -0.4079  0.1468
  121OSM    O1312697   0.664   3.550   7.802 -0.5470 -0.1533  0.4546
  121OSM    O1412698   0.880   3.416   7.811  0.0247 -0.4100  0.0803
  121OSM    O1112699   0.757   3.434   7.590  0.9961  0.0003 -0.6088
  121OSM    O1212700   0.659   3.301   7.777 -0.0840 -0.5010 -0.3262
  121OSM    C1S12701   0.656   3.380   7.504  0.2262 -0.7998 -0.5443
  121OSM    H1S12702   0.552   3.405   7.532  0.6032 -1.8375  2.1327
  121OSM    H1T12703   0.659   3.269   7.504  1.5343 -0.8007  0.6928
  121OSM     NF12704   0.582   3.415   7.270 -0.2650  0.0298 -0.5640
  121OSM    HNF12705   0.568   3.328   7.223  2.2291  0.4177 -2.2115
  121OSM    C2S12706   0.700   3.435   7.369  0.3057  0.0215 -0.6994
  121OSM    H2S12707   0.715   3.545   7.368 -1.9524  0.3809 -0.9976
  121OSM    C3S12708   0.833   3.370   7.314  0.4010  0.3884 -0.1036
  121OSM    H3S12709   0.805   3.263   7.321 -0.0579  0.6184  2.6701
  121OSM     O312710   0.943   3.370   7.402 -0.2191  0.1355  0.2723
  121OSM    HO312711   0.898   3.398   7.482 -0.2857 -1.6742  0.9112
  121OSM    C4S12712   0.855   3.417   7.168  0.8489 -0.6268 -0.5367
  121OSM    H4S12713   0.790   3.380   7.088 -2.1378  1.6369  0.6490
  121OSM    C5S12714   0.939   3.522   7.143  0.7443 -0.2112 -0.6861
  121OSM    H5S12715   0.994   3.575   7.222 -0.2243 -0.9426  0.4958
  121OSM    C6S12716   0.954   3.594   7.014 -0.6323  0.1143  1.2269
  121OSM    H6S12717   1.060   3.589   6.980 -0.0715  2.4939  2.4317
  121OSM    H6T12718   0.948   3.704   7.029 -0.4115  0.0548  1.7803
  121OSM    C7S12719   0.861   3.551   6.900  0.1070 -0.1109  0.3320
  121OSM    H7S12720   0.767   3.608   6.913  0.7897  1.3493 -0.7808
  121OSM    H7T12721   0.841   3.442   6.903 -2.1117  0.2496  0.3945
  121OSM    C8S12722   0.915   3.589   6.759 -0.4531 -0.3930 -0.3243
  121OSM    H8S12723   1.026   3.585   6.762 -0.3528  1.4798  1.2845
  121OSM    H8T12724   0.900   3.698   6.743 -1.0827 -0.4511 -0.1621
  121OSM    C9S12725   0.865   3.511   6.645  1.2986  0.4899 -0.8192
  121OSM    H9S12726   0.758   3.531   6.623 -0.0377 -3.5572  0.9425
  121OSM    H9T12727   0.879   3.403   6.667  0.3723  0.7422  1.3035
  121OSM   C10S12728   0.942   3.536   6.519  0.2208 -0.1021 -0.1200
  121OSM   H10S12729   1.045   3.518   6.556 -0.6932 -0.9256  2.2374
  121OSM   H10T12730   0.930   3.642   6.489  0.3583 -0.0563 -0.0148
  121OSM   C11S12731   0.907   3.455   6.392  0.0702  0.2663 -0.1752
  121OSM   H11S12732   0.801   3.476   6.363 -0.6558 -1.3566  1.0992
  121OSM   H11T12733   0.923   3.345   6.401  0.8623  0.4856  1.5938
  121OSM   C12S12734   0.984   3.507   6.268 -0.0065 -0.5936 -0.4663
  121OSM   H12S12735   1.093   3.484   6.268 -0.0893 -1.2556 -2.3934
  121OSM   H12T12736   0.974   3.617   6.259  1.7381 -0.4389 -0.9620
  121OSM   C13S12737   0.927   3.453   6.138  0.4550 -0.0189 -0.6481
  121OSM   H13S12738   0.820   3.484   6.140  0.6199  0.5194  1.7515
  121OSM   H13T12739   0.921   3.343   6.124 -0.7019 -0.2021  1.0328
  121OSM   C14S12740   0.998   3.519   6.020 -0.4919  0.0800  0.1557
  121OSM   H14S12741   1.104   3.488   6.023  0.0463  1.6685 -0.8573
  121OSM   H14T12742   1.006   3.629   6.034 -1.1442 -0.0651  1.8708
  121OSM   C15S12743   0.948   3.471   5.887  0.4198 -0.2950  0.1489
  121OSM   H15S12744   0.969   3.362   5.889  1.0290 -0.2368 -1.2377
  121OSM   H15T12745   1.024   3.507   5.813 -0.6858 -0.4471 -1.0962
  121OSM   C16S12746   0.811   3.518   5.854  0.7760  0.8870 -0.3195
  121OSM   H16S12747   0.806   3.629   5.850  0.5327  0.8342 -1.8068
  121OSM   H16T12748   0.737   3.492   5.933  1.1873  2.8504  0.7885
  121OSM   C17S12749   0.767   3.477   5.711 -0.3506  0.5625 -0.2528
  121OSM   H17S12750   0.807   3.380   5.675 -0.8033 -0.0293  0.7782
  121OSM   H17T12751   0.825   3.543   5.643 -0.8228  1.5823  0.3193
  121OSM   C18S12752   0.617   3.481   5.693 -0.6792  0.2461 -0.2236
  121OSM   H18S12753   0.572   3.436   5.602  0.9250 -1.4666 -0.2219
  121OSM   H18T12754   0.598   3.588   5.717 -0.0630 -0.1519  2.3554
  121OSM   H18U12755   0.569   3.417   5.771  0.8971 -0.2327  0.3995
  121OSM    C1F12756   0.477   3.506   7.279 -0.4441  0.5499  0.0030
  121OSM     OF12757   0.485   3.613   7.339 -0.4325 -0.2395  0.4294
  121OSM    C2F12758   0.350   3.476   7.210  0.0730  0.8416 -0.0768
  121OSM    H2F12759   0.268   3.490   7.283  0.7105  0.5584  0.7146
  121OSM    H2G12760   0.343   3.372   7.173 -0.6471  1.1218 -0.7458
  121OSM    C3F12761   0.320   3.565   7.089  0.1990 -0.1597 -0.4718
  121OSM    H3F12762   0.302   3.670   7.121  2.2278 -0.6447  2.8300
  121OSM    H3G12763   0.224   3.522   7.054 -0.3127  0.7825 -0.2640
  121OSM    C4F12764   0.424   3.586   6.977  0.6933 -0.1691 -0.9488
  121OSM    H4F12765   0.450   3.483   6.945 -0.8668 -0.8468 -0.1618
  121OSM    H4G12766   0.499   3.662   7.007 -0.2112  0.0138  0.9776
  121OSM    C5F12767   0.358   3.638   6.845  0.0580  0.6546 -0.5980
  121OSM    H5F12768   0.333   3.746   6.854  1.0511  0.7962  0.6977
  121OSM    H5G12769   0.260   3.592   6.819 -0.3401  1.5705 -0.7393
  121OSM    C6F12770   0.445   3.609   6.722 -0.2032  0.2873 -0.5553
  121OSM    H6F12771   0.449   3.499   6.707 -1.5254  0.2961 -1.0863
  121OSM    H6G12772   0.550   3.641   6.734 -0.3532  0.0420  2.2438
  121OSM    C7F12773   0.386   3.664   6.589  0.0612 -0.5753  0.8858
  121OSM    H7F12774   0.349   3.767   6.611 -1.0027 -0.4303 -1.3376
  121OSM    H7G12775   0.308   3.590   6.563 -0.6467 -0.1279  1.6718
  121OSM    C8F12776   0.486   3.688   6.472  0.4393  0.2381 -0.2656
  121OSM    H8F12777   0.409   3.721   6.398 -0.0983  1.2813  0.7290
  121OSM    H8G12778   0.532   3.588   6.464 -0.1166 -0.2014  1.5958
  121OSM    C9F12779   0.588   3.795   6.505  0.1089  1.0362 -0.1029
  121OSM    H9F12780   0.609   3.800   6.613 -0.3875 -0.7566  0.1082
  121OSM   C10F12781   0.642   3.885   6.421  0.5626  0.1029  0.1623
  121OSM   H10F12782   0.713   3.956   6.467  0.3577 -0.6384  1.7169
  121OSM   C11F12783   0.617   3.903   6.271  0.2864  0.0627  0.1288
  121OSM   H11F12784   0.584   4.007   6.251  0.3261  0.5823  2.4833
  121OSM   H11G12785   0.535   3.832   6.246  1.7498 -2.2387  1.4723
  121OSM   C12F12786   0.731   3.865   6.165  0.2299  0.0120 -0.8255
  121OSM   H12F12787   0.735   3.754   6.178 -1.8361 -0.1421 -1.2494
  121OSM   H12G12788   0.822   3.908   6.212  0.3154  0.2231 -1.1904
  121OSM   C13F12789   0.700   3.908   6.020 -0.5401 -0.3949 -0.1558
  121OSM   H13F12790   0.792   3.890   5.961  0.0146  1.8461 -0.0530
  121OSM   H13G12791   0.678   4.016   6.008  0.0182 -0.1519  0.8874
  121OSM   C14F12792   0.584   3.828   5.953  0.2553 -0.7680 -0.7988
  121OSM   H14F12793   0.509   3.807   6.032  1.5056  1.2440  1.0208
  121OSM   H14G12794   0.619   3.726   5.925  1.0793  0.0638 -3.0611
  121OSM   C15F12795   0.519   3.885   5.826 -0.2369 -0.6854  0.2105
  121OSM   H15F12796   0.461   3.976   5.848  0.4921  0.9720 -3.8152
  121OSM   H15G12797   0.449   3.809   5.786  1.5434 -2.4940  0.3522
  121OSM   C16F12798   0.625   3.912   5.723  0.5671  0.1310 -0.3041
  121OSM   H16F12799   0.684   3.818   5.718 -0.6816 -0.9021  2.3241
  121OSM   H16G12800   0.684   4.004   5.742  1.4930 -0.5515  0.2274
  121OSM   C17F12801   0.557   3.949   5.595  0.3209 -0.1018 -0.7165
  121OSM   H17F12802   0.470   4.019   5.602 -1.2933 -1.9426 -1.4924
  121OSM   H17G12803   0.513   3.855   5.555 -3.6366  0.9031  0.7790
  121OSM   C18F12804   0.644   4.009   5.485 -0.2251 -0.4787  0.0169
  121OSM   H18F12805   0.693   4.098   5.532  0.6761 -0.6573 -0.5692
  121OSM   H18G12806   0.597   4.038   5.389  1.5463 -1.5505 -1.2134
  121OSM   H18H12807   0.724   3.938   5.455 -0.6582 -0.7245 -0.5675
  122OSM      N12808   1.492   5.523   7.584 -1.0494  0.3128  0.4682
  122OSM    C1512809   1.484   5.529   7.436  0.2382  0.4412  0.0260
  122OSM   H15A12810   1.422   5.610   7.402  0.6944  0.7207 -0.1410
  122OSM   H15B12811   1.440   5.437   7.398  1.6020 -0.5732  0.8222
  122OSM   H15C12812   1.577   5.542   7.382 -0.3802  4.8026 -0.3720
  122OSM    C1412813   1.581   5.408   7.619 -0.2548 -0.3536 -0.0144
  122OSM   H14A12814   1.561   5.320   7.559 -0.5047  0.3850 -1.0513
  122OSM   H14B12815   1.577   5.375   7.722 -1.6982  0.3842  0.1925
  122OSM   H14C12816   1.681   5.435   7.588 -1.1124  1.9719 -1.0112
  122OSM    C1312817   1.542   5.655   7.631 -0.1210 -0.9862 -0.1422
  122OSM   H13A12818   1.539   5.664   7.738 -0.7976 -0.8029 -0.1664
  122OSM   H13B12819   1.484   5.736   7.588  1.5289  0.1781 -0.2895
  122OSM   H13C12820   1.644   5.667   7.597 -0.5744 -0.0632 -1.2534
  122OSM    C1212821   1.353   5.505   7.641  0.4416  0.0055  0.2195
  122OSM   H12A12822   1.303   5.600   7.652  0.5989  0.1650 -0.3790
  122OSM   H12B12823   1.363   5.478   7.745  1.4293  0.6436  0.2999
  122OSM    C1112824   1.259   5.398   7.575  0.0481  0.8712 -0.8858
  122OSM   H11A12825   1.302   5.297   7.591  0.3201  1.1533  0.3474
  122OSM   H11B12826   1.245   5.408   7.466  0.8859  1.1260 -0.9801
  122OSM      P12827   1.026   5.523   7.655 -0.0309  0.0169 -0.0088
  122OSM    O1312828   0.893   5.470   7.625 -0.0084 -0.1756 -0.4494
  122OSM    O1412829   1.032   5.585   7.785 -0.0908 -0.1030 -0.0842
  122OSM    O1112830   1.063   5.635   7.542  0.2902  0.4172  0.3109
  122OSM    O1212831   1.136   5.406   7.650 -0.2839 -0.1836 -0.4142
  122OSM    C1S12832   1.036   5.605   7.401 -0.6792  0.7340  0.1696
  122OSM    H1S12833   0.928   5.585   7.385 -0.3510 -0.8707 -0.1864
  122OSM    H1T12834   1.080   5.508   7.370 -0.1189  1.5325 -1.6322
  122OSM     NF12835   1.052   5.701   7.177 -0.4700  0.4476  0.6587
  122OSM    HNF12836   1.119   5.663   7.114 -1.5366 -1.1764  0.4164
  122OSM    C2S12837   1.082   5.727   7.317  0.6466  1.0164 -0.3241
  122OSM    H2S12838   1.037   5.821   7.355 -1.4712 -0.7630  1.8537
  122OSM    C3S12839   1.231   5.754   7.343  0.4360 -0.4635 -0.2067
  122OSM    H3S12840   1.288   5.663   7.315  0.2729 -0.5432 -0.2804
  122OSM     O312841   1.274   5.780   7.483 -0.2836  0.4610  0.5009
  122OSM    HO312842   1.207   5.738   7.538  0.3944 -0.2765  0.7771
  122OSM    C4S12843   1.283   5.865   7.259  0.0838  0.4357 -0.8126
  122OSM    H4S12844   1.367   5.827   7.200 -0.6097 -0.6272 -1.1370
  122OSM    C5S12845   1.275   5.998   7.286  0.2145 -0.0215  0.2614
  122OSM    H5S12846   1.222   6.037   7.374 -0.6533 -2.5168  0.9556
  122OSM    C6S12847   1.355   6.092   7.202  0.0788 -0.7407 -0.6937
  122OSM    H6S12848   1.362   6.059   7.097 -0.7547 -1.9619 -0.3833
  122OSM    H6T12849   1.457   6.083   7.244 -0.5661 -1.2390  0.8591
  122OSM    C7S12850   1.311   6.237   7.202  0.2918  0.4538 -0.4640
  122OSM    H7S12851   1.291   6.290   7.298 -1.7308  0.3180 -0.7554
  122OSM    H7T12852   1.205   6.247   7.171  0.2997  3.6088  0.1316
  122OSM    C8S12853   1.406   6.322   7.122 -0.0971 -0.3643  0.1309
  122OSM    H8S12854   1.510   6.316   7.162 -0.4564  1.9349  1.5946
  122OSM    H8T12855   1.374   6.428   7.133 -2.2403 -0.9975  0.3772
  122OSM    C9S12856   1.412   6.280   6.970  0.0537 -0.2047 -0.4360
  122OSM    H9S12857   1.308   6.263   6.935  0.0277 -1.2398  0.0957
  122OSM    H9T12858   1.455   6.178   6.970  1.9850  0.5762 -0.5155
  122OSM   C10S12859   1.495   6.375   6.885 -0.2424 -0.2269  0.1368
  122OSM   H10S12860   1.597   6.395   6.924 -0.3816  0.7804  0.0152
  122OSM   H10T12861   1.446   6.474   6.899  0.2825 -0.2216  2.2319
  122OSM   C11S12862   1.488   6.356   6.734 -0.2933 -0.0999 -0.8376
  122OSM   H11S12863   1.383   6.340   6.703  0.2323 -3.0486 -1.4577
  122OSM   H11T12864   1.554   6.270   6.708 -0.2815  0.1725 -1.7139
  122OSM   C12S12865   1.545   6.469   6.644 -0.0666 -0.2072 -0.3122
  122OSM   H12S12866   1.650   6.484   6.677 -0.9095  0.2257  2.4030
  122OSM   H12T12867   1.492   6.558   6.684  1.0142  0.8767 -1.2206
  122OSM   C13S12868   1.530   6.451   6.489 -0.1584  0.2434 -1.5286
  122OSM   H13S12869   1.425   6.441   6.455 -0.6653  1.3510 -0.3681
  122OSM   H13T12870   1.588   6.359   6.467  1.3843  0.5205  0.9555
  122OSM   C14S12871   1.594   6.568   6.421  0.5578  0.4479  0.3928
  122OSM   H14S12872   1.704   6.563   6.428  0.5210  0.0508  0.7361
  122OSM   H14T12873   1.552   6.660   6.466 -1.8822 -0.0530 -0.6357
  122OSM   C15S12874   1.564   6.573   6.269  0.4565  0.1567 -0.4952
  122OSM   H15S12875   1.453   6.566   6.266  0.2058  1.4861  2.5130
  122OSM   H15T12876   1.623   6.489   6.225  2.0085  1.5907 -1.2437
  122OSM   C16S12877   1.614   6.708   6.210 -0.1934 -0.5604  0.5069
  122OSM   H16S12878   1.724   6.695   6.208  0.2288  2.1866  1.0452
  122OSM   H16T12879   1.577   6.795   6.268 -1.7978  0.1699 -1.4855
  122OSM   C17S12880   1.566   6.732   6.065 -0.3806 -0.0062 -0.4980
  122OSM   H17S12881   1.455   6.724   6.068 -0.2817 -1.7412 -0.3207
  122OSM   H17T12882   1.593   6.656   5.990  0.0800 -0.7507  0.3999
  122OSM   C18S12883   1.617   6.867   6.005 -0.0617 -0.1268 -0.7577
  122OSM   H18S12884   1.591   6.877   5.898 -1.7927 -1.1316 -0.4718
  122OSM   H18T12885   1.726   6.881   6.024 -0.1067 -1.3398  0.5391
  122OSM   H18U12886   1.566   6.953   6.055  0.4044 -0.1632 -0.2060
  122OSM    C1F12887   0.929   5.696   7.130 -0.3119 -0.3741 -0.1901
  122OSM     OF12888   0.830   5.736   7.192  0.0724 -0.3380  0.2411
  122OSM    C2F12889   0.915   5.636   6.989 -0.0655 -0.2093 -0.1901
  122OSM    H2F12890   0.943   5.529   6.983  1.2258 -0.3810  4.5826
  122OSM    H2G12891   0.996   5.685   6.930 -0.4127  0.7651  0.1088
  122OSM    C3F12892   0.776   5.668   6.923 -0.5724 -0.2224 -0.1676
  122OSM    H3F12893   0.759   5.776   6.945 -2.6724 -0.9185  2.2234
  122OSM    H3G12894   0.698   5.610   6.978 -0.3673 -1.8317 -1.5177
  122OSM    C4F12895   0.779   5.637   6.771  0.7365  0.5141  0.2186
  122OSM    H4F12896   0.793   5.527   6.767  3.1518  0.7305  1.0565
  122OSM    H4G12897   0.867   5.685   6.725  1.0054  1.1083  1.3004
  122OSM    C5F12898   0.652   5.677   6.691 -0.2056 -0.2887  0.3889
  122OSM    H5F12899   0.617   5.778   6.722  0.4347  0.6351 -1.7183
  122OSM    H5G12900   0.563   5.614   6.713  0.2835 -1.8426 -1.7049
  122OSM    C6F12901   0.682   5.679   6.540 -0.1327 -0.0170  0.4795
  122OSM    H6F12902   0.701   5.574   6.507  0.9888 -1.3504  4.7683
  122OSM    H6G12903   0.771   5.742   6.518 -0.0300  0.1060  1.2434
  122OSM    C7F12904   0.557   5.718   6.460 -0.0027  0.1397  0.0751
  122OSM    H7F12905   0.534   5.818   6.502 -0.3273  0.6308 -1.2155
  122OSM    H7G12906   0.478   5.644   6.484  0.0867  0.7479  2.5239
  122OSM    C8F12907   0.568   5.739   6.310 -0.8211 -0.6277 -0.0019
  122OSM    H8F12908   0.467   5.770   6.276 -0.3493  2.0687  0.8125
  122OSM    H8G12909   0.599   5.645   6.260  3.5948  0.8114 -0.4064
  122OSM    C9F12910   0.665   5.844   6.274 -0.2369  0.3250 -0.1588
  122OSM    H9F12911   0.679   5.929   6.342  1.5498  0.0697 -0.1646
  122OSM   C10F12912   0.753   5.849   6.169 -0.1371  0.0669 -0.0437
  122OSM   H10F12913   0.809   5.942   6.153 -1.0941  0.4300 -1.5491
  122OSM   C11F12914   0.762   5.754   6.052  0.1968  0.3346  0.5015
  122OSM   H11F12915   0.678   5.682   6.056  0.2052 -0.0453 -2.8930
  122OSM   H11G12916   0.859   5.701   6.060  1.1093  2.0999  1.9409
  122OSM   C12F12917   0.769   5.817   5.916 -0.0860  0.1115  0.5847
  122OSM   H12F12918   0.789   5.741   5.837 -0.2454 -0.3113  0.9412
  122OSM   H12G12919   0.852   5.889   5.925  0.6842 -0.8041  0.9826
  122OSM   C13F12920   0.639   5.898   5.893  0.4809  0.3580  0.5151
  122OSM   H13F12921   0.629   5.962   5.983 -1.4150 -2.5652  2.5577
  122OSM   H13G12922   0.548   5.835   5.885 -0.5573  1.6106  1.8356
  122OSM   C14F12923   0.642   5.988   5.763 -0.5712 -0.0240 -0.9932
  122OSM   H14F12924   0.680   5.939   5.671  0.2577  0.2684 -0.8105
  122OSM   H14G12925   0.711   6.069   5.794 -0.6157 -0.5691  0.6722
  122OSM   C15F12926   0.502   6.049   5.746 -0.2693 -0.0022  0.0746
  122OSM   H15F12927   0.480   6.093   5.846 -0.3576 -1.3893  0.6840
  122OSM   H15G12928   0.416   5.980   5.732 -0.5804  0.3863  0.0406
  122OSM   C16F12929   0.502   6.157   5.639  0.3145  0.1054  0.0795
  122OSM   H16F12930   0.489   6.107   5.541 -0.0590 -0.1340  0.2479
  122OSM   H16G12931   0.590   6.225   5.641  0.6901 -0.2752  3.8027
  122OSM   C17F12932   0.374   6.245   5.652  1.0363  0.5113  0.1967
  122OSM   H17F12933   0.375   6.316   5.737 -0.9600 -2.6106  3.1125
  122OSM   H17G12934   0.285   6.186   5.684  1.1258  0.1651 -0.1788
  122OSM   C18F12935   0.327   6.324   5.526 -0.2945 -0.9077 -1.1865
  122OSM   H18F12936   0.239   6.391   5.533  1.3546  1.1967  1.7091
  122OSM   H18G12937   0.302   6.268   5.433 -4.1908  1.8331 -2.0701
  122OSM   H18H12938   0.406   6.396   5.495 -0.6138  0.4476  0.9441
  123OSM      N12939   3.394   5.686   2.338 -0.7913 -0.0143 -0.1906
  123OSM    C1512940   3.327   5.815   2.372 -0.2501 -0.6162  0.1673
  123OSM   H15A12941   3.305   5.881   2.290 -0.1480  0.7601  1.2150
  123OSM   H15B12942   3.395   5.873   2.432 -0.0547  0.1688 -0.7835
  123OSM   H15C12943   3.231   5.791   2.415 -1.1972  0.1144 -1.4455
  123OSM    C1412944   3.387   5.589   2.452 -0.3301 -0.2798 -0.6579
  123OSM   H14A12945   3.406   5.630   2.550  0.1801 -1.2299 -0.3513
  123OSM   H14B12946   3.453   5.507   2.429  0.7358  0.5711 -0.7272
  123OSM   H14C12947   3.290   5.542   2.450  0.3424 -1.9651  1.7928
  123OSM    C1312948   3.342   5.614   2.218  0.0664  0.0381 -0.0064
  123OSM   H13A12949   3.344   5.676   2.129  0.3126  0.8663  0.5646
  123OSM   H13B12950   3.240   5.581   2.228  0.0563  0.1507  0.2800
  123OSM   H13C12951   3.399   5.527   2.192 -3.1372 -2.6345  1.1464
  123OSM    C1212952   3.543   5.719   2.320 -0.7552  0.5037  0.6245
  123OSM   H12A12953   3.554   5.771   2.226  2.2528  1.3838  1.3256
  123OSM   H12B12954   3.594   5.625   2.306 -3.8767 -1.3279  0.8065
  123OSM    C1112955   3.621   5.793   2.430 -0.6879  0.2405  0.2958
  123OSM   H11A12956   3.728   5.778   2.404 -0.6907 -0.6757  0.8051
  123OSM   H11B12957   3.599   5.752   2.531  1.9996  3.6229  2.4811
  123OSM      P12958   3.603   6.034   2.545 -0.1939  0.5323 -0.1398
  123OSM    O1312959   3.650   6.169   2.512 -0.3191 -0.4071  0.0424
  123OSM    O1412960   3.472   6.019   2.615  0.1871  0.0024  0.8497
  123OSM    O1112961   3.709   5.962   2.630 -0.0983  0.1358 -0.0057
  123OSM    O1212962   3.599   5.937   2.420  0.0735  0.2196 -0.5251
  123OSM    C1S12963   3.778   6.024   2.742  0.3265  0.3701 -0.2664
  123OSM    H1S12964   3.763   6.134   2.745 -2.0366  0.0875 -0.2408
  123OSM    H1T12965   3.889   6.014   2.733  0.4572  0.3754  1.2051
  123OSM     NF12966   3.778   6.061   2.990  0.2800  0.3783 -1.1931
  123OSM    HNF12967   3.868   6.046   3.031  0.5436 -0.3092 -1.9997
  123OSM    C2S12968   3.746   5.965   2.884 -0.0202 -0.3843 -0.1701
  123OSM    H2S12969   3.636   5.954   2.883  0.0021 -1.1322  1.8912
  123OSM    C3S12970   3.811   5.830   2.885 -0.0512 -0.2799  0.4990
  123OSM    H3S12971   3.921   5.836   2.892 -0.0053 -0.0100 -0.3105
  123OSM     O312972   3.785   5.748   2.767  0.1199  0.0200  0.6058
  123OSM    HO312973   3.756   5.809   2.699 -0.5868 -2.8982 -1.9385
  123OSM    C4S12974   3.779   5.755   3.011 -0.1127 -0.3121  0.4306
  123OSM    H4S12975   3.862   5.762   3.083  0.3097 -2.0500  0.1393
  123OSM    C5S12976   3.671   5.674   3.041 -0.1935  0.1965  0.5016
  123OSM    H5S12977   3.585   5.682   2.972 -1.3221  0.3806  1.8643
  123OSM    C6S12978   3.654   5.590   3.172 -0.5852  0.2627 -0.2859
  123OSM    H6S12979   3.657   5.483   3.142 -1.1359  0.6236 -1.7256
  123OSM    H6T12980   3.553   5.603   3.217  0.3717  1.1728  1.6872
  123OSM    C7S12981   3.756   5.616   3.285 -0.1095  0.2602 -0.0239
  123OSM    H7S12982   3.752   5.727   3.295 -1.1663  0.2939 -0.6705
  123OSM    H7T12983   3.854   5.580   3.246  0.3919  0.3443  1.1213
  123OSM    C8S12984   3.738   5.536   3.403 -0.7008  0.3035  0.1810
  123OSM    H8S12985   3.792   5.439   3.391 -1.4572 -0.1065  0.0039
  123OSM    H8T12986   3.633   5.503   3.422 -0.8714  0.3091 -0.7363
  123OSM    C9S12987   3.788   5.603   3.526 -0.2860 -0.3913  0.6205
  123OSM    H9S12988   3.715   5.683   3.551  0.2017 -0.7656  3.6075
  123OSM    H9T12989   3.888   5.649   3.513 -1.3004  2.1238  1.0110
  123OSM   C10S12990   3.804   5.512   3.648 -0.3166  0.0242  0.3322
  123OSM   H10S12991   3.877   5.429   3.638  0.6421  1.0402 -1.5891
  123OSM   H10T12992   3.706   5.466   3.673  0.7129 -2.5192 -0.0143
  123OSM   C11S12993   3.857   5.601   3.767 -0.6938 -0.3340 -1.1130
  123OSM   H11S12994   3.776   5.672   3.794 -0.6078 -0.7095  0.2133
  123OSM   H11T12995   3.943   5.653   3.719 -3.1605  0.7635 -4.7057
  123OSM   C12S12996   3.893   5.521   3.894 -0.2216  0.1290 -0.2032
  123OSM   H12S12997   3.955   5.429   3.887 -0.8721 -0.5572  2.1290
  123OSM   H12T12998   3.808   5.481   3.954 -1.4788  1.4961 -1.0131
  123OSM   C13S12999   3.970   5.602   3.997 -0.2018 -0.1365 -0.1315
  123OSM   H13S13000   3.941   5.709   4.009 -0.0013 -0.1733  0.7558
  123OSM   H13T13001   4.076   5.608   3.964 -0.0371  0.6639  0.5205
  123OSM   C14S13002   3.969   5.547   4.137  0.1431 -0.5367  0.1658
  123OSM   H14S13003   4.019   5.447   4.135 -1.2041 -1.2950 -3.1219
  123OSM   H14T13004   3.865   5.518   4.165 -0.2421  0.6734  0.0265
  123OSM   C15S13005   4.036   5.639   4.243 -0.2418 -0.3520  0.5223
  123OSM   H15S13006   3.996   5.742   4.251  0.4564  0.0711 -1.0305
  123OSM   H15T13007   4.138   5.661   4.204 -1.3800  1.7244 -1.4767
  123OSM   C16S13008   4.066   5.574   4.385  0.3007  0.4278  0.9615
  123OSM   H16S13009   4.125   5.481   4.370  0.8341  1.1361 -1.9305
  123OSM   H16T13010   3.963   5.557   4.424  0.4351  0.3211  1.2694
  123OSM   C17S13011   4.164   5.643   4.475  0.2299 -0.0730 -0.4849
  123OSM   H17S13012   4.252   5.667   4.412  0.6321 -0.4207 -0.0555
  123OSM   H17T13013   4.198   5.564   4.544 -0.8513 -0.1166  0.0254
  123OSM   C18S13014   4.124   5.763   4.564  0.0542 -0.2802 -0.1836
  123OSM   H18S13015   4.024   5.745   4.609 -1.2423  2.7165 -1.5983
  123OSM   H18T13016   4.102   5.841   4.489 -1.3766 -2.6670 -2.4272
  123OSM   H18U13017   4.200   5.794   4.639  0.4598  0.1818 -0.7780
  123OSM    C1F13018   3.720   6.181   2.997 -0.2360  0.6056  0.0768
  123OSM     OF13019   3.611   6.196   2.939  0.2660 -0.2353 -0.2411
  123OSM    C2F13020   3.792   6.297   3.069 -0.0248  0.8083  0.6218
  123OSM    H2F13021   3.846   6.347   2.985  0.7747 -1.3773 -0.2578
  123OSM    H2G13022   3.876   6.247   3.123  0.3185 -1.3161 -1.6633
  123OSM    C3F13023   3.700   6.380   3.159  0.4767  0.7499  0.5501
  123OSM    H3F13024   3.610   6.409   3.100  0.8961  1.3023  0.1790
  123OSM    H3G13025   3.746   6.477   3.188 -2.2824  2.9604 -1.8774
  123OSM    C4F13026   3.661   6.307   3.294  0.0917  0.3577  0.0565
  123OSM    H4F13027   3.760   6.282   3.337  0.1227  0.6670  0.1688
  123OSM    H4G13028   3.602   6.215   3.276 -0.6091  1.0795 -1.5914
  123OSM    C5F13029   3.603   6.391   3.412 -0.3311  0.8722 -0.3414
  123OSM    H5F13030   3.494   6.411   3.402  0.1136  4.2846  0.4821
  123OSM    H5G13031   3.655   6.489   3.416  2.2885 -0.4744  1.3613
  123OSM    C6F13032   3.628   6.321   3.545 -0.1933  0.3405  0.4641
  123OSM    H6F13033   3.739   6.315   3.544 -0.1462  0.4872 -2.2237
  123OSM    H6G13034   3.597   6.214   3.548  2.1497 -0.3717  1.5512
  123OSM    C7F13035   3.573   6.404   3.660 -0.0345  0.2422 -0.0634
  123OSM    H7F13036   3.462   6.412   3.650  0.1576  0.8742 -1.9464
  123OSM    H7G13037   3.620   6.503   3.646 -1.8055  1.0545 -0.6254
  123OSM    C8F13038   3.607   6.340   3.792 -0.1997 -0.2482  0.0727
  123OSM    H8F13039   3.717   6.357   3.794  0.0706 -1.1367 -2.7623
  123OSM    H8G13040   3.572   6.235   3.792 -0.6532 -0.1309 -1.9773
  123OSM    C9F13041   3.531   6.407   3.898 -0.1520 -0.7966  0.9446
  123OSM    H9F13042   3.428   6.373   3.916 -1.1978  1.2684 -0.7317
  123OSM   C10F13043   3.568   6.503   3.985  0.1471 -0.1882  0.3961
  123OSM   H10F13044   3.497   6.528   4.065 -0.2043 -2.8739  1.0359
  123OSM   C11F13045   3.708   6.560   3.985  0.3076  0.0594 -0.5330
  123OSM   H11F13046   3.745   6.568   3.881 -1.1506  1.1059 -0.9998
  123OSM   H11G13047   3.770   6.488   4.043  0.8078 -0.1335 -1.2916
  123OSM   C12F13048   3.697   6.705   4.050 -0.6677  0.6181  0.0810
  123OSM   H12F13049   3.629   6.770   3.990 -1.2616  0.5043  0.6098
  123OSM   H12G13050   3.795   6.756   4.043 -1.5079  2.3038 -0.0749
  123OSM   C13F13051   3.650   6.700   4.204  0.1886 -0.1008 -0.0635
  123OSM   H13F13052   3.548   6.655   4.210  0.1909 -0.1062 -0.0619
  123OSM   H13G13053   3.636   6.807   4.231 -1.6087 -0.3612  0.1602
  123OSM   C14F13054   3.745   6.626   4.298  0.3369  0.6642  0.3374
  123OSM   H14F13055   3.848   6.668   4.289  0.7442 -0.6752 -1.9773
  123OSM   H14G13056   3.745   6.520   4.264  1.2792  0.8518 -0.2880
  123OSM   C15F13057   3.687   6.641   4.441 -0.4627 -0.3750 -0.3956
  123OSM   H15F13058   3.583   6.600   4.439 -0.0959 -1.2791 -1.3912
  123OSM   H15G13059   3.681   6.748   4.470  2.3421  0.0001 -0.9752
  123OSM   C16F13060   3.774   6.563   4.539  0.5143 -0.1608 -0.6347
  123OSM   H16F13061   3.884   6.577   4.530  0.2513  1.4801 -1.7956
  123OSM   H16G13062   3.748   6.456   4.523  1.2773 -0.4975  0.3092
  123OSM   C17F13063   3.741   6.594   4.679  0.7011 -0.1532 -0.3068
  123OSM   H17F13064   3.634   6.569   4.694  1.0153 -0.7944  0.9942
  123OSM   H17G13065   3.748   6.705   4.680  1.2277 -0.1792  0.6453
  123OSM   C18F13066   3.818   6.525   4.787 -0.8606  0.8801  0.7646
  123OSM   H18F13067   3.797   6.560   4.890 -0.4053 -0.4376  1.3276
  123OSM   H18G13068   3.921   6.556   4.761 -0.6875  0.9353  1.4934
  123OSM   H18H13069   3.814   6.414   4.788 -1.4327  0.9015  1.4522
  124OSM      N13070   3.069   1.381   2.992 -1.2428 -0.1100 -0.0247
  124OSM    C1513071   3.068   1.462   3.119 -0.5797  0.1436 -0.1766
  124OSM   H15A13072   3.063   1.395   3.204 -1.6260 -1.6179 -1.5800
  124OSM   H15B13073   2.988   1.535   3.116 -3.1870 -2.5433 -0.1635
  124OSM   H15C13074   3.163   1.513   3.129  0.3784 -1.6793  0.4014
  124OSM    C1413075   2.932   1.321   2.981 -0.2736  0.3345 -0.7451
  124OSM   H14A13076   2.923   1.247   3.060  0.9723 -0.2509 -1.1282
  124OSM   H14B13077   2.925   1.279   2.882  0.7394  0.5387 -0.9120
  124OSM   H14C13078   2.857   1.395   3.003 -2.1303 -1.1450 -1.7355
  124OSM    C1313079   3.078   1.477   2.881 -0.1537  0.0451  0.3470
  124OSM   H13A13080   2.983   1.526   2.863  0.7172  1.1169 -1.7164
  124OSM   H13B13081   3.099   1.425   2.789  0.3184  0.6084  0.1278
  124OSM   H13C13082   3.144   1.562   2.878  0.7294 -0.5273  2.3496
  124OSM    C1213083   3.183   1.285   2.972 -0.5835  0.2549 -0.1481
  124OSM   H12A13084   3.270   1.349   2.974 -2.1191  2.5335 -1.4086
  124OSM   H12B13085   3.192   1.227   2.881  0.6282 -1.4449  0.9954
  124OSM    C1113086   3.192   1.166   3.068  0.2564 -0.4350 -0.7779
  124OSM   H11A13087   3.096   1.112   3.055 -0.3426  1.1712 -4.0161
  124OSM   H11B13088   3.187   1.209   3.170 -3.8508  1.9595 -1.7701
  124OSM      P13089   3.304   0.930   3.023 -0.0458  0.5166 -0.0667
  124OSM    O1313090   3.207   0.885   2.923  0.5104 -0.0855 -0.2645
  124OSM    O1413091   3.446   0.892   3.020 -0.2240 -0.3562  0.6554
  124OSM    O1113092   3.245   0.886   3.166  0.4882 -0.1542 -0.0671
  124OSM    O1213093   3.310   1.088   3.039 -0.0705  0.3079 -0.0172
  124OSM    C1S13094   3.298   0.934   3.286 -0.3109  0.0471 -0.4735
  124OSM    H1S13095   3.273   1.039   3.311  2.1961  0.6537 -0.2521
  124OSM    H1T13096   3.406   0.907   3.289 -0.4602 -0.8381 -2.0980
  124OSM     NF13097   3.305   0.915   3.521  0.4711  0.6600 -0.5560
  124OSM    HNF13098   3.400   0.896   3.544  0.3426  1.6118  0.8852
  124OSM    C2S13099   3.252   0.847   3.406  0.7946 -0.0461  0.5042
  124OSM    H2S13100   3.141   0.848   3.404  0.7858 -0.7313 -1.4919
  124OSM    C3S13101   3.303   0.703   3.397  0.2443  0.0153 -0.0359
  124OSM    H3S13102   3.413   0.714   3.407  0.1914 -0.5384  1.5316
  124OSM     O313103   3.281   0.653   3.268 -0.3688  0.0213  0.1336
  124OSM    HO313104   3.253   0.725   3.212 -1.1214 -0.1908  0.2358
  124OSM    C4S13105   3.242   0.622   3.502 -0.3074 -0.6968  0.1572
  124OSM    H4S13106   3.136   0.597   3.491 -0.5966  1.0643 -1.4496
  124OSM    C5S13107   3.315   0.548   3.596 -0.7653  0.1580 -0.1662
  124OSM    H5S13108   3.425   0.549   3.596 -0.6811 -2.7010 -0.7533
  124OSM    C6S13109   3.258   0.444   3.693  0.1642 -0.1140  0.0072
  124OSM    H6S13110   3.328   0.438   3.779 -0.5756 -0.2478  0.6157
  124OSM    H6T13111   3.264   0.344   3.645  0.7340 -0.3375  0.5271
  124OSM    C7S13112   3.110   0.470   3.738  0.1503  0.2351 -0.6559
  124OSM    H7S13113   3.076   0.390   3.807 -0.6084  0.4277 -0.8064
  124OSM    H7T13114   3.048   0.465   3.646 -1.2960 -3.8224  0.3297
  124OSM    C8S13115   3.077   0.600   3.814 -0.5072  0.2778  0.4735
  124OSM    H8S13116   2.967   0.613   3.828 -0.7744 -1.2458  0.0704
  124OSM    H8T13117   3.117   0.685   3.756  2.7289 -2.4218 -1.6497
  124OSM    C9S13118   3.136   0.585   3.954  0.0192 -0.3207 -0.2859
  124OSM    H9S13119   3.240   0.615   3.931 -0.7017  0.7291 -2.5281
  124OSM    H9T13120   3.129   0.478   3.984  2.3154 -0.2524  0.6626
  124OSM   C10S13121   3.094   0.674   4.067 -0.2334 -0.6272 -0.1907
  124OSM   H10S13122   2.991   0.649   4.100 -0.2415 -1.6748 -0.9573
  124OSM   H10T13123   3.096   0.778   4.029 -0.0031 -0.4489  0.3006
  124OSM   C11S13124   3.202   0.666   4.178  0.6806 -0.1004  0.3577
  124OSM   H11S13125   3.172   0.739   4.256  1.3432  1.1318 -0.5102
  124OSM   H11T13126   3.299   0.702   4.137  0.3908  0.5342  0.2166
  124OSM   C12S13127   3.226   0.531   4.244  0.2176  0.1572 -0.0137
  124OSM   H12S13128   3.317   0.526   4.308 -0.4072  1.3066  0.9923
  124OSM   H12T13129   3.228   0.447   4.171 -1.2928  0.8407 -0.8916
  124OSM   C13S13130   3.108   0.490   4.336  0.5732 -0.4646 -0.5739
  124OSM   H13S13131   3.097   0.380   4.353 -0.2431  0.0223  2.7541
  124OSM   H13T13132   3.023   0.516   4.269 -0.1507 -0.7517  0.2072
  124OSM   C14S13133   3.081   0.553   4.467  0.2649  0.0207  0.2607
  124OSM   H14S13134   2.994   0.515   4.525  1.2621 -0.6341  1.3974
  124OSM   H14T13135   3.068   0.663   4.457  0.2960  0.0830  0.8526
  124OSM   C15S13136   3.191   0.543   4.570  0.3064 -0.3729 -0.2497
  124OSM   H15S13137   3.278   0.595   4.523 -0.9171  1.7715 -0.2643
  124OSM   H15T13138   3.221   0.445   4.611  0.6166  0.0582  0.5928
  124OSM   C16S13139   3.150   0.618   4.703 -0.1974  0.1775  0.4732
  124OSM   H16S13140   3.068   0.557   4.747 -0.5456 -0.3562 -0.8408
  124OSM   H16T13141   3.106   0.719   4.687 -1.5972 -0.0181  2.7048
  124OSM   C17S13142   3.272   0.628   4.803  0.3732 -0.0709  0.4550
  124OSM   H17S13143   3.355   0.685   4.755  0.1464 -0.7095 -0.7375
  124OSM   H17T13144   3.306   0.523   4.816 -0.4840 -0.6328 -1.4258
  124OSM   C18S13145   3.236   0.687   4.940 -0.2113 -0.1342 -0.2231
  124OSM   H18S13146   3.171   0.609   4.985 -2.1606  1.6184  0.1886
  124OSM   H18T13147   3.174   0.780   4.945  2.1068  1.4345  2.7547
  124OSM   H18U13148   3.329   0.699   4.998  0.5650 -0.7165 -1.3100
  124OSM    C1F13149   3.240   1.019   3.573  1.0504 -0.2919 -0.4538
  124OSM     OF13150   3.137   1.060   3.517  0.1498  0.3781 -0.4285
  124OSM    C2F13151   3.290   1.088   3.703 -0.1731  0.2821  0.1600
  124OSM    H2F13152   3.301   1.195   3.675 -0.2485  0.0844 -0.6501
  124OSM    H2G13153   3.386   1.041   3.736 -0.4596 -0.2559  0.2348
  124OSM    C3F13154   3.183   1.057   3.807  0.3950 -0.6105 -1.1468
  124OSM    H3F13155   3.177   0.948   3.829  0.9708 -0.2868  0.7614
  124OSM    H3G13156   3.086   1.102   3.775  0.6413  0.8374  0.0239
  124OSM    C4F13157   3.204   1.130   3.938 -0.5273  0.4450 -0.3552
  124OSM    H4F13158   3.114   1.116   4.001 -0.4171  0.5550 -0.1729
  124OSM    H4G13159   3.228   1.236   3.912  1.2233  0.2220  0.2009
  124OSM    C5F13160   3.316   1.071   4.025  0.6040 -0.0202  0.1643
  124OSM    H5F13161   3.406   1.063   3.961  1.2989 -1.5437  1.2755
  124OSM    H5G13162   3.279   0.969   4.048 -0.0346  0.4740  1.3750
  124OSM    C6F13163   3.348   1.142   4.160 -0.3071  0.5915  0.4455
  124OSM    H6F13164   3.370   1.248   4.134  1.3322 -0.1654 -1.4518
  124OSM    H6G13165   3.440   1.095   4.200 -0.1034  1.1375  0.6269
  124OSM    C7F13166   3.227   1.131   4.259  0.0288 -0.0813  0.2667
  124OSM    H7F13167   3.196   1.030   4.292  2.6775 -0.0664  3.3339
  124OSM    H7G13168   3.145   1.193   4.216 -1.3926 -1.0377  1.4879
  124OSM    C8F13169   3.239   1.202   4.397  0.6906 -0.2697 -0.0735
  124OSM    H8F13170   3.140   1.186   4.444  0.4475 -0.1990 -0.5494
  124OSM    H8G13171   3.244   1.312   4.386  0.5116  0.0587  2.4738
  124OSM    C9F13172   3.359   1.150   4.479  0.2969 -0.5973  0.8325
  124OSM    H9F13173   3.455   1.179   4.435 -0.4560  1.4636  0.4498
  124OSM   C10F13174   3.354   1.082   4.594  0.0243 -0.4554  0.2808
  124OSM   H10F13175   3.448   1.046   4.638  2.2484  1.9702 -2.1684
  124OSM   C11F13176   3.234   1.056   4.679 -0.1669 -0.4517  0.3435
  124OSM   H11F13177   3.257   0.964   4.738 -0.6673  0.7602  2.5229
  124OSM   H11G13178   3.144   1.033   4.617 -1.2170 -0.4251  1.7841
  124OSM   C12F13179   3.192   1.172   4.767  0.2212  0.2837  0.0612
  124OSM   H12F13180   3.220   1.266   4.716 -0.2506  1.1195  1.3073
  124OSM   H12G13181   3.251   1.179   4.861  2.0811 -0.4532 -1.0001
  124OSM   C13F13182   3.045   1.182   4.799 -0.3032  0.1037 -0.2878
  124OSM   H13F13183   3.007   1.103   4.867 -1.2035  3.2792  3.2507
  124OSM   H13G13184   2.979   1.186   4.709  1.8058 -0.5649 -1.9500
  124OSM   C14F13185   2.995   1.316   4.874 -0.1772 -0.9695  0.3801
  124OSM   H14F13186   3.051   1.317   4.970  1.5957 -0.4446 -0.6221
  124OSM   H14G13187   2.886   1.300   4.891 -0.4569 -0.0644 -0.4753
  124OSM   C15F13188   3.013   1.441   4.784  0.2837  0.0097 -0.5646
  124OSM   H15F13189   2.967   1.424   4.684  0.7706 -1.9892 -0.5045
  124OSM   H15G13190   3.122   1.445   4.766  0.0748 -0.1165 -2.0209
  124OSM   C16F13191   2.956   1.566   4.852 -0.4778 -0.6726  0.1893
  124OSM   H16F13192   2.964   1.564   4.962  0.0692  0.5732  0.1916
  124OSM   H16G13193   2.846   1.577   4.840 -0.1717  0.9648 -1.8037
  124OSM   C17F13194   3.025   1.691   4.806  0.3394 -0.0546  0.2202
  124OSM   H17F13195   3.131   1.692   4.839  0.1299  0.6281  0.9114
  124OSM   H17G13196   2.973   1.769   4.867  0.6612 -0.6513  1.2939
  124OSM   C18F13197   3.000   1.731   4.662  0.4789  0.4981  0.1973
  124OSM   H18F13198   3.055   1.823   4.633  2.6387 -0.6882  0.2949
  124OSM   H18G13199   2.893   1.757   4.648 -0.1359 -1.1222  1.5419
  124OSM   H18H13200   3.025   1.653   4.587  2.7161  2.7998 -1.6339
  125OSM      N13201   3.762   2.250   3.074 -0.1770  0.3898 -0.0546
  125OSM    C1513202   3.832   2.174   3.186  0.1271 -1.0082  0.5153
  125OSM   H15A13203   3.827   2.066   3.180  0.7214 -0.9948 -0.2931
  125OSM   H15B13204   3.793   2.202   3.283 -1.2718  0.9314 -0.5474
  125OSM   H15C13205   3.936   2.197   3.171  0.2293 -1.3397  0.7003
  125OSM    C1413206   3.824   2.200   2.946 -0.4775 -0.6155 -0.2401
  125OSM   H14A13207   3.781   2.259   2.866 -0.5901  2.4789  1.9466
  125OSM   H14B13208   3.802   2.096   2.931  0.1811 -0.4114 -3.2116
  125OSM   H14C13209   3.930   2.219   2.937 -0.5874  0.4388  0.5026
  125OSM    C1313210   3.616   2.203   3.079 -0.5050  0.0903 -0.2151
  125OSM   H13A13211   3.618   2.095   3.073  2.4393 -0.1357  2.1749
  125OSM   H13B13212   3.551   2.255   3.010  0.5322 -0.1854 -1.4335
  125OSM   H13C13213   3.585   2.224   3.181  1.7971 -4.7441  1.8206
  125OSM    C1213214   3.768   2.400   3.080 -0.4817 -0.3550 -0.4826
  125OSM   H12A13215   3.718   2.441   2.993 -0.8940 -2.2106 -1.1499
  125OSM   H12B13216   3.874   2.421   3.076 -0.6128  0.2655 -1.0721
  125OSM    C1113217   3.696   2.464   3.197  0.3589  0.9574  0.0724
  125OSM   H11A13218   3.736   2.564   3.223 -0.2616  0.9784  0.9904
  125OSM   H11B13219   3.710   2.398   3.285 -1.9225  0.0442 -0.1807
  125OSM      P13220   3.487   2.573   3.089  0.0817  0.3148 -0.1115
  125OSM    O1313221   3.533   2.578   2.951 -0.2374  0.1339  0.6596
  125OSM    O1413222   3.345   2.570   3.113  0.5230  1.0221 -0.0410
  125OSM    O1113223   3.531   2.707   3.150 -0.0516 -0.1127 -0.1513
  125OSM    O1213224   3.554   2.459   3.172 -0.3526 -0.2274  0.4245
  125OSM    C1S13225   3.464   2.758   3.270  0.1541  0.0427  0.3641
  125OSM    H1S13226   3.370   2.705   3.296 -0.8001  2.4523  2.2518
  125OSM    H1T13227   3.430   2.864   3.266 -2.8065 -0.8028  0.9500
  125OSM     NF13228   3.496   2.743   3.511  0.6572 -0.1809  0.1729
  125OSM    HNF13229   3.511   2.827   3.562  1.0090 -0.5838  0.7294
  125OSM    C2S13230   3.566   2.741   3.382  0.8256 -0.0971  0.6437
  125OSM    H2S13231   3.593   2.634   3.378  2.5571  0.3058  0.8056
  125OSM    C3S13232   3.691   2.843   3.369 -0.1969 -0.9371 -0.0780
  125OSM    H3S13233   3.664   2.948   3.396 -1.2602 -0.9995 -0.8434
  125OSM     O313234   3.732   2.865   3.239 -0.9601 -0.7697  0.6069
  125OSM    HO313235   3.669   2.812   3.190 -0.2279 -0.0657 -1.2316
  125OSM    C4S13236   3.797   2.779   3.456 -0.6433 -0.4670  0.0797
  125OSM    H4S13237   3.828   2.675   3.435  3.5728  0.7043 -0.3573
  125OSM    C5S13238   3.858   2.844   3.556  0.5887 -0.1644  0.7478
  125OSM    H5S13239   3.821   2.943   3.585  0.3577 -0.7495  2.5772
  125OSM    C6S13240   3.948   2.795   3.664  0.4647  0.9561 -0.9420
  125OSM    H6S13241   4.039   2.860   3.665  2.7949 -1.9844 -2.6918
  125OSM    H6T13242   4.011   2.707   3.639  0.0715  1.0251 -2.2804
  125OSM    C7S13243   3.881   2.785   3.806 -0.2553 -0.2784 -0.2688
  125OSM    H7S13244   3.789   2.725   3.790 -0.5788  0.2654 -0.4903
  125OSM    H7T13245   3.839   2.880   3.847  1.4901 -0.9205  3.4578
  125OSM    C8S13246   3.966   2.714   3.903 -0.0340  0.0120 -0.5416
  125OSM    H8S13247   4.063   2.767   3.910 -0.4991  1.1277 -2.0157
  125OSM    H8T13248   3.988   2.611   3.867 -0.7822  0.0786 -1.1924
  125OSM    C9S13249   3.901   2.721   4.045  0.2456 -0.3375 -0.3325
  125OSM    H9S13250   3.806   2.663   4.040 -1.2523  1.8766  1.0047
  125OSM    H9T13251   3.875   2.824   4.076 -0.3803 -0.7765  0.6876
  125OSM   C10S13252   4.000   2.670   4.150  0.2811  0.4637  0.8515
  125OSM   H10S13253   4.078   2.749   4.164  3.2331 -2.1146  0.0578
  125OSM   H10T13254   4.056   2.587   4.103 -1.2265 -0.5680  0.8418
  125OSM   C11S13255   3.932   2.605   4.264 -0.1890  0.4048  0.0501
  125OSM   H11S13256   3.866   2.527   4.223  0.3943  0.1190 -0.3514
  125OSM   H11T13257   3.870   2.680   4.319 -1.6916 -0.9464  0.2691
  125OSM   C12S13258   4.030   2.540   4.361  0.1559 -0.0681  0.3925
  125OSM   H12S13259   4.098   2.612   4.411  1.2874 -2.5673  2.6964
  125OSM   H12T13260   4.101   2.467   4.315 -1.7349 -2.3360  0.9042
  125OSM   C13S13261   3.951   2.476   4.473 -0.4024 -0.3979 -0.3573
  125OSM   H13S13262   3.871   2.408   4.436  0.8139 -2.0881 -0.0530
  125OSM   H13T13263   3.914   2.561   4.533  1.9112  0.5525 -0.1559
  125OSM   C14S13264   4.037   2.391   4.565  0.1692 -0.6140  0.0424
  125OSM   H14S13265   4.105   2.458   4.622 -1.8559  1.3457  0.2994
  125OSM   H14T13266   4.086   2.309   4.508 -0.6512 -0.1296 -1.3886
  125OSM   C15S13267   3.954   2.317   4.664 -0.2123  0.3626  0.7347
  125OSM   H15S13268   3.909   2.225   4.620 -1.3969  1.4977 -0.5461
  125OSM   H15T13269   3.876   2.385   4.704  1.6117  1.3308  2.8467
  125OSM   C16S13270   4.039   2.267   4.792 -0.1380 -0.5045  0.4329
  125OSM   H16S13271   4.090   2.357   4.833  2.0647 -1.9754  1.1016
  125OSM   H16T13272   4.121   2.216   4.738  0.6158  2.0012 -0.9745
  125OSM   C17S13273   3.958   2.195   4.903 -0.7068  0.5107  0.0538
  125OSM   H17S13274   3.888   2.135   4.841  0.0152  0.0511 -0.3323
  125OSM   H17T13275   3.898   2.257   4.972 -0.9181  1.3185 -0.8309
  125OSM   C18S13276   4.042   2.104   5.002 -0.3461  0.0734 -0.4616
  125OSM   H18S13277   4.088   2.167   5.081 -0.2932  0.5850 -0.9001
  125OSM   H18T13278   4.117   2.039   4.951  0.0275 -0.1311  0.3318
  125OSM   H18U13279   3.970   2.035   5.052  1.9853 -2.3686 -0.2330
  125OSM    C1F13280   3.407   2.654   3.554 -0.9313 -0.9653  0.3182
  125OSM     OF13281   3.371   2.562   3.483 -0.5778  0.4513  0.0719
  125OSM    C2F13282   3.363   2.669   3.695 -0.1242  0.2251 -0.2013
  125OSM    H2F13283   3.378   2.570   3.742 -1.2249  0.4532  0.6780
  125OSM    H2G13284   3.252   2.678   3.694 -0.3598 -2.0816 -1.1809
  125OSM    C3F13285   3.422   2.789   3.767  0.9933 -0.3208 -0.3158
  125OSM    H3F13286   3.374   2.880   3.724  1.3710  0.1930  0.3211
  125OSM    H3G13287   3.530   2.812   3.758  0.9554  0.1554  0.3831
  125OSM    C4F13288   3.380   2.782   3.914  1.0995 -0.2327  0.5156
  125OSM    H4F13289   3.275   2.751   3.930 -0.2776  2.1117 -2.8459
  125OSM    H4G13290   3.403   2.882   3.959  0.3336 -0.1265  0.6789
  125OSM    C5F13291   3.484   2.697   3.991 -0.3341 -0.1998  0.5191
  125OSM    H5F13292   3.590   2.709   3.960 -0.8994  0.9522 -1.1160
  125OSM    H5G13293   3.462   2.590   3.972  2.0680 -0.4538 -1.2758
  125OSM    C6F13294   3.469   2.723   4.137 -0.3352  0.6213  0.1333
  125OSM    H6F13295   3.362   2.741   4.163 -0.2258 -0.3498  1.3651
  125OSM    H6G13296   3.527   2.815   4.158  0.4690 -0.0211  0.7921
  125OSM    C7F13297   3.531   2.611   4.225 -0.2207  0.0575 -0.5754
  125OSM    H7F13298   3.617   2.556   4.181  0.1110 -0.3739  0.5831
  125OSM    H7G13299   3.454   2.532   4.238 -0.1757 -0.2758 -2.0936
  125OSM    C8F13300   3.571   2.660   4.362  0.6160  0.0447 -0.2938
  125OSM    H8F13301   3.643   2.744   4.363 -1.6148  2.0544 -0.4047
  125OSM    H8G13302   3.626   2.574   4.407 -0.0432  0.5028  1.4922
  125OSM    C9F13303   3.456   2.709   4.452 -0.1247 -0.2638 -0.1299
  125OSM    H9F13304   3.396   2.793   4.415  1.0013  0.3913 -0.5158
  125OSM   C10F13305   3.422   2.668   4.575 -0.0098  0.2946  0.2651
  125OSM   H10F13306   3.354   2.722   4.642  0.6037 -0.1589  1.2821
  125OSM   C11F13307   3.493   2.565   4.660  0.2116  0.3265 -0.0486
  125OSM   H11F13308   3.559   2.504   4.595 -0.5144  0.4068 -0.8825
  125OSM   H11G13309   3.419   2.496   4.706  0.2174  1.4217  1.6603
  125OSM   C12F13310   3.567   2.638   4.769  0.5628 -0.1062  0.1886
  125OSM   H12F13311   3.502   2.713   4.819 -0.9722 -1.1975 -0.1031
  125OSM   H12G13312   3.646   2.697   4.719 -0.9482  0.1461 -2.0294
  125OSM   C13F13313   3.622   2.540   4.868 -0.7826 -0.5227  0.2217
  125OSM   H13F13314   3.705   2.604   4.905 -2.0205  0.0407  2.2171
  125OSM   H13G13315   3.662   2.447   4.824  1.2566  0.9176 -1.1768
  125OSM   C14F13316   3.524   2.507   4.989 -0.4243  0.2125 -0.7743
  125OSM   H14F13317   3.574   2.447   5.068  1.9004  1.0456 -1.5341
  125OSM   H14G13318   3.439   2.454   4.939 -0.9849  1.7409 -1.4989
  125OSM   C15F13319   3.462   2.631   5.067 -0.3328  0.1515 -0.3939
  125OSM   H15F13320   3.398   2.580   5.143  0.5221 -2.2090 -1.1615
  125OSM   H15G13321   3.392   2.677   4.995 -3.9134 -0.8834  2.1571
  125OSM   C16F13322   3.562   2.730   5.122 -0.0407 -0.4166  0.4053
  125OSM   H16F13323   3.615   2.776   5.036 -0.1492 -0.2031  0.4520
  125OSM   H16G13324   3.643   2.678   5.177  0.6096  1.9942  1.9036
  125OSM   C17F13325   3.499   2.837   5.215  0.0433  0.6451  0.1800
  125OSM   H17F13326   3.451   2.777   5.296  1.0420 -1.5356 -0.7673
  125OSM   H17G13327   3.423   2.902   5.165  0.6411  0.6287 -0.7677
  125OSM   C18F13328   3.606   2.923   5.282  1.0051 -0.1228 -0.6696
  125OSM   H18F13329   3.661   2.859   5.354  0.8581 -0.7618 -1.1199
  125OSM   H18G13330   3.544   3.002   5.330 -1.2966 -1.4944 -1.2445
  125OSM   H18H13331   3.677   2.966   5.209  4.1139 -0.2008  2.0565
  126OSM      N13332   2.323   5.251   2.433  0.3376  0.2411  0.0738
  126OSM    C1513333   2.461   5.182   2.442 -0.4496 -0.4593 -0.0682
  126OSM   H15A13334   2.508   5.186   2.345  1.2563  0.0796  0.7530
  126OSM   H15B13335   2.449   5.079   2.472  1.9852 -1.5187 -2.3032
  126OSM   H15C13336   2.523   5.233   2.514  1.5492 -2.9836  0.1186
  126OSM    C1413337   2.359   5.388   2.387  0.4671  0.4502 -0.3215
  126OSM   H14A13338   2.429   5.434   2.455 -1.1992  1.2902  0.9371
  126OSM   H14B13339   2.273   5.454   2.375  0.9212  1.1716  0.2948
  126OSM   H14C13340   2.394   5.380   2.285 -0.2323 -0.4305 -0.5086
  126OSM    C1313341   2.245   5.179   2.328 -0.5451  0.0987  0.3184
  126OSM   H13A13342   2.314   5.132   2.259  1.4377  1.8465  1.0035
  126OSM   H13B13343   2.184   5.249   2.272  0.8911 -0.6993 -2.4597
  126OSM   H13C13344   2.179   5.099   2.360 -3.0612  1.5318 -0.9413
  126OSM    C1213345   2.257   5.258   2.569  0.8180  0.1407  0.7092
  126OSM   H12A13346   2.171   5.322   2.560  1.4896  0.8874 -0.7357
  126OSM   H12B13347   2.316   5.322   2.633  0.3540  0.1237  1.1562
  126OSM    C1113348   2.218   5.130   2.634 -0.1576  0.1371  0.6415
  126OSM   H11A13349   2.184   5.146   2.738  0.8241  0.6481  0.8996
  126OSM   H11B13350   2.314   5.074   2.644 -0.5090 -0.4590  0.7248
  126OSM      P13351   1.963   5.107   2.590  0.0699 -0.2617 -0.0334
  126OSM    O1313352   1.957   5.250   2.544 -0.3027 -0.0881 -0.3781
  126OSM    O1413353   1.867   5.018   2.519  0.2924 -0.3706 -0.1340
  126OSM    O1113354   1.932   5.096   2.743 -0.5079  0.2083 -0.4885
  126OSM    O1213355   2.118   5.060   2.561  0.0827  0.5153  0.1286
  126OSM    C1S13356   1.963   4.972   2.814  0.5571  0.4921  0.2622
  126OSM    H1S13357   2.063   4.928   2.796  0.2395  0.0708 -0.5363
  126OSM    H1T13358   1.887   4.898   2.779 -0.4828  1.8310 -0.4306
  126OSM     NF13359   1.958   4.845   3.032 -0.3593 -0.3484 -0.3665
  126OSM    HNF13360   1.879   4.785   3.037 -0.3686 -0.4962 -1.8672
  126OSM    C2S13361   1.927   4.978   2.970 -0.4460  0.7714 -0.8816
  126OSM    H2S13362   1.995   5.051   3.019  0.5139 -0.7104  0.0452
  126OSM    C3S13363   1.786   5.039   2.986  0.4601 -0.4632 -0.2109
  126OSM    H3S13364   1.711   4.983   2.926 -1.1594 -0.4040  1.6298
  126OSM     O313365   1.772   5.173   2.940 -0.0937  0.3700  0.1261
  126OSM    HO313366   1.856   5.198   2.899  0.1344 -1.5319 -0.6654
  126OSM    C4S13367   1.750   5.032   3.136 -0.2430  0.6865  0.2332
  126OSM    H4S13368   1.712   4.936   3.175  0.7761  0.2136  0.0984
  126OSM    C5S13369   1.753   5.133   3.220 -0.3560 -0.3059 -0.2244
  126OSM    H5S13370   1.780   5.235   3.189  2.9735 -1.0483 -0.0581
  126OSM    C6S13371   1.706   5.134   3.367 -0.9135  0.1228  0.0686
  126OSM    H6S13372   1.620   5.196   3.399 -0.2472  0.1059  1.9766
  126OSM    H6T13373   1.792   5.173   3.425 -1.1160  1.0849 -0.2631
  126OSM    C7S13374   1.669   4.992   3.417 -0.0229  0.0226  0.7091
  126OSM    H7S13375   1.757   4.925   3.403  0.2395 -0.0432  2.4532
  126OSM    H7T13376   1.589   4.940   3.360  1.8938 -1.7532 -0.5023
  126OSM    C8S13377   1.629   4.987   3.564  0.5428 -0.4312 -0.1033
  126OSM    H8S13378   1.578   4.889   3.582 -0.7793 -0.1122 -1.8305
  126OSM    H8T13379   1.546   5.059   3.577  1.2652  0.2088  1.0896
  126OSM    C9S13380   1.741   5.016   3.668  0.3742 -0.2018 -0.3399
  126OSM    H9S13381   1.778   5.121   3.669 -0.5653  0.1440  0.4116
  126OSM    H9T13382   1.822   4.941   3.657 -1.0769 -1.5977 -2.0745
  126OSM   C10S13383   1.688   4.978   3.806 -0.8279  0.1780  0.2198
  126OSM   H10S13384   1.639   4.879   3.795 -0.3274 -0.2964  1.9214
  126OSM   H10T13385   1.623   5.061   3.842  0.5821  0.7540  1.5673
  126OSM   C11S13386   1.795   4.966   3.909 -0.3344  0.0254 -0.7889
  126OSM   H11S13387   1.854   5.060   3.914  0.6523 -0.5999 -0.2861
  126OSM   H11T13388   1.865   4.882   3.889  0.2310  0.3828 -0.3550
  126OSM   C12S13389   1.733   4.936   4.053 -0.4430  0.4532 -0.3726
  126OSM   H12S13390   1.727   4.826   4.062 -0.0981  0.3649 -1.1957
  126OSM   H12T13391   1.627   4.968   4.054 -0.7555 -0.5639 -0.2476
  126OSM   C13S13392   1.801   4.999   4.173  0.5142  0.1689  0.3773
  126OSM   H13S13393   1.761   5.102   4.183  0.4412  0.2439 -0.6449
  126OSM   H13T13394   1.910   4.984   4.162  0.3358 -1.2603  0.3624
  126OSM   C14S13395   1.754   4.928   4.304 -0.7087  0.2062  0.0697
  126OSM   H14S13396   1.760   4.820   4.279 -0.6837  0.5012 -1.2717
  126OSM   H14T13397   1.652   4.956   4.336 -1.0391 -1.4826  0.6133
  126OSM   C15S13398   1.861   4.970   4.417  0.0572  0.7757  0.1706
  126OSM   H15S13399   1.851   5.080   4.433  1.6013  0.7185  1.7293
  126OSM   H15T13400   1.960   4.952   4.371  0.4689  0.9666  0.9653
  126OSM   C16S13401   1.853   4.893   4.549 -0.1555  0.3782  0.1964
  126OSM   H16S13402   1.895   4.791   4.536 -1.4208 -0.0746 -0.5365
  126OSM   H16T13403   1.744   4.875   4.564 -0.4802  0.2968 -2.0061
  126OSM   C17S13404   1.906   4.957   4.687 -0.3358 -0.0720 -0.4088
  126OSM   H17S13405   1.894   4.884   4.769 -1.0027 -0.1154 -0.5350
  126OSM   H17T13406   1.844   5.048   4.703  0.7106  0.7536 -0.9075
  126OSM   C18S13407   2.047   5.012   4.689  0.5255 -0.0490 -0.2818
  126OSM   H18S13408   2.048   5.091   4.767 -0.7063  2.3535 -2.5691
  126OSM   H18T13409   2.072   5.058   4.591 -0.4830  0.4424 -0.3163
  126OSM   H18U13410   2.117   4.927   4.704  0.3479  0.0050  0.9980
  126OSM    C1F13411   2.086   4.803   3.047  0.1342  0.2830 -0.1271
  126OSM     OF13412   2.183   4.872   3.034 -0.3247 -0.6456  0.7333
  126OSM    C2F13413   2.106   4.660   3.084  0.0328  0.1818  0.8740
  126OSM    H2F13414   2.215   4.644   3.069  0.2692  2.3123 -0.0315
  126OSM    H2G13415   2.044   4.599   3.016  0.2539  2.5007 -1.5884
  126OSM    C3F13416   2.048   4.630   3.222  0.1121 -0.3709 -0.7238
  126OSM    H3F13417   2.089   4.530   3.246 -2.0073 -1.1446 -0.0359
  126OSM    H3G13418   1.939   4.607   3.224  0.6623 -3.3500 -0.4932
  126OSM    C4F13419   2.089   4.723   3.334  0.2830 -0.3711  0.7920
  126OSM    H4F13420   2.059   4.827   3.313 -0.5410  0.0763  3.6967
  126OSM    H4G13421   2.199   4.726   3.350  0.1588  3.0865  1.8815
  126OSM    C5F13422   2.027   4.689   3.470 -0.4806 -0.6321 -0.0540
  126OSM    H5F13423   2.045   4.580   3.485  0.4927 -0.2635  1.7423
  126OSM    H5G13424   1.918   4.703   3.483 -0.2904  0.8624  0.1066
  126OSM    C6F13425   2.088   4.760   3.591 -0.1969 -1.1085  0.0419
  126OSM    H6F13426   2.049   4.864   3.583 -0.9958 -1.4733 -1.0232
  126OSM    H6G13427   2.198   4.767   3.582 -0.3948  1.9166 -1.4350
  126OSM    C7F13428   2.055   4.699   3.733  0.0179  0.0793 -0.4806
  126OSM    H7F13429   2.074   4.590   3.735 -0.6096 -0.0493 -1.1154
  126OSM    H7G13430   1.947   4.720   3.745  0.1125  0.6390 -0.5644
  126OSM    C8F13431   2.140   4.767   3.842 -0.3765  0.0339  1.0723
  126OSM    H8F13432   2.136   4.877   3.827  2.1656  0.2150  1.2423
  126OSM    H8G13433   2.243   4.743   3.807 -1.3084  0.7833 -2.6448
  126OSM    C9F13434   2.107   4.716   3.978 -0.1719  0.0124  0.5627
  126OSM    H9F13435   2.027   4.641   3.977 -1.4944  1.3752 -0.6049
  126OSM   C10F13436   2.148   4.766   4.094  0.6027 -0.5164  0.5912
  126OSM   H10F13437   2.116   4.729   4.193 -0.2154  0.9126  0.8912
  126OSM   C11F13438   2.245   4.871   4.114  0.2624 -0.6858 -0.2480
  126OSM   H11F13439   2.204   4.959   4.059  0.0027  0.5191  1.7669
  126OSM   H11G13440   2.344   4.848   4.069 -0.3187  1.6058 -3.0374
  126OSM   C12F13441   2.261   4.919   4.258 -0.2091 -0.2633  1.1589
  126OSM   H12F13442   2.161   4.938   4.300 -1.7724 -0.0488 -2.2931
  126OSM   H12G13443   2.303   5.021   4.265 -1.9733  0.4070  2.5618
  126OSM   C13F13444   2.333   4.828   4.355 -0.1040 -0.1513  0.1944
  126OSM   H13F13445   2.279   4.731   4.365 -0.9134  0.2622 -0.1024
  126OSM   H13G13446   2.332   4.888   4.448 -1.5643  1.1809 -0.6345
  126OSM   C14F13447   2.480   4.797   4.318  0.3798  0.3909 -0.0984
  126OSM   H14F13448   2.516   4.891   4.272 -0.5274  1.3630  1.1035
  126OSM   H14G13449   2.484   4.714   4.244  2.0305 -0.7097  1.1522
  126OSM   C15F13450   2.567   4.745   4.432 -0.9150  0.1148 -0.0627
  126OSM   H15F13451   2.527   4.646   4.464 -1.2331  0.0546 -0.6223
  126OSM   H15G13452   2.571   4.812   4.520 -1.4962  0.6878 -0.4591
  126OSM   C16F13453   2.711   4.706   4.405 -0.3004 -0.2374  0.6835
  126OSM   H16F13454   2.776   4.702   4.495  1.2840  0.2814 -0.4039
  126OSM   H16G13455   2.762   4.790   4.353  0.6725 -0.3942  1.3574
  126OSM   C17F13456   2.728   4.583   4.312 -0.0271  0.3286 -0.4216
  126OSM   H17F13457   2.804   4.619   4.240  0.8598 -2.2750 -0.8797
  126OSM   H17G13458   2.636   4.565   4.253 -0.7780 -1.9780  1.3333
  126OSM   C18F13459   2.787   4.453   4.376  0.1030 -1.1849  0.4666
  126OSM   H18F13460   2.796   4.373   4.300 -0.2219  1.0308 -2.0607
  126OSM   H18G13461   2.717   4.424   4.457  1.5103 -0.4513  1.9936
  126OSM   H18H13462   2.880   4.490   4.424 -1.1911  0.2530  1.9960
  127OSM      N13463   2.293   0.659   3.402  0.0654 -0.9476 -0.0534
  127OSM    C1513464   2.293   0.517   3.450  0.3703  0.3906  0.2807
  127OSM   H15A13465   2.212   0.494   3.517  1.4797  0.3572  1.6400
  127OSM   H15B13466   2.376   0.477   3.506 -0.8166 -0.4711  1.4780
  127OSM   H15C13467   2.275   0.452   3.366  0.3045  1.5179 -0.6097
  127OSM    C1413468   2.316   0.740   3.530  0.5549 -0.0004 -0.7470
  127OSM   H14A13469   2.303   0.845   3.506  2.0707  0.0967 -1.2021
  127OSM   H14B13470   2.410   0.715   3.577  0.7117  1.0807 -0.4529
  127OSM   H14C13471   2.232   0.723   3.597  1.4462  0.2049  0.4536
  127OSM    C1313472   2.422   0.672   3.314  0.4831  0.2181 -0.3883
  127OSM   H13A13473   2.505   0.629   3.369 -0.2503 -0.9339 -0.1381
  127OSM   H13B13474   2.432   0.773   3.279 -2.1324  0.1156 -1.6872
  127OSM   H13C13475   2.405   0.614   3.224 -0.2197  0.9403 -0.7305
  127OSM    C1213476   2.165   0.699   3.332 -0.2876 -0.2131 -0.6048
  127OSM   H12A13477   2.166   0.806   3.315 -2.6867 -0.0352  0.0466
  127OSM   H12B13478   2.078   0.691   3.395 -1.2985  0.8657 -1.7735
  127OSM    C1113479   2.128   0.627   3.201 -0.0830  0.8165  0.1254
  127OSM   H11A13480   2.220   0.623   3.139  0.0665  1.5853  0.2893
  127OSM   H11B13481   2.059   0.679   3.131 -2.4714  1.3904  2.7354
  127OSM      P13482   1.945   0.456   3.261  0.5554 -0.1365  0.0343
  127OSM    O1313483   1.904   0.534   3.384 -0.2457 -0.3533 -0.2503
  127OSM    O1413484   1.857   0.466   3.147 -0.9574 -0.4858  0.1046
  127OSM    O1113485   1.951   0.307   3.318 -0.0101 -0.1582 -0.5156
  127OSM    O1213486   2.092   0.488   3.218  0.0469  0.7874  0.3612
  127OSM    C1S13487   2.084   0.267   3.368 -0.1001  0.2518 -0.1773
  127OSM    H1S13488   2.118   0.345   3.439 -1.3896  1.3314 -0.6923
  127OSM    H1T13489   2.158   0.259   3.285 -0.3442 -1.7171 -0.2496
  127OSM     NF13490   2.185   0.087   3.527  0.5051  0.5375 -0.5317
  127OSM    HNF13491   2.223  -0.000   3.498 -0.8814  0.4136 -2.0509
  127OSM    C2S13492   2.067   0.130   3.456 -0.6173 -0.1486 -0.2279
  127OSM    H2S13493   1.985   0.156   3.526  0.4217  1.5595  0.4224
  127OSM    C3S13494   2.006   0.004   3.379 -0.0800  0.5201 -0.2841
  127OSM    H3S13495   2.076  -0.027   3.299  1.4853 -0.0590  1.2355
  127OSM     O313496   1.891   0.047   3.311  0.3231 -0.4261 -0.5477
  127OSM    HO313497   1.897   0.140   3.334  0.0505 -0.7651  1.0262
  127OSM    C4S13498   1.974  -0.116   3.471 -0.3320  0.5114  0.0668
  127OSM    H4S13499   1.887  -0.097   3.536 -0.7899  0.5405 -0.5484
  127OSM    C5S13500   2.031  -0.244   3.470  0.0623  0.3880 -0.0048
  127OSM    H5S13501   2.106  -0.267   3.393 -0.9678 -1.5698 -0.4976
  127OSM    C6S13502   1.994  -0.365   3.556  0.5938  0.5604 -0.5699
  127OSM    H6S13503   2.037  -0.451   3.501  0.4834 -0.6375  1.1250
  127OSM    H6T13504   1.885  -0.376   3.568  0.5836 -0.7223 -1.6385
  127OSM    C7S13505   2.069  -0.345   3.686  0.3848  0.5274  0.4273
  127OSM    H7S13506   2.019  -0.263   3.742 -0.5899  0.0560  0.2686
  127OSM    H7T13507   2.176  -0.316   3.675  0.8474 -2.0821 -4.3759
  127OSM    C8S13508   2.058  -0.475   3.770  0.9640 -0.5459 -0.1193
  127OSM    H8S13509   2.124  -0.550   3.721  0.5266 -0.5902 -0.6425
  127OSM    H8T13510   1.952  -0.506   3.766  0.8655 -0.1241 -0.7469
  127OSM    C9S13511   2.108  -0.450   3.915 -0.0168 -0.1135 -0.5506
  127OSM    H9S13512   2.067  -0.353   3.951  1.3374  1.0744 -2.0635
  127OSM    H9T13513   2.218  -0.434   3.915  0.3948 -2.1759  2.0267
  127OSM   C10S13514   2.073  -0.569   3.999  1.1516  0.4344  0.1143
  127OSM   H10S13515   2.121  -0.659   3.957 -1.5217 -0.9812 -0.1085
  127OSM   H10T13516   1.964  -0.580   3.982  1.2537  1.1806 -1.2026
  127OSM   C11S13517   2.109  -0.553   4.148 -0.7085  0.1090 -0.3996
  127OSM   H11S13518   2.080  -0.456   4.193  0.6123 -0.6493  2.3231
  127OSM   H11T13519   2.218  -0.558   4.172 -1.0296 -0.3870  1.0876
  127OSM   C12S13520   2.042  -0.657   4.244  0.0338 -0.9919 -0.0355
  127OSM   H12S13521   2.059  -0.765   4.224 -1.4627 -1.6546  1.9708
  127OSM   H12T13522   1.933  -0.635   4.241  0.4249  1.0937 -1.2978
  127OSM   C13S13523   2.090  -0.627   4.385 -0.5474 -0.0876  0.3293
  127OSM   H13S13524   2.072  -0.520   4.411  1.4506  0.2486  0.5402
  127OSM   H13T13525   2.199  -0.644   4.402 -0.6350  0.2660  1.3338
  127OSM   C14S13526   2.032  -0.724   4.491  0.2013  0.1790 -0.0028
  127OSM   H14S13527   2.043  -0.826   4.448  0.6687 -0.2805  1.1721
  127OSM   H14T13528   1.923  -0.701   4.490  0.6315  2.5684  1.1846
  127OSM   C15S13529   2.094  -0.711   4.628  0.1618  0.3391  0.0221
  127OSM   H15S13530   2.204  -0.725   4.629  0.3733  1.8477  0.4381
  127OSM   H15T13531   2.047  -0.790   4.691 -0.3489 -0.8456 -1.7582
  127OSM   C16S13532   2.056  -0.573   4.691  0.1592 -0.5795 -0.3074
  127OSM   H16S13533   1.947  -0.560   4.672  0.0934 -1.7624 -0.8286
  127OSM   H16T13534   2.108  -0.491   4.638  0.6236 -0.6740  0.0040
  127OSM   C17S13535   2.066  -0.554   4.844  0.0097 -0.2726 -0.4761
  127OSM   H17S13536   1.998  -0.630   4.889  0.0637  0.1673  0.3680
  127OSM   H17T13537   2.033  -0.451   4.869  0.1439 -0.3015 -0.1716
  127OSM   C18S13538   2.210  -0.585   4.902  0.7456 -0.2381  0.7650
  127OSM   H18S13539   2.277  -0.515   4.848  1.5033 -1.0466  0.6195
  127OSM   H18T13540   2.242  -0.691   4.888  1.3830 -0.0290  0.5885
  127OSM   H18U13541   2.225  -0.548   5.006 -1.7256  1.5340  0.5684
  127OSM    C1F13542   2.266   0.165   3.606  0.1766  0.3210  0.5565
  127OSM     OF13543   2.229   0.279   3.628  0.1787 -0.6622 -0.0340
  127OSM    C2F13544   2.396   0.104   3.649 -0.3510  0.0745 -0.3135
  127OSM    H2F13545   2.459   0.174   3.708 -3.0184  0.4471  2.3412
  127OSM    H2G13546   2.462   0.087   3.561 -0.8873  2.1371 -1.1657
  127OSM    C3F13547   2.374  -0.030   3.737 -0.2968 -0.0084  0.2312
  127OSM    H3F13548   2.479  -0.056   3.764 -0.8152 -1.0663  1.3337
  127OSM    H3G13549   2.328  -0.114   3.680  2.5114 -1.2969 -0.3086
  127OSM    C4F13550   2.300  -0.019   3.872  0.3176  0.8201  0.0339
  127OSM    H4F13551   2.191  -0.036   3.855  0.0179  1.5139  1.1226
  127OSM    H4G13552   2.307   0.082   3.918  0.3052  0.7619  0.1660
  127OSM    C5F13553   2.352  -0.121   3.975 -0.4446  0.5412  0.0558
  127OSM    H5F13554   2.453  -0.088   4.005 -0.3233  0.2481 -0.0193
  127OSM    H5G13555   2.360  -0.220   3.924  0.4475  1.1535 -1.0371
  127OSM    C6F13556   2.254  -0.142   4.091  1.0063  0.0484  0.5106
  127OSM    H6F13557   2.160  -0.190   4.057  2.1893 -2.2722  0.3284
  127OSM    H6G13558   2.236  -0.041   4.134  0.1510  0.5973 -1.0443
  127OSM    C7F13559   2.308  -0.230   4.201 -0.0893  0.3279  0.0021
  127OSM    H7F13560   2.410  -0.195   4.225 -0.0184  0.4186 -0.4293
  127OSM    H7G13561   2.305  -0.336   4.166  1.8526  1.0658 -2.7198
  127OSM    C8F13562   2.222  -0.227   4.332 -0.0807 -0.2275  0.1886
  127OSM    H8F13563   2.119  -0.259   4.307  0.4794 -1.7486 -0.2718
  127OSM    H8G13564   2.215  -0.120   4.359  1.0617 -0.3457  1.0260
  127OSM    C9F13565   2.274  -0.322   4.436  0.9544 -0.5956  0.0570
  127OSM    H9F13566   2.273  -0.428   4.407 -0.2680 -0.5004 -0.3264
  127OSM   C10F13567   2.314  -0.290   4.556  0.0828 -0.2629  0.0695
  127OSM   H10F13568   2.332  -0.374   4.624  0.0581  0.5703  1.1468
  127OSM   C11F13569   2.338  -0.145   4.609  0.0593 -0.4463 -0.1117
  127OSM   H11F13570   2.253  -0.079   4.581  0.0042 -1.5800 -2.8429
  127OSM   H11G13571   2.430  -0.108   4.559 -1.4347  0.2959 -2.4849
  127OSM   C12F13572   2.339  -0.141   4.757  0.3942 -0.0471 -1.0022
  127OSM   H12F13573   2.381  -0.044   4.791  0.5272 -0.6952  0.7634
  127OSM   H12G13574   2.394  -0.229   4.798  1.4640  0.7442 -0.6944
  127OSM   C13F13575   2.202  -0.150   4.827 -0.8788  0.8607 -0.5416
  127OSM   H13F13576   2.155  -0.237   4.777  0.8091  0.3145 -1.2284
  127OSM   H13G13577   2.140  -0.062   4.798  1.0162  2.0946 -1.0207
  127OSM   C14F13578   2.215  -0.183   4.976  0.8122 -0.3724  0.1674
  127OSM   H14F13579   2.282  -0.112   5.029  0.3480 -1.8917  2.9930
  127OSM   H14G13580   2.263  -0.282   4.988  1.3387 -0.0353  0.9123
  127OSM   C15F13581   2.077  -0.187   5.049 -0.4674  0.3998  0.2297
  127OSM   H15F13582   1.986  -0.191   4.985 -0.1729  0.3615 -0.1936
  127OSM   H15G13583   2.080  -0.092   5.106 -0.2443  0.0194  0.8627
  127OSM   C16F13584   2.074  -0.300   5.151  0.1078 -0.4154 -0.5503
  127OSM   H16F13585   2.149  -0.288   5.231 -0.3934  2.3344 -0.4002
  127OSM   H16G13586   2.092  -0.395   5.095  1.2661 -1.8161  2.0131
  127OSM   C17F13587   1.941  -0.322   5.226  0.8144 -0.2777 -0.0086
  127OSM   H17F13588   1.950  -0.413   5.289 -0.7122  1.0270  2.2241
  127OSM   H17G13589   1.849  -0.342   5.166  0.9955  1.3541 -0.8973
  127OSM   C18F13590   1.889  -0.207   5.318 -0.4396  0.1110 -0.0400
  127OSM   H18F13591   1.806  -0.240   5.385  0.0500  0.4924  0.7782
  127OSM   H18G13592   1.851  -0.128   5.250 -1.3013 -0.4063 -0.1756
  127OSM   H18H13593   1.974  -0.162   5.374 -1.1038  4.1145 -1.9330
  128OSM      N13594   2.850   0.608   3.057 -0.3103 -0.4119 -0.8897
  128OSM    C1513595   2.706   0.646   3.031  0.1064  0.6603 -0.4042
  128OSM   H15A13596   2.658   0.683   3.120 -2.2525  0.8413 -1.6493
  128OSM   H15B13597   2.652   0.566   2.983  0.3167 -0.2842  0.9111
  128OSM   H15C13598   2.703   0.729   2.961 -0.5451  0.8704 -0.1326
  128OSM    C1413599   2.928   0.592   2.928 -0.6331  0.6183  0.5251
  128OSM   H14A13600   2.914   0.494   2.884  0.1720  1.5289 -1.9420
  128OSM   H14B13601   3.034   0.597   2.949 -0.2706 -1.4382 -0.5898
  128OSM   H14C13602   2.901   0.662   2.851  1.2543  1.4256  0.5420
  128OSM    C1313603   2.911   0.731   3.105 -0.3467  0.2135  0.1571
  128OSM   H13A13604   2.878   0.822   3.058  1.5493  0.1281 -1.4669
  128OSM   H13B13605   3.018   0.718   3.101 -0.5185 -0.8819 -1.6609
  128OSM   H13C13606   2.897   0.741   3.212  0.7016  0.4020  0.2864
  128OSM    C1213607   2.872   0.490   3.147  0.9837  0.1678 -0.0699
  128OSM   H12A13608   2.824   0.405   3.102  0.2997  1.5600 -2.0688
  128OSM   H12B13609   2.815   0.500   3.239 -1.5578 -2.0916 -1.2777
  128OSM    C1113610   3.019   0.459   3.184 -0.0881 -0.2139 -0.2518
  128OSM   H11A13611   3.024   0.392   3.272  1.0775 -0.6385 -0.6235
  128OSM   H11B13612   3.065   0.554   3.220  1.8416 -1.2880  0.2203
  128OSM      P13613   3.104   0.243   3.072 -0.3473  0.1102 -0.3868
  128OSM    O1313614   3.093   0.212   2.927  0.2675 -0.0364 -0.0674
  128OSM    O1413615   3.228   0.203   3.138 -0.4883  0.0923  0.7348
  128OSM    O1113616   2.975   0.193   3.143 -1.1629 -0.3858 -0.2656
  128OSM    O1213617   3.098   0.401   3.080  0.0830  0.2188  0.0612
  128OSM    C1S13618   2.949   0.062   3.176 -0.3090  0.7622 -0.2164
  128OSM    H1S13619   3.003  -0.005   3.106  1.5085  1.6036  0.3385
  128OSM    H1T13620   2.840   0.044   3.158 -0.8913  1.2603  2.3846
  128OSM     NF13621   2.956  -0.113   3.367  0.1850  0.5765 -0.1204
  128OSM    HNF13622   2.872  -0.147   3.408 -0.3725 -0.8038 -2.2195
  128OSM    C2S13623   2.963   0.032   3.326  0.3933 -0.1348  0.6033
  128OSM    H2S13624   3.063   0.069   3.357 -0.6773  2.0579  1.6904
  128OSM    C3S13625   2.854   0.110   3.398 -0.2751 -0.7019  0.4554
  128OSM    H3S13626   2.755   0.059   3.398  0.7157 -2.7066  1.2118
  128OSM     O313627   2.825   0.247   3.354 -0.8602 -0.0374 -0.4778
  128OSM    HO313628   2.865   0.250   3.267 -2.5073  1.1242 -1.2501
  128OSM    C4S13629   2.896   0.110   3.540  0.1129 -0.1652 -0.0845
  128OSM    H4S13630   3.004   0.093   3.558  0.1977 -1.2518 -1.4860
  128OSM    C5S13631   2.818   0.123   3.648 -0.5749  0.1958 -0.2135
  128OSM    H5S13632   2.712   0.143   3.628 -0.5765 -1.5131 -2.2528
  128OSM    C6S13633   2.857   0.115   3.792 -0.2418  0.0969 -0.3523
  128OSM    H6S13634   2.841   0.215   3.836 -1.4569  1.1188 -2.8984
  128OSM    H6T13635   2.963   0.087   3.810  0.0364  0.8805 -0.7313
  128OSM    C7S13636   2.775   0.003   3.868 -0.4353  0.0675  0.1008
  128OSM    H7S13637   2.769  -0.089   3.805 -1.4104  0.1884  0.0054
  128OSM    H7T13638   2.668   0.025   3.888  0.1693  2.9243  0.5848
  128OSM    C8S13639   2.843  -0.043   4.002 -0.3184 -0.4161  0.6491
  128OSM    H8S13640   2.906   0.040   4.040  2.3324 -2.1302  0.1889
  128OSM    H8T13641   2.914  -0.123   3.974 -0.6649  0.0300 -1.6310
  128OSM    C9S13642   2.740  -0.080   4.114  0.9151 -0.0673 -0.8720
  128OSM    H9S13643   2.665  -0.158   4.092 -1.1874  0.9127  2.2195
  128OSM    H9T13644   2.686   0.012   4.145  0.8637 -0.4424  0.1616
  128OSM   C10S13645   2.814  -0.130   4.233  0.0336  0.2670 -0.3785
  128OSM   H10S13646   2.896  -0.061   4.261  0.1107  0.2765 -0.6182
  128OSM   H10T13647   2.863  -0.227   4.209  3.0709  1.6774 -0.3868
  128OSM   C11S13648   2.726  -0.177   4.361 -0.2993  0.1333 -0.0084
  128OSM   H11S13649   2.643  -0.239   4.322 -1.9845  1.8184  0.7295
  128OSM   H11T13650   2.690  -0.079   4.400 -3.0768 -1.4254  1.5825
  128OSM   C12S13651   2.803  -0.246   4.478  0.7052 -0.3643 -0.5541
  128OSM   H12S13652   2.904  -0.201   4.483  0.7206 -0.0235 -2.8061
  128OSM   H12T13653   2.823  -0.354   4.460  0.0521 -0.4996 -0.4931
  128OSM   C13S13654   2.725  -0.245   4.612  0.2733 -0.4621 -0.3390
  128OSM   H13S13655   2.634  -0.302   4.585  1.5035 -1.8866 -1.6877
  128OSM   H13T13656   2.702  -0.137   4.627  1.0686 -0.4742  1.1438
  128OSM   C14S13657   2.799  -0.313   4.725 -0.1346  0.3557  0.0527
  128OSM   H14S13658   2.883  -0.255   4.768 -1.8774  1.3561  2.2911
  128OSM   H14T13659   2.832  -0.415   4.694 -0.3500 -0.5827  2.6687
  128OSM   C15S13660   2.707  -0.322   4.852 -0.2174  0.5501  0.1645
  128OSM   H15S13661   2.695  -0.424   4.894 -1.0665  1.3767  2.0604
  128OSM   H15T13662   2.606  -0.298   4.811 -0.3142 -0.7026 -0.3698
  128OSM   C16S13663   2.750  -0.233   4.968  0.1136 -0.5956 -1.0099
  128OSM   H16S13664   2.753  -0.131   4.923  0.1069  1.8589  3.8083
  128OSM   H16T13665   2.852  -0.258   5.002  0.1885  0.4647 -0.3730
  128OSM   C17S13666   2.646  -0.246   5.085 -0.4430 -0.3682 -0.3433
  128OSM   H17S13667   2.544  -0.236   5.043 -0.4997 -1.7131 -0.5503
  128OSM   H17T13668   2.673  -0.166   5.158  2.4049 -1.8596  0.3987
  128OSM   C18S13669   2.640  -0.378   5.161  0.3504 -0.2953  0.0218
  128OSM   H18S13670   2.742  -0.407   5.194  0.1190 -0.4373  0.6333
  128OSM   H18T13671   2.604  -0.462   5.100  1.7797 -0.4074 -0.7159
  128OSM   H18U13672   2.569  -0.366   5.246 -1.8442 -1.0415 -1.6488
  128OSM    C1F13673   3.049  -0.202   3.322  0.1402  0.7637 -0.2089
  128OSM     OF13674   3.151  -0.158   3.268 -0.4265 -0.6032  0.7786
  128OSM    C2F13675   3.031  -0.348   3.333 -0.2787 -0.2258  0.3463
  128OSM    H2F13676   3.134  -0.386   3.313  1.0684  1.0501  3.9844
  128OSM    H2G13677   2.959  -0.393   3.262  1.2832 -1.6055 -0.4403
  128OSM    C3F13678   2.988  -0.394   3.475 -0.8886 -0.4955 -0.1213
  128OSM    H3F13679   2.995  -0.505   3.474  0.8711 -0.4173 -0.1388
  128OSM    H3G13680   2.882  -0.363   3.483 -1.4909 -2.5169  0.4064
  128OSM    C4F13681   3.065  -0.350   3.598 -0.1694 -0.3138 -0.8641
  128OSM    H4F13682   3.056  -0.239   3.599 -0.0673 -0.3036  0.1016
  128OSM    H4G13683   3.172  -0.381   3.590 -0.1496 -0.6020  0.3524
  128OSM    C5F13684   3.008  -0.417   3.725  0.2863  0.5012  0.1587
  128OSM    H5F13685   3.042  -0.523   3.714 -0.5443  0.4613 -3.5510
  128OSM    H5G13686   2.899  -0.412   3.743  0.7642 -0.9124  4.4575
  128OSM    C6F13687   3.077  -0.356   3.847 -0.2389  0.3382 -0.1482
  128OSM    H6F13688   3.045  -0.252   3.868 -2.2347  0.0096 -1.2950
  128OSM    H6G13689   3.187  -0.355   3.830 -0.0351 -0.4564  1.0387
  128OSM    C7F13690   3.059  -0.438   3.966  0.2000 -0.1678 -0.2064
  128OSM    H7F13691   3.101  -0.541   3.964 -1.0352 -0.7305  1.1069
  128OSM    H7G13692   2.951  -0.452   3.987  0.5639 -2.2417  0.5352
  128OSM    C8F13693   3.131  -0.371   4.086 -0.0535  0.0845  0.6618
  128OSM    H8F13694   3.103  -0.263   4.092 -0.7639 -0.0602  0.0719
  128OSM    H8G13695   3.239  -0.395   4.082 -0.2802 -0.8642 -0.8104
  128OSM    C9F13696   3.078  -0.445   4.208 -0.3484 -0.6774 -0.5527
  128OSM    H9F13697   2.973  -0.476   4.206 -0.4779 -0.3198  0.3734
  128OSM   C10F13698   3.145  -0.473   4.319 -0.5817 -0.0023 -0.6421
  128OSM   H10F13699   3.111  -0.533   4.405  0.9645 -2.7246 -1.8003
  128OSM   C11F13700   3.295  -0.440   4.336 -0.2813 -0.3674  0.4168
  128OSM   H11F13701   3.300  -0.394   4.437  0.7067  0.7275 -0.0998
  128OSM   H11G13702   3.333  -0.356   4.274  1.2472  0.9568  2.9707
  128OSM   C12F13703   3.386  -0.566   4.330  0.9027 -1.0491  0.5768
  128OSM   H12F13704   3.385  -0.607   4.227  2.1250  0.4444 -0.0535
  128OSM   H12G13705   3.351  -0.647   4.398  2.0872 -1.5065  0.6596
  128OSM   C13F13706   3.523  -0.535   4.376 -0.2014 -0.1744  0.0005
  128OSM   H13F13707   3.528  -0.530   4.487  2.4888 -0.7737 -0.0305
  128OSM   H13G13708   3.536  -0.429   4.344 -0.1704 -0.8785 -2.5109
  128OSM   C14F13709   3.620  -0.638   4.332 -0.4807 -0.0271  0.1572
  128OSM   H14F13710   3.572  -0.737   4.344 -0.8826 -0.1131 -1.7549
  128OSM   H14G13711   3.707  -0.638   4.401 -1.1213  1.9738  1.0547
  128OSM   C15F13712   3.655  -0.606   4.187 -0.1701  0.5334  0.7507
  128OSM   H15F13713   3.695  -0.503   4.177 -2.1513  1.2686 -0.1408
  128OSM   H15G13714   3.567  -0.601   4.119  0.5433 -1.0824 -0.3690
  128OSM   C16F13715   3.762  -0.699   4.122  0.6459  0.1725  0.2707
  128OSM   H16F13716   3.736  -0.806   4.131  1.1421 -0.2426 -2.2520
  128OSM   H16G13717   3.854  -0.703   4.185  1.1417  3.9954  0.0822
  128OSM   C17F13718   3.780  -0.660   3.973  0.3365 -0.4728 -0.0222
  128OSM   H17F13719   3.831  -0.562   3.961 -3.5288  1.6707 -0.7220
  128OSM   H17G13720   3.677  -0.653   3.931  0.5184  0.0135 -0.3934
  128OSM   C18F13721   3.864  -0.757   3.898  0.6478  0.2722  0.1216
  128OSM   H18F13722   3.839  -0.755   3.790 -2.5190  1.9134  0.7778
  128OSM   H18G13723   3.849  -0.863   3.929  0.3453  0.4710  0.6629
  128OSM   H18H13724   3.971  -0.736   3.917  0.7483  0.6521 -0.7928
  129OSM      N13725   2.284   4.274   2.490 -0.2617  0.2715  0.1490
  129OSM    C1513726   2.323   4.133   2.463 -0.8799 -0.1057  0.8605
  129OSM   H15A13727   2.246   4.070   2.504  0.3379 -1.0061  1.8565
  129OSM   H15B13728   2.423   4.117   2.500  0.2841  1.1795 -1.5210
  129OSM   H15C13729   2.325   4.119   2.356  1.3713 -1.5107  1.0102
  129OSM    C1413730   2.384   4.364   2.420  0.0373  0.0241  0.1118
  129OSM   H14A13731   2.353   4.467   2.432  0.8611  0.2500  0.3814
  129OSM   H14B13732   2.381   4.355   2.313  2.2435  0.2747 -0.0187
  129OSM   H14C13733   2.482   4.344   2.463  0.8446  1.2472 -1.0740
  129OSM    C1313734   2.150   4.311   2.430  0.8519  0.0454  0.0986
  129OSM   H13A13735   2.131   4.415   2.455 -0.8679 -0.7533  2.5598
  129OSM   H13B13736   2.070   4.259   2.481 -0.8884  1.1384 -1.4003
  129OSM   H13C13737   2.158   4.305   2.323 -1.5816  3.1682 -0.4084
  129OSM    C1213738   2.288   4.307   2.641  0.4794  0.1315  0.1763
  129OSM   H12A13739   2.201   4.256   2.678  0.7280 -0.3989  0.0419
  129OSM   H12B13740   2.263   4.411   2.654  1.6501  0.4907 -0.2355
  129OSM    C1113741   2.421   4.277   2.718 -0.2275 -0.1790  1.1384
  129OSM   H11A13742   2.447   4.171   2.696 -2.5022 -0.3650 -1.1431
  129OSM   H11B13743   2.409   4.289   2.828  2.1694  1.0339  1.3147
  129OSM      P13744   2.560   4.499   2.723 -0.3569  0.2044 -0.2500
  129OSM    O1313745   2.702   4.518   2.669 -0.6214 -0.0298  0.5454
  129OSM    O1413746   2.457   4.594   2.675  0.3087 -0.1763 -0.1751
  129OSM    O1113747   2.552   4.487   2.881 -0.7089 -0.3814  0.2530
  129OSM    O1213748   2.529   4.355   2.671  0.1200 -0.1733 -0.2534
  129OSM    C1S13749   2.661   4.417   2.948  0.2102  0.3700 -0.2934
  129OSM    H1S13750   2.752   4.472   2.916 -0.4133 -0.0036 -2.8569
  129OSM    H1T13751   2.666   4.311   2.915 -0.2616  0.4223 -0.5379
  129OSM     NF13752   2.774   4.411   3.161  0.0975 -0.2182 -0.4937
  129OSM    HNF13753   2.793   4.321   3.198  0.7868  0.0424 -0.1946
  129OSM    C2S13754   2.644   4.435   3.102 -0.0414 -1.1594  0.7877
  129OSM    H2S13755   2.629   4.544   3.116  2.1285 -0.8701  1.3193
  129OSM    C3S13756   2.530   4.346   3.155 -0.6913 -0.4648 -0.0980
  129OSM    H3S13757   2.559   4.239   3.159  0.5855 -0.1330 -0.0947
  129OSM     O313758   2.417   4.346   3.073  0.3958 -0.0902  0.5385
  129OSM    HO313759   2.433   4.409   3.002  0.1542 -0.3907  0.2068
  129OSM    C4S13760   2.486   4.388   3.303 -0.4304  0.1576  0.0225
  129OSM    H4S13761   2.549   4.337   3.377  0.4010  0.3837 -0.5283
  129OSM    C5S13762   2.397   4.483   3.343  0.0249 -0.3843  0.0176
  129OSM    H5S13763   2.335   4.539   3.272 -0.3369  0.7913  1.2183
  129OSM    C6S13764   2.371   4.523   3.488 -0.8554  0.6585  0.0259
  129OSM    H6S13765   2.261   4.520   3.505 -0.9119  0.6555 -0.3277
  129OSM    H6T13766   2.418   4.621   3.509  1.6498 -0.4725 -0.0242
  129OSM    C7S13767   2.423   4.424   3.597  0.3790  0.8920 -0.0380
  129OSM    H7S13768   2.533   4.413   3.600  0.1957 -1.0324  0.9193
  129OSM    H7T13769   2.392   4.318   3.591  0.6640  0.7153  1.4343
  129OSM    C8S13770   2.361   4.466   3.731  0.3077  0.4826  0.1169
  129OSM    H8S13771   2.252   4.444   3.730  1.0944 -4.6978  0.2397
  129OSM    H8T13772   2.370   4.576   3.745 -1.3015  0.8410 -1.2679
  129OSM    C9S13773   2.412   4.392   3.864  0.1944 -1.1888  0.2731
  129OSM    H9S13774   2.523   4.390   3.875  0.5747 -1.4348 -2.8552
  129OSM    H9T13775   2.385   4.284   3.861 -0.3442 -1.0353 -1.7393
  129OSM   C10S13776   2.348   4.443   3.990 -0.2784 -0.1213  0.1359
  129OSM   H10S13777   2.237   4.444   3.991 -0.2975  1.3072 -0.6364
  129OSM   H10T13778   2.376   4.551   3.994 -0.3760  0.0507 -2.2043
  129OSM   C11S13779   2.399   4.371   4.118  0.1327 -0.0047  0.4999
  129OSM   H11S13780   2.414   4.448   4.197 -0.6592  1.7147 -0.9453
  129OSM   H11T13781   2.499   4.326   4.108 -0.1593 -0.7619  0.9017
  129OSM   C12S13782   2.307   4.259   4.155 -0.0935 -0.6434 -0.0409
  129OSM   H12S13783   2.301   4.176   4.081 -0.5726 -2.2420  1.7004
  129OSM   H12T13784   2.204   4.295   4.179  0.8991  1.8465  0.7592
  129OSM   C13S13785   2.343   4.187   4.290 -0.1465  0.2877 -0.1576
  129OSM   H13S13786   2.347   4.260   4.373 -3.7460  0.7399 -0.2162
  129OSM   H13T13787   2.444   4.141   4.278 -0.2758  0.1055 -0.5705
  129OSM   C14S13788   2.249   4.071   4.334 -1.2096  0.3985 -0.4086
  129OSM   H14S13789   2.226   4.002   4.251 -3.6704  2.5716 -1.6930
  129OSM   H14T13790   2.148   4.103   4.367 -1.6424 -1.0832 -0.2579
  129OSM   C15S13791   2.305   3.988   4.455  0.6802  0.1276  0.1836
  129OSM   H15S13792   2.377   3.913   4.417  0.6329  0.0591  0.2280
  129OSM   H15T13793   2.215   3.941   4.501  0.4659  0.6999  0.3538
  129OSM   C16S13794   2.367   4.079   4.565  0.2864 -0.0673 -0.3335
  129OSM   H16S13795   2.290   4.154   4.592  1.0925  0.3017  1.0460
  129OSM   H16T13796   2.461   4.132   4.539  0.3837 -0.3751 -0.6250
  129OSM   C17S13797   2.402   4.001   4.696  0.4510 -0.1264  0.5557
  129OSM   H17S13798   2.481   4.059   4.750  1.2472 -0.4168 -0.2693
  129OSM   H17T13799   2.438   3.901   4.662  0.3067 -0.3487  1.0353
  129OSM   C18S13800   2.285   3.992   4.793  0.1858 -0.2266 -0.3521
  129OSM   H18S13801   2.324   3.944   4.886 -1.1870 -0.2624  0.2291
  129OSM   H18T13802   2.188   3.944   4.766 -1.0239  0.2874  2.6374
  129OSM   H18U13803   2.246   4.092   4.823  0.7158  0.3493 -1.5423
  129OSM    C1F13804   2.865   4.505   3.177  0.1160 -0.4123  0.5654
  129OSM     OF13805   2.839   4.614   3.127  0.0245 -0.3094 -0.2910
  129OSM    C2F13806   2.996   4.467   3.227 -0.1823 -0.5579 -0.5132
  129OSM    H2F13807   3.073   4.531   3.178  0.1925 -1.2551 -0.8481
  129OSM    H2G13808   3.025   4.365   3.194 -0.4730 -1.7004  2.4857
  129OSM    C3F13809   2.998   4.477   3.379 -0.0974 -0.0243 -0.1569
  129OSM    H3F13810   3.094   4.431   3.412  0.6515  1.3567 -0.3235
  129OSM    H3G13811   2.917   4.416   3.423 -0.3883 -0.9636 -1.9281
  129OSM    C4F13812   2.978   4.620   3.426 -0.2071 -0.5482  0.7484
  129OSM    H4F13813   2.879   4.668   3.410 -0.1893 -0.3403  1.2321
  129OSM    H4G13814   3.055   4.677   3.369  1.2972 -2.1286  1.1285
  129OSM    C5F13815   3.010   4.644   3.578 -0.1981 -0.3795 -0.1221
  129OSM    H5F13816   3.024   4.753   3.597 -1.2265 -0.2148 -0.2533
  129OSM    H5G13817   3.099   4.583   3.602 -1.0428 -1.8338 -0.5620
  129OSM    C6F13818   2.901   4.585   3.668 -0.3412 -0.1170 -0.5163
  129OSM    H6F13819   2.921   4.476   3.662 -0.1220 -0.0909 -0.2900
  129OSM    H6G13820   2.797   4.611   3.640 -0.5831 -1.4533 -0.9057
  129OSM    C7F13821   2.914   4.627   3.815 -0.0370 -0.1645 -0.7934
  129OSM    H7F13822   2.830   4.576   3.866 -0.3665  0.0616 -1.1078
  129OSM    H7G13823   2.912   4.737   3.832  2.1925 -0.3229  1.0071
  129OSM    C8F13824   3.045   4.572   3.877 -0.1991  0.4869 -0.3979
  129OSM    H8F13825   3.124   4.637   3.834  0.9174  0.4169  1.4247
  129OSM    H8G13826   3.060   4.465   3.849  0.1911  0.3052  0.4624
  129OSM    C9F13827   3.037   4.592   4.031 -0.9090 -0.5384  0.0547
  129OSM    H9F13828   3.030   4.697   4.064  0.4944 -0.6303  0.6968
  129OSM   C10F13829   3.023   4.500   4.132  0.1217  0.8287  0.3909
  129OSM   H10F13830   3.051   4.529   4.235 -0.8346  0.7949  0.6716
  129OSM   C11F13831   3.027   4.347   4.108 -0.2641 -0.2766 -0.7274
  129OSM   H11F13832   2.972   4.326   4.014 -0.0308 -1.8129 -0.5430
  129OSM   H11G13833   2.962   4.306   4.189 -1.3841  3.3424  0.3845
  129OSM   C12F13834   3.164   4.274   4.119  0.0420 -0.7345 -0.5164
  129OSM   H12F13835   3.235   4.310   4.042  0.8856  0.6233  0.8271
  129OSM   H12G13836   3.142   4.169   4.091  0.9570 -0.8757 -0.7419
  129OSM   C13F13837   3.232   4.280   4.255  0.1219 -0.4175  0.1310
  129OSM   H13F13838   3.171   4.212   4.318 -0.2340 -1.6061 -1.4345
  129OSM   H13G13839   3.232   4.388   4.280  0.0459 -0.4456  0.2500
  129OSM   C14F13840   3.373   4.228   4.279  0.2375 -0.4981 -0.0394
  129OSM   H14F13841   3.444   4.291   4.221  0.5081  1.6203  2.4119
  129OSM   H14G13842   3.368   4.127   4.231  0.6650  0.3807 -2.0595
  129OSM   C15F13843   3.437   4.224   4.425  0.2540  0.4638 -0.4706
  129OSM   H15F13844   3.446   4.329   4.462 -2.7929  1.1184 -1.3379
  129OSM   H15G13845   3.543   4.190   4.423  1.1026  2.7918  0.9193
  129OSM   C16F13846   3.379   4.120   4.518  0.1969  0.4231 -0.1855
  129OSM   H16F13847   3.354   4.030   4.458  0.2954  0.1302  0.2117
  129OSM   H16G13848   3.282   4.158   4.556  0.4688  0.7796  0.1570
  129OSM   C17F13849   3.462   4.076   4.642 -0.0843  0.4416  0.3874
  129OSM   H17F13850   3.540   4.006   4.604 -1.6728 -1.6112  0.7415
  129OSM   H17G13851   3.402   4.012   4.710 -0.3937 -1.6355 -1.6901
  129OSM   C18F13852   3.516   4.200   4.714 -0.2200 -0.2299 -0.2146
  129OSM   H18F13853   3.585   4.177   4.797 -1.5359 -3.7543  0.1028
  129OSM   H18G13854   3.444   4.274   4.754  1.8690  3.7583 -3.1989
  129OSM   H18H13855   3.567   4.265   4.640 -2.5191  1.8782 -0.0675
  130OSM      N13856   4.237   0.972   3.024 -0.5514  0.0649 -0.1786
  130OSM    C1513857   4.230   1.088   2.929  0.3295  0.0892 -0.4857
  130OSM   H15A13858   4.129   1.094   2.891  0.0527 -0.9759  0.0155
  130OSM   H15B13859   4.290   1.083   2.840  0.3737  0.5435 -0.4814
  130OSM   H15C13860   4.264   1.179   2.976  0.0880 -0.3335  0.5594
  130OSM    C1413861   4.218   0.844   2.955  0.0589 -0.0939  0.0977
  130OSM   H14A13862   4.187   0.766   3.022 -1.1632  1.5735  1.5793
  130OSM   H14B13863   4.305   0.797   2.912 -1.5095 -1.8433 -1.3498
  130OSM   H14C13864   4.148   0.851   2.872 -0.7591  2.9996  0.8998
  130OSM    C1313865   4.372   0.975   3.076  0.2421  0.3116  0.9817
  130OSM   H13A13866   4.397   1.060   3.139 -2.7420  0.6967  1.7736
  130OSM   H13B13867   4.433   0.971   2.987 -2.2433 -1.0967 -0.7813
  130OSM   H13C13868   4.396   0.888   3.136 -1.7084  0.8275  2.6361
  130OSM    C1213869   4.147   0.986   3.144  0.0349 -0.1557 -0.0762
  130OSM   H12A13870   4.049   1.004   3.101  0.3453  0.3924 -0.5631
  130OSM   H12B13871   4.175   1.077   3.194 -1.0587  0.2312 -0.1256
  130OSM    C1113872   4.137   0.876   3.251  0.6669  0.9136 -0.3117
  130OSM   H11A13873   4.073   0.915   3.333  1.7283 -1.0169  1.5471
  130OSM   H11B13874   4.236   0.853   3.297  0.7201 -0.6140 -1.1157
  130OSM      P13875   3.938   0.719   3.203 -0.2069  0.3082 -0.4795
  130OSM    O1313876   3.842   0.831   3.211 -0.2264 -1.1164 -0.1151
  130OSM    O1413877   3.914   0.627   3.086  1.0283  0.3495 -0.2171
  130OSM    O1113878   3.931   0.636   3.334  0.0302 -0.3853 -0.2019
  130OSM    O1213879   4.085   0.758   3.193  0.2518 -0.3670  0.3573
  130OSM    C1S13880   3.959   0.493   3.339 -0.2660 -1.0648 -0.0650
  130OSM    H1S13881   4.066   0.477   3.310  1.2600 -0.9682  4.6129
  130OSM    H1T13882   3.887   0.440   3.273 -2.0572 -2.2414  2.6695
  130OSM     NF13883   3.979   0.298   3.480  0.4050  0.1845 -0.5897
  130OSM    HNF13884   3.919   0.220   3.497  0.3420 -0.0572 -1.7826
  130OSM    C2S13885   3.934   0.432   3.478 -0.7225 -0.9725 -0.0340
  130OSM    H2S13886   3.991   0.492   3.552  0.3053  1.5764 -2.7083
  130OSM    C3S13887   3.788   0.440   3.514  0.3888 -0.0789 -0.0910
  130OSM    H3S13888   3.738   0.374   3.439 -0.2651 -1.3469  1.4200
  130OSM     O313889   3.730   0.568   3.495  0.0350  0.5585 -0.5605
  130OSM    HO313890   3.794   0.606   3.434 -0.4528 -0.8331 -1.9980
  130OSM    C4S13891   3.757   0.381   3.652  0.1244  0.9254  0.4741
  130OSM    H4S13892   3.703   0.285   3.647  0.3841  0.7674  0.7509
  130OSM    C5S13893   3.764   0.442   3.772 -0.4807  0.1546 -0.3657
  130OSM    H5S13894   3.809   0.542   3.785  1.5446 -0.2816 -3.1395
  130OSM    C6S13895   3.720   0.372   3.899 -0.3732  0.5565  0.2268
  130OSM    H6S13896   3.785   0.400   3.984  0.9001  0.4619 -0.6965
  130OSM    H6T13897   3.738   0.263   3.898 -1.4491  0.3653  0.5774
  130OSM    C7S13898   3.565   0.396   3.918  1.0067 -0.1248 -0.1729
  130OSM    H7S13899   3.509   0.353   3.832  0.9482 -0.9150  0.2549
  130OSM    H7T13900   3.546   0.505   3.908  0.4917 -0.2388 -0.4729
  130OSM    C8S13901   3.507   0.333   4.045 -0.3522  0.1639  0.1745
  130OSM    H8S13902   3.539   0.228   4.033 -1.1464  0.1131 -2.2105
  130OSM    H8T13903   3.396   0.331   4.044 -0.3524 -1.5878 -0.7213
  130OSM    C9S13904   3.558   0.403   4.173 -0.6166  0.5618  0.0241
  130OSM    H9S13905   3.510   0.503   4.173  0.7208  1.2270 -0.1934
  130OSM    H9T13906   3.669   0.397   4.175 -0.6244 -4.2308  2.8040
  130OSM   C10S13907   3.500   0.311   4.286  0.2749 -0.2742 -0.1562
  130OSM   H10S13908   3.545   0.213   4.262  0.5806 -0.0670 -0.4372
  130OSM   H10T13909   3.390   0.309   4.296  0.2337  1.2484 -0.0057
  130OSM   C11S13910   3.562   0.359   4.422 -0.0544 -0.8312 -0.0998
  130OSM   H11S13911   3.519   0.454   4.458 -1.7219 -1.9482  1.0119
  130OSM   H11T13912   3.664   0.396   4.401 -0.0730 -0.4005  0.5599
  130OSM   C12S13913   3.562   0.251   4.538  0.3730  0.1518 -0.0942
  130OSM   H12S13914   3.649   0.184   4.527  0.0534 -0.2424 -0.2719
  130OSM   H12T13915   3.471   0.188   4.528  0.4629  0.0812 -0.4917
  130OSM   C13S13916   3.561   0.314   4.677 -0.3173  0.3072  0.0897
  130OSM   H13S13917   3.480   0.390   4.687 -1.0502 -0.3340 -0.8610
  130OSM   H13T13918   3.662   0.359   4.677  0.9628 -2.2540  2.8247
  130OSM   C14S13919   3.548   0.206   4.784 -0.2063 -0.0508  0.1001
  130OSM   H14S13920   3.625   0.130   4.759 -0.0071  0.1859 -0.0143
  130OSM   H14T13921   3.446   0.162   4.779  0.1532 -0.9102  0.2137
  130OSM   C15S13922   3.575   0.274   4.925  0.0134  0.1633  0.1587
  130OSM   H15S13923   3.507   0.360   4.941  0.0051  0.0508  0.7333
  130OSM   H15T13924   3.677   0.317   4.921 -0.0913  0.3480 -1.7588
  130OSM   C16S13925   3.582   0.179   5.046  0.2539  0.6544  0.0320
  130OSM   H16S13926   3.595   0.244   5.135 -1.0434  2.2989 -0.9176
  130OSM   H16T13927   3.665   0.106   5.033  1.2825  1.5978  1.1141
  130OSM   C17S13928   3.451   0.108   5.068 -0.0513  0.1571 -0.3296
  130OSM   H17S13929   3.428   0.042   4.981  0.5696  0.2919 -0.6021
  130OSM   H17T13930   3.370   0.181   5.089  0.7178  1.1160 -0.6307
  130OSM   C18S13931   3.458   0.014   5.187  0.2200  0.5742 -0.3905
  130OSM   H18S13932   3.521   0.046   5.273 -0.9807 -0.0723  0.7642
  130OSM   H18T13933   3.489  -0.083   5.143 -2.6802  0.2379 -1.9413
  130OSM   H18U13934   3.358  -0.004   5.233  0.3074 -0.1569 -0.4750
  130OSM    C1F13935   4.107   0.278   3.480  0.2198 -0.0273 -0.3496
  130OSM     OF13936   4.190   0.361   3.455  0.1804  0.2455 -0.6705
  130OSM    C2F13937   4.146   0.139   3.521  0.0318  0.1645  0.6548
  130OSM    H2F13938   4.234   0.107   3.461 -1.2032 -0.8367 -0.6854
  130OSM    H2G13939   4.068   0.062   3.503 -1.0905  1.1302  1.3000
  130OSM    C3F13940   4.195   0.120   3.670 -0.4059  0.2066  0.0644
  130OSM    H3F13941   4.099   0.138   3.722 -0.1682 -0.1491  0.6321
  130OSM    H3G13942   4.266   0.191   3.717  0.5196 -1.8581  1.9483
  130OSM    C4F13943   4.253  -0.013   3.697 -0.2853  0.7942 -0.5233
  130OSM    H4F13944   4.354  -0.023   3.651  0.0115 -0.2070  0.2972
  130OSM    H4G13945   4.191  -0.101   3.670  0.6767  0.9137 -3.3950
  130OSM    C5F13946   4.303  -0.036   3.845 -0.4981 -0.4504  0.6860
  130OSM    H5F13947   4.333   0.063   3.888  0.5877 -1.2854  1.9334
  130OSM    H5G13948   4.392  -0.102   3.848  0.4742  0.4285 -3.1121
  130OSM    C6F13949   4.201  -0.107   3.932 -0.6318  0.2690 -0.0534
  130OSM    H6F13950   4.139  -0.167   3.862 -0.5882  0.8874 -0.6276
  130OSM    H6G13951   4.136  -0.031   3.981  0.8526  2.1824 -0.9188
  130OSM    C7F13952   4.267  -0.179   4.048 -0.2133  1.3928  0.5503
  130OSM    H7F13953   4.349  -0.112   4.081  2.3229 -0.2451 -1.9036
  130OSM    H7G13954   4.328  -0.263   4.008 -1.5891  1.0946 -1.0424
  130OSM    C8F13955   4.169  -0.226   4.154  0.5652 -0.0996  0.4249
  130OSM    H8F13956   4.100  -0.143   4.180 -0.3958 -0.5384 -0.6055
  130OSM    H8G13957   4.222  -0.250   4.248  2.4588  2.6983  0.1818
  130OSM    C9F13958   4.072  -0.331   4.110 -0.2235 -0.1455 -0.4110
  130OSM    H9F13959   4.027  -0.325   4.009 -2.1865 -1.1646  0.3613
  130OSM   C10F13960   4.032  -0.431   4.190  0.3997 -0.0748 -0.5220
  130OSM   H10F13961   3.956  -0.500   4.151 -1.0414  2.0419 -1.6984
  130OSM   C11F13962   4.086  -0.469   4.327  0.3275 -0.3063 -0.8298
  130OSM   H11F13963   4.098  -0.393   4.407 -0.4375 -0.2590 -0.7566
  130OSM   H11G13964   4.185  -0.519   4.319  0.1712 -0.6174 -0.8323
  130OSM   C12F13965   3.985  -0.567   4.406 -0.4154 -0.3393  0.8534
  130OSM   H12F13966   3.970  -0.659   4.346 -1.6161 -0.0355  0.6556
  130OSM   H12G13967   3.884  -0.522   4.413 -0.0403  1.2443 -2.1980
  130OSM   C13F13968   4.048  -0.600   4.543  0.5409  0.1658 -0.4175
  130OSM   H13F13969   4.086  -0.511   4.596  0.6960 -0.2850  0.2420
  130OSM   H13G13970   4.134  -0.668   4.524  0.7456 -0.0566  1.1392
  130OSM   C14F13971   3.943  -0.676   4.633 -0.0642 -0.3289  0.7214
  130OSM   H14F13972   3.985  -0.741   4.713  0.2422 -0.3250  0.5632
  130OSM   H14G13973   3.889  -0.737   4.558  1.4178 -0.4034 -0.3099
  130OSM   C15F13974   3.852  -0.582   4.703 -0.2533 -0.0998  0.4516
  130OSM   H15F13975   3.835  -0.496   4.634  0.8057 -1.4084 -1.5284
  130OSM   H15G13976   3.883  -0.550   4.805 -0.6812 -0.8524  0.8206
  130OSM   C16F13977   3.715  -0.652   4.739  0.2467 -0.1253 -0.0088
  130OSM   H16F13978   3.731  -0.723   4.823 -1.1603 -2.1469 -1.3564
  130OSM   H16G13979   3.692  -0.711   4.648  1.1622 -0.1741 -0.2234
  130OSM   C17F13980   3.603  -0.546   4.766 -0.3118  0.0882  0.1834
  130OSM   H17F13981   3.601  -0.461   4.694  0.7558 -0.1860 -0.1919
  130OSM   H17G13982   3.623  -0.493   4.861  1.4280 -1.9104  1.0110
  130OSM   C18F13983   3.469  -0.618   4.757 -0.4049  0.1154 -0.0724
  130OSM   H18F13984   3.458  -0.685   4.669  0.0395 -1.1993  0.8587
  130OSM   H18G13985   3.388  -0.542   4.758 -0.5607 -0.0519  0.1193
  130OSM   H18H13986   3.458  -0.683   4.846  0.3090  1.3384  0.9297
  131OSM      N13987   1.260   4.360   2.563 -0.2585 -0.3130  0.5377
  131OSM    C1513988   1.273   4.214   2.533 -0.3085 -0.2087 -0.0247
  131OSM   H15A13989   1.351   4.172   2.595  0.2525 -1.4069 -1.4744
  131OSM   H15B13990   1.310   4.179   2.437  1.6267 -1.9218  1.2563
  131OSM   H15C13991   1.183   4.165   2.567 -0.4361  0.1200  0.1128
  131OSM    C1413992   1.393   4.426   2.543  0.1044 -0.6972 -0.2480
  131OSM   H14A13993   1.435   4.397   2.448  0.5120 -1.7554  0.2338
  131OSM   H14B13994   1.471   4.389   2.609  0.1377 -0.1039  0.0484
  131OSM   H14C13995   1.376   4.532   2.543  0.6732 -0.5653  1.7059
  131OSM    C1313996   1.157   4.429   2.477  1.3661 -0.3240 -0.7315
  131OSM   H13A13997   1.155   4.537   2.482  0.2517 -0.3018 -1.3242
  131OSM   H13B13998   1.060   4.410   2.519  1.1047  1.9022 -0.2309
  131OSM   H13C13999   1.162   4.416   2.370  0.0483  1.9089 -1.1191
  131OSM    C1214000   1.212   4.390   2.707 -0.5483 -0.3965  0.0733
  131OSM   H12A14001   1.119   4.340   2.728  0.5365 -1.1027  3.9919
  131OSM   H12B14002   1.194   4.496   2.718 -1.9544 -0.6632  0.4517
  131OSM    C1114003   1.292   4.346   2.824 -0.3935  0.1797  0.0725
  131OSM   H11A14004   1.312   4.237   2.820  0.1522  0.3054 -0.6655
  131OSM   H11B14005   1.226   4.364   2.912  0.5875  1.3086  0.5961
  131OSM      P14006   1.420   4.553   2.925  0.2176  0.4207  0.1260
  131OSM    O1314007   1.558   4.600   2.948 -0.4199  0.2766 -0.1095
  131OSM    O1414008   1.331   4.651   2.862 -0.2840  0.1292  0.0203
  131OSM    O1114009   1.359   4.499   3.063 -0.5404 -0.2914  0.6927
  131OSM    O1214010   1.415   4.416   2.843  0.2138  0.3715 -0.5580
  131OSM    C1S14011   1.432   4.430   3.165 -0.7337  0.3684  0.5256
  131OSM    H1S14012   1.533   4.401   3.127 -0.8796  1.4325 -0.7611
  131OSM    H1T14013   1.387   4.331   3.185 -1.8498  0.3524 -1.7643
  131OSM     NF14014   1.528   4.434   3.392 -0.1836  0.2549  0.0223
  131OSM    HNF14015   1.495   4.389   3.475  0.0983  2.5075  1.4367
  131OSM    C2S14016   1.438   4.503   3.303 -0.4428  0.0861 -0.0657
  131OSM    H2S14017   1.476   4.604   3.276 -1.3851  0.0948 -1.4958
  131OSM    C3S14018   1.293   4.518   3.366 -0.5197  0.1374  0.2283
  131OSM    H3S14019   1.252   4.418   3.391 -0.4570  0.1256  0.2815
  131OSM     O314020   1.201   4.563   3.263 -0.1389 -0.4698 -0.5133
  131OSM    HO314021   1.242   4.546   3.178 -0.6659 -1.7252 -0.5511
  131OSM    C4S14022   1.288   4.608   3.486  0.0116  0.6524  0.1042
  131OSM    H4S14023   1.302   4.713   3.459  1.2454  1.5246  3.6304
  131OSM    C5S14024   1.283   4.563   3.613  0.1665 -0.9451  0.1953
  131OSM    H5S14025   1.295   4.455   3.623 -0.6171 -1.2174 -1.3469
  131OSM    C6S14026   1.298   4.649   3.743  0.1612  0.7881 -0.8937
  131OSM    H6S14027   1.208   4.713   3.756 -1.0934 -1.0956  0.1567
  131OSM    H6T14028   1.391   4.711   3.744  1.8058 -1.5254  0.5103
  131OSM    C7S14029   1.330   4.559   3.863  0.5509  0.1995  0.6666
  131OSM    H7S14030   1.426   4.507   3.841 -0.1475 -1.0549  0.4864
  131OSM    H7T14031   1.247   4.487   3.883 -2.5311  3.0829 -0.7938
  131OSM    C8S14032   1.346   4.647   3.986 -0.0225  0.3124  0.2776
  131OSM    H8S14033   1.256   4.711   3.998  0.6451  1.6046 -1.2272
  131OSM    H8T14034   1.432   4.713   3.964 -1.5670  1.7074 -2.0560
  131OSM    C9S14035   1.382   4.568   4.116  0.0622  0.5742  0.1697
  131OSM    H9S14036   1.481   4.521   4.100  0.0839  0.6407  0.1099
  131OSM    H9T14037   1.313   4.488   4.149 -0.4502  0.2625 -1.5590
  131OSM   C10S14038   1.404   4.656   4.237  0.4483  0.3708  0.2363
  131OSM   H10S14039   1.321   4.721   4.271  2.3359  1.9321  2.2524
  131OSM   H10T14040   1.478   4.737   4.215 -0.4919  2.4985  4.0454
  131OSM   C11S14041   1.450   4.570   4.361 -0.4986  0.1329  0.5611
  131OSM   H11S14042   1.540   4.508   4.341 -0.2101  0.3960  1.0141
  131OSM   H11T14043   1.370   4.495   4.381 -0.7307 -0.0136 -0.8427
  131OSM   C12S14044   1.481   4.661   4.483  0.8575  0.6869  0.0333
  131OSM   H12S14045   1.394   4.718   4.520  0.5928 -1.3426  2.8417
  131OSM   H12T14046   1.553   4.744   4.465  1.0289  0.9412  1.7682
  131OSM   C13S14047   1.525   4.578   4.608 -0.3850  0.1778 -0.4217
  131OSM   H13S14048   1.612   4.517   4.575  0.8955  2.2382 -1.0070
  131OSM   H13T14049   1.435   4.516   4.630 -0.2129  0.6907  2.0571
  131OSM   C14S14050   1.571   4.650   4.739 -0.3755 -0.5600  0.0679
  131OSM   H14S14051   1.476   4.704   4.758  1.0639  1.7777  1.0758
  131OSM   H14T14052   1.649   4.728   4.734 -1.3630  0.3600 -1.9388
  131OSM   C15S14053   1.595   4.556   4.851 -0.3529 -0.2300 -0.0247
  131OSM   H15S14054   1.693   4.504   4.852  0.1817  0.7564  0.1489
  131OSM   H15T14055   1.520   4.474   4.844 -0.2671 -0.3782  0.7095
  131OSM   C16S14056   1.570   4.640   4.973  0.0370 -0.5168 -1.1096
  131OSM   H16S14057   1.461   4.646   4.993  0.4698 -0.0944  1.4348
  131OSM   H16T14058   1.616   4.740   4.959  1.1003 -0.4386  2.0529
  131OSM   C17S14059   1.621   4.575   5.109  0.0504  0.2349 -0.2451
  131OSM   H17S14060   1.731   4.570   5.123  0.2802 -3.8376 -2.2332
  131OSM   H17T14061   1.591   4.469   5.108  0.7812 -0.0842  2.9060
  131OSM   C18S14062   1.573   4.658   5.226  0.6971 -0.1730  0.3066
  131OSM   H18S14063   1.600   4.606   5.321 -2.7797 -0.0542  1.4966
  131OSM   H18T14064   1.467   4.690   5.223  0.6830 -0.2136 -2.2453
  131OSM   H18U14065   1.637   4.749   5.232  0.7346 -0.2355  0.9589
  131OSM    C1F14066   1.662   4.446   3.389 -0.0659 -0.5133  0.5032
  131OSM     OF14067   1.723   4.480   3.287 -0.0630  0.3917 -0.7536
  131OSM    C2F14068   1.738   4.417   3.511  0.7484 -0.5214  0.0286
  131OSM    H2F14069   1.843   4.445   3.486  0.3991  0.1431 -0.7525
  131OSM    H2G14070   1.746   4.306   3.509  0.8081 -0.5487  1.0329
  131OSM    C3F14071   1.689   4.486   3.628  0.4738 -0.3136 -0.0405
  131OSM    H3F14072   1.581   4.468   3.645 -0.0262  2.0198 -0.3408
  131OSM    H3G14073   1.689   4.597   3.625 -0.6312 -0.2839  0.6158
  131OSM    C4F14074   1.768   4.438   3.751  0.7072 -0.0442 -0.6373
  131OSM    H4F14075   1.874   4.424   3.720 -0.1143 -3.4825 -2.4026
  131OSM    H4G14076   1.731   4.340   3.788  3.2484 -0.9504 -0.2383
  131OSM    C5F14077   1.752   4.526   3.872  0.0313  0.5347  0.2455
  131OSM    H5F14078   1.648   4.547   3.906 -0.9593  1.6387 -3.0776
  131OSM    H5G14079   1.798   4.627   3.861  0.0695  0.8079  2.5037
  131OSM    C6F14080   1.817   4.458   3.989  0.3459  0.0144  0.1207
  131OSM    H6F14081   1.923   4.442   3.962 -0.0424 -0.8716 -0.9611
  131OSM    H6G14082   1.768   4.359   4.004  0.2142  0.2505  1.3773
  131OSM    C7F14083   1.804   4.528   4.124 -0.1686  0.5723  0.4239
  131OSM    H7F14084   1.703   4.514   4.167  1.4471 -0.4199  4.2817
  131OSM    H7G14085   1.823   4.636   4.105  0.7454  0.2618 -0.5306
  131OSM    C8F14086   1.900   4.465   4.231 -0.1627 -0.1523 -0.5517
  131OSM    H8F14087   2.004   4.489   4.201  0.6469  0.5560  2.4505
  131OSM    H8G14088   1.891   4.355   4.222 -0.6289 -0.0978 -0.7727
  131OSM    C9F14089   1.870   4.534   4.357 -0.6685  0.4079  0.3443
  131OSM    H9F14090   1.794   4.613   4.364 -1.9469 -0.7423 -0.0174
  131OSM   C10F14091   1.909   4.481   4.480  1.1079 -0.4898  0.5718
  131OSM   H10F14092   1.878   4.537   4.570  0.9724  0.4475 -0.0508
  131OSM   C11F14093   1.993   4.356   4.503  0.6094  0.3180 -0.1720
  131OSM   H11F14094   2.058   4.347   4.412  1.0113  1.1426  0.0307
  131OSM   H11G14095   1.941   4.258   4.513  0.3289  0.5001  0.1240
  131OSM   C12F14096   2.085   4.371   4.624 -0.6914 -0.0689  0.5458
  131OSM   H12F14097   2.126   4.474   4.615 -0.3583 -0.2527 -0.1345
  131OSM   H12G14098   2.162   4.293   4.606 -1.2846 -0.4867 -0.2445
  131OSM   C13F14099   2.015   4.350   4.759 -0.2868 -0.9787  0.1538
  131OSM   H13F14100   2.004   4.241   4.781 -2.6313 -0.7702  0.2623
  131OSM   H13G14101   1.914   4.396   4.755  0.5939  1.7329  3.7426
  131OSM   C14F14102   2.106   4.402   4.875 -0.3197 -0.2427 -0.0737
  131OSM   H14F14103   2.120   4.506   4.839 -0.3702 -0.0520  0.4592
  131OSM   H14G14104   2.198   4.340   4.868  0.4245  0.5079  2.2044
  131OSM   C15F14105   2.056   4.398   5.020  0.0387 -0.1522 -0.1148
  131OSM   H15F14106   2.033   4.299   5.065  0.5395  1.0688  3.1192
  131OSM   H15G14107   1.962   4.458   5.026  0.4587  0.3723  2.9835
  131OSM   C16F14108   2.145   4.468   5.120 -0.4813 -0.4430 -0.7314
  131OSM   H16F14109   2.170   4.570   5.082 -0.2193 -0.0067  0.5577
  131OSM   H16G14110   2.242   4.413   5.120 -0.1610  0.0942  0.3004
  131OSM   C17F14111   2.070   4.487   5.253 -0.5542 -0.1153 -0.2844
  131OSM   H17F14112   2.018   4.395   5.288 -0.3434  0.6147  2.1078
  131OSM   H17G14113   1.981   4.549   5.228  0.3772  0.5721 -2.1238
  131OSM   C18F14114   2.146   4.553   5.367 -0.3005 -0.9099 -0.3325
  131OSM   H18F14115   2.184   4.652   5.335 -0.9965 -0.3520  0.5629
  131OSM   H18G14116   2.233   4.496   5.407 -0.2044  0.8608  2.2193
  131OSM   H18H14117   2.086   4.567   5.459  0.2776  0.2054 -0.1127
  132OSM      N14118   1.012   4.774   2.976  0.1821  0.3416 -0.3968
  132OSM    C1514119   0.872   4.816   2.951  0.3216  0.1962 -0.1749
  132OSM   H15A14120   0.846   4.918   2.975 -1.8123 -0.7875  2.0452
  132OSM   H15B14121   0.801   4.747   2.992  0.1753  0.4945  0.0776
  132OSM   H15C14122   0.851   4.805   2.845  0.6027 -0.6432 -0.1455
  132OSM    C1414123   1.102   4.837   2.875 -0.2314  0.1207  0.4709
  132OSM   H14A14124   1.092   4.783   2.781 -0.7521  1.4877 -0.2908
  132OSM   H14B14125   1.204   4.830   2.909 -0.5814  4.5057  3.1969
  132OSM   H14C14126   1.084   4.943   2.866 -0.7322  0.0119  0.1068
  132OSM    C1314127   1.046   4.821   3.107 -0.0729  0.8101 -0.0416
  132OSM   H13A14128   1.030   4.928   3.099  0.8708  0.9325 -0.4068
  132OSM   H13B14129   1.149   4.797   3.130 -0.7644 -1.4247  0.9540
  132OSM   H13C14130   0.990   4.772   3.185 -1.2432  1.9071 -0.1621
  132OSM    C1214131   1.029   4.618   2.966  0.0629  0.7117 -0.2527
  132OSM   H12A14132   1.123   4.594   3.013  0.6695  2.7507 -0.3408
  132OSM   H12B14133   1.029   4.587   2.862 -2.1835  0.8585 -0.3448
  132OSM    C1114134   0.927   4.526   3.044  0.0501  0.7669 -0.2280
  132OSM   H11A14135   0.929   4.550   3.152  1.6808  3.9620 -0.8650
  132OSM   H11B14136   0.962   4.421   3.035 -0.6353  0.6737 -2.5625
  132OSM      P14137   0.724   4.406   2.927 -0.6328 -0.5613  0.3955
  132OSM    O1314138   0.590   4.456   2.897 -0.0487  0.1062 -0.1375
  132OSM    O1414139   0.803   4.348   2.819 -0.2800  0.4010  0.1244
  132OSM    O1114140   0.723   4.302   3.044 -0.0194 -0.7259 -0.2179
  132OSM    O1214141   0.793   4.530   2.986 -0.5745 -0.4219  0.2216
  132OSM    C1S14142   0.690   4.332   3.178 -0.6448 -0.2995 -0.3322
  132OSM    H1S14143   0.607   4.405   3.189 -0.0576  0.3829 -0.3135
  132OSM    H1T14144   0.785   4.375   3.217 -0.5012 -1.0237  0.1227
  132OSM     NF14145   0.685   4.238   3.408 -0.3714 -0.0222 -0.1304
  132OSM    HNF14146   0.772   4.216   3.450 -1.0756 -0.0419  1.3626
  132OSM    C2S14147   0.676   4.203   3.260 -0.3165 -0.9288  0.0162
  132OSM    H2S14148   0.573   4.171   3.235  0.9910 -3.3031 -3.1291
  132OSM    C3S14149   0.775   4.086   3.237  0.1455  0.3041  0.1680
  132OSM    H3S14150   0.879   4.125   3.238 -0.2234  1.3672 -1.1277
  132OSM     O314151   0.765   4.037   3.103 -0.3378 -0.1726  0.1364
  132OSM    HO314152   0.718   4.107   3.058  0.6458  1.8308  2.0597
  132OSM    C4S14153   0.747   3.972   3.333 -0.2887 -0.7173  0.5196
  132OSM    H4S14154   0.832   3.960   3.402  1.3286 -2.5487 -1.6357
  132OSM    C5S14155   0.650   3.885   3.355  0.3459 -0.0532  0.0040
  132OSM    H5S14156   0.561   3.879   3.291 -0.3070  1.3082  0.7376
  132OSM    C6S14157   0.672   3.776   3.450  0.0281 -0.9493 -0.7597
  132OSM    H6S14158   0.773   3.758   3.492 -0.8852  0.1449  2.1153
  132OSM    H6T14159   0.634   3.680   3.408 -1.7526 -0.0677 -1.2567
  132OSM    C7S14160   0.575   3.798   3.569 -0.5249  0.3530 -0.1787
  132OSM    H7S14161   0.470   3.826   3.544 -1.3948 -1.1297  1.5866
  132OSM    H7T14162   0.611   3.888   3.623 -1.4790  0.4510  0.3238
  132OSM    C8S14163   0.562   3.678   3.659  0.4594 -0.5651 -0.0197
  132OSM    H8S14164   0.663   3.641   3.689  0.8437 -0.0347 -0.6551
  132OSM    H8T14165   0.518   3.603   3.589 -0.9725  0.3567 -0.1428
  132OSM    C9S14166   0.476   3.710   3.782 -0.0947 -0.3769  0.4057
  132OSM    H9S14167   0.369   3.692   3.757 -0.6507  0.7799  1.8027
  132OSM    H9T14168   0.484   3.818   3.808  4.7624 -0.5181  0.3416
  132OSM   C10S14169   0.497   3.628   3.909 -0.2833  0.2812  0.4343
  132OSM   H10S14170   0.479   3.520   3.888 -2.0230  0.7841 -0.8885
  132OSM   H10T14171   0.417   3.669   3.974 -1.8437 -0.8625 -0.6713
  132OSM   C11S14172   0.630   3.651   3.976 -0.6281  1.0925  0.9210
  132OSM   H11S14173   0.662   3.756   3.965 -0.2554  1.2091  2.7417
  132OSM   H11T14174   0.704   3.586   3.925 -2.7105  0.2540 -1.2531
  132OSM   C12S14175   0.639   3.605   4.118 -1.1544 -0.0119 -0.3893
  132OSM   H12S14176   0.583   3.684   4.173 -1.0933  0.0565 -0.4241
  132OSM   H12T14177   0.740   3.600   4.163 -1.3216 -0.3653 -0.0469
  132OSM   C13S14178   0.583   3.460   4.139  0.9755 -0.0573  0.5574
  132OSM   H13S14179   0.639   3.389   4.075  0.5205  0.5749 -0.5796
  132OSM   H13T14180   0.476   3.448   4.109  1.3170 -1.9904 -0.0050
  132OSM   C14S14181   0.589   3.421   4.289 -0.1606 -0.5392 -0.2731
  132OSM   H14S14182   0.688   3.463   4.316 -0.5411  0.5889 -0.5773
  132OSM   H14T14183   0.601   3.315   4.320 -1.5680 -0.2055  1.6072
  132OSM   C15S14184   0.478   3.479   4.382  0.7091  0.4649  0.0757
  132OSM   H15S14185   0.378   3.448   4.346  1.2890  1.3770 -2.5382
  132OSM   H15T14186   0.476   3.589   4.370  0.7627  0.5151  0.5116
  132OSM   C16S14187   0.504   3.452   4.530 -0.2775 -0.1500  0.5532
  132OSM   H16S14188   0.610   3.480   4.550 -0.0925  0.6651 -1.2976
  132OSM   H16T14189   0.489   3.346   4.558 -0.4354  0.3973  2.7248
  132OSM   C17S14190   0.416   3.545   4.617 -0.2123  0.5026  0.0470
  132OSM   H17S14191   0.314   3.516   4.585  0.4463 -0.0158 -1.6923
  132OSM   H17T14192   0.432   3.650   4.584 -0.2129  0.4868 -0.0038
  132OSM   C18S14193   0.441   3.514   4.763  0.3832  0.0229 -0.0475
  132OSM   H18S14194   0.344   3.517   4.818 -0.2360  0.2155 -1.1282
  132OSM   H18T14195   0.501   3.594   4.813  0.2520  0.2937 -0.3161
  132OSM   H18U14196   0.488   3.414   4.774 -2.2137 -1.6283 -2.7172
  132OSM    C1F14197   0.605   4.326   3.464  0.6010 -0.1283 -1.1442
  132OSM     OF14198   0.501   4.359   3.411 -0.1198  0.1227  0.1024
  132OSM    C2F14199   0.640   4.370   3.607  0.2102 -0.0004  0.8108
  132OSM    H2F14200   0.660   4.479   3.607 -1.6170  0.3576  0.5705
  132OSM    H2G14201   0.728   4.307   3.635 -0.0489 -0.2841  0.9930
  132OSM    C3F14202   0.527   4.332   3.708 -0.5046  0.0788  0.0303
  132OSM    H3F14203   0.511   4.222   3.710  1.0811 -0.1727  2.0631
  132OSM    H3G14204   0.430   4.373   3.674 -1.4184 -1.8756  0.1958
  132OSM    C4F14205   0.541   4.390   3.848 -0.1004 -0.0441 -0.2494
  132OSM    H4F14206   0.639   4.441   3.859 -0.5785  0.5306  1.7832
  132OSM    H4G14207   0.551   4.303   3.916 -1.1050 -0.1758 -0.2509
  132OSM    C5F14208   0.441   4.495   3.894 -0.0904 -0.1371  0.2406
  132OSM    H5F14209   0.339   4.458   3.872  0.1509 -1.3257  1.0275
  132OSM    H5G14210   0.457   4.589   3.837  2.1113 -0.8489 -0.4350
  132OSM    C6F14211   0.466   4.537   4.037 -0.5127 -0.0892 -0.3243
  132OSM    H6F14212   0.410   4.631   4.056 -1.1029 -0.4842 -0.0699
  132OSM    H6G14213   0.573   4.565   4.054 -0.9448  0.8150  1.1385
  132OSM    C7F14214   0.431   4.422   4.133 -0.0948 -0.2320 -0.2638
  132OSM    H7F14215   0.478   4.329   4.095  2.9631  0.2495  1.9773
  132OSM    H7G14216   0.321   4.414   4.118 -0.1736  2.8137 -2.2879
  132OSM    C8F14217   0.485   4.450   4.278 -0.2800 -0.0895  0.2604
  132OSM    H8F14218   0.596   4.461   4.276 -0.1520 -1.2731 -0.8849
  132OSM    H8G14219   0.476   4.360   4.342  0.3877  0.0298  0.5270
  132OSM    C9F14220   0.433   4.578   4.339  0.4256  0.2653  0.2071
  132OSM    H9F14221   0.369   4.641   4.276  1.4813  0.2497 -0.9141
  132OSM   C10F14222   0.482   4.644   4.439  0.6645  0.1521  0.0911
  132OSM   H10F14223   0.428   4.734   4.472 -1.6503  0.0714 -3.0838
  132OSM   C11F14224   0.585   4.592   4.534  0.1565 -0.0988 -1.1358
  132OSM   H11F14225   0.688   4.617   4.502  1.2741 -0.9713  1.5214
  132OSM   H11G14226   0.578   4.482   4.554 -2.1699  0.0899 -0.6211
  132OSM   C12F14227   0.563   4.665   4.672  0.1659  0.0561 -0.3404
  132OSM   H12F14228   0.500   4.601   4.738  1.3711 -2.7177 -1.6937
  132OSM   H12G14229   0.513   4.764   4.670 -4.5838 -1.8149  3.7413
  132OSM   C13F14230   0.693   4.674   4.749  0.1875  0.3191 -0.3940
  132OSM   H13F14231   0.750   4.763   4.714  2.5851 -0.0800  2.1045
  132OSM   H13G14232   0.760   4.587   4.733 -1.1441 -1.3152  2.2937
  132OSM   C14F14233   0.691   4.662   4.905  0.0412 -0.4803  0.5532
  132OSM   H14F14234   0.615   4.732   4.945 -0.2965 -1.4614  1.6855
  132OSM   H14G14235   0.787   4.695   4.951 -0.6162 -0.9359  2.3370
  132OSM   C15F14236   0.665   4.522   4.960  0.6930 -0.2348  0.1773
  132OSM   H15F14237   0.752   4.453   4.948  0.7000 -0.1968  0.0034
  132OSM   H15G14238   0.576   4.477   4.912  1.5854 -0.2085 -1.5897
  132OSM   C16F14239   0.648   4.516   5.112 -0.4936 -0.2989  0.6077
  132OSM   H16F14240   0.561   4.582   5.133  0.9262  1.8787 -0.0089
  132OSM   H16G14241   0.737   4.566   5.156 -1.3140  3.1563 -1.2870
  132OSM   C17F14242   0.627   4.369   5.157  0.3264 -0.0985 -0.1753
  132OSM   H17F14243   0.721   4.313   5.136  1.4373  1.7472 -0.3877
  132OSM   H17G14244   0.543   4.325   5.100  0.0403  1.0590 -0.6863
  132OSM   C18F14245   0.603   4.357   5.308 -0.2534 -0.3766  0.1994
  132OSM   H18F14246   0.553   4.259   5.325 -1.6863  0.8692  4.7031
  132OSM   H18G14247   0.526   4.432   5.335  0.4231  1.1929 -1.9256
  132OSM   H18H14248   0.694   4.374   5.370 -0.3151  0.7255  0.0077
  133OSM      N14249   5.344   5.039   1.932 -0.2106  0.3285 -0.0917
  133OSM    C1514250   5.493   5.039   1.972  0.5080  0.4242 -0.2624
  133OSM   H15A14251   5.555   5.032   1.883  1.7308  1.7766  0.4419
  133OSM   H15B14252   5.515   4.954   2.036  1.4645 -0.4237 -1.6382
  133OSM   H15C14253   5.527   5.126   2.025  2.5940 -2.1375  3.0463
  133OSM    C1414254   5.318   5.155   1.839 -0.0423  0.2418 -0.1497
  133OSM   H14A14255   5.322   5.246   1.897 -2.2405 -0.0744  0.6017
  133OSM   H14B14256   5.217   5.139   1.803  0.6928 -1.3261 -1.6608
  133OSM   H14C14257   5.374   5.171   1.749 -2.3795 -1.2851 -2.0083
  133OSM    C1314258   5.308   4.911   1.863 -0.0079  0.6033  0.0586
  133OSM   H13A14259   5.353   4.891   1.767 -2.9496 -0.3567 -1.2596
  133OSM   H13B14260   5.201   4.908   1.845  0.2656 -0.3500 -1.7156
  133OSM   H13C14261   5.330   4.826   1.925 -0.9567  0.1095 -0.2474
  133OSM    C1214262   5.260   5.053   2.059 -0.1999  0.2079 -0.2761
  133OSM   H12A14263   5.155   5.054   2.037  0.1432  1.8744 -2.0959
  133OSM   H12B14264   5.284   5.153   2.092  0.5819 -0.1180  0.1744
  133OSM    C1114265   5.302   4.958   2.176 -0.2383  0.1520  0.4750
  133OSM   H11A14266   5.246   4.995   2.265  0.6034  1.5473  0.4476
  133OSM   H11B14267   5.408   4.973   2.203  0.1083  0.1569 -0.8263
  133OSM      P14268   5.348   4.703   2.192  0.4058  0.4624 -0.6513
  133OSM    O1314269   5.296   4.576   2.133 -0.1676  0.6018  0.8573
  133OSM    O1414270   5.489   4.720   2.168 -0.1022  0.0003 -0.3814
  133OSM    O1114271   5.320   4.701   2.348  0.0072  0.1553  0.5128
  133OSM    O1214272   5.259   4.821   2.145  0.0195 -0.3425 -0.1717
  133OSM    C1S14273   5.196   4.725   2.415  1.0647 -0.3937 -0.0721
  133OSM    H1S14274   5.126   4.639   2.405  2.9209 -1.9641 -0.1561
  133OSM    H1T14275   5.149   4.818   2.378  0.0547 -0.1148  1.7531
  133OSM     NF14276   5.106   4.752   2.650  0.4290  0.2455 -0.3278
  133OSM    HNF14277   5.086   4.846   2.673  2.6629  0.2699  1.9457
  133OSM    C2S14278   5.224   4.732   2.567 -0.1509  0.3109 -0.7396
  133OSM    H2S14279   5.268   4.634   2.593 -3.0514 -1.2664 -1.3046
  133OSM    C3S14280   5.328   4.843   2.605  0.1673  0.2724  0.0201
  133OSM    H3S14281   5.277   4.942   2.608 -2.1536 -0.8225 -0.8287
  133OSM     O314282   5.443   4.852   2.523  0.2334  0.1078  0.1797
  133OSM    HO314283   5.420   4.802   2.444 -1.1717 -0.4490  0.9064
  133OSM    C4S14284   5.363   4.828   2.753  0.4288  0.1855  0.3414
  133OSM    H4S14285   5.283   4.847   2.827 -0.8116 -1.5025 -0.4783
  133OSM    C5S14286   5.477   4.781   2.800  0.0464  0.2302 -0.6101
  133OSM    H5S14287   5.555   4.746   2.732  0.1870 -2.2752  0.7242
  133OSM    C6S14288   5.514   4.766   2.944 -0.0781 -0.0419  0.0524
  133OSM    H6S14289   5.617   4.803   2.962  0.1974 -1.2772  1.1497
  133OSM    H6T14290   5.521   4.659   2.973 -0.1345 -0.0597  0.0004
  133OSM    C7S14291   5.430   4.848   3.048 -0.4278 -0.0155  0.6690
  133OSM    H7S14292   5.330   4.799   3.059 -0.3358 -0.8755 -1.7583
  133OSM    H7T14293   5.427   4.954   3.016  2.6605 -0.0963 -0.1612
  133OSM    C8S14294   5.487   4.847   3.186 -0.0670 -0.5197  1.0371
  133OSM    H8S14295   5.537   4.748   3.191  0.3793 -0.5015 -1.5337
  133OSM    H8T14296   5.410   4.848   3.266 -2.5789 -0.8855 -1.1895
  133OSM    C9S14297   5.572   4.967   3.212  0.1626 -1.0359  0.8643
  133OSM    H9S14298   5.504   5.054   3.230  1.9963  1.5098 -3.0546
  133OSM    H9T14299   5.635   5.002   3.128 -0.6465 -2.1594 -0.2360
  133OSM   C10S14300   5.660   4.977   3.340 -0.6379  0.6000 -0.2990
  133OSM   H10S14301   5.720   5.070   3.337  2.0637 -0.9758  1.2688
  133OSM   H10T14302   5.737   4.897   3.334  0.6236  1.4972  2.4859
  133OSM   C11S14303   5.604   4.961   3.481  0.1463  0.6951 -0.0308
  133OSM   H11S14304   5.545   4.867   3.484 -1.0753  1.3511 -1.8393
  133OSM   H11T14305   5.532   5.044   3.494 -1.5616 -0.5145 -1.2942
  133OSM   C12S14306   5.708   4.970   3.586 -0.4249 -0.0488 -1.1103
  133OSM   H12S14307   5.767   5.064   3.574 -1.3485  0.3895 -2.3880
  133OSM   H12T14308   5.782   4.888   3.597 -3.4208 -2.6730  1.4513
  133OSM   C13S14309   5.627   4.994   3.720 -0.1411  1.2523 -0.2755
  133OSM   H13S14310   5.562   4.908   3.745 -0.6082  1.4237 -0.8770
  133OSM   H13T14311   5.557   5.080   3.712  1.5980  2.8251  0.6773
  133OSM   C14S14312   5.717   5.017   3.851 -0.2122  0.1403  0.5676
  133OSM   H14S14313   5.774   5.110   3.827 -0.2549 -0.2581 -1.2558
  133OSM   H14T14314   5.792   4.934   3.847  0.8221  1.0028  1.4791
  133OSM   C15S14315   5.637   5.020   3.982 -0.0403 -0.0599 -0.0794
  133OSM   H15S14316   5.577   4.927   3.997  0.5503 -0.7020 -1.5291
  133OSM   H15T14317   5.571   5.109   3.991  0.6829  0.5693 -0.8280
  133OSM   C16S14318   5.722   5.028   4.106  0.2279  0.3087  0.2225
  133OSM   H16S14319   5.781   5.122   4.107  1.5755 -0.4512 -1.6534
  133OSM   H16T14320   5.794   4.945   4.119 -0.9883 -0.3658  3.4509
  133OSM   C17S14321   5.636   5.036   4.233  0.1383  0.3694  0.1156
  133OSM   H17S14322   5.590   4.938   4.257  0.3565  0.2151 -0.0839
  133OSM   H17T14323   5.542   5.093   4.214 -1.6997 -2.0934  1.2583
  133OSM   C18S14324   5.704   5.079   4.365 -0.7064  0.7905  0.1626
  133OSM   H18S14325   5.784   5.007   4.392 -0.0821  1.4732  0.1969
  133OSM   H18T14326   5.627   5.085   4.444 -0.5743  1.6834  0.2383
  133OSM   H18U14327   5.754   5.179   4.360  0.5299  0.2602  1.2531
  133OSM    C1F14328   5.015   4.648   2.670 -0.3575 -0.1924 -0.1872
  133OSM     OF14329   5.048   4.530   2.642 -0.2703 -0.0373  0.0661
  133OSM    C2F14330   4.876   4.691   2.721 -0.6669 -0.4823 -0.1953
  133OSM    H2F14331   4.802   4.678   2.640 -1.8023  2.3337  0.2726
  133OSM    H2G14332   4.882   4.801   2.738  0.0036 -0.7923  1.8723
  133OSM    C3F14333   4.839   4.628   2.857  0.2473  0.0972 -0.1108
  133OSM    H3F14334   4.840   4.518   2.844  0.3079 -0.4847  3.7190
  133OSM    H3G14335   4.740   4.667   2.887 -0.2894 -1.3702  0.1182
  133OSM    C4F14336   4.944   4.666   2.975  1.1857 -0.4871 -0.2153
  133OSM    H4F14337   4.995   4.757   2.936  2.0749 -0.9367 -0.1146
  133OSM    H4G14338   5.014   4.581   2.990  1.3293 -0.2540  0.4476
  133OSM    C5F14339   4.886   4.700   3.111  0.4102 -0.4299  0.3704
  133OSM    H5F14340   4.835   4.614   3.159 -1.1336  0.3200  0.1251
  133OSM    H5G14341   4.811   4.782   3.111  1.3070  0.4423 -1.3342
  133OSM    C6F14342   4.995   4.762   3.200  0.4823 -0.7182  0.4790
  133OSM    H6F14343   5.017   4.860   3.153 -1.2999 -0.7006 -0.4220
  133OSM    H6G14344   5.095   4.715   3.191  1.9606  2.2487  0.4621
  133OSM    C7F14345   4.946   4.786   3.349  0.2119  0.2868  0.4340
  133OSM    H7F14346   4.839   4.815   3.358  0.3825  0.6529  1.4078
  133OSM    H7G14347   5.003   4.878   3.374  4.6619 -1.7962 -1.0769
  133OSM    C8F14348   4.969   4.673   3.450  0.2833  0.0768  0.4190
  133OSM    H8F14349   4.920   4.579   3.418 -1.5026  0.0841  2.8373
  133OSM    H8G14350   4.914   4.696   3.544  0.5069 -0.2050  0.6187
  133OSM    C9F14351   5.118   4.657   3.483 -0.1255  0.2882  0.1397
  133OSM    H9F14352   5.179   4.599   3.411  0.4518  2.0721 -0.8679
  133OSM   C10F14353   5.195   4.708   3.579  0.2762 -0.1273 -0.6506
  133OSM   H10F14354   5.304   4.697   3.562  0.2545 -1.1120 -0.2370
  133OSM   C11F14355   5.146   4.793   3.696 -0.2785  0.0698 -0.3882
  133OSM   H11F14356   5.036   4.798   3.712 -0.0012 -0.2320  2.0005
  133OSM   H11G14357   5.190   4.895   3.696  1.1029 -0.4860 -1.7468
  133OSM   C12F14358   5.186   4.734   3.839 -0.4486 -0.4481 -0.3309
  133OSM   H12F14359   5.154   4.816   3.907 -0.9760 -1.0961  0.2139
  133OSM   H12G14360   5.296   4.719   3.846 -0.4698 -3.1812 -3.3762
  133OSM   C13F14361   5.121   4.599   3.872  0.3582 -0.3864  0.0467
  133OSM   H13F14362   5.164   4.518   3.809  2.2677 -0.3125  1.1804
  133OSM   H13G14363   5.013   4.616   3.852  0.3164  0.7463  1.1251
  133OSM   C14F14364   5.144   4.570   4.023  0.1757  0.0536  0.2088
  133OSM   H14F14365   5.111   4.658   4.082 -1.5046  0.6317 -1.4949
  133OSM   H14G14366   5.254   4.568   4.042 -0.1938  0.2629  2.6376
  133OSM   C15F14367   5.076   4.444   4.086 -0.3186  0.1362 -0.5548
  133OSM   H15F14368   5.113   4.354   4.033 -0.2402  0.5719 -1.2566
  133OSM   H15G14369   4.966   4.451   4.076 -0.5674 -0.7459  1.2133
  133OSM   C16F14370   5.091   4.435   4.242  0.1516 -0.6566 -0.1922
  133OSM   H16F14371   5.038   4.342   4.272 -0.1759 -0.6301 -0.6741
  133OSM   H16G14372   5.037   4.527   4.275  0.5835  0.1916 -1.7246
  133OSM   C17F14373   5.230   4.447   4.297  0.2544  0.0206  0.2571
  133OSM   H17F14374   5.273   4.543   4.262 -1.4865  0.0625 -2.0594
  133OSM   H17G14375   5.291   4.368   4.247  1.2158 -0.6724  2.4353
  133OSM   C18F14376   5.229   4.419   4.449 -0.7764  0.2561  0.2913
  133OSM   H18F14377   5.332   4.393   4.483 -0.1756 -1.8523 -2.7344
  133OSM   H18G14378   5.168   4.330   4.476  1.2470 -1.4665 -0.4979
  133OSM   H18H14379   5.186   4.500   4.512 -0.3072  0.7089  0.0398
  134OSM      N14380   4.849   0.237   2.505 -0.0188 -0.0418 -1.0841
  134OSM    C1514381   4.930   0.198   2.389 -0.2134 -0.4779  0.8589
  134OSM   H15A14382   4.884   0.108   2.351 -1.7101 -0.2791  2.0976
  134OSM   H15B14383   5.033   0.182   2.421 -0.2364 -0.0551  1.1458
  134OSM   H15C14384   4.931   0.281   2.321  0.3785 -0.8420  0.4116
  134OSM    C1414385   4.824   0.385   2.506 -0.2425 -0.4439  0.2383
  134OSM   H14A14386   4.776   0.411   2.413  1.8704 -0.1776 -0.8620
  134OSM   H14B14387   4.925   0.425   2.499  0.3362 -1.9178 -0.2750
  134OSM   H14C14388   4.770   0.424   2.590  0.3179 -1.0552  0.8994
  134OSM    C1314389   4.718   0.161   2.501  0.6162  0.0520  0.4402
  134OSM   H13A14390   4.674   0.166   2.599  0.6599 -2.0293  0.6036
  134OSM   H13B14391   4.718   0.058   2.469 -2.0286  0.5750 -1.5983
  134OSM   H13C14392   4.642   0.206   2.439  0.5109  0.7662  1.0651
  134OSM    C1214393   4.927   0.192   2.627 -0.3003  0.2290  0.2971
  134OSM   H12A14394   5.030   0.219   2.609 -0.5766  1.0138 -0.1641
  134OSM   H12B14395   4.908   0.086   2.631 -0.1207  0.2366  1.7113
  134OSM    C1114396   4.889   0.244   2.764  0.3880 -0.0239 -0.0537
  134OSM   H11A14397   4.878   0.355   2.762 -1.0440 -0.0129  2.9189
  134OSM   H11B14398   4.967   0.216   2.838  0.2690  1.8872  0.8527
  134OSM      P14399   4.736   0.053   2.858  0.1958  0.2023  0.1797
  134OSM    O1314400   4.600   0.061   2.917  0.6428  0.2315  0.1503
  134OSM    O1414401   4.771  -0.048   2.756  0.1889  0.0479  0.1308
  134OSM    O1114402   4.833   0.047   2.970 -0.2935 -0.2445 -0.5041
  134OSM    O1214403   4.766   0.196   2.799  0.5007  0.9691 -0.0680
  134OSM    C1S14404   4.791   0.029   3.109  0.0389  0.0279  1.0910
  134OSM    H1S14405   4.755  -0.075   3.121 -2.2267  0.6547  0.2726
  134OSM    H1T14406   4.696   0.085   3.124 -1.4691 -2.0182 -0.3897
  134OSM     NF14407   4.863   0.003   3.337 -0.7939  0.7803  0.9638
  134OSM    HNF14408   4.800   0.057   3.392 -2.8359  0.8225 -1.2839
  134OSM    C2S14409   4.899   0.070   3.212  0.6829  0.1432  0.0604
  134OSM    H2S14410   4.998   0.033   3.176  0.7776  2.6290 -2.6095
  134OSM    C3S14411   4.910   0.224   3.229  0.3285 -0.4444  0.0426
  134OSM    H3S14412   4.812   0.271   3.252 -0.6167 -1.1816 -2.1232
  134OSM     O314413   4.952   0.279   3.104 -0.3664  0.1249 -0.0377
  134OSM    HO314414   4.935   0.219   3.031 -0.9103  1.6336 -1.2004
  134OSM    C4S14415   5.009   0.265   3.339 -0.3113 -0.7895  0.1447
  134OSM    H4S14416   4.968   0.255   3.441 -0.0767  1.0550  0.4462
  134OSM    C5S14417   5.138   0.302   3.315  0.5622  0.4860  0.7001
  134OSM    H5S14418   5.170   0.311   3.210 -1.0877  3.3394  0.3165
  134OSM    C6S14419   5.249   0.333   3.411  0.3574 -0.6079  0.1690
  134OSM    H6S14420   5.298   0.428   3.380  0.3787 -0.9686 -0.9690
  134OSM    H6T14421   5.321   0.250   3.425 -1.5880 -2.2949  0.7142
  134OSM    C7S14422   5.207   0.351   3.561 -0.2888  0.2004  1.2975
  134OSM    H7S14423   5.181   0.249   3.599  0.4041 -0.5514 -0.1681
  134OSM    H7T14424   5.125   0.424   3.576  0.0303  0.8378  0.0280
  134OSM    C8S14425   5.325   0.421   3.634  0.4042 -0.2858 -0.0938
  134OSM    H8S14426   5.361   0.511   3.581 -0.3875  0.2586  0.2752
  134OSM    H8T14427   5.412   0.352   3.642  1.1621  0.7141  0.4921
  134OSM    C9S14428   5.270   0.471   3.771  0.2947  0.2190 -0.4960
  134OSM    H9S14429   5.167   0.512   3.762  0.2374 -0.1913 -1.9387
  134OSM    H9T14430   5.343   0.545   3.810  1.0991 -1.2193  0.7868
  134OSM   C10S14431   5.272   0.353   3.871 -0.6561  0.3568  0.1092
  134OSM   H10S14432   5.226   0.266   3.820  0.2882  0.2504 -0.5996
  134OSM   H10T14433   5.218   0.394   3.959 -1.1274  0.2111 -0.1116
  134OSM   C11S14434   5.412   0.307   3.916 -0.1392 -0.0002 -0.1323
  134OSM   H11S14435   5.468   0.401   3.939  1.7238 -0.9743 -0.4951
  134OSM   H11T14436   5.468   0.257   3.834 -0.9024 -3.3979  1.2601
  134OSM   C12S14437   5.417   0.224   4.047 -0.1721  0.2550  0.0554
  134OSM   H12S14438   5.520   0.219   4.088  0.5132 -1.4028 -1.7102
  134OSM   H12T14439   5.373   0.124   4.024  0.2150 -0.1191  0.8851
  134OSM   C13S14440   5.344   0.296   4.161  0.1418  0.1923 -0.2762
  134OSM   H13S14441   5.236   0.269   4.165  0.0127  0.5717 -1.0731
  134OSM   H13T14442   5.373   0.402   4.143  1.1744 -0.2286 -1.1167
  134OSM   C14S14443   5.388   0.248   4.295  0.7393 -0.4202  0.1688
  134OSM   H14S14444   5.493   0.282   4.307  0.5376  0.1582  0.2953
  134OSM   H14T14445   5.383   0.137   4.298  1.7952 -0.4484  1.5386
  134OSM   C15S14446   5.289   0.303   4.402 -0.0451  0.2734 -0.0102
  134OSM   H15S14447   5.187   0.280   4.364 -0.8112 -0.8959  2.5471
  134OSM   H15T14448   5.305   0.411   4.422  1.9136 -0.1248  0.8062
  134OSM   C16S14449   5.319   0.231   4.534  0.5174  0.4152 -0.2946
  134OSM   H16S14450   5.420   0.261   4.568  1.1070 -0.9550 -0.7596
  134OSM   H16T14451   5.316   0.120   4.533  1.7795  0.3808 -1.1083
  134OSM   C17S14452   5.222   0.265   4.647  0.9177  0.1420 -0.4931
  134OSM   H17S14453   5.120   0.224   4.630  0.7858  0.9067 -1.6673
  134OSM   H17T14454   5.215   0.376   4.643  2.1577  0.2941  0.7454
  134OSM   C18S14455   5.267   0.225   4.787 -0.0793  0.1079 -0.1510
  134OSM   H18S14456   5.187   0.247   4.861 -0.7668 -0.0577 -0.8205
  134OSM   H18T14457   5.367   0.265   4.814  0.0215  0.7257 -1.3475
  134OSM   H18U14458   5.277   0.115   4.796 -1.9997 -0.0288  0.7158
  134OSM    C1F14459   4.898  -0.122   3.363  0.7301  0.6223  0.2931
  134OSM     OF14460   4.943  -0.199   3.281  0.0170 -0.4649  0.1593
  134OSM    C2F14461   4.875  -0.154   3.502  0.6712  0.0640  0.2298
  134OSM    H2F14462   4.770  -0.139   3.537 -0.0578 -3.4814 -0.0417
  134OSM    H2G14463   4.941  -0.084   3.558 -0.3036  1.2348 -0.0186
  134OSM    C3F14464   4.910  -0.297   3.537 -0.2476  0.7556  0.2107
  134OSM    H3F14465   5.014  -0.315   3.504 -0.5677 -0.8017 -0.0213
  134OSM    H3G14466   4.838  -0.370   3.493  1.4816  0.1829 -1.7720
  134OSM    C4F14467   4.912  -0.311   3.695 -0.5188  0.4116 -0.0782
  134OSM    H4F14468   4.811  -0.292   3.737 -1.3925  1.8794 -2.5770
  134OSM    H4G14469   4.978  -0.230   3.734 -2.2461  1.2554  1.2245
  134OSM    C5F14470   4.957  -0.444   3.750 -0.3674  0.3225 -0.0567
  134OSM    H5F14471   5.065  -0.461   3.730 -0.3698 -0.5858  0.6047
  134OSM    H5G14472   4.904  -0.529   3.701  0.6526 -1.3598  1.6074
  134OSM    C6F14473   4.947  -0.461   3.897 -0.6554 -0.0594  0.0327
  134OSM    H6F14474   4.842  -0.466   3.934 -1.0897 -0.4305 -1.2194
  134OSM    H6G14475   4.988  -0.376   3.956 -0.3400  1.1419 -1.8198
  134OSM    C7F14476   5.004  -0.593   3.950 -0.0673 -0.8230  0.5690
  134OSM    H7F14477   5.110  -0.593   3.917 -0.3845  0.2470 -0.5654
  134OSM    H7G14478   4.975  -0.688   3.898  2.2124 -2.0339  1.3799
  134OSM    C8F14479   4.989  -0.621   4.100  0.0674 -1.0581 -0.4624
  134OSM    H8F14480   5.040  -0.719   4.114  1.1737 -0.5632 -0.8914
  134OSM    H8G14481   4.884  -0.640   4.131 -0.6022  2.7755  0.1420
  134OSM    C9F14482   5.045  -0.524   4.208 -0.4878 -0.8827  0.2555
  134OSM    H9F14483   5.086  -0.432   4.162 -0.1735 -1.0885  0.1221
  134OSM   C10F14484   5.026  -0.536   4.340 -0.4508 -0.8505  0.4464
  134OSM   H10F14485   5.064  -0.455   4.404  2.1147 -0.1095 -1.7880
  134OSM   C11F14486   4.974  -0.653   4.408  0.4224 -0.5567 -0.6700
  134OSM   H11F14487   4.933  -0.728   4.336 -2.4001  1.0610 -0.9009
  134OSM   H11G14488   4.893  -0.621   4.477  1.0852 -2.0827  0.8974
  134OSM   C12F14489   5.076  -0.726   4.502 -0.5635 -0.6896  1.2972
  134OSM   H12F14490   5.116  -0.657   4.580  3.0122 -1.8374  0.6698
  134OSM   H12G14491   5.159  -0.751   4.433 -0.1389  1.3892  0.9923
  134OSM   C13F14492   5.029  -0.847   4.576  0.9774  0.2956 -0.6918
  134OSM   H13F14493   5.008  -0.930   4.505  0.8409 -1.1624  1.0038
  134OSM   H13G14494   4.933  -0.827   4.627  0.3854 -1.9805 -0.8070
  134OSM   C14F14495   5.128  -0.917   4.676 -0.0382  0.1263  0.3858
  134OSM   H14F14496   5.128  -0.844   4.760  0.3787 -0.0116  0.5083
  134OSM   H14G14497   5.229  -0.938   4.635 -0.1172 -0.1983  0.3555
  134OSM   C15F14498   5.082  -1.056   4.721 -0.7745 -0.0431  0.5062
  134OSM   H15F14499   5.075  -1.133   4.640  2.4057 -1.1909  1.1880
  134OSM   H15G14500   4.989  -1.047   4.781 -0.1642  2.4406  1.1599
  134OSM   C16F14501   5.184  -1.126   4.815 -0.3327  0.8734  0.1228
  134OSM   H16F14502   5.199  -1.063   4.905  0.9060 -0.4377  0.8827
  134OSM   H16G14503   5.276  -1.132   4.753 -0.6585 -3.0652 -0.2186
  134OSM   C17F14504   5.152  -1.267   4.857  0.7082 -0.2371 -0.3017
  134OSM   H17F14505   5.145  -1.331   4.767 -0.2213 -1.6432  0.7405
  134OSM   H17G14506   5.052  -1.263   4.906  2.0730 -1.2652  2.7678
  134OSM   C18F14507   5.248  -1.326   4.963  0.6171  0.6356  0.4243
  134OSM   H18F14508   5.350  -1.317   4.921  1.1711 -1.3360  1.2146
  134OSM   H18G14509   5.220  -1.434   4.968  1.7209  0.3851  4.3965
  134OSM   H18H14510   5.244  -1.272   5.060  3.2859  0.0092  0.9446
  135OSM      N14511   6.742   6.049   2.534  0.5414  0.4709  0.4871
  135OSM    C1514512   6.794   5.918   2.471 -0.6588 -0.3543  0.5677
  135OSM   H15A14513   6.826   5.861   2.557 -0.6403  1.0484  1.5277
  135OSM   H15B14514   6.883   5.931   2.411 -0.1265 -0.7044  1.2758
  135OSM   H15C14515   6.728   5.856   2.411  1.1741 -1.1059 -0.7682
  135OSM    C1414516   6.700   6.147   2.439  0.0518  0.6084  0.6664
  135OSM   H14A14517   6.637   6.110   2.359  0.3784  1.6305 -0.0868
  135OSM   H14B14518   6.796   6.182   2.405  0.6572 -0.9743  0.6636
  135OSM   H14C14519   6.654   6.234   2.485  0.0111 -0.5508  2.9650
  135OSM    C1314520   6.617   6.006   2.607  0.5907  0.2348 -0.7761
  135OSM   H13A14521   6.641   5.954   2.698  2.5826 -0.8455 -1.8394
  135OSM   H13B14522   6.557   5.943   2.543  0.6647 -0.4551 -0.1711
  135OSM   H13C14523   6.562   6.097   2.625  1.2853  0.8216 -1.5154
  135OSM    C1214524   6.848   6.112   2.624  0.7311  0.2436  0.6697
  135OSM   H12A14525   6.802   6.200   2.665 -2.0314  0.0645 -1.6800
  135OSM   H12B14526   6.919   6.154   2.554  2.0251  0.4197  2.0316
  135OSM    C1114527   6.917   6.031   2.736  0.2394 -0.1768  0.2766
  135OSM   H11A14528   6.988   6.084   2.803  0.1018  1.6773 -0.9548
  135OSM   H11B14529   6.987   5.962   2.684 -2.4222 -3.2052  0.4097
  135OSM      P14530   6.831   5.798   2.847  0.2005 -0.2362  0.0300
  135OSM    O1314531   6.757   5.783   2.973  0.3185  0.4010  0.8720
  135OSM    O1414532   6.789   5.726   2.727  0.3822 -0.1323 -0.2849
  135OSM    O1114533   6.987   5.771   2.870  0.2945 -0.1531 -0.2881
  135OSM    O1214534   6.824   5.953   2.813 -0.0877 -0.4911 -0.2749
  135OSM    C1S14535   7.061   5.840   2.971  0.0570 -0.3077  0.4024
  135OSM    H1S14536   7.036   5.948   2.975 -0.8294 -0.5201  0.9030
  135OSM    H1T14537   7.169   5.846   2.946  0.0518  0.7770  0.6136
  135OSM     NF14538   7.101   5.861   3.216  0.1201 -0.5209 -0.1194
  135OSM    HNF14539   7.196   5.859   3.244 -0.0926 -1.1884  0.5784
  135OSM    C2S14540   7.047   5.774   3.108  0.4187 -0.3985  0.0246
  135OSM    H2S14541   6.941   5.747   3.129  0.1128 -1.4306 -2.5265
  135OSM    C3S14542   7.122   5.637   3.094 -0.3616 -0.0717  0.0624
  135OSM    H3S14543   7.228   5.655   3.065 -0.5575 -0.6938 -1.0815
  135OSM     O314544   7.075   5.548   2.999 -0.4691  0.5038 -0.2326
  135OSM    HO314545   7.015   5.597   2.942 -0.7858  0.1137 -0.2423
  135OSM    C4S14546   7.133   5.559   3.225 -0.6889 -0.6703  0.3961
  135OSM    H4S14547   7.229   5.583   3.273 -0.3711 -0.1447 -0.4852
  135OSM    C5S14548   7.045   5.485   3.283 -0.5463  0.3290 -0.7794
  135OSM    H5S14549   6.946   5.481   3.235 -0.1747  2.3198 -1.8217
  135OSM    C6S14550   7.061   5.432   3.425 -0.0122  0.0362 -0.7048
  135OSM    H6S14551   6.968   5.379   3.453  0.4609 -1.6546 -2.0868
  135OSM    H6T14552   7.070   5.512   3.501 -1.5493  0.7333 -1.2310
  135OSM    C7S14553   7.163   5.318   3.455 -0.1175 -0.4727  0.7078
  135OSM    H7S14554   7.266   5.329   3.416 -1.5600 -0.4470 -3.5888
  135OSM    H7T14555   7.123   5.223   3.413 -2.5919  0.4472  0.8157
  135OSM    C8S14556   7.189   5.290   3.606  0.5759 -0.0594 -0.2166
  135OSM    H8S14557   7.092   5.274   3.658 -0.2852  5.3225  0.4852
  135OSM    H8T14558   7.228   5.381   3.658 -2.5227  0.4458  1.4773
  135OSM    C9S14559   7.267   5.161   3.635 -0.2949 -0.0569  0.4475
  135OSM    H9S14560   7.364   5.160   3.581 -0.2698 -1.3579  0.4784
  135OSM    H9T14561   7.210   5.073   3.595  0.0166 -0.1124  0.1177
  135OSM   C10S14562   7.293   5.141   3.786  0.0769 -0.6369 -0.3888
  135OSM   H10S14563   7.199   5.115   3.839  0.6837  2.0672  2.2995
  135OSM   H10T14564   7.333   5.239   3.820 -0.1320 -1.1399  1.3913
  135OSM   C11S14565   7.410   5.040   3.821 -0.1630  1.0035  0.5344
  135OSM   H11S14566   7.496   5.069   3.757  2.1475 -0.0044  2.9690
  135OSM   H11T14567   7.390   4.937   3.785 -0.7576  0.9938  0.8832
  135OSM   C12S14568   7.439   5.035   3.974 -0.2780 -0.1431 -0.1538
  135OSM   H12S14569   7.446   5.142   4.002 -0.5991 -0.3456  0.7611
  135OSM   H12T14570   7.538   4.985   3.985  0.5635  1.1537 -1.5346
  135OSM   C13S14571   7.329   4.968   4.056 -0.2005 -0.0301 -0.6592
  135OSM   H13S14572   7.321   4.868   4.008  0.9537 -0.2346 -0.4537
  135OSM   H13T14573   7.238   5.024   4.025 -1.8978 -3.2793 -2.1046
  135OSM   C14S14574   7.343   4.955   4.210 -0.0398 -0.4809  0.2887
  135OSM   H14S14575   7.427   4.884   4.226 -0.0818 -0.1273  2.3446
  135OSM   H14T14576   7.261   4.890   4.248 -0.4147 -0.3480 -0.2737
  135OSM   C15S14577   7.374   5.079   4.297  0.2197  0.5305  0.0620
  135OSM   H15S14578   7.296   5.153   4.271  1.1338  1.1032 -1.1178
  135OSM   H15T14579   7.474   5.117   4.268 -0.4308  3.5630  1.4091
  135OSM   C16S14580   7.364   5.043   4.448 -0.7312 -0.9061 -0.4106
  135OSM   H16S14581   7.435   4.962   4.474 -1.1942 -0.7067  1.6254
  135OSM   H16T14582   7.264   4.995   4.462 -0.9412 -0.8066 -1.4975
  135OSM   C17S14583   7.377   5.164   4.537  0.0688 -0.1575 -0.1316
  135OSM   H17S14584   7.307   5.244   4.507  2.6582  2.7519  0.9970
  135OSM   H17T14585   7.482   5.202   4.534  0.4860 -1.3060 -1.0622
  135OSM   C18S14586   7.341   5.137   4.687 -0.3742 -0.4708 -0.0905
  135OSM   H18S14587   7.355   5.233   4.740 -0.9806  0.8666 -2.2426
  135OSM   H18T14588   7.407   5.059   4.732 -0.7590 -0.7886 -0.0689
  135OSM   H18U14589   7.236   5.106   4.706 -0.7159  1.1557  0.8464
  135OSM    C1F14590   7.020   5.953   3.267 -0.4360  0.7545  0.0257
  135OSM     OF14591   6.911   5.976   3.217  0.0198  0.0107  0.8322
  135OSM    C2F14592   7.069   6.036   3.385  0.6487  0.4137 -0.4091
  135OSM    H2F14593   7.091   6.142   3.360  0.3286  0.0837 -2.2497
  135OSM    H2G14594   7.171   6.003   3.414  1.0618  1.5045 -0.5457
  135OSM    C3F14595   6.975   6.029   3.502  0.4271  0.0019 -0.2820
  135OSM    H3F14596   6.981   5.932   3.555 -0.9774  0.9015  1.6943
  135OSM    H3G14597   6.869   6.042   3.472  0.1824  0.0988  0.5795
  135OSM    C4F14598   7.003   6.129   3.610  0.4968  0.1812 -0.3494
  135OSM    H4F14599   7.112   6.146   3.608  0.6820 -0.9335 -0.3665
  135OSM    H4G14600   6.973   6.078   3.704  2.5291  0.5466  0.5424
  135OSM    C5F14601   6.934   6.268   3.593  0.0802  0.5942 -0.1985
  135OSM    H5F14602   6.827   6.252   3.567  0.1136  1.8877 -1.2606
  135OSM    H5G14603   6.982   6.326   3.512  0.8558  0.6562  0.2976
  135OSM    C6F14604   6.946   6.347   3.723  0.2311 -0.6996  0.1639
  135OSM    H6F14605   6.938   6.455   3.696 -0.5868 -1.1716 -1.5729
  135OSM    H6G14606   7.052   6.340   3.758 -0.4298 -1.5173  2.1090
  135OSM    C7F14607   6.850   6.314   3.837  0.6155 -0.0709 -0.2193
  135OSM    H7F14608   6.858   6.206   3.863  2.3966  0.1202  0.1335
  135OSM    H7G14609   6.749   6.334   3.793  0.8829  0.3498 -0.6484
  135OSM    C8F14610   6.869   6.418   3.951  0.1480 -0.7992  0.5327
  135OSM    H8F14611   6.847   6.521   3.919 -1.1319 -1.8239 -2.1844
  135OSM    H8G14612   6.976   6.414   3.983  1.2755  1.6474 -2.4403
  135OSM    C9F14613   6.767   6.381   4.051  0.4669 -0.1638 -0.2185
  135OSM    H9F14614   6.696   6.309   4.007 -0.1639  0.3796 -0.1083
  135OSM   C10F14615   6.744   6.428   4.178 -0.1228 -0.6443  0.5024
  135OSM   H10F14616   6.648   6.400   4.223 -1.5281  0.9287 -1.3506
  135OSM   C11F14617   6.836   6.520   4.263 -0.3392 -0.2121 -0.1341
  135OSM   H11F14618   6.921   6.474   4.319 -1.1769  0.4705  1.7697
  135OSM   H11G14619   6.766   6.565   4.336 -2.6124 -0.1978 -2.2004
  135OSM   C12F14620   6.907   6.640   4.185  0.0673 -0.0286 -0.2936
  135OSM   H12F14621   6.835   6.694   4.119 -0.7937 -0.8299 -0.0237
  135OSM   H12G14622   6.989   6.597   4.124  0.7860  0.1626  0.5005
  135OSM   C13F14623   6.957   6.756   4.273  0.2741  0.6858  0.1029
  135OSM   H13F14624   7.048   6.735   4.333  0.2208  1.1318  0.3433
  135OSM   H13G14625   6.876   6.787   4.343 -0.1457 -0.4634  0.1528
  135OSM   C14F14626   7.013   6.875   4.187  0.2246  1.1257 -0.4721
  135OSM   H14F14627   7.046   6.959   4.253 -0.0460  0.4402  0.5522
  135OSM   H14G14628   6.927   6.906   4.125  0.3319 -3.2168 -3.2237
  135OSM   C15F14629   7.130   6.851   4.086 -0.5639  0.1245 -0.1239
  135OSM   H15F14630   7.102   6.766   4.019 -0.2718  1.1820 -1.6447
  135OSM   H15G14631   7.220   6.818   4.141 -0.8290 -3.0704 -1.3682
  135OSM   C16F14632   7.163   6.975   3.996  0.7619 -0.5048 -0.3648
  135OSM   H16F14633   7.195   7.051   4.071  0.3484 -1.5086  0.8637
  135OSM   H16G14634   7.075   7.011   3.939 -0.3151 -0.5936  1.1695
  135OSM   C17F14635   7.276   6.940   3.902  0.4365 -0.5022 -0.4333
  135OSM   H17F14636   7.365   6.904   3.958  0.5947  0.6813  0.1012
  135OSM   H17G14637   7.311   7.033   3.852 -0.9625 -0.1721 -0.8459
  135OSM   C18F14638   7.229   6.836   3.801  0.8038  0.5930 -0.6155
  135OSM   H18F14639   7.249   6.731   3.832 -0.9937  0.1120 -1.0120
  135OSM   H18G14640   7.291   6.845   3.709  0.1705 -0.5505 -1.1719
  135OSM   H18H14641   7.128   6.857   3.759  0.3257  0.2923  0.3602
  136OSM      N14642   4.170   1.515   2.707  0.4929  0.1603 -0.3965
  136OSM    C1514643   4.227   1.378   2.688  0.3826  0.2322 -0.1370
  136OSM   H15A14644   4.262   1.378   2.586  2.6294 -0.0860  0.5872
  136OSM   H15B14645   4.147   1.305   2.687 -1.6676  2.3476  0.0870
  136OSM   H15C14646   4.307   1.355   2.757  0.6862 -3.5902 -1.4755
  136OSM    C1414647   4.268   1.609   2.649  0.5789  0.5798 -0.5818
  136OSM   H14A14648   4.266   1.591   2.543  1.7904  0.7768 -0.6527
  136OSM   H14B14649   4.369   1.592   2.682  0.2461 -0.9056 -0.2330
  136OSM   H14C14650   4.239   1.713   2.660 -0.7331  0.2240 -0.5567
  136OSM    C1314651   4.045   1.523   2.633 -0.6265  0.4612  0.0830
  136OSM   H13A14652   4.001   1.621   2.647 -0.7745  0.5683 -1.0314
  136OSM   H13B14653   3.975   1.451   2.673  0.5056 -0.3955  0.5795
  136OSM   H13C14654   4.060   1.526   2.526  1.3634  2.5326  0.3391
  136OSM    C1214655   4.155   1.534   2.855  0.0709 -0.1592 -0.2563
  136OSM   H12A14656   4.080   1.468   2.895 -0.7305  1.3929  0.8919
  136OSM   H12B14657   4.113   1.633   2.870  1.0602  0.5723 -1.9936
  136OSM    C1114658   4.280   1.532   2.955  0.1049 -0.4971 -0.1002
  136OSM   H11A14659   4.249   1.575   3.053  0.9712  0.5827 -0.2883
  136OSM   H11B14660   4.347   1.610   2.914 -2.1534  1.6002 -0.0343
  136OSM      P14661   4.457   1.372   3.042  0.7552 -0.0465 -0.1105
  136OSM    O1314662   4.517   1.240   3.025  0.1762  0.0853  0.3454
  136OSM    O1414663   4.545   1.481   3.010 -0.0508  0.0529  0.8437
  136OSM    O1114664   4.405   1.386   3.191  0.4171  0.2112  0.5227
  136OSM    O1214665   4.324   1.394   2.965 -0.2279  0.1933  0.0588
  136OSM    C1S14666   4.487   1.383   3.302  0.1165 -0.1198 -0.4207
  136OSM    H1S14667   4.536   1.480   3.325 -0.8371  0.5868 -1.2969
  136OSM    H1T14668   4.563   1.302   3.293  0.7664  0.5370 -0.8713
  136OSM     NF14669   4.486   1.306   3.546  0.1679  0.5462 -0.1123
  136OSM    HNF14670   4.501   1.207   3.547 -3.3504 -0.1339 -0.0398
  136OSM    C2S14671   4.401   1.344   3.430 -0.3350 -0.2953 -0.2702
  136OSM    H2S14672   4.344   1.431   3.468  1.2441  1.0404 -0.8732
  136OSM    C3S14673   4.288   1.235   3.407 -0.0245 -0.1482  0.2552
  136OSM    H3S14674   4.323   1.140   3.363 -0.8270 -0.0091 -0.7275
  136OSM     O314675   4.190   1.279   3.315  0.2228  0.2066  0.8792
  136OSM    HO314676   4.230   1.353   3.269 -0.6152  0.2909  0.2394
  136OSM    C4S14677   4.206   1.207   3.528 -0.3342 -0.1471 -1.1548
  136OSM    H4S14678   4.167   1.294   3.583  2.8476  0.8570 -0.3225
  136OSM    C5S14679   4.183   1.095   3.589  0.9141  0.3252 -0.0965
  136OSM    H5S14680   4.228   1.002   3.549 -2.0404 -2.6749  2.8859
  136OSM    C6S14681   4.091   1.076   3.708  0.1033  0.8373  1.4141
  136OSM    H6S14682   4.014   1.003   3.678  0.9001  0.6128 -0.2447
  136OSM    H6T14683   4.039   1.170   3.738  0.1088  0.8424  1.4081
  136OSM    C7S14684   4.154   1.023   3.836  0.1247 -0.4063 -0.2660
  136OSM    H7S14685   4.206   0.928   3.809 -2.2417 -2.2447  1.2955
  136OSM    H7T14686   4.066   0.998   3.898  0.8201 -0.9124  0.5432
  136OSM    C8S14687   4.246   1.129   3.909  0.3044  0.2592  0.6810
  136OSM    H8S14688   4.177   1.210   3.943  0.5713 -0.0253  1.9587
  136OSM    H8T14689   4.314   1.177   3.835  0.6190  1.1462  1.5114
  136OSM    C9S14690   4.320   1.075   4.034 -0.1365 -0.1601  0.1511
  136OSM    H9S14691   4.376   1.156   4.085  0.7387 -1.2429  0.9863
  136OSM    H9T14692   4.382   0.988   4.002 -0.6367 -1.1675  1.8019
  136OSM   C10S14693   4.228   1.017   4.143 -0.9286 -0.1165  0.0782
  136OSM   H10S14694   4.194   0.922   4.097 -2.9558  0.5785  0.0181
  136OSM   H10T14695   4.145   1.081   4.181 -1.1700 -1.4948  2.0332
  136OSM   C11S14696   4.294   0.983   4.278  0.4933 -0.0324 -0.4101
  136OSM   H11S14697   4.353   1.070   4.316 -2.2456  0.8646  2.1915
  136OSM   H11T14698   4.355   0.892   4.260  1.2361  0.3231  0.2336
  136OSM   C12S14699   4.194   0.943   4.391 -0.4041  0.0961  0.7708
  136OSM   H12S14700   4.126   0.864   4.351 -2.5353  2.3102 -0.1986
  136OSM   H12T14701   4.149   1.033   4.437  1.0117  0.1938  2.0286
  136OSM   C13S14702   4.279   0.882   4.505 -0.5398  0.6334 -0.2769
  136OSM   H13S14703   4.358   0.948   4.544  0.4223 -0.2223 -0.7334
  136OSM   H13T14704   4.327   0.786   4.475 -2.6402 -1.2720  1.9480
  136OSM   C14S14705   4.192   0.848   4.632  0.0074 -0.5028  0.9014
  136OSM   H14S14706   4.122   0.770   4.596  0.3143  1.1502 -4.0831
  136OSM   H14T14707   4.141   0.940   4.669  1.1711  0.2916  0.5934
  136OSM   C15S14708   4.268   0.798   4.757 -0.3170 -0.4049  0.2627
  136OSM   H15S14709   4.345   0.875   4.782 -0.3144  0.7973 -2.9200
  136OSM   H15T14710   4.321   0.704   4.730  1.0675  0.1215  0.9938
  136OSM   C16S14711   4.174   0.752   4.870  0.4348 -0.5907  0.2580
  136OSM   H16S14712   4.109   0.665   4.846  0.3724 -0.4895  0.0573
  136OSM   H16T14713   4.101   0.833   4.888  1.4278  0.6261 -0.9490
  136OSM   C17S14714   4.251   0.712   4.998  0.1294 -1.0086  1.1007
  136OSM   H17S14715   4.298   0.808   5.028 -0.3030 -0.5502  0.3548
  136OSM   H17T14716   4.328   0.634   4.983 -0.1061 -1.3998  1.8769
  136OSM   C18S14717   4.152   0.668   5.113 -0.0257  0.4703  0.0484
  136OSM   H18S14718   4.212   0.637   5.201  0.6348  0.0550 -0.5461
  136OSM   H18T14719   4.088   0.587   5.072  0.1297 -0.3033  1.3009
  136OSM   H18U14720   4.080   0.751   5.130  0.6749  0.9677  0.5992
  136OSM    C1F14721   4.569   1.392   3.597 -0.4477  0.4734 -0.2559
  136OSM     OF14722   4.546   1.512   3.614 -1.0419  0.2194  0.3295
  136OSM    C2F14723   4.700   1.331   3.647 -0.1009 -0.6139  0.0274
  136OSM    H2F14724   4.794   1.380   3.613 -0.2398 -1.6089 -1.9656
  136OSM    H2G14725   4.707   1.234   3.593  1.1259  0.6621 -2.3040
  136OSM    C3F14726   4.704   1.313   3.805 -0.1238  0.4203  0.2082
  136OSM    H3F14727   4.614   1.264   3.849 -0.0561  1.4716  1.5806
  136OSM    H3G14728   4.711   1.418   3.841  1.9281  0.0572  0.9578
  136OSM    C4F14729   4.837   1.239   3.846 -0.4925 -0.6094 -0.4534
  136OSM    H4F14730   4.916   1.292   3.789 -2.1310  2.8143  0.2006
  136OSM    H4G14731   4.825   1.132   3.816 -0.9026 -0.6887 -0.0288
  136OSM    C5F14732   4.867   1.248   3.992  0.3776  0.6575  0.1528
  136OSM    H5F14733   4.888   1.353   4.022  0.3818  0.9669 -0.9031
  136OSM    H5G14734   4.961   1.191   4.006 -0.0128 -0.2978 -0.9057
  136OSM    C6F14735   4.760   1.187   4.083 -0.7064 -0.0778 -0.5333
  136OSM    H6F14736   4.731   1.086   4.047 -3.0307  0.1349  0.6046
  136OSM    H6G14737   4.671   1.254   4.085  1.3985  3.0591 -2.4007
  136OSM    C7F14738   4.813   1.167   4.226 -0.9165  0.0235  0.1046
  136OSM    H7F14739   4.912   1.117   4.221  0.1345  1.7949  1.9356
  136OSM    H7G14740   4.743   1.110   4.290 -1.2122  0.0363 -0.2004
  136OSM    C8F14741   4.812   1.302   4.301  0.1525 -0.4674  0.1566
  136OSM    H8F14742   4.706   1.330   4.313  0.0330 -1.7038  2.4442
  136OSM    H8G14743   4.856   1.378   4.232  0.2927 -0.0289  0.7243
  136OSM    C9F14744   4.872   1.324   4.436 -0.6351  0.2093 -0.0771
  136OSM    H9F14745   4.808   1.321   4.526  0.4949  1.0691  0.7913
  136OSM   C10F14746   5.002   1.349   4.469  0.2391  0.0556  0.1265
  136OSM   H10F14747   5.028   1.361   4.575 -1.4304  1.9925  0.3784
  136OSM   C11F14748   5.111   1.349   4.375 -0.1129  0.1441  0.1892
  136OSM   H11F14749   5.169   1.439   4.404 -1.2226  0.5122  1.3661
  136OSM   H11G14750   5.077   1.367   4.271 -0.3182  1.4126  0.4615
  136OSM   C12F14751   5.191   1.216   4.384  0.4262 -0.1824  0.1024
  136OSM   H12F14752   5.129   1.133   4.343  0.8271 -0.4675  0.0638
  136OSM   H12G14753   5.222   1.195   4.489  2.3561  0.0204 -0.3998
  136OSM   C13F14754   5.317   1.234   4.303  0.2441 -1.0529 -0.5280
  136OSM   H13F14755   5.389   1.155   4.335 -1.0745 -1.9674  0.2631
  136OSM   H13G14756   5.376   1.323   4.337 -2.1314  0.5742 -0.4456
  136OSM   C14F14757   5.302   1.235   4.147  0.6135 -0.0473  0.7660
  136OSM   H14F14758   5.213   1.172   4.125  0.3268  0.6836 -0.2302
  136OSM   H14G14759   5.399   1.195   4.111 -0.5681 -1.0831 -1.4860
  136OSM   C15F14760   5.281   1.373   4.081  0.2198  0.0767 -0.9822
  136OSM   H15F14761   5.347   1.450   4.126 -0.9526  0.0164  1.0036
  136OSM   H15G14762   5.176   1.400   4.108  0.9039 -0.2384  2.5184
  136OSM   C16F14763   5.299   1.384   3.931 -0.0026  0.0681  0.2753
  136OSM   H16F14764   5.409   1.373   3.916  0.0868  3.2755 -2.5469
  136OSM   H16G14765   5.281   1.486   3.890  0.1459 -0.2745 -0.6705
  136OSM   C17F14766   5.226   1.272   3.858  0.0193  0.5189 -0.2086
  136OSM   H17F14767   5.117   1.271   3.878 -0.0054 -0.7050 -0.2897
  136OSM   H17G14768   5.277   1.179   3.891  1.0191  0.6355 -1.3463
  136OSM   C18F14769   5.244   1.288   3.707 -0.0296  0.3820  0.1722
  136OSM   H18F14770   5.210   1.203   3.643 -1.8333  2.2063 -1.4462
  136OSM   H18G14771   5.345   1.331   3.694 -0.4250  2.1183  2.3555
  136OSM   H18H14772   5.177   1.373   3.683  0.9077  1.9101  2.6093
  137OSM      N14773   0.586   6.377   2.794 -0.1379 -0.1174  0.1701
  137OSM    C1514774   0.438   6.401   2.843  0.1933  1.1174 -0.0639
  137OSM   H15A14775   0.425   6.345   2.934  1.5329  0.7381 -0.0844
  137OSM   H15B14776   0.366   6.361   2.773  0.1554  3.2548 -1.3420
  137OSM   H15C14777   0.422   6.507   2.858  4.8277  1.9036  0.8358
  137OSM    C1414778   0.616   6.232   2.775 -0.0923 -0.2901  0.0468
  137OSM   H14A14779   0.550   6.187   2.702 -0.5864  1.0225 -0.3485
  137OSM   H14B14780   0.608   6.187   2.873 -0.6229 -1.9449 -0.7245
  137OSM   H14C14781   0.717   6.218   2.739 -0.3959  0.4640 -1.1457
  137OSM    C1314782   0.592   6.448   2.666 -0.3957  0.3985  0.4163
  137OSM   H13A14783   0.573   6.554   2.676 -0.7546  0.4994 -1.1420
  137OSM   H13B14784   0.530   6.407   2.588  2.5094  0.1048 -1.9167
  137OSM   H13C14785   0.691   6.432   2.625 -0.1932  1.4104  0.4699
  137OSM    C1214786   0.683   6.436   2.888  0.2862 -0.5089  0.0035
  137OSM   H12A14787   0.654   6.540   2.891  1.1962 -0.2602  0.6905
  137OSM   H12B14788   0.781   6.445   2.842  1.1090  0.5565  1.8281
  137OSM    C1114789   0.697   6.393   3.038 -0.1264 -0.3609 -0.2822
  137OSM   H11A14790   0.596   6.401   3.084  0.8164 -0.3595  1.8920
  137OSM   H11B14791   0.753   6.465   3.101 -0.0410 -0.2004 -0.5409
  137OSM      P14792   0.874   6.203   3.044  0.2775 -0.0066 -0.1914
  137OSM    O1314793   0.857   6.051   3.044  0.1893  0.0769  0.0318
  137OSM    O1414794   0.941   6.276   2.929 -0.2427  0.3676  0.2061
  137OSM    O1114795   0.938   6.241   3.185 -0.2718 -0.6136  0.9394
  137OSM    O1214796   0.727   6.252   3.054 -1.0164 -0.5879 -0.0469
  137OSM    C1S14797   0.873   6.183   3.294 -0.0844 -0.1685 -0.8521
  137OSM    H1S14798   0.799   6.100   3.283  1.8844 -2.7129  2.9020
  137OSM    H1T14799   0.813   6.258   3.351 -0.1907 -2.3627  2.1824
  137OSM     NF14800   0.897   6.061   3.522  0.2405  0.2074 -0.7759
  137OSM    HNF14801   0.925   6.103   3.608  1.0592 -3.6874  1.0469
  137OSM    C2S14802   0.968   6.128   3.407  0.2772  0.7197 -0.3934
  137OSM    H2S14803   1.018   6.038   3.366 -0.6629 -0.7416  1.4886
  137OSM    C3S14804   1.087   6.225   3.445  0.9562 -0.2793 -0.1483
  137OSM    H3S14805   1.043   6.309   3.501  1.8536 -1.2209  2.0635
  137OSM     O314806   1.160   6.287   3.335  0.2135  0.2604 -0.3714
  137OSM    HO314807   1.112   6.257   3.257  0.1654 -1.2114  0.1786
  137OSM    C4S14808   1.183   6.145   3.532 -0.3138 -0.0379 -0.1292
  137OSM    H4S14809   1.183   6.170   3.639 -1.6501  0.4728 -0.2301
  137OSM    C5S14810   1.274   6.052   3.493  0.1065 -0.0140 -0.2353
  137OSM    H5S14811   1.282   6.040   3.384 -0.3891  0.2659 -0.3029
  137OSM    C6S14812   1.355   5.958   3.586 -0.2420  0.5307  0.3532
  137OSM    H6S14813   1.465   5.967   3.580 -0.2914  0.3110 -1.3600
  137OSM    H6T14814   1.336   5.853   3.555 -0.9217  0.7024  0.1586
  137OSM    C7S14815   1.318   5.971   3.738  0.0781 -0.2512 -0.0982
  137OSM    H7S14816   1.210   5.946   3.740 -0.4137  1.7840  1.0344
  137OSM    H7T14817   1.334   6.076   3.772 -1.2412 -0.4547  1.2335
  137OSM    C8S14818   1.388   5.856   3.816  0.3249 -0.2774 -0.1200
  137OSM    H8S14819   1.498   5.874   3.811 -0.0181  2.1912  0.0074
  137OSM    H8T14820   1.371   5.760   3.761  1.1165 -0.2010 -0.5150
  137OSM    C9S14821   1.332   5.839   3.953  0.5419 -0.0093 -0.4534
  137OSM    H9S14822   1.221   5.834   3.955  0.5532 -0.6410 -0.9876
  137OSM    H9T14823   1.355   5.934   4.007 -0.4657 -0.7219  1.3223
  137OSM   C10S14824   1.404   5.745   4.047  0.7410 -0.3090  0.5510
  137OSM   H10S14825   1.511   5.775   4.051  0.6189  0.1063  0.8232
  137OSM   H10T14826   1.407   5.641   4.011  1.1162  0.4229 -1.6715
  137OSM   C11S14827   1.345   5.747   4.191  0.9504  0.3101 -0.0461
  137OSM   H11S14828   1.244   5.704   4.175  0.5812  1.6361 -1.5899
  137OSM   H11T14829   1.317   5.851   4.219 -2.0949 -0.4776  0.1854
  137OSM   C12S14830   1.421   5.676   4.300  0.1292  0.0668 -0.6443
  137OSM   H12S14831   1.529   5.688   4.277  0.3949  0.5562  0.7110
  137OSM   H12T14832   1.406   5.567   4.295 -0.0629  0.0128  0.7197
  137OSM   C13S14833   1.399   5.719   4.444 -0.5605  0.5698 -0.7706
  137OSM   H13S14834   1.288   5.715   4.456 -0.5102  1.7675  0.2124
  137OSM   H13T14835   1.428   5.823   4.467 -0.4461  0.6233 -1.1409
  137OSM   C14S14836   1.462   5.623   4.548  0.3587 -0.6310  0.2082
  137OSM   H14S14837   1.572   5.614   4.542  0.5487  1.6706 -0.9769
  137OSM   H14T14838   1.409   5.526   4.533 -1.6625  0.3603  0.5503
  137OSM   C15S14839   1.412   5.671   4.685 -0.1140 -0.7207 -0.0327
  137OSM   H15S14840   1.301   5.671   4.683 -0.1129 -0.9093 -1.1102
  137OSM   H15T14841   1.447   5.773   4.712 -1.4174  0.1414 -1.4128
  137OSM   C16S14842   1.453   5.567   4.797  0.4540  0.8998 -0.1693
  137OSM   H16S14843   1.562   5.584   4.815  0.7712 -0.2891 -0.8527
  137OSM   H16T14844   1.446   5.465   4.754 -2.1326  0.5595  0.8777
  137OSM   C17S14845   1.382   5.561   4.929  0.6722 -0.1363  0.7007
  137OSM   H17S14846   1.343   5.663   4.950 -1.7749 -0.2401 -2.6261
  137OSM   H17T14847   1.458   5.533   5.005  0.7242 -0.0594  0.6772
  137OSM   C18S14848   1.264   5.465   4.941  0.1108 -0.3082  0.3519
  137OSM   H18S14849   1.301   5.361   4.931  3.9396  1.1243 -2.6122
  137OSM   H18T14850   1.180   5.490   4.873  0.9313 -0.0826 -0.6012
  137OSM   H18U14851   1.219   5.467   5.043 -2.6063 -4.4931 -0.5558
  137OSM    C1F14852   0.816   5.951   3.522 -0.3293 -0.0902 -0.2703
  137OSM     OF14853   0.778   5.894   3.425  0.3523  0.3914 -0.3432
  137OSM    C2F14854   0.772   5.905   3.661 -0.2484 -0.5202  0.6449
  137OSM    H2F14855   0.849   5.940   3.733 -2.0107  1.1982  1.8152
  137OSM    H2G14856   0.770   5.794   3.656 -1.0946 -0.4724 -1.3439
  137OSM    C3F14857   0.643   5.964   3.707 -0.2627 -0.6091 -1.3591
  137OSM    H3F14858   0.573   5.954   3.621 -1.2754  0.5556 -0.7017
  137OSM    H3G14859   0.647   6.075   3.708 -0.1763 -0.5989  0.3424
  137OSM    C4F14860   0.591   5.915   3.848  1.0084  0.0834  0.3925
  137OSM    H4F14861   0.599   5.804   3.851 -0.6232 -0.0333  1.0904
  137OSM    H4G14862   0.487   5.946   3.869  1.7351  1.7127  1.9247
  137OSM    C5F14863   0.658   5.977   3.963 -0.2970  0.1239 -0.6633
  137OSM    H5F14864   0.668   6.087   3.951  1.9149 -0.1755 -2.2642
  137OSM    H5G14865   0.765   5.945   3.965  0.5494  2.5250 -2.2193
  137OSM    C6F14866   0.597   5.937   4.099 -0.2100  1.2191  0.3024
  137OSM    H6F14867   0.587   5.826   4.094 -0.5701  1.3047 -1.5410
  137OSM    H6G14868   0.496   5.981   4.096 -0.9956 -0.4013  1.2751
  137OSM    C7F14869   0.682   5.974   4.224  0.5253 -0.6633 -0.0109
  137OSM    H7F14870   0.700   6.084   4.219  1.0383 -0.7663 -0.4467
  137OSM    H7G14871   0.790   5.951   4.217  0.1912 -2.3829  0.0393
  137OSM    C8F14872   0.628   5.930   4.359 -0.1415 -0.2957  0.6165
  137OSM    H8F14873   0.709   5.967   4.425  0.0977  0.1369  0.0857
  137OSM    H8G14874   0.634   5.819   4.346  1.0106 -0.0826 -0.8622
  137OSM    C9F14875   0.493   5.978   4.383  0.1927  0.3748 -1.0864
  137OSM    H9F14876   0.413   5.923   4.332 -0.8738  1.1304 -0.2855
  137OSM   C10F14877   0.459   6.071   4.472 -0.4355 -0.0167 -0.3959
  137OSM   H10F14878   0.354   6.105   4.477 -0.3343  0.2201  0.2772
  137OSM   C11F14879   0.546   6.156   4.564  0.0037 -0.8217 -0.4590
  137OSM   H11F14880   0.530   6.265   4.551 -0.0583 -0.7428  0.2361
  137OSM   H11G14881   0.652   6.128   4.547  0.5321 -0.3650  1.8330
  137OSM   C12F14882   0.504   6.122   4.708  0.4159  0.0062  0.3827
  137OSM   H12F14883   0.518   6.014   4.731  0.1486 -1.0813 -3.7255
  137OSM   H12G14884   0.397   6.151   4.715  0.2961  0.3496 -2.0182
  137OSM   C13F14885   0.595   6.203   4.796  0.6336  0.3628  0.0858
  137OSM   H13F14886   0.615   6.296   4.738  2.2216 -0.2921 -0.4465
  137OSM   H13G14887   0.695   6.156   4.799  0.1759 -0.6237  0.0768
  137OSM   C14F14888   0.541   6.230   4.931 -0.3262 -0.6757  0.2229
  137OSM   H14F14889   0.548   6.134   4.986 -0.4975  0.7841  2.9677
  137OSM   H14G14890   0.435   6.263   4.932 -0.2672 -0.4810  0.0680
  137OSM   C15F14891   0.628   6.330   5.016  0.4307  0.1353 -0.4621
  137OSM   H15F14892   0.654   6.413   4.946  2.7868  0.7789  1.0640
  137OSM   H15G14893   0.720   6.281   5.053 -0.2383  0.0708  1.1742
  137OSM   C16F14894   0.545   6.383   5.133 -0.4782  0.4133  0.1108
  137OSM   H16F14895   0.609   6.453   5.190 -0.0428 -0.1410  0.3085
  137OSM   H16G14896   0.516   6.295   5.194 -0.9365  1.0946  0.8883
  137OSM   C17F14897   0.427   6.461   5.099  0.1306 -0.5792  0.3818
  137OSM   H17F14898   0.367   6.427   5.012  0.9029 -2.1440  0.4304
  137OSM   H17G14899   0.464   6.560   5.065 -1.2554  0.2855  1.3115
  137OSM   C18F14900   0.336   6.478   5.223 -0.1948  0.2876  0.1668
  137OSM   H18F14901   0.398   6.535   5.296  0.6781  2.1889 -1.8947
  137OSM   H18G14902   0.281   6.385   5.248  0.8324 -0.7215 -1.1521
  137OSM   H18H14903   0.257   6.551   5.195 -3.2264 -4.2937 -5.0399
  138OSM      N14904   0.619   1.731   2.570  0.3348 -0.2087  0.5891
  138OSM    C1514905   0.508   1.806   2.494 -0.0118  0.3679 -0.1989
  138OSM   H15A14906   0.543   1.900   2.454  0.9703 -0.7205 -2.0514
  138OSM   H15B14907   0.427   1.834   2.560  0.2546  0.2241  0.1896
  138OSM   H15C14908   0.471   1.743   2.414  3.0571 -1.9633  0.0538
  138OSM    C1414909   0.559   1.612   2.634 -0.9359 -0.3408  0.6212
  138OSM   H14A14910   0.513   1.640   2.728  0.4199  0.7337  0.9894
  138OSM   H14B14911   0.631   1.533   2.649 -2.4142 -1.8848 -0.0464
  138OSM   H14C14912   0.493   1.576   2.556  0.0794 -0.8428 -0.0258
  138OSM    C1314913   0.727   1.695   2.478  0.5628  0.3204  0.7109
  138OSM   H13A14914   0.746   1.784   2.420  1.4132 -1.0373 -1.1807
  138OSM   H13B14915   0.702   1.617   2.408  1.8242  0.2338  0.3203
  138OSM   H13C14916   0.820   1.668   2.526 -1.1148 -1.8191  3.0381
  138OSM    C1214917   0.674   1.834   2.674 -0.1998 -0.0228 -0.6324
  138OSM   H12A14918   0.589   1.879   2.723  1.3014  1.3452  0.8534
  138OSM   H12B14919   0.717   1.919   2.623  1.6469  0.7280  1.9744
  138OSM    C1114920   0.792   1.798   2.768 -0.0117  0.7790 -0.2458
  138OSM   H11A14921   0.756   1.709   2.823 -2.2523  0.9400 -1.3213
  138OSM   H11B14922   0.799   1.888   2.832 -1.3929  0.5090  0.3230
  138OSM      P14923   1.041   1.846   2.728 -0.1084  0.1512  0.5667
  138OSM    O1314924   1.148   1.765   2.672 -0.0801 -0.4888 -0.2003
  138OSM    O1414925   1.024   1.980   2.674  0.2162 -0.1691  0.2344
  138OSM    O1114926   1.042   1.846   2.887  0.0022  0.6503 -0.5476
  138OSM    O1214927   0.914   1.768   2.698 -0.3459  0.5223 -0.0226
  138OSM    C1S14928   1.061   1.719   2.959  1.0948  0.2674  0.6597
  138OSM    H1S14929   1.135   1.649   2.915  1.2988  0.6020  0.4595
  138OSM    H1T14930   0.966   1.663   2.953  0.9847  0.5824 -1.1150
  138OSM     NF14931   1.117   1.620   3.158 -0.0447  0.0083  0.1568
  138OSM    HNF14932   1.056   1.580   3.226  0.5764 -1.4239 -0.0808
  138OSM    C2S14933   1.089   1.751   3.106 -0.0528 -0.0911 -0.6940
  138OSM    H2S14934   1.177   1.819   3.112 -0.3382  0.3683 -1.5366
  138OSM    C3S14935   0.974   1.829   3.174 -0.1671  0.5554 -0.2065
  138OSM    H3S14936   0.886   1.780   3.127  1.0717 -0.3736 -1.6660
  138OSM     O314937   0.944   1.958   3.126  0.4715 -0.2093  0.2236
  138OSM    HO314938   0.999   1.977   3.049  0.6131  1.8565  0.7671
  138OSM    C4S14939   0.981   1.829   3.320 -0.2127 -0.3148 -0.7426
  138OSM    H4S14940   1.053   1.898   3.367 -3.0725  1.3909  1.4159
  138OSM    C5S14941   0.882   1.793   3.407  0.3024  0.1260  0.8301
  138OSM    H5S14942   0.787   1.760   3.363  0.2463 -0.1293  1.1419
  138OSM    C6S14943   0.887   1.828   3.549  0.3017 -1.0418 -0.7760
  138OSM    H6S14944   0.958   1.909   3.574 -2.4554  0.8627  1.7197
  138OSM    H6T14945   0.932   1.742   3.603  0.9689  0.7526  1.6987
  138OSM    C7S14946   0.747   1.849   3.617  0.7122 -0.8212 -0.2715
  138OSM    H7S14947   0.683   1.763   3.587 -0.6235  0.1242 -0.2318
  138OSM    H7T14948   0.689   1.937   3.583 -0.3259 -1.4411 -0.1468
  138OSM    C8S14949   0.750   1.855   3.775  0.4708  0.1504  0.2023
  138OSM    H8S14950   0.795   1.763   3.818  1.8244  0.7130  0.0340
  138OSM    H8T14951   0.644   1.859   3.809  0.2700  2.2983 -0.5073
  138OSM    C9S14952   0.828   1.982   3.826  0.2931 -0.1456  0.4727
  138OSM    H9S14953   0.783   2.073   3.782  1.8935  0.5698  0.2488
  138OSM    H9T14954   0.934   1.976   3.794  0.5011 -4.1952  1.2976
  138OSM   C10S14955   0.824   1.979   3.976 -0.4463  0.2752  0.0882
  138OSM   H10S14956   0.871   1.884   4.008 -1.6159 -0.4019 -0.1825
  138OSM   H10T14957   0.718   1.977   4.007  0.3366  2.1870  3.4491
  138OSM   C11S14958   0.892   2.095   4.046 -0.1301  0.0640 -0.2866
  138OSM   H11S14959   0.848   2.183   3.995  2.0544  1.3225 -0.1473
  138OSM   H11T14960   1.000   2.102   4.020 -0.4405  1.5960 -1.2541
  138OSM   C12S14961   0.859   2.096   4.195  0.3017  0.5289 -0.1564
  138OSM   H12S14962   0.750   2.079   4.206  0.3057  0.0851 -0.7480
  138OSM   H12T14963   0.884   2.195   4.239  2.0565 -0.1205  0.4265
  138OSM   C13S14964   0.937   1.982   4.266  0.4015  0.2168  0.0443
  138OSM   H13S14965   1.039   1.977   4.223 -0.4488  1.5198 -2.2783
  138OSM   H13T14966   0.882   1.886   4.272  1.8642 -0.5649  2.2775
  138OSM   C14S14967   0.970   2.013   4.420 -0.3175 -0.5567 -0.0196
  138OSM   H14S14968   1.026   2.108   4.432  0.8166 -1.2834  0.5555
  138OSM   H14T14969   1.039   1.935   4.458  0.9521 -0.1681 -1.4489
  138OSM   C15S14970   0.850   2.002   4.514 -0.4744 -0.3361 -0.0883
  138OSM   H15S14971   0.832   1.893   4.506  2.9210 -1.0333  0.3475
  138OSM   H15T14972   0.756   2.039   4.468 -0.1730  0.1716 -0.3124
  138OSM   C16S14973   0.862   2.062   4.655  0.4029  0.1568  0.5223
  138OSM   H16S14974   0.759   2.067   4.698  0.7344 -0.2455  1.3654
  138OSM   H16T14975   0.907   2.164   4.653  2.3435 -0.6593  0.5599
  138OSM   C17S14976   0.935   1.972   4.744 -0.0214  0.3117  0.1881
  138OSM   H17S14977   1.035   1.964   4.698 -0.2738 -0.9766 -0.1852
  138OSM   H17T14978   0.893   1.869   4.749  0.3801  0.1318 -0.1010
  138OSM   C18S14979   0.951   2.021   4.884 -0.0077 -0.0971 -0.4708
  138OSM   H18S14980   0.855   2.044   4.936  0.9655  2.6923  0.3105
  138OSM   H18T14981   1.004   2.119   4.880 -0.3848  0.2009  1.1009
  138OSM   H18U14982   1.013   1.956   4.949  0.0658  0.5705  0.1433
  138OSM    C1F14983   1.234   1.559   3.135 -0.0119 -0.0997 -0.5394
  138OSM     OF14984   1.329   1.621   3.081  0.0187  0.2760 -0.8043
  138OSM    C2F14985   1.251   1.418   3.184  0.5152  0.5018 -0.4540
  138OSM    H2F14986   1.291   1.357   3.100 -0.8642 -1.3273  0.1613
  138OSM    H2G14987   1.149   1.386   3.211  1.0303 -0.7328  0.1027
  138OSM    C3F14988   1.346   1.409   3.307 -0.0161  0.1868  0.2140
  138OSM    H3F14989   1.450   1.414   3.270  0.1371 -1.8220  0.2537
  138OSM    H3G14990   1.347   1.305   3.347 -0.9590  0.0933  0.0350
  138OSM    C4F14991   1.326   1.505   3.419  0.4083 -0.1234 -0.8258
  138OSM    H4F14992   1.318   1.611   3.387 -1.3844  0.5407  1.5498
  138OSM    H4G14993   1.418   1.503   3.481 -0.0216  0.8589 -0.1262
  138OSM    C5F14994   1.211   1.475   3.522  0.8129 -0.1696  0.1295
  138OSM    H5F14995   1.208   1.371   3.561  1.7806 -0.0919  0.4415
  138OSM    H5G14996   1.113   1.488   3.473  1.0463  0.9318 -0.0820
  138OSM    C6F14997   1.219   1.563   3.652 -0.4679  0.6634 -0.1075
  138OSM    H6F14998   1.219   1.670   3.623  2.1011  0.3016 -1.7578
  138OSM    H6G14999   1.315   1.555   3.706  0.4414  2.6665 -1.3264
  138OSM    C7F15000   1.097   1.542   3.747  0.1128  0.0004 -0.1674
  138OSM    H7F15001   1.103   1.437   3.782 -2.6710 -0.5306 -1.0679
  138OSM    H7G15002   1.001   1.559   3.694  0.7751  0.4040 -1.2783
  138OSM    C8F15003   1.102   1.644   3.871 -0.0134 -0.4111 -0.3557
  138OSM    H8F15004   1.092   1.745   3.826 -0.3903 -1.2345 -2.2119
  138OSM    H8G15005   1.203   1.644   3.918  1.3364  0.3924 -3.0360
  138OSM    C9F15006   0.994   1.611   3.972  0.1044  0.1605 -0.8468
  138OSM    H9F15007   0.901   1.565   3.935  0.1316 -0.1528 -0.5353
  138OSM   C10F15008   1.017   1.598   4.107 -0.4670  0.3967 -0.0526
  138OSM   H10F15009   0.946   1.550   4.177  1.5111 -1.2172  0.9473
  138OSM   C11F15010   1.144   1.651   4.180  0.3126 -0.6624  0.8508
  138OSM   H11F15011   1.140   1.759   4.208 -0.2410 -0.9750  2.0535
  138OSM   H11G15012   1.232   1.631   4.115  1.5609  0.4826  2.1218
  138OSM   C12F15013   1.166   1.581   4.315  0.0829 -0.0568  0.0862
  138OSM   H12F15014   1.177   1.471   4.300 -0.4013  0.0700 -1.3813
  138OSM   H12G15015   1.080   1.593   4.384  2.0437  1.0191  2.4865
  138OSM   C13F15016   1.295   1.630   4.386  0.0849 -0.3140 -0.1664
  138OSM   H13F15017   1.290   1.738   4.362  2.4373 -0.4357 -1.4235
  138OSM   H13G15018   1.386   1.592   4.336 -1.5145 -1.4869 -2.3666
  138OSM   C14F15019   1.279   1.610   4.534 -0.1687 -0.1181  0.4058
  138OSM   H14F15020   1.381   1.621   4.576  1.0066  0.1715 -2.3476
  138OSM   H14G15021   1.236   1.509   4.551  0.7538 -1.4692 -4.1652
  138OSM   C15F15022   1.190   1.720   4.600 -0.1343  0.3225 -0.2670
  138OSM   H15F15023   1.106   1.728   4.528 -1.2756  1.5019  1.1370
  138OSM   H15G15024   1.248   1.814   4.605 -1.1562  0.9558 -0.0635
  138OSM   C16F15025   1.148   1.674   4.741 -0.2386 -0.3036 -0.2962
  138OSM   H16F15026   1.139   1.763   4.806  3.2579  0.1216 -0.2374
  138OSM   H16G15027   1.232   1.611   4.777  0.3001  1.2875  1.3864
  138OSM   C17F15028   1.012   1.594   4.743 -0.0900 -0.3300 -0.1368
  138OSM   H17F15029   1.042   1.493   4.708  1.3001  0.1062 -0.2455
  138OSM   H17G15030   0.935   1.641   4.678 -1.3970  0.9445  2.2095
  138OSM   C18F15031   0.956   1.580   4.888  0.0261  0.4588  0.2301
  138OSM   H18F15032   0.862   1.521   4.887  0.7142 -0.6574 -0.0529
  138OSM   H18G15033   0.929   1.680   4.928 -1.4567 -0.2886  1.2157
  138OSM   H18H15034   1.029   1.524   4.950  2.8452  2.9567 -0.6610
  139OSM      N15035   1.967   0.074   2.894  0.3501 -0.2521  0.1245
  139OSM    C1515036   1.829   0.094   2.834 -0.0976  0.0053 -0.6310
  139OSM   H15A15037   1.825   0.193   2.793  1.7867  1.4291  2.2734
  139OSM   H15B15038   1.757   0.080   2.913 -0.3525  1.8504 -0.5045
  139OSM   H15C15039   1.804   0.020   2.759 -2.4125  1.3227 -1.2482
  139OSM    C1415040   2.064   0.124   2.793  0.2369 -0.2195  0.0180
  139OSM   H14A15041   2.061   0.232   2.789  0.4401 -0.1859  0.6685
  139OSM   H14B15042   2.037   0.076   2.700 -1.5726 -0.0287  0.4085
  139OSM   H14C15043   2.165   0.094   2.814  0.6700  1.3658  0.2938
  139OSM    C1315044   1.969   0.159   3.015 -0.2785  0.2500  0.1685
  139OSM   H13A15045   2.066   0.157   3.063 -0.7201  0.8964  1.1304
  139OSM   H13B15046   1.904   0.119   3.091  0.9404 -1.6231  0.2933
  139OSM   H13C15047   1.949   0.262   2.989  1.2429  0.3615 -0.7276
  139OSM    C1215048   1.986  -0.073   2.927 -0.2127 -0.1718 -0.0898
  139OSM   H12A15049   1.995  -0.125   2.833 -1.5664  0.2160 -0.4477
  139OSM   H12B15050   1.908  -0.112   2.991  1.6172 -3.1018  0.5411
  139OSM    C1115051   2.112  -0.112   3.011  0.3050 -0.5759  0.4287
  139OSM   H11A15052   2.112  -0.219   3.038  0.0503 -1.4251 -2.5458
  139OSM   H11B15053   2.098  -0.062   3.109  0.9860 -1.5175  1.0213
  139OSM      P15054   2.346  -0.007   3.019  0.1500  0.1550 -0.0795
  139OSM    O1315055   2.452  -0.007   2.920 -0.5763 -0.0631  0.4348
  139OSM    O1415056   2.307   0.118   3.088  0.3512 -0.2217  0.1136
  139OSM    O1115057   2.386  -0.111   3.123  0.1167  0.3557  0.0022
  139OSM    O1215058   2.226  -0.074   2.948  0.6721 -0.1004  0.3097
  139OSM    C1S15059   2.418  -0.247   3.094 -0.0357  0.0860 -0.6305
  139OSM    H1S15060   2.481  -0.270   3.006 -1.1841 -1.4739 -1.0737
  139OSM    H1T15061   2.329  -0.310   3.076  0.3624 -0.7197  0.1148
  139OSM     NF15062   2.527  -0.428   3.214 -0.3060 -0.2646  0.3447
  139OSM    HNF15063   2.473  -0.497   3.263 -1.0889  0.7616  0.9822
  139OSM    C2S15064   2.488  -0.292   3.226 -0.3458  0.5870  0.6654
  139OSM    H2S15065   2.582  -0.233   3.221  0.4131 -0.7047 -1.9051
  139OSM    C3S15066   2.406  -0.268   3.360  0.0947  0.5015 -0.4482
  139OSM    H3S15067   2.310  -0.324   3.364 -0.5799  1.6608  0.1423
  139OSM     O315068   2.372  -0.131   3.389  0.8419  0.5604  0.0955
  139OSM    HO315069   2.393  -0.084   3.308  2.1166  1.0485  0.6965
  139OSM    C4S15070   2.496  -0.329   3.472 -0.1485  0.3018  0.9633
  139OSM    H4S15071   2.554  -0.242   3.506 -3.9142  3.3618  0.2486
  139OSM    C5S15072   2.486  -0.443   3.539  0.1027  0.2299  0.2302
  139OSM    H5S15073   2.405  -0.513   3.514  2.3074 -2.1744 -0.6657
  139OSM    C6S15074   2.572  -0.489   3.655  0.1490  0.2277 -0.1308
  139OSM    H6S15075   2.665  -0.428   3.657  0.6957 -0.5954  0.1856
  139OSM    H6T15076   2.608  -0.589   3.624 -1.7860  0.0207 -1.9056
  139OSM    C7S15077   2.500  -0.505   3.789  0.6513 -0.0643 -0.6260
  139OSM    H7S15078   2.448  -0.603   3.794  0.1258  0.1988 -0.8612
  139OSM    H7T15079   2.416  -0.432   3.798  0.6553 -0.3132  2.0534
  139OSM    C8S15080   2.592  -0.497   3.907  0.5749 -0.5852  0.1070
  139OSM    H8S15081   2.609  -0.387   3.908 -0.4279 -0.3811  2.7052
  139OSM    H8T15082   2.688  -0.550   3.893  1.0242  0.6375 -1.9584
  139OSM    C9S15083   2.527  -0.540   4.039  0.2918 -0.3892  0.1180
  139OSM    H9S15084   2.490  -0.644   4.033  1.3516 -0.7328 -0.9612
  139OSM    H9T15085   2.436  -0.478   4.048  0.1383 -0.4319 -1.0313
  139OSM   C10S15086   2.605  -0.531   4.170 -0.7153  0.3681 -0.3373
  139OSM   H10S15087   2.597  -0.422   4.191 -1.1125  0.7723 -2.4293
  139OSM   H10T15088   2.710  -0.555   4.144  0.7142  3.9410  1.3067
  139OSM   C11S15089   2.552  -0.620   4.283 -0.0358 -0.7207 -0.4829
  139OSM   H11S15090   2.541  -0.727   4.255  0.8497 -1.4410  1.7273
  139OSM   H11T15091   2.449  -0.591   4.309  0.9004  1.2517  1.2962
  139OSM   C12S15092   2.636  -0.603   4.416 -0.0944  0.3098 -0.6349
  139OSM   H12S15093   2.609  -0.503   4.457 -1.3840 -0.6200  0.9112
  139OSM   H12T15094   2.746  -0.614   4.405  0.0009 -0.4462  0.8178
  139OSM   C13S15095   2.586  -0.714   4.521 -0.5254 -0.1435 -0.2563
  139OSM   H13S15096   2.661  -0.795   4.510  0.7426  0.8500  0.7215
  139OSM   H13T15097   2.497  -0.771   4.489  2.8017 -5.3085 -1.4610
  139OSM   C14S15098   2.576  -0.656   4.665  0.3373 -0.1365  0.5736
  139OSM   H14S15099   2.502  -0.574   4.659 -1.5513 -1.8009 -0.0895
  139OSM   H14T15100   2.668  -0.602   4.697  0.7846 -0.4534 -0.1380
  139OSM   C15S15101   2.551  -0.759   4.775 -0.2616  0.6303 -0.1416
  139OSM   H15S15102   2.631  -0.834   4.760  1.2079  2.0507  0.3141
  139OSM   H15T15103   2.454  -0.811   4.760  1.1100 -1.8132 -1.1173
  139OSM   C16S15104   2.576  -0.707   4.917 -0.2708 -0.0227  0.5584
  139OSM   H16S15105   2.482  -0.651   4.936  0.5247  1.4759  0.2213
  139OSM   H16T15106   2.659  -0.632   4.920  1.0809 -1.4504  0.2394
  139OSM   C17S15107   2.583  -0.813   5.032  0.4137  0.1671  0.0464
  139OSM   H17S15108   2.680  -0.868   5.035 -0.3811 -1.2713  1.3169
  139OSM   H17T15109   2.504  -0.887   5.004  0.1531 -0.7438  2.8065
  139OSM   C18S15110   2.555  -0.761   5.169  0.1345  0.4368  0.6924
  139OSM   H18S15111   2.649  -0.740   5.224  0.3688  0.6491  0.2078
  139OSM   H18T15112   2.506  -0.844   5.224  0.5611  0.8181  1.6785
  139OSM   H18U15113   2.501  -0.663   5.171  0.6961  0.7681 -0.0824
  139OSM    C1F15114   2.621  -0.473   3.127  0.0326  0.1149 -0.7942
  139OSM     OF15115   2.708  -0.399   3.083 -0.5537  0.0374 -0.3698
  139OSM    C2F15116   2.598  -0.615   3.092  0.4575  0.6520 -0.1720
  139OSM    H2F15117   2.567  -0.613   2.986 -1.5298  1.0087  0.3889
  139OSM    H2G15118   2.513  -0.668   3.140 -0.5865 -3.0129 -5.3147
  139OSM    C3F15119   2.731  -0.697   3.109 -0.7329 -0.1845 -0.3522
  139OSM    H3F15120   2.817  -0.656   3.052  0.4033 -1.0543  0.7041
  139OSM    H3G15121   2.706  -0.804   3.094 -0.4956 -0.1707 -0.8400
  139OSM    C4F15122   2.781  -0.704   3.263  0.8968  0.5624  0.5782
  139OSM    H4F15123   2.687  -0.733   3.314  0.5922  1.6686  0.6753
  139OSM    H4G15124   2.800  -0.599   3.295  0.3683  0.5646  0.8951
  139OSM    C5F15125   2.893  -0.805   3.288  0.2962  0.2871 -0.0879
  139OSM    H5F15126   2.991  -0.756   3.273  0.0724 -0.0953 -3.6439
  139OSM    H5G15127   2.873  -0.882   3.210 -0.1171 -0.8388  1.0927
  139OSM    C6F15128   2.891  -0.879   3.421  0.7968 -0.0818  0.9271
  139OSM    H6F15129   2.990  -0.926   3.441  0.4622 -2.1482 -1.6409
  139OSM    H6G15130   2.812  -0.957   3.417  0.2178  0.4219  2.0627
  139OSM    C7F15131   2.857  -0.795   3.545 -0.4884 -0.1089 -0.0131
  139OSM    H7F15132   2.755  -0.754   3.525 -0.7418  1.5248  3.7963
  139OSM    H7G15133   2.933  -0.714   3.541  1.2014 -1.6105  0.2742
  139OSM    C8F15134   2.865  -0.864   3.677  0.5175 -0.3349  0.5739
  139OSM    H8F15135   2.970  -0.873   3.710  0.2624 -1.1490  1.1840
  139OSM    H8G15136   2.831  -0.969   3.672  1.7002 -0.6715 -1.5615
  139OSM    C9F15137   2.778  -0.797   3.786  0.4212 -0.5655 -0.0372
  139OSM    H9F15138   2.698  -0.739   3.737  0.7596 -0.2663 -0.2438
  139OSM   C10F15139   2.789  -0.802   3.921 -0.8355  0.0209  0.4167
  139OSM   H10F15140   2.739  -0.724   3.981 -1.0189  0.7489 -0.6625
  139OSM   C11F15141   2.902  -0.882   3.990  0.2760  0.0673 -0.5327
  139OSM   H11F15142   2.967  -0.808   4.043 -0.7389  0.3925  0.3138
  139OSM   H11G15143   2.969  -0.932   3.918  0.4623  1.3488 -1.2756
  139OSM   C12F15144   2.868  -0.978   4.114  0.1382 -0.5504  0.8042
  139OSM   H12F15145   2.958  -1.042   4.114 -0.4337 -1.4331 -1.2886
  139OSM   H12G15146   2.787  -1.048   4.085 -0.6052  0.4472  0.4024
  139OSM   C13F15147   2.837  -0.907   4.248  0.6161  0.0152 -0.8401
  139OSM   H13F15148   2.804  -0.986   4.319 -3.0076  0.0398 -2.2834
  139OSM   H13G15149   2.759  -0.833   4.223 -0.0314 -0.7584 -1.1732
  139OSM   C14F15150   2.959  -0.836   4.311  0.3031  0.6991 -0.7337
  139OSM   H14F15151   2.951  -0.734   4.269 -0.5702  0.2505 -1.7082
  139OSM   H14G15152   3.052  -0.885   4.275  0.9500  0.0717  1.5758
  139OSM   C15F15153   2.966  -0.827   4.472  0.9015 -0.4597 -0.4165
  139OSM   H15F15154   2.963  -0.931   4.511 -3.1268 -0.8439 -1.3233
  139OSM   H15G15155   2.868  -0.790   4.510  1.8973  0.6214  1.2133
  139OSM   C16F15156   3.091  -0.768   4.530 -1.1265  0.0691  0.8050
  139OSM   H16F15157   3.083  -0.658   4.545 -0.7489  0.4353 -1.2896
  139OSM   H16G15158   3.175  -0.786   4.459 -0.5710  0.0799  1.4551
  139OSM   C17F15159   3.126  -0.811   4.678  0.2990  0.3981 -1.1010
  139OSM   H17F15160   3.210  -0.747   4.714 -0.2328  0.0428  0.8639
  139OSM   H17G15161   3.145  -0.921   4.682 -3.1380 -0.3926 -2.7816
  139OSM   C18F15162   3.015  -0.768   4.775 -0.4837 -0.6619 -0.2986
  139OSM   H18F15163   3.053  -0.783   4.879  1.6432 -0.8821 -1.0620
  139OSM   H18G15164   2.921  -0.827   4.776 -0.5755 -0.5137  0.2566
  139OSM   H18H15165   2.973  -0.667   4.758 -0.5812 -1.0136 -2.3757
  140OSM      N15166   5.917   2.956   3.221  0.1069 -0.1843 -1.4018
  140OSM    C1515167   5.817   2.934   3.344 -0.0705 -0.4360 -0.0159
  140OSM   H15A15168   5.753   2.849   3.324 -0.4762  0.1992 -1.6484
  140OSM   H15B15169   5.753   3.020   3.356 -1.3471 -0.9344 -2.4483
  140OSM   H15C15170   5.861   2.920   3.441 -0.5838  1.0881  0.4671
  140OSM    C1415171   5.984   3.092   3.230  0.4189  0.1296  0.4392
  140OSM   H14A15172   5.910   3.168   3.209  0.8949  0.3187 -0.6308
  140OSM   H14B15173   6.064   3.109   3.159  0.1291 -0.4077 -0.0211
  140OSM   H14C15174   6.018   3.118   3.329  1.8595  1.1305 -0.2738
  140OSM    C1315175   6.022   2.852   3.232  0.0987 -0.2755 -0.6002
  140OSM   H13A15176   6.043   2.835   3.336 -0.2937  1.8761 -0.1138
  140OSM   H13B15177   6.115   2.893   3.195  0.6083  0.4858  1.4026
  140OSM   H13C15178   5.985   2.764   3.181  1.4429 -0.1992 -1.7774
  140OSM    C1215179   5.850   2.950   3.078  0.0789  0.0987 -0.4689
  140OSM   H12A15180   5.931   2.974   3.011  0.3317  0.4407 -0.0452
  140OSM   H12B15181   5.776   3.028   3.067  1.1705  1.3247  0.5011
  140OSM    C1115182   5.786   2.815   3.026 -0.9758  0.8636  0.6561
  140OSM   H11A15183   5.723   2.835   2.937 -0.5504  3.9447  0.9444
  140OSM   H11B15184   5.718   2.787   3.109 -2.8659  1.1124 -0.7595
  140OSM      P15185   5.837   2.562   2.978 -0.2618  0.1066  0.1505
  140OSM    O1315186   5.736   2.547   2.869 -0.8521  0.0883  0.2025
  140OSM    O1415187   5.955   2.477   2.970 -0.3936 -0.1170  0.1060
  140OSM    O1115188   5.766   2.534   3.119 -0.4111 -0.1564 -0.3782
  140OSM    O1215189   5.886   2.714   2.997  0.0006  0.1224 -0.1108
  140OSM    C1S15190   5.836   2.548   3.244  0.0462 -0.1288  0.7042
  140OSM    H1S15191   5.824   2.654   3.274  1.9750  0.1799  0.4988
  140OSM    H1T15192   5.943   2.523   3.229  0.0518  0.6150 -0.7495
  140OSM     NF15193   5.827   2.477   3.473  0.8648 -0.2977  0.1219
  140OSM    HNF15194   5.884   2.404   3.510  0.1055 -0.4083  1.1020
  140OSM    C2S15195   5.773   2.455   3.348  0.0589  0.5273 -0.0816
  140OSM    H2S15196   5.667   2.486   3.356  0.0433  0.5543 -0.3942
  140OSM    C3S15197   5.775   2.306   3.296 -0.7926  0.5029  0.0605
  140OSM    H3S15198   5.882   2.278   3.302 -0.2128  1.7620 -2.8396
  140OSM     O315199   5.740   2.284   3.157 -0.3840 -0.0271  0.2007
  140OSM    HO315200   5.747   2.371   3.116  1.5927  0.3627  1.2390
  140OSM    C4S15201   5.692   2.215   3.386 -0.6888 -0.2903 -0.0015
  140OSM    H4S15202   5.752   2.154   3.456 -1.8057 -1.5361 -0.0823
  140OSM    C5S15203   5.560   2.197   3.390  0.1693 -0.1810  1.0992
  140OSM    H5S15204   5.492   2.254   3.325  1.3112 -0.5173 -0.4312
  140OSM    C6S15205   5.488   2.108   3.486 -0.3624  0.1219  0.1238
  140OSM    H6S15206   5.550   2.017   3.499  0.5927  0.9178  1.5371
  140OSM    H6T15207   5.398   2.072   3.433 -0.8434 -0.3658  1.2354
  140OSM    C7S15208   5.456   2.176   3.615 -0.8807  0.1224 -0.1416
  140OSM    H7S15209   5.381   2.255   3.597  0.5806  1.9835  1.5024
  140OSM    H7T15210   5.549   2.224   3.650 -0.9276 -0.7784  1.3289
  140OSM    C8S15211   5.431   2.077   3.729  0.5856  0.3470 -0.6836
  140OSM    H8S15212   5.490   1.982   3.723  0.0593 -0.0853  0.7482
  140OSM    H8T15213   5.322   2.057   3.738  0.6251  0.0419 -0.8409
  140OSM    C9S15214   5.458   2.131   3.868  0.0972 -0.0687  0.5791
  140OSM    H9S15215   5.391   2.218   3.876 -0.4793 -0.5559  1.1751
  140OSM    H9T15216   5.564   2.164   3.869 -0.0239  0.4181 -0.6692
  140OSM   C10S15217   5.416   2.021   3.974  0.2839 -0.2298 -0.5452
  140OSM   H10S15218   5.469   1.924   3.962  1.3167  0.1424  0.6976
  140OSM   H10T15219   5.310   1.991   3.962  0.2111  0.1094 -0.7480
  140OSM   C11S15220   5.444   2.064   4.121 -0.2056  0.3293  0.2256
  140OSM   H11S15221   5.382   2.149   4.158 -0.3763 -0.0831  0.9175
  140OSM   H11T15222   5.548   2.101   4.134 -0.2767  1.1372 -1.3791
  140OSM   C12S15223   5.420   1.938   4.207 -0.2480 -0.3470 -0.6445
  140OSM   H12S15224   5.482   1.858   4.160  0.6324  0.7164 -1.3413
  140OSM   H12T15225   5.315   1.902   4.201 -1.7203  3.0337  1.6913
  140OSM   C13S15226   5.468   1.953   4.350  0.3205 -0.0756  0.1995
  140OSM   H13S15227   5.377   1.970   4.411 -0.9891 -0.1611 -1.6564
  140OSM   H13T15228   5.548   2.026   4.377  0.6604  0.3235 -1.7247
  140OSM   C14S15229   5.501   1.823   4.396  0.3004  0.5856 -0.0913
  140OSM   H14S15230   5.556   1.761   4.322  0.0907 -0.4951  0.6363
  140OSM   H14T15231   5.403   1.770   4.396  1.3095 -1.3649 -0.7905
  140OSM   C15S15232   5.580   1.826   4.532  0.2179  0.6968  0.0294
  140OSM   H15S15233   5.688   1.849   4.521  0.3372  0.1256  0.0013
  140OSM   H15T15234   5.577   1.721   4.567  1.1897  1.0637  1.2729
  140OSM   C16S15235   5.510   1.900   4.649  0.0719 -0.3453 -0.2372
  140OSM   H16S15236   5.406   1.860   4.650  0.7775 -2.2716  0.1118
  140OSM   H16T15237   5.507   2.005   4.612  0.2971  0.3316  1.5701
  140OSM   C17S15238   5.599   1.893   4.779 -0.3299  0.4178  0.3755
  140OSM   H17S15239   5.663   1.980   4.803  1.0426 -0.1473 -1.0942
  140OSM   H17T15240   5.661   1.803   4.761  0.1086  0.9415 -0.8434
  140OSM   C18S15241   5.525   1.861   4.911  1.1717 -0.4515  0.1046
  140OSM   H18S15242   5.438   1.927   4.930  0.5551 -1.0601 -0.5366
  140OSM   H18T15243   5.596   1.846   4.995  2.2743 -3.7910 -1.2358
  140OSM   H18U15244   5.468   1.766   4.903 -1.4823  0.8467  1.9785
  140OSM    C1F15245   5.814   2.601   3.535  0.0842 -0.1304  0.1725
  140OSM     OF15246   5.729   2.681   3.496  0.2526  0.8668  0.0669
  140OSM    C2F15247   5.911   2.635   3.645  0.1549 -0.1457 -0.2147
  140OSM    H2F15248   6.017   2.610   3.621 -0.1174 -1.4044 -0.1267
  140OSM    H2G15249   5.892   2.579   3.739 -0.1855  1.7887  0.9372
  140OSM    C3F15250   5.911   2.789   3.675 -0.2736  0.1780  1.1843
  140OSM    H3F15251   5.810   2.827   3.705 -0.5358 -0.4084  1.0541
  140OSM    H3G15252   5.941   2.842   3.582  1.7797  0.5515  2.0092
  140OSM    C4F15253   6.016   2.832   3.777 -1.2488 -0.7070 -0.5176
  140OSM    H4F15254   6.112   2.791   3.739  0.2865  1.5026  0.7341
  140OSM    H4G15255   6.017   2.776   3.874  0.5852 -0.3782 -0.3164
  140OSM    C5F15256   6.034   2.983   3.791 -0.2670 -0.0975 -0.3577
  140OSM    H5F15257   5.998   3.034   3.699 -0.1013  0.2235 -0.2436
  140OSM    H5G15258   6.141   3.007   3.802 -0.2363 -0.4762  0.2162
  140OSM    C6F15259   5.953   3.035   3.910  0.6311 -0.0229 -0.3647
  140OSM    H6F15260   5.997   3.013   4.009  2.7593 -0.0454 -1.2661
  140OSM    H6G15261   5.847   3.000   3.910  0.3710  0.7220 -1.1368
  140OSM    C7F15262   5.947   3.185   3.893  0.4226 -0.2274  0.4376
  140OSM    H7F15263   5.890   3.215   3.802 -0.0729 -1.0064  0.4887
  140OSM    H7G15264   6.052   3.222   3.891  0.0783  0.7802 -1.0583
  140OSM    C8F15265   5.866   3.255   4.007  0.4118  0.4354  0.5072
  140OSM    H8F15266   5.764   3.210   4.007 -0.8607  3.0829 -0.9102
  140OSM    H8G15267   5.849   3.361   3.978  2.5786  0.5042 -0.7262
  140OSM    C9F15268   5.920   3.249   4.149 -0.3124  0.1930  0.0177
  140OSM    H9F15269   6.024   3.285   4.155 -0.6560  1.1039  0.6898
  140OSM   C10F15270   5.856   3.214   4.258 -0.5898 -0.8358 -0.2158
  140OSM   H10F15271   5.899   3.228   4.358 -0.3267 -0.1412 -0.4184
  140OSM   C11F15272   5.716   3.159   4.253 -0.2997 -0.2598 -0.4850
  140OSM   H11F15273   5.714   3.056   4.213  1.6472 -0.7595  0.5892
  140OSM   H11G15274   5.658   3.230   4.190  2.3227  0.6291 -2.0784
  140OSM   C12F15275   5.637   3.167   4.387 -0.0587  0.8454  0.0624
  140OSM   H12F15276   5.534   3.129   4.369 -0.0631  1.7162 -2.1395
  140OSM   H12G15277   5.640   3.272   4.424  1.2647  1.4543 -1.5938
  140OSM   C13F15278   5.695   3.094   4.508  0.4999  0.3743 -0.4320
  140OSM   H13F15279   5.791   3.144   4.534 -0.4841  1.6291  1.0259
  140OSM   H13G15280   5.706   2.986   4.487  0.3903 -0.1071  1.7455
  140OSM   C14F15281   5.614   3.118   4.634  0.4183 -1.3459 -0.6175
  140OSM   H14F15282   5.620   3.224   4.666 -0.6681 -0.9042 -1.8019
  140OSM   H14G15283   5.653   3.066   4.724 -1.6614 -1.2144  0.4204
  140OSM   C15F15284   5.471   3.075   4.613 -0.1995  0.4086 -0.3426
  140OSM   H15F15285   5.475   2.972   4.570 -1.4884  0.1918  0.0198
  140OSM   H15G15286   5.405   3.126   4.541  0.0065 -0.7535 -1.3856
  140OSM   C16F15287   5.388   3.039   4.739 -0.8665  0.0809  0.2716
  140OSM   H16F15288   5.458   2.996   4.813  1.0215  0.9404 -0.9253
  140OSM   H16G15289   5.307   2.965   4.723 -1.3529 -0.2765  3.7902
  140OSM   C17F15290   5.333   3.168   4.815 -0.2043 -0.2683  0.2277
  140OSM   H17F15291   5.254   3.219   4.757  1.4312  2.0613 -0.0610
  140OSM   H17G15292   5.416   3.242   4.819 -0.5727  0.1094  2.2745
  140OSM   C18F15293   5.286   3.138   4.954  0.4257 -0.2505 -0.0102
  140OSM   H18F15294   5.249   3.238   4.986 -2.3001 -0.7600 -1.2410
  140OSM   H18G15295   5.372   3.113   5.019  1.2349  1.5181 -0.3282
  140OSM   H18H15296   5.203   3.064   4.950 -0.5915  0.8182  0.5451
  141OSM      N15297   1.613   0.847   3.458 -0.2631 -0.0764 -0.1571
  141OSM    C1515298   1.657   0.739   3.361  0.8543  0.0569  0.3499
  141OSM   H15A15299   1.676   0.790   3.268  0.9431 -1.1593 -0.3113
  141OSM   H15B15300   1.576   0.669   3.343  0.0690  0.6851  1.2898
  141OSM   H15C15301   1.740   0.683   3.400 -0.7723 -1.3537  2.0244
  141OSM    C1415302   1.548   0.788   3.579 -0.1589 -0.1844  0.3502
  141OSM   H14A15303   1.615   0.721   3.632 -2.4885 -0.7269  2.8814
  141OSM   H14B15304   1.456   0.740   3.551 -0.9205  1.7459 -0.6363
  141OSM   H14C15305   1.514   0.867   3.645 -1.2329  0.0201 -0.4199
  141OSM    C1315306   1.737   0.915   3.498 -0.2494  0.9697 -0.1493
  141OSM   H13A15307   1.711   0.989   3.573 -1.8741 -0.8605  1.1697
  141OSM   H13B15308   1.792   0.951   3.412 -0.6491  0.9934 -0.3947
  141OSM   H13C15309   1.800   0.841   3.545 -2.0254 -1.0030 -0.7638
  141OSM    C1215310   1.515   0.949   3.393 -0.6949 -0.3189  0.0581
  141OSM   H12A15311   1.505   1.030   3.464 -1.6021 -0.5510  0.2114
  141OSM   H12B15312   1.418   0.903   3.379 -0.7933 -0.4698  1.1709
  141OSM    C1115313   1.550   1.027   3.273 -0.1835 -0.5422  0.8378
  141OSM   H11A15314   1.463   1.095   3.263 -0.9631 -1.8494 -2.4236
  141OSM   H11B15315   1.552   0.959   3.185  0.0093 -1.5318  1.5883
  141OSM      P15316   1.745   1.185   3.188  0.1734  0.0775 -0.0452
  141OSM    O1315317   1.829   1.102   3.098 -0.4564  0.2987  0.4693
  141OSM    O1415318   1.642   1.266   3.118 -0.2304  0.0795  0.4314
  141OSM    O1115319   1.839   1.276   3.269  0.9643  0.0742 -0.8698
  141OSM    O1215320   1.678   1.090   3.294  1.0065  0.1993  0.1046
  141OSM    C1S15321   1.786   1.338   3.388  0.7950 -0.0179 -0.5323
  141OSM    H1S15322   1.675   1.338   3.393  0.7740 -2.6381  0.5651
  141OSM    H1T15323   1.825   1.442   3.398  3.6206 -1.1065  1.0167
  141OSM     NF15324   1.779   1.335   3.644  0.1182  0.0246 -0.2141
  141OSM    HNF15325   1.823   1.423   3.662 -1.3397  1.0851 -1.6228
  141OSM    C2S15326   1.843   1.273   3.523  0.8351  0.2550 -0.6365
  141OSM    H2S15327   1.803   1.169   3.517  2.7612 -0.5051 -1.2715
  141OSM    C3S15328   1.997   1.258   3.535  0.2364  0.2546 -0.1087
  141OSM    H3S15329   2.039   1.360   3.550 -0.9046  0.7666 -0.3263
  141OSM     O315330   2.061   1.231   3.409 -0.3339  0.6574 -0.0340
  141OSM    HO315331   1.990   1.249   3.347 -2.5474 -0.5018  2.0143
  141OSM    C4S15332   2.036   1.166   3.648 -0.6197  0.0989 -0.2422
  141OSM    H4S15333   2.042   1.226   3.740 -0.2571  0.0107 -0.2060
  141OSM    C5S15334   2.067   1.036   3.646 -0.5718 -0.5611 -0.1137
  141OSM    H5S15335   2.076   0.982   3.551 -0.4720 -1.0268  0.1593
  141OSM    C6S15336   2.104   0.953   3.767 -0.1689 -0.0163  0.2252
  141OSM    H6S15337   2.188   0.887   3.734 -0.6573  0.7153 -2.8033
  141OSM    H6T15338   2.018   0.888   3.793  0.7622 -0.4971  2.3200
  141OSM    C7S15339   2.145   1.038   3.886  0.2198 -0.5333  0.3252
  141OSM    H7S15340   2.051   1.084   3.925  0.0645 -0.9337  0.4387
  141OSM    H7T15341   2.222   1.112   3.859 -2.0926  2.5684  1.6323
  141OSM    C8S15342   2.210   0.960   4.005 -0.4343  0.3419  0.8994
  141OSM    H8S15343   2.295   0.906   3.957 -1.5759  0.4344 -1.3531
  141OSM    H8T15344   2.140   0.889   4.053  0.9591  0.7577  3.7729
  141OSM    C9S15345   2.261   1.055   4.116 -0.4065  0.5452  0.5308
  141OSM    H9S15346   2.175   1.119   4.147 -0.4308  1.4752 -1.3484
  141OSM    H9T15347   2.331   1.135   4.084 -0.0637 -0.2189 -0.6457
  141OSM   C10S15348   2.315   0.979   4.240  0.3227 -0.6065 -0.0190
  141OSM   H10S15349   2.373   1.045   4.308 -1.9586  0.2501  1.2142
  141OSM   H10T15350   2.388   0.913   4.188 -0.5250 -1.2126 -0.4627
  141OSM   C11S15351   2.209   0.897   4.324 -0.9696  0.1494  0.2113
  141OSM   H11S15352   2.162   0.828   4.250  0.4082  0.7392 -1.2944
  141OSM   H11T15353   2.133   0.958   4.377 -1.1396  0.2770 -0.1682
  141OSM   C12S15354   2.280   0.807   4.421 -0.4695  0.9921 -0.2545
  141OSM   H12S15355   2.390   0.814   4.412 -0.5918  0.5776 -2.9667
  141OSM   H12T15356   2.260   0.701   4.393  1.4084  0.6238 -0.3050
  141OSM   C13S15357   2.242   0.832   4.569 -0.2022  0.5647 -0.0499
  141OSM   H13S15358   2.131   0.835   4.564 -0.1184  1.7774 -2.4370
  141OSM   H13T15359   2.267   0.934   4.603  1.5207  0.6580 -1.4535
  141OSM   C14S15360   2.279   0.715   4.659 -0.4274 -0.7353  0.1769
  141OSM   H14S15361   2.379   0.668   4.645 -0.0070 -0.2972  1.5123
  141OSM   H14T15362   2.210   0.630   4.642  0.4308 -1.1442 -1.4459
  141OSM   C15S15363   2.280   0.762   4.807  0.3917 -0.2874  0.8474
  141OSM   H15S15364   2.190   0.826   4.814 -0.3653 -0.9113 -1.8043
  141OSM   H15T15365   2.367   0.831   4.818  0.0311 -0.0870  2.6990
  141OSM   C16S15366   2.310   0.650   4.910  0.5094  0.1097  0.6918
  141OSM   H16S15367   2.402   0.596   4.878  0.8106  1.5624 -1.0303
  141OSM   H16T15368   2.231   0.575   4.890  2.2015 -1.8126  0.8354
  141OSM   C17S15369   2.315   0.676   5.060  0.6367 -0.0442 -0.2005
  141OSM   H17S15370   2.359   0.778   5.070 -3.0313  2.1705 -3.8741
  141OSM   H17T15371   2.374   0.599   5.114 -1.6154 -1.5847  0.1788
  141OSM   C18S15372   2.174   0.673   5.132 -0.1180 -0.1706  0.3635
  141OSM   H18S15373   2.142   0.567   5.142 -0.2649 -0.1334  0.2850
  141OSM   H18T15374   2.108   0.722   5.057  0.5987  0.1732 -0.0541
  141OSM   H18U15375   2.170   0.737   5.223  0.2089 -0.7512  0.7923
  141OSM    C1F15376   1.653   1.309   3.690 -0.5903 -0.5835  0.0849
  141OSM     OF15377   1.601   1.199   3.665  0.4664 -0.4182  0.4787
  141OSM    C2F15378   1.586   1.417   3.773 -0.2921  0.1599 -0.2093
  141OSM    H2F15379   1.523   1.480   3.706 -0.1160 -2.5339 -3.2026
  141OSM    H2G15380   1.663   1.479   3.824 -2.7742  2.6931  0.6639
  141OSM    C3F15381   1.480   1.358   3.863 -0.1808  0.1229  0.2391
  141OSM    H3F15382   1.514   1.268   3.917 -0.2788 -0.0070  0.0856
  141OSM    H3G15383   1.397   1.324   3.798  0.7917  1.6006 -1.9065
  141OSM    C4F15384   1.438   1.465   3.967  0.0024 -0.7874  0.0475
  141OSM    H4F15385   1.369   1.401   4.025  1.6461 -2.2005  0.5501
  141OSM    H4G15386   1.382   1.547   3.916 -1.5294  0.4602  3.4401
  141OSM    C5F15387   1.539   1.541   4.054 -1.1738 -0.0687  0.4115
  141OSM    H5F15388   1.473   1.614   4.105 -0.8283  2.3342 -2.3157
  141OSM    H5G15389   1.613   1.600   3.995 -0.2732  2.0113  3.4129
  141OSM    C6F15390   1.598   1.455   4.162  0.0364  0.3371 -1.3526
  141OSM    H6F15391   1.680   1.393   4.121 -0.3057  0.0084 -1.5486
  141OSM    H6G15392   1.520   1.390   4.205 -0.6913  1.6696 -0.5790
  141OSM    C7F15393   1.658   1.541   4.274 -0.1255 -0.9364 -0.1772
  141OSM    H7F15394   1.600   1.629   4.307  1.2742  0.9669 -2.4685
  141OSM    H7G15395   1.751   1.590   4.239 -1.3612  1.4924 -0.2645
  141OSM    C8F15396   1.700   1.454   4.398  0.1169  0.4371  0.2854
  141OSM    H8F15397   1.811   1.449   4.404  0.5609  1.1529 -4.1652
  141OSM    H8G15398   1.672   1.350   4.372 -2.4511  1.3718 -0.9347
  141OSM    C9F15399   1.634   1.490   4.529 -0.7493  0.2575  0.8819
  141OSM    H9F15400   1.528   1.462   4.542 -1.0469  1.6681  1.7013
  141OSM   C10F15401   1.697   1.535   4.636  0.1969 -0.3283  0.2819
  141OSM   H10F15402   1.640   1.565   4.725  2.6265  0.9674  1.4962
  141OSM   C11F15403   1.839   1.565   4.650 -0.6345 -0.6521  0.5960
  141OSM   H11F15404   1.876   1.634   4.571 -0.4313 -0.1934  1.0807
  141OSM   H11G15405   1.893   1.469   4.636 -1.8345 -1.1151 -1.1688
  141OSM   C12F15406   1.872   1.627   4.786  0.4218 -0.3437  0.8474
  141OSM   H12F15407   1.853   1.551   4.865 -2.7895  1.9742  2.5699
  141OSM   H12G15408   1.797   1.709   4.798  2.2248  1.9673 -2.3072
  141OSM   C13F15409   2.013   1.688   4.802  0.2698  0.2900  0.4019
  141OSM   H13F15410   2.043   1.760   4.723  0.3277  1.4863  1.4914
  141OSM   H13G15411   2.081   1.601   4.787 -0.1416 -0.0188  0.3251
  141OSM   C14F15412   2.046   1.754   4.937 -0.0149 -0.3448 -0.0135
  141OSM   H14F15413   2.001   1.696   5.020  1.9137  1.9221  2.8157
  141OSM   H14G15414   2.014   1.861   4.936  2.8744  0.6230 -1.5845
  141OSM   C15F15415   2.201   1.761   4.953  0.4043  0.1842  0.1916
  141OSM   H15F15416   2.239   1.804   4.858 -0.5759 -0.6974 -0.6344
  141OSM   H15G15417   2.244   1.659   4.956  1.8373  0.7843  0.9410
  141OSM   C16F15418   2.241   1.838   5.072  0.5482  0.2651 -0.5150
  141OSM   H16F15419   2.193   1.785   5.158 -0.8066  0.8214 -0.8972
  141OSM   H16G15420   2.194   1.939   5.077  0.5345  0.3420 -1.8993
  141OSM   C17F15421   2.388   1.844   5.088 -0.6774  0.0245  0.5015
  141OSM   H17F15422   2.437   1.925   5.030 -1.4626  0.1830  0.0403
  141OSM   H17G15423   2.433   1.744   5.068 -0.3959  0.6574 -2.5086
  141OSM   C18F15424   2.425   1.893   5.224 -0.6537  0.0781 -0.4517
  141OSM   H18F15425   2.352   1.963   5.268  0.1311  0.8409 -0.3304
  141OSM   H18G15426   2.534   1.916   5.229 -0.6387  0.5107 -2.0849
  141OSM   H18H15427   2.422   1.806   5.293  1.7651  0.4511  0.2446
  142OSM      N15428   1.676   4.093   3.039  0.2622 -0.0398 -0.0311
  142OSM    C1515429   1.699   4.199   3.144  0.4118  0.4309  0.0129
  142OSM   H15A15430   1.632   4.188   3.229  1.3834 -0.1870  0.7188
  142OSM   H15B15431   1.687   4.302   3.114  0.6942  1.6533  3.5690
  142OSM   H15C15432   1.801   4.208   3.179  0.0748  3.6320  0.4817
  142OSM    C1415433   1.531   4.102   2.994  0.2282  0.2564 -0.3635
  142OSM   H14A15434   1.459   4.060   3.063  1.0282  0.2245  0.4691
  142OSM   H14B15435   1.512   4.034   2.913  0.7965 -0.7256  0.2998
  142OSM   H14C15436   1.498   4.203   2.978 -0.0878  0.3439  0.7757
  142OSM    C1315437   1.770   4.121   2.929  0.4274  0.0084  0.0456
  142OSM   H13A15438   1.730   4.199   2.866  0.0431 -1.0030 -1.0226
  142OSM   H13B15439   1.779   4.038   2.860  1.2858  1.0428 -1.1380
  142OSM   H13C15440   1.870   4.147   2.959  0.8624  0.7336 -1.9180
  142OSM    C1215441   1.696   3.956   3.103  0.1412  0.7831  0.2401
  142OSM   H12A15442   1.615   3.936   3.173 -2.1984 -0.5063 -2.5906
  142OSM   H12B15443   1.788   3.964   3.159 -0.5838 -2.4327  2.1599
  142OSM    C1115444   1.685   3.831   3.019 -0.1983  0.4020  0.2010
  142OSM   H11A15445   1.579   3.827   2.986 -1.1597  1.2230  2.9271
  142OSM   H11B15446   1.698   3.739   3.078 -0.4611 -0.1067 -0.5144
  142OSM      P15447   1.907   3.800   2.893 -0.3014 -0.0711  0.0076
  142OSM    O1315448   1.911   3.670   2.819  0.0370 -0.8677  0.5329
  142OSM    O1415449   1.987   3.914   2.842  0.1040 -0.1007  0.0095
  142OSM    O1115450   1.941   3.766   3.044  0.1829  0.1587  0.6245
  142OSM    O1215451   1.756   3.841   2.892  0.0328  0.4192  0.6578
  142OSM    C1S15452   2.010   3.871   3.115 -0.4502  0.2384  0.1338
  142OSM    H1S15453   1.957   3.968   3.115  3.2256  2.5928  3.8501
  142OSM    H1T15454   2.115   3.881   3.079 -0.7608 -0.8013 -1.1060
  142OSM     NF15455   2.083   3.933   3.348  0.1670 -0.4473 -0.0489
  142OSM    HNF15456   2.173   3.920   3.390 -0.5114  0.9334  2.0057
  142OSM    C2S15457   2.031   3.823   3.265 -0.4959  0.3231 -0.8261
  142OSM    H2S15458   1.930   3.801   3.307 -0.1094 -2.0246 -0.9473
  142OSM    C3S15459   2.103   3.685   3.267 -0.2491 -0.0757  0.9756
  142OSM    H3S15460   2.193   3.690   3.202 -0.8370  3.1505  0.2233
  142OSM     O315461   2.030   3.572   3.214 -0.1632 -0.1278 -0.3990
  142OSM    HO315462   1.965   3.609   3.154 -1.0684 -1.7477 -0.4740
  142OSM    C4S15463   2.144   3.662   3.406 -0.1352  0.1596  0.2710
  142OSM    H4S15464   2.241   3.713   3.421 -0.4064  0.7990 -0.1092
  142OSM    C5S15465   2.077   3.591   3.500  0.3934 -0.1406 -0.1970
  142OSM    H5S15466   1.971   3.576   3.475  0.1017 -1.4310  1.6340
  142OSM    C6S15467   2.121   3.572   3.642 -0.2552  0.5074 -0.6975
  142OSM    H6S15468   2.204   3.497   3.647 -0.4782  0.3464  1.3155
  142OSM    H6T15469   2.037   3.515   3.687  0.2631 -0.6228 -1.1028
  142OSM    C7S15470   2.166   3.691   3.724  0.6655  0.0380 -1.2231
  142OSM    H7S15471   2.086   3.769   3.732  0.8404  0.3963 -2.6880
  142OSM    H7T15472   2.249   3.741   3.670  0.7860  0.2343 -0.8611
  142OSM    C8S15473   2.213   3.659   3.864 -1.1200  0.4255 -0.0778
  142OSM    H8S15474   2.259   3.749   3.910  1.6114 -0.8302 -0.1326
  142OSM    H8T15475   2.295   3.587   3.842 -0.7183  0.7221  0.4407
  142OSM    C9S15476   2.105   3.591   3.939  0.4863  1.2122 -0.2660
  142OSM    H9S15477   2.088   3.500   3.878 -1.8846  1.1407  0.4014
  142OSM    H9T15478   2.008   3.644   3.950 -0.1889 -0.1821  0.8859
  142OSM   C10S15479   2.148   3.544   4.077 -0.1279 -0.3972  0.5172
  142OSM   H10S15480   2.253   3.509   4.083 -0.1107 -0.8500 -1.4892
  142OSM   H10T15481   2.093   3.456   4.116  0.5853 -0.5950  1.0764
  142OSM   C11S15482   2.143   3.661   4.185  0.2149  0.2953  0.0168
  142OSM   H11S15483   2.036   3.687   4.201 -0.1158 -1.4964  0.9764
  142OSM   H11T15484   2.198   3.751   4.152 -0.6171  0.8347  0.0720
  142OSM   C12S15485   2.201   3.609   4.322  0.4809  0.3699 -0.0178
  142OSM   H12S15486   2.157   3.508   4.339  0.2040  0.7271  1.5536
  142OSM   H12T15487   2.164   3.683   4.396 -2.2013 -0.6175 -0.2574
  142OSM   C13S15488   2.353   3.594   4.324 -0.0532 -0.4892 -0.1777
  142OSM   H13S15489   2.396   3.691   4.290 -2.2720  1.1294  1.3353
  142OSM   H13T15490   2.379   3.516   4.250 -0.7481  0.1263 -1.0885
  142OSM   C14S15491   2.413   3.564   4.471  0.0871 -0.1283  0.1317
  142OSM   H14S15492   2.379   3.467   4.511  0.5452 -0.5526 -0.4866
  142OSM   H14T15493   2.377   3.639   4.545 -0.7251  0.9998 -1.3384
  142OSM   C15S15494   2.564   3.560   4.459  0.0225  0.1586  0.2784
  142OSM   H15S15495   2.616   3.656   4.438 -0.2192 -0.2398 -2.4457
  142OSM   H15T15496   2.574   3.485   4.378  1.2754  1.2319 -0.5988
  142OSM   C16S15497   2.625   3.499   4.588 -0.5313  0.4571  0.0007
  142OSM   H16S15498   2.731   3.480   4.559 -0.1876 -0.1105  1.5208
  142OSM   H16T15499   2.585   3.398   4.612  1.1150 -0.6731 -1.7117
  142OSM   C17S15500   2.616   3.583   4.712  0.1013 -0.6688 -0.0603
  142OSM   H17S15501   2.511   3.574   4.746  0.1891  0.7675  0.6739
  142OSM   H17T15502   2.623   3.692   4.692  1.2082 -1.2409 -3.3318
  142OSM   C18S15503   2.718   3.551   4.825 -0.4865  0.6405 -0.2641
  142OSM   H18S15504   2.724   3.632   4.901  1.6665  1.0876 -0.8375
  142OSM   H18T15505   2.821   3.556   4.784  0.4242  0.1730  1.8400
  142OSM   H18U15506   2.700   3.453   4.873  1.7240 -0.8753 -2.3336
  142OSM    C1F15507   2.021   4.054   3.363 -0.5313  0.0437 -0.0616
  142OSM     OF15508   1.901   4.057   3.340 -0.3090 -0.0522  0.2186
  142OSM    C2F15509   2.091   4.173   3.413  0.6250  0.4757 -0.4081
  142OSM    H2F15510   2.056   4.258   3.350 -1.2556  1.1726  1.4603
  142OSM    H2G15511   2.192   4.150   3.372 -0.4341 -0.9755 -2.3852
  142OSM    C3F15512   2.076   4.200   3.568  0.1326 -0.2708 -0.0103
  142OSM    H3F15513   1.968   4.208   3.590 -0.0239  0.4555 -0.9825
  142OSM    H3G15514   2.132   4.291   3.596  0.4386 -0.2580 -0.6492
  142OSM    C4F15515   2.147   4.101   3.660  0.0303  0.0863  0.0899
  142OSM    H4F15516   2.256   4.092   3.642 -0.3582  0.1923 -2.9991
  142OSM    H4G15517   2.102   4.001   3.645  0.4797 -0.3078  1.2918
  142OSM    C5F15518   2.120   4.119   3.814 -0.4653  0.0318  0.2926
  142OSM    H5F15519   2.118   4.229   3.832  0.2904  0.2114 -0.6616
  142OSM    H5G15520   2.204   4.071   3.867 -1.9050 -1.4707  1.3033
  142OSM    C6F15521   1.984   4.065   3.856 -0.3899  0.4639 -0.9995
  142OSM    H6F15522   1.997   3.959   3.888  0.2974  1.4544  2.4346
  142OSM    H6G15523   1.908   4.074   3.777 -0.4361  0.2834 -0.9765
  142OSM    C7F15524   1.927   4.127   3.987  0.0256 -0.0114  0.6032
  142OSM    H7F15525   1.817   4.125   3.979 -0.0088 -0.3538  1.1356
  142OSM    H7G15526   1.957   4.234   3.980 -0.4588  0.0584 -0.7341
  142OSM    C8F15527   1.974   4.066   4.119  0.5157 -0.0107  0.3253
  142OSM    H8F15528   1.941   4.133   4.200  0.0710  0.4021 -0.1869
  142OSM    H8G15529   2.083   4.047   4.114  0.1845 -2.7326  1.5164
  142OSM    C9F15530   1.897   3.937   4.138 -0.5830 -0.2817 -0.5732
  142OSM    H9F15531   1.919   3.858   4.065  1.0179 -1.4918  1.1403
  142OSM   C10F15532   1.813   3.900   4.239  0.4204 -0.1192 -0.6178
  142OSM   H10F15533   1.777   3.797   4.250 -0.3606 -0.1596 -3.0851
  142OSM   C11F15534   1.783   3.989   4.359 -0.1341 -0.1573  0.1007
  142OSM   H11F15535   1.672   3.985   4.369 -0.2792  2.8789  0.7753
  142OSM   H11G15536   1.800   4.098   4.346  1.6004 -0.5479 -1.1275
  142OSM   C12F15537   1.862   3.951   4.484  0.4108  0.6185  0.3303
  142OSM   H12F15538   1.854   4.018   4.572  2.5640 -1.7294  2.4605
  142OSM   H12G15539   1.970   3.965   4.462  0.6562  1.1063  1.7555
  142OSM   C13F15540   1.825   3.815   4.547 -0.0716  0.3243 -0.4344
  142OSM   H13F15541   1.850   3.734   4.475 -0.5999  0.0277 -0.2900
  142OSM   H13G15542   1.716   3.815   4.568 -0.0607 -1.0420 -0.2792
  142OSM   C14F15543   1.909   3.783   4.672 -0.2017 -0.3103  0.6588
  142OSM   H14F15544   1.900   3.868   4.743 -0.2278  1.3686 -1.2916
  142OSM   H14G15545   2.014   3.785   4.637 -1.0308  2.0176 -2.0482
  142OSM   C15F15546   1.861   3.654   4.746  0.3621  0.4858  0.1568
  142OSM   H15F15547   1.879   3.561   4.689 -1.9961 -0.6730  1.1505
  142OSM   H15G15548   1.754   3.660   4.777  0.7426  2.9012  1.2896
  142OSM   C16F15549   1.946   3.643   4.872  0.6121 -0.2075 -0.6020
  142OSM   H16F15550   1.925   3.550   4.929  4.3541 -1.8289 -1.5060
  142OSM   H16G15551   1.922   3.720   4.948  0.5640 -0.8482  0.0486
  142OSM   C17F15552   2.096   3.642   4.855 -0.4565  0.1769 -0.4746
  142OSM   H17F15553   2.150   3.733   4.822  1.0580 -1.1634 -1.8792
  142OSM   H17G15554   2.125   3.569   4.776  1.9604  2.7393 -2.1661
  142OSM   C18F15555   2.151   3.606   4.994 -1.0370 -0.3049 -0.2925
  142OSM   H18F15556   2.103   3.667   5.074 -1.0985 -2.3323  1.3069
  142OSM   H18G15557   2.260   3.619   5.008 -1.2947 -0.2925  2.3894
  142OSM   H18H15558   2.129   3.499   5.016  4.4477 -1.5420  0.6400
  143OSM      N15559   2.000   1.441   2.975 -0.1772 -0.4951  0.0903
  143OSM    C1515560   2.128   1.480   2.906  0.3410 -0.1167 -0.2598
  143OSM   H15A15561   2.200   1.399   2.900 -0.4503 -1.0880  2.3714
  143OSM   H15B15562   2.180   1.555   2.964  3.3414 -3.9418  2.5145
  143OSM   H15C15563   2.113   1.520   2.807  0.5367 -0.3007 -0.3666
  143OSM    C1415564   1.893   1.553   2.964 -0.4680 -0.0257  0.0413
  143OSM   H14A15565   1.895   1.594   2.864  1.1305  0.9621  0.4453
  143OSM   H14B15566   1.926   1.632   3.030  0.4886  0.9153 -1.4999
  143OSM   H14C15567   1.798   1.516   2.999 -0.6539 -0.9613 -1.3820
  143OSM    C1315568   1.945   1.319   2.903 -0.6118 -0.0447 -0.2842
  143OSM   H13A15569   1.940   1.339   2.797  1.8182 -0.3238 -0.5231
  143OSM   H13B15570   1.844   1.295   2.934 -0.5822  2.4640  2.1807
  143OSM   H13C15571   2.011   1.235   2.916  1.3810  1.5374  0.3550
  143OSM    C1215572   2.024   1.420   3.118  0.3514  0.6588 -0.1432
  143OSM   H12A15573   2.087   1.334   3.132 -0.4292 -0.3670 -2.5292
  143OSM   H12B15574   1.935   1.391   3.172  1.0377  1.8075  1.7517
  143OSM    C1115575   2.089   1.532   3.204 -0.7194 -0.7718 -0.0608
  143OSM   H11A15576   2.089   1.506   3.312 -0.6732 -1.3571 -0.1990
  143OSM   H11B15577   2.018   1.617   3.206 -2.0826 -1.8677  2.3479
  143OSM      P15578   2.349   1.503   3.220 -0.0329 -0.0194 -0.1074
  143OSM    O1315579   2.335   1.357   3.216  0.1030  0.4158 -0.2210
  143OSM    O1415580   2.459   1.561   3.152 -0.2000 -0.0057 -0.1909
  143OSM    O1115581   2.346   1.553   3.366  0.2699  0.0717 -0.0850
  143OSM    O1215582   2.218   1.565   3.153 -0.4198 -0.0873 -0.4254
  143OSM    C1S15583   2.327   1.699   3.378 -0.4192  0.0440  0.2265
  143OSM    H1S15584   2.220   1.722   3.356  0.7089  2.3826 -3.5977
  143OSM    H1T15585   2.382   1.758   3.302 -1.5439 -1.9539 -2.2974
  143OSM     NF15586   2.262   1.861   3.556  0.5983 -0.6799 -0.1363
  143OSM    HNF15587   2.314   1.943   3.576 -0.2235  0.5187 -2.5805
  143OSM    C2S15588   2.338   1.736   3.528 -0.0737  0.8277 -0.4910
  143OSM    H2S15589   2.295   1.657   3.594  2.6274  1.2569  1.9883
  143OSM    C3S15590   2.486   1.746   3.563  0.6767  0.7181  0.6668
  143OSM    H3S15591   2.533   1.816   3.491  1.0513 -2.2999 -2.2770
  143OSM     O315592   2.561   1.628   3.534 -0.0257  0.3807 -0.4570
  143OSM    HO315593   2.495   1.578   3.485 -2.1906  2.6223 -0.0198
  143OSM    C4S15594   2.514   1.806   3.704  0.3850 -0.0309 -1.2528
  143OSM    H4S15595   2.546   1.911   3.703 -0.3716  0.2358  0.0109
  143OSM    C5S15596   2.498   1.742   3.823  0.0442  0.6272 -0.1042
  143OSM    H5S15597   2.481   1.634   3.821  0.0878  0.6158  0.1101
  143OSM    C6S15598   2.518   1.801   3.954 -0.2561  0.4298  0.4328
  143OSM    H6S15599   2.613   1.859   3.959  0.6580 -0.8373 -1.3246
  143OSM    H6T15600   2.543   1.712   4.016  2.0531  1.1535  0.6377
  143OSM    C7S15601   2.403   1.888   4.010  0.3508  0.2940  0.3012
  143OSM    H7S15602   2.318   1.815   4.013 -0.0309  0.6568 -1.0220
  143OSM    H7T15603   2.375   1.974   3.946 -1.2064 -0.5650 -0.2262
  143OSM    C8S15604   2.429   1.942   4.150 -0.6059  0.5206  0.2688
  143OSM    H8S15605   2.525   1.996   4.153  0.3032 -1.0407  0.6671
  143OSM    H8T15606   2.430   1.858   4.223  0.0388 -0.4480 -0.8231
  143OSM    C9S15607   2.324   2.041   4.196 -0.9539  0.5117 -0.0756
  143OSM    H9S15608   2.226   1.989   4.194 -0.1591 -0.9958 -1.6179
  143OSM    H9T15609   2.327   2.130   4.129  1.6089  2.2305  2.1045
  143OSM   C10S15610   2.354   2.076   4.350  0.2795 -0.1210  0.0208
  143OSM   H10S15611   2.446   2.136   4.367 -1.1938  2.3804 -0.3615
  143OSM   H10T15612   2.379   1.984   4.406  0.2224 -0.7208 -0.9210
  143OSM   C11S15613   2.232   2.139   4.416  0.1562  0.5805  0.5791
  143OSM   H11S15614   2.142   2.080   4.387  1.1090 -0.6556  0.0334
  143OSM   H11T15615   2.238   2.246   4.387 -0.9474  0.6137  0.4118
  143OSM   C12S15616   2.226   2.117   4.566  0.2514 -0.3911  0.1354
  143OSM   H12S15617   2.323   2.136   4.617 -0.7285  0.8976  1.5819
  143OSM   H12T15618   2.203   2.010   4.584 -0.2534 -0.2421  0.3701
  143OSM   C13S15619   2.119   2.205   4.626 -0.5082 -0.4125 -0.3118
  143OSM   H13S15620   2.026   2.210   4.566 -0.6863 -1.6776 -0.1698
  143OSM   H13T15621   2.159   2.308   4.638 -1.2629 -0.2030  0.5480
  143OSM   C14S15622   2.079   2.136   4.761 -0.4611 -0.5367  0.4693
  143OSM   H14S15623   2.171   2.121   4.822 -1.5044 -1.3236  1.9070
  143OSM   H14T15624   2.052   2.031   4.738 -1.9984  0.2262 -1.4629
  143OSM   C15S15625   1.955   2.205   4.827  0.7260 -0.3594  0.2622
  143OSM   H15S15626   1.903   2.135   4.895  0.8569 -1.3456 -0.6417
  143OSM   H15T15627   1.879   2.239   4.753 -3.0829  0.5478  4.2178
  143OSM   C16S15628   1.989   2.338   4.902 -0.6558 -0.3651 -0.0310
  143OSM   H16S15629   2.036   2.414   4.835  0.6034 -1.6383 -0.6310
  143OSM   H16T15630   2.064   2.309   4.979 -0.2289 -0.4022 -0.4539
  143OSM   C17S15631   1.868   2.395   4.984 -0.1802  0.2431  0.0114
  143OSM   H17S15632   1.916   2.470   5.050  2.2151 -0.7600 -0.4933
  143OSM   H17T15633   1.819   2.325   5.054  0.8342 -0.5840 -0.0815
  143OSM   C18S15634   1.762   2.468   4.898  0.3309  0.6961 -0.2904
  143OSM   H18S15635   1.808   2.516   4.809 -2.0973  2.1318 -0.8920
  143OSM   H18T15636   1.709   2.551   4.950 -1.7733 -0.0794 -1.0677
  143OSM   H18U15637   1.681   2.395   4.876 -0.3228  0.9058  1.2559
  143OSM    C1F15638   2.131   1.871   3.563 -0.5379  0.7398 -0.0488
  143OSM     OF15639   2.056   1.779   3.553 -0.0381  0.6660  0.8331
  143OSM    C2F15640   2.078   2.008   3.575  0.1891  0.1395  0.0850
  143OSM    H2F15641   2.027   2.028   3.479 -0.5100 -0.8640  0.2283
  143OSM    H2G15642   2.162   2.079   3.589  0.1416  0.5055 -1.3851
  143OSM    C3F15643   1.969   2.037   3.683  0.0052  0.0740 -0.8444
  143OSM    H3F15644   1.888   1.964   3.665  0.0898 -0.2513  0.0318
  143OSM    H3G15645   1.941   2.144   3.672  1.4136  0.7061  1.0941
  143OSM    C4F15646   2.030   2.040   3.828  0.9728 -0.3682  0.3759
  143OSM    H4F15647   2.109   2.118   3.831 -0.9713  1.7234  0.0865
  143OSM    H4G15648   2.081   1.942   3.842 -0.4371 -0.9688  1.6013
  143OSM    C5F15649   1.920   2.075   3.930  0.4634  0.0852  0.7913
  143OSM    H5F15650   1.855   1.991   3.965  0.0606  1.1844  2.8138
  143OSM    H5G15651   1.848   2.147   3.885 -1.0741 -1.6930  0.2172
  143OSM    C6F15652   1.981   2.140   4.054 -0.0586 -0.4764  0.1323
  143OSM    H6F15653   2.050   2.218   4.016 -0.7376 -0.9059 -2.1299
  143OSM    H6G15654   2.047   2.068   4.108 -0.0714 -0.1676  0.5672
  143OSM    C7F15655   1.889   2.201   4.162  0.1229 -0.0450  0.0342
  143OSM    H7F15656   1.837   2.288   4.116 -0.9507  0.9430  2.8886
  143OSM    H7G15657   1.962   2.247   4.233  1.5213  1.3661 -2.2045
  143OSM    C8F15658   1.789   2.105   4.224  0.5773 -0.0601  0.2787
  143OSM    H8F15659   1.727   2.083   4.135  0.3804 -1.0720  0.6561
  143OSM    H8G15660   1.726   2.154   4.301  1.2933  0.6284  0.4477
  143OSM    C9F15661   1.851   1.979   4.280 -0.9622  0.5972 -0.1385
  143OSM    H9F15662   1.939   1.963   4.215  0.2530  1.7112  1.1561
  143OSM   C10F15663   1.803   1.886   4.366  0.0627  0.0061 -0.0583
  143OSM   H10F15664   1.861   1.792   4.370  1.7349  1.0402  1.3762
  143OSM   C11F15665   1.678   1.902   4.440  0.6652  1.0992 -0.7806
  143OSM   H11F15666   1.609   1.816   4.437  0.1776  1.5302 -2.7467
  143OSM   H11G15667   1.613   1.979   4.394 -1.9269  0.4643  1.5536
  143OSM   C12F15668   1.703   1.936   4.586 -0.5288 -0.3463 -0.3704
  143OSM   H12F15669   1.753   2.035   4.593 -1.1007 -0.0757 -0.1022
  143OSM   H12G15670   1.768   1.853   4.621 -0.1735 -0.4581 -1.2764
  143OSM   C13F15671   1.574   1.956   4.669 -0.1452  0.3919  0.5821
  143OSM   H13F15672   1.503   1.872   4.657 -0.0488  0.0050  2.4895
  143OSM   H13G15673   1.523   2.045   4.626  1.1100  0.7495 -0.2237
  143OSM   C14F15674   1.594   1.976   4.820 -0.7392  0.2483 -0.4796
  143OSM   H14F15675   1.660   2.065   4.820 -1.6618  0.9686 -1.4928
  143OSM   H14G15676   1.658   1.895   4.861 -1.1616  1.3868  2.6970
  143OSM   C15F15677   1.468   1.989   4.898  0.1553  0.4263  0.5396
  143OSM   H15F15678   1.389   2.047   4.845  0.7457  1.2148  0.5054
  143OSM   H15G15679   1.482   2.040   4.996  0.8802  1.1005  0.1017
  143OSM   C16F15680   1.405   1.848   4.916 -0.0426 -0.2439  0.8873
  143OSM   H16F15681   1.354   1.802   4.828 -0.2455 -3.5135  2.5539
  143OSM   H16G15682   1.321   1.861   4.988 -0.1917  0.0735  0.6570
  143OSM   C17F15683   1.500   1.743   4.991  0.4195 -0.3793 -0.0635
  143OSM   H17F15684   1.535   1.786   5.087 -1.0267  1.5506 -0.3221
  143OSM   H17G15685   1.584   1.720   4.922  0.5116 -1.4123  0.3761
  143OSM   C18F15686   1.425   1.618   5.033 -0.1254 -1.0934 -0.0959
  143OSM   H18F15687   1.374   1.571   4.946  1.1485 -1.1671 -0.8353
  143OSM   H18G15688   1.351   1.636   5.114 -0.0977  1.5950 -0.5712
  143OSM   H18H15689   1.501   1.546   5.068  3.1104  1.4683 -1.3122
  144OSM      N15690   2.456   2.413   2.752 -0.2567 -0.2039  0.0382
  144OSM    C1515691   2.579   2.336   2.717  0.4503  1.3780 -0.7861
  144OSM   H15A15692   2.601   2.263   2.794 -0.2798  0.1247 -1.7305
  144OSM   H15B15693   2.666   2.393   2.689  1.7443 -1.0032 -1.8771
  144OSM   H15C15694   2.567   2.272   2.631 -0.0335  1.4443 -0.7712
  144OSM    C1415695   2.407   2.471   2.624  0.3557  0.0923 -0.3792
  144OSM   H14A15696   2.473   2.528   2.562  0.0781  1.1356  0.2659
  144OSM   H14B15697   2.328   2.541   2.646  0.8740  0.3030  0.9120
  144OSM   H14C15698   2.358   2.392   2.568 -0.0242  0.5463 -0.6950
  144OSM    C1315699   2.360   2.312   2.803  0.1982 -0.2508 -0.6181
  144OSM   H13A15700   2.372   2.216   2.755 -0.3386 -0.3854 -0.4962
  144OSM   H13B15701   2.261   2.354   2.805  1.0505  1.8749  0.0251
  144OSM   H13C15702   2.397   2.296   2.904  0.0643 -0.5110 -0.6101
  144OSM    C1215703   2.487   2.521   2.855 -0.2158  0.7086 -0.4175
  144OSM   H12A15704   2.394   2.564   2.888 -1.7758 -2.6539 -0.0134
  144OSM   H12B15705   2.547   2.593   2.802  1.6606 -0.1066  0.4667
  144OSM    C1115706   2.552   2.478   2.991  0.6500 -0.3215  0.8461
  144OSM   H11A15707   2.555   2.568   3.056 -2.4147 -0.4056  1.2609
  144OSM   H11B15708   2.656   2.450   2.965  0.5242 -0.7721  0.8115
  144OSM      P15709   2.527   2.315   3.191  0.1674  0.1537 -0.2310
  144OSM    O1315710   2.495   2.172   3.193 -0.0893  0.2435  0.7498
  144OSM    O1415711   2.671   2.346   3.201  0.0290  0.0418 -0.1135
  144OSM    O1115712   2.456   2.386   3.312  0.9421  0.0194  0.1894
  144OSM    O1215713   2.472   2.375   3.054 -0.4073 -0.1819 -0.1943
  144OSM    C1S15714   2.315   2.417   3.289 -0.4504 -0.5121  0.1914
  144OSM    H1S15715   2.264   2.359   3.209 -0.5561 -1.1262  0.7061
  144OSM    H1T15716   2.299   2.523   3.257  0.6754 -0.0149  1.1834
  144OSM     NF15717   2.096   2.405   3.410  0.9568  0.2702 -0.2815
  144OSM    HNF15718   2.051   2.492   3.425  0.1936 -0.4551  2.0649
  144OSM    C2S15719   2.242   2.400   3.427 -0.5276 -0.1693 -0.3807
  144OSM    H2S15720   2.269   2.295   3.451 -0.3548 -0.2883 -1.0563
  144OSM    C3S15721   2.313   2.490   3.541 -0.1969  0.7370 -0.0776
  144OSM    H3S15722   2.304   2.600   3.524  2.5247  0.7924 -1.8330
  144OSM     O315723   2.452   2.460   3.563 -0.5709 -0.0369 -0.0728
  144OSM    HO315724   2.478   2.424   3.478 -0.1770  0.5505 -0.2083
  144OSM    C4S15725   2.243   2.458   3.674  0.9281 -0.0097  0.5210
  144OSM    H4S15726   2.276   2.369   3.730 -3.3629 -2.0584  0.1753
  144OSM    C5S15727   2.156   2.531   3.751  0.1071 -0.0392 -0.0786
  144OSM    H5S15728   2.129   2.636   3.729  0.8279  0.6799  2.1509
  144OSM    C6S15729   2.113   2.490   3.890 -0.1537  0.0787 -0.3571
  144OSM    H6S15730   2.117   2.379   3.897 -0.6284  0.0400 -0.6698
  144OSM    H6T15731   2.006   2.516   3.900 -0.0534  2.0819 -3.3557
  144OSM    C7S15732   2.191   2.550   4.010  0.6923  0.6277  0.5662
  144OSM    H7S15733   2.177   2.660   4.004 -1.4911  0.4305  1.2139
  144OSM    H7T15734   2.296   2.519   3.996  0.3863 -0.2351  0.0892
  144OSM    C8S15735   2.138   2.510   4.146 -0.3365  0.7086  0.2486
  144OSM    H8S15736   2.147   2.399   4.144 -1.7251  0.5974 -1.0565
  144OSM    H8T15737   2.032   2.540   4.161 -0.1325  0.4545  2.6884
  144OSM    C9S15738   2.207   2.588   4.260 -0.5680  0.3759  0.4058
  144OSM    H9S15739   2.210   2.694   4.227  3.1181  0.4978  0.6494
  144OSM    H9T15740   2.314   2.560   4.271 -0.9691 -1.5030 -0.0929
  144OSM   C10S15741   2.137   2.573   4.391  0.0951  0.0382  0.1001
  144OSM   H10S15742   2.154   2.472   4.435 -1.4938 -0.7244 -0.9634
  144OSM   H10T15743   2.028   2.593   4.392 -0.2197 -1.4887  2.1050
  144OSM   C11S15744   2.203   2.668   4.489 -0.0282  0.2133  0.1385
  144OSM   H11S15745   2.178   2.771   4.456 -1.1997 -0.4243 -1.0634
  144OSM   H11T15746   2.313   2.654   4.477  0.0731  1.1276 -0.0655
  144OSM   C12S15747   2.183   2.642   4.645  0.1053  0.6336  0.0594
  144OSM   H12S15748   2.220   2.538   4.662  0.2041  0.5490 -0.6459
  144OSM   H12T15749   2.074   2.635   4.667  0.1861 -1.9800 -0.0590
  144OSM   C13S15750   2.255   2.751   4.730  0.0988  0.7814 -0.1720
  144OSM   H13S15751   2.230   2.853   4.696 -0.5475  0.6054 -0.2417
  144OSM   H13T15752   2.361   2.720   4.731 -0.4152 -1.1874  0.7160
  144OSM   C14S15753   2.208   2.751   4.879  0.6280  0.1640  0.0876
  144OSM   H14S15754   2.219   2.648   4.920  3.1794  0.6474  0.7872
  144OSM   H14T15755   2.098   2.765   4.882  0.5376 -0.2850 -0.7683
  144OSM   C15S15756   2.275   2.852   4.977  0.2374  0.6559 -0.3000
  144OSM   H15S15757   2.309   2.941   4.920  1.4719 -0.0571 -0.7201
  144OSM   H15T15758   2.372   2.809   5.011  0.7376  2.2199  0.3211
  144OSM   C16S15759   2.188   2.894   5.092 -0.0400 -0.1227 -0.9645
  144OSM   H16S15760   2.081   2.911   5.068 -0.0424  0.8740 -0.3193
  144OSM   H16T15761   2.226   2.983   5.146 -0.6527  0.3645 -1.3149
  144OSM   C17S15762   2.180   2.781   5.201 -0.0192 -0.0508  1.3261
  144OSM   H17S15763   2.172   2.830   5.301 -2.0231  0.9015  0.7557
  144OSM   H17T15764   2.276   2.726   5.202 -1.2575 -2.3661  2.0874
  144OSM   C18S15765   2.058   2.682   5.206 -0.2762  0.1082  0.1092
  144OSM   H18S15766   1.972   2.751   5.195 -2.1954 -2.2999 -0.6711
  144OSM   H18T15767   2.055   2.624   5.301 -0.7077  0.8811  0.5765
  144OSM   H18U15768   2.062   2.606   5.126  1.7703  0.3087 -0.0536
  144OSM    C1F15769   2.028   2.313   3.344 -0.2141 -0.9313 -0.1925
  144OSM     OF15770   2.082   2.209   3.305  0.1250 -0.0438  0.3982
  144OSM    C2F15771   1.885   2.341   3.316  0.7042  0.6665 -0.3777
  144OSM    H2F15772   1.849   2.267   3.242 -1.0661 -0.6368  1.6490
  144OSM    H2G15773   1.859   2.444   3.282 -0.0503  0.5370 -0.1989
  144OSM    C3F15774   1.798   2.317   3.446 -0.4016 -0.0262 -0.8079
  144OSM    H3F15775   1.815   2.219   3.495  0.3548  0.4424 -0.1134
  144OSM    H3G15776   1.696   2.315   3.403 -0.8485 -1.8153  0.2322
  144OSM    C4F15777   1.808   2.430   3.551 -0.2847  0.0428 -0.2533
  144OSM    H4F15778   1.792   2.528   3.500  0.7979  1.3056  1.6933
  144OSM    H4G15779   1.910   2.436   3.595  1.0882 -2.1125 -2.8412
  144OSM    C5F15780   1.698   2.412   3.659  0.0328 -0.0813 -0.0237
  144OSM    H5F15781   1.731   2.317   3.707  1.4780  1.6709  2.7542
  144OSM    H5G15782   1.597   2.400   3.615  0.1578  1.6309 -0.8646
  144OSM    C6F15783   1.692   2.515   3.772  0.1854 -0.2898 -0.0187
  144OSM    H6F15784   1.676   2.616   3.728  0.1445  0.1581  0.9745
  144OSM    H6G15785   1.794   2.516   3.816 -0.6400  1.3201  2.0787
  144OSM    C7F15786   1.596   2.499   3.888  0.2345 -0.1962  0.0231
  144OSM    H7F15787   1.628   2.402   3.931 -3.5902 -3.2994 -3.2983
  144OSM    H7G15788   1.487   2.487   3.867  0.0503 -1.0291  1.3618
  144OSM    C8F15789   1.604   2.617   3.986 -0.6568  0.0051 -0.2562
  144OSM    H8F15790   1.527   2.609   4.066 -0.2811  1.5060  0.2779
  144OSM    H8G15791   1.575   2.703   3.923 -1.5052  0.1174  0.2748
  144OSM    C9F15792   1.744   2.636   4.044  0.4886  0.0465  0.7638
  144OSM    H9F15793   1.813   2.697   3.984  0.0029 -1.0458 -1.0109
  144OSM   C10F15794   1.775   2.591   4.161  0.4510  0.4589 -0.3445
  144OSM   H10F15795   1.867   2.609   4.217  0.8775 -1.1363 -0.4982
  144OSM   C11F15796   1.680   2.526   4.266  0.1975 -0.0086  0.2642
  144OSM   H11F15797   1.733   2.443   4.317  0.3794 -0.9181 -1.3337
  144OSM   H11G15798   1.589   2.475   4.229  0.6619 -0.4993 -0.2236
  144OSM   C12F15799   1.644   2.630   4.369  0.2673  0.2041  0.3160
  144OSM   H12F15800   1.567   2.583   4.433 -0.9967 -0.0031 -1.3049
  144OSM   H12G15801   1.603   2.717   4.315  2.5451  1.1534 -0.0142
  144OSM   C13F15802   1.758   2.681   4.467 -0.2184 -0.5779  0.2782
  144OSM   H13F15803   1.847   2.710   4.406 -0.8641  0.1325 -0.3499
  144OSM   H13G15804   1.786   2.590   4.525  1.1359 -0.2158  0.2251
  144OSM   C14F15805   1.707   2.783   4.571 -0.2829 -0.1800  0.6583
  144OSM   H14F15806   1.609   2.757   4.615 -1.0910  1.0181 -0.3780
  144OSM   H14G15807   1.689   2.877   4.515  0.7661 -0.1251  0.3859
  144OSM   C15F15808   1.799   2.809   4.688 -0.4509 -0.0148 -0.3085
  144OSM   H15F15809   1.879   2.877   4.655  0.2954 -0.3870  0.6833
  144OSM   H15G15810   1.846   2.719   4.734 -2.7597 -1.0888  0.1385
  144OSM   C16F15811   1.726   2.867   4.808  0.3631 -0.8036 -0.0499
  144OSM   H16F15812   1.632   2.817   4.841  0.4872  0.3171  2.1632
  144OSM   H16G15813   1.703   2.972   4.783 -0.8198 -0.8083  0.9161
  144OSM   C17F15814   1.820   2.869   4.933  0.5775 -0.4066 -0.5376
  144OSM   H17F15815   1.919   2.912   4.907 -0.1893  1.5499 -0.4158
  144OSM   H17G15816   1.836   2.762   4.957 -0.8742 -0.3170  0.9983
  144OSM   C18F15817   1.767   2.952   5.057 -0.2520  0.0586 -0.3775
  144OSM   H18F15818   1.832   2.938   5.146  0.9284 -0.8388 -1.3384
  144OSM   H18G15819   1.660   2.928   5.073 -1.1880  2.8658 -1.7140
  144OSM   H18H15820   1.763   3.057   5.021  0.3211  0.8296  1.6544
  145SAPE     N15821   4.076   3.716   7.072  0.1409 -0.2839 -0.1260
  145SAPE   HN115822   4.024   3.628   7.092  0.7536 -0.2060  2.1450
  145SAPE   HN215823   4.021   3.774   7.006 -0.9890 -3.4001 -2.1100
  145SAPE   HN315824   4.169   3.696   7.029 -0.0854  0.2366 -0.8732
  145SAPE   C1215825   4.090   3.786   7.211 -0.4850  0.1400  0.0957
  145SAPE  H12A15826   4.091   3.895   7.191 -1.4753  0.4234  1.4125
  145SAPE  H12B15827   4.194   3.778   7.249 -0.1166  0.9807 -0.7002
  145SAPE   C1115828   3.980   3.748   7.300 -0.4284  0.8071 -0.6052
  145SAPE  H11A15829   3.878   3.775   7.265 -0.7090  0.9958  0.3306
  145SAPE  H11B15830   3.988   3.799   7.398 -0.2520 -1.1218  0.4382
  145SAPE     P15831   3.972   3.526   7.458  0.0708 -0.3093 -0.0182
  145SAPE   O1315832   4.111   3.494   7.508  0.2823  0.3267 -0.2171
  145SAPE   O1415833   3.886   3.606   7.546 -0.0464  0.3504  0.5353
  145SAPE   O1215834   3.991   3.606   7.319 -0.2033  0.4232  0.6704
  145SAPE   O1115835   3.901   3.392   7.414  0.9701 -0.3425  0.0323
  145SAPE    C115836   3.959   3.288   7.335 -0.7825 -0.3212  0.3479
  145SAPE    HA15837   4.065   3.266   7.363 -0.7795 -2.4723 -1.0695
  145SAPE    HB15838   3.906   3.191   7.347 -1.3107  0.0182  0.7728
  145SAPE    C215839   3.948   3.320   7.181 -0.1757 -0.4167  0.3251
  145SAPE    HS15840   4.027   3.396   7.161  0.8028 -1.3960  0.3659
  145SAPE   O2115841   3.819   3.359   7.131  0.1140 -0.3293  0.2339
  145SAPE   C2115842   3.828   3.447   7.040 -0.1596  0.7292  0.4975
  145SAPE   O2215843   3.928   3.488   6.984 -0.1612  0.6783  0.5257
  145SAPE   C2215844   3.688   3.524   7.054 -0.5314  0.5032  0.0103
  145SAPE   H2R15845   3.608   3.450   7.076 -0.5393 -0.2243 -2.2414
  145SAPE   H2S15846   3.702   3.599   7.135 -1.9290  2.2370 -1.2629
  145SAPE    C315847   3.998   3.195   7.099 -0.2609  0.3991  0.0946
  145SAPE    HX15848   3.959   3.108   7.156 -2.1594  0.7077 -0.6419
  145SAPE    HY15849   4.109   3.203   7.103 -0.1421 -1.0244 -0.1253
  145SAPE   O3115850   3.964   3.203   6.959 -0.4502  1.2617  0.5918
  145SAPE   C3115851   4.009   3.096   6.891 -0.4995  0.5652  0.5753
  145SAPE   O3215852   4.073   3.003   6.946  0.2190 -0.3911  0.2839
  145SAPE   C3215853   3.959   3.084   6.743 -0.4802 -0.3432 -0.8340
  145SAPE   H2X15854   3.850   3.100   6.752 -0.3148  1.0954 -1.2531
  145SAPE   H2Y15855   3.987   2.982   6.709 -2.2225 -0.3932 -2.2191
  145SAPE   C2315856   3.637   3.607   6.935  0.0149 -0.4982 -0.7735
  145SAPE   H3R15857   3.601   3.529   6.865  3.1844 -3.4873  0.6097
  145SAPE   H3S15858   3.725   3.641   6.875 -0.6482  0.4201 -1.2556
  145SAPE   C2415859   3.522   3.705   6.973 -0.1478 -0.7662  0.7720
  145SAPE   H4R15860   3.488   3.744   6.875 -0.6678  2.7922  2.2402
  145SAPE   H4S15861   3.558   3.789   7.036  0.4610  1.1495 -1.9684
  145SAPE   C2515862   3.401   3.635   7.031 -1.4139 -0.2642 -0.4382
  145SAPE   H5R15863   3.395   3.651   7.140  1.0369 -0.1595 -0.2580
  145SAPE   C2615864   3.311   3.558   6.971  0.2928  0.4439 -0.4683
  145SAPE   H6R15865   3.232   3.521   7.039 -0.3662  1.3356 -0.7291
  145SAPE   C2715866   3.291   3.527   6.827 -0.1716  0.0249 -0.1822
  145SAPE   H7R15867   3.303   3.417   6.813 -1.2221 -0.0373 -0.6223
  145SAPE   H7S15868   3.384   3.556   6.773  0.4600 -3.2261 -1.0929
  145SAPE   C2815869   3.154   3.574   6.773  0.2517  0.5854  0.1831
  145SAPE   H8R15870   3.078   3.589   6.851 -0.2479  0.1825 -0.2227
  145SAPE   C2915871   3.128   3.568   6.644  0.1772 -0.6098  0.2172
  145SAPE   H9R15872   3.029   3.607   6.613  0.5769  1.2419  1.0971
  145SAPE  C21015873   3.224   3.534   6.529 -0.2817  0.7810 -0.2734
  145SAPE  H10R15874   3.329   3.554   6.561 -0.9961  0.6203  2.4054
  145SAPE  H10S15875   3.215   3.606   6.444  3.4195  1.4354 -0.3055
  145SAPE  C21115876   3.211   3.390   6.483  1.0541 -0.0286 -0.1946
  145SAPE  H11R15877   3.258   3.317   6.550  0.6148 -0.6804 -0.5874
  145SAPE  C21215878   3.170   3.352   6.365  0.5097  0.0992  0.0629
  145SAPE  H12R15879   3.170   3.243   6.352  0.4707  0.2885 -1.9159
  145SAPE  C21315880   3.109   3.448   6.258  0.3046 -0.3076  0.0012
  145SAPE  H13R15881   3.189   3.483   6.189 -0.0954  0.2484 -0.1844
  145SAPE  H13S15882   3.077   3.550   6.287  4.1654  1.8092 -2.3555
  145SAPE  C21415883   2.997   3.383   6.179  0.6451  0.0352  0.2999
  145SAPE  H14R15884   2.901   3.384   6.234  0.3548  1.5249 -0.1849
  145SAPE  C21515885   3.007   3.326   6.061  0.5104  0.2467  0.1271
  145SAPE  H15R15886   2.928   3.261   6.021  0.3673 -0.6888  1.8499
  145SAPE  C21615887   3.126   3.313   5.972  0.3970 -0.3707 -0.2164
  145SAPE  H16R15888   3.163   3.209   5.960 -2.7833 -1.7253  0.7008
  145SAPE  H16S15889   3.206   3.377   6.013 -0.8424  2.4270 -1.8415
  145SAPE  C21715890   3.103   3.360   5.828  0.4094 -0.6901 -0.4529
  145SAPE  H17R15891   3.200   3.366   5.775 -0.6231  0.6617 -2.3084
  145SAPE  H17S15892   3.055   3.460   5.828  0.9077 -0.4086  1.6440
  145SAPE  C21815893   3.010   3.269   5.745 -0.3244 -0.6421 -0.8202
  145SAPE  H18R15894   2.919   3.240   5.803  1.4224  0.3901  2.7290
  145SAPE  H18S15895   3.058   3.170   5.731  2.3183  0.3435  0.5654
  145SAPE  C21915896   2.972   3.330   5.604  0.1294 -0.2621  0.0063
  145SAPE  H19R15897   3.063   3.347   5.544 -1.5803 -0.9859 -3.0216
  145SAPE  H19S15898   2.929   3.432   5.616 -0.8623 -0.7907  1.2118
  145SAPE  C22015899   2.889   3.249   5.509  0.0392  0.1720  0.2849
  145SAPE  H20R15900   2.801   3.219   5.569  0.5573 -0.5229  0.6985
  145SAPE  H20S15901   2.939   3.159   5.467  0.8932 -0.0673  1.7755
  145SAPE  H20T15902   2.854   3.317   5.428  2.3906  1.9541  0.6646
  145SAPE   C3315903   4.018   3.192   6.655  0.4793  0.4792 -1.1839
  145SAPE   H3X15904   4.125   3.209   6.680 -0.0074  0.1647  1.3550
  145SAPE   H3Y15905   3.962   3.287   6.668  0.0734  0.0804  0.1771
  145SAPE   C3415906   3.987   3.153   6.512 -0.3620 -0.3623 -0.4094
  145SAPE   H4X15907   3.883   3.117   6.502 -1.4144  1.0634  3.4570
  145SAPE   H4Y15908   4.052   3.067   6.483  0.1544  0.4252 -1.6900
  145SAPE   C3515909   4.022   3.263   6.411 -0.3157  0.3238 -0.4487
  145SAPE   H5X15910   4.111   3.325   6.435  0.0332 -0.4055  0.1757
  145SAPE   H5Y15911   3.935   3.331   6.420 -2.1306 -1.9170 -0.2574
  145SAPE   C3615912   4.033   3.235   6.254  0.4463 -0.3843 -0.4632
  145SAPE   H6X15913   3.957   3.156   6.236  2.3702 -3.0909  2.2421
  145SAPE   H6Y15914   4.136   3.199   6.235 -0.2029 -1.7203 -1.6421
  145SAPE   C3715915   4.009   3.362   6.169  0.1614  1.0033 -0.0509
  145SAPE   H7X15916   4.082   3.435   6.212  0.7816  0.8816 -0.8822
  145SAPE   H7Y15917   3.909   3.408   6.183 -1.0480 -1.3232 -0.6563
  145SAPE   C3815918   4.032   3.331   6.025 -0.4902 -0.0653  0.3257
  145SAPE   H8X15919   3.964   3.250   5.993  0.0992 -0.9832  1.3243
  145SAPE   H8Y15920   4.133   3.289   6.010 -1.0113 -0.9468 -0.8595
  145SAPE   C3915921   4.009   3.447   5.929  0.6591 -0.2464  0.2653
  145SAPE   H9X15922   4.077   3.532   5.953 -1.7892  2.1911 -0.8831
  145SAPE   H9Y15923   3.904   3.484   5.938 -0.2028 -2.3711 -0.4101
  145SAPE  C31015924   4.031   3.408   5.783 -0.0756 -0.4329  0.5282
  145SAPE  H10X15925   3.965   3.322   5.758 -1.1177  0.0902  1.3807
  145SAPE  H10Y15926   4.136   3.376   5.768  0.1219  0.1435  0.6466
  145SAPE  C31115927   4.004   3.520   5.690 -0.2974 -0.4226  0.2831
  145SAPE  H11X15928   4.057   3.612   5.723  0.1198 -0.5946  0.1004
  145SAPE  H11Y15929   3.895   3.535   5.676 -0.1326  1.5811  0.8023
  145SAPE  C31215930   4.058   3.503   5.551 -0.2853 -0.1127  0.5085
  145SAPE  H12X15931   4.017   3.410   5.506  0.7022 -0.1887 -0.2675
  145SAPE  H12Y15932   4.164   3.473   5.558  0.0013  0.9534  0.8483
  145SAPE  C31315933   4.047   3.632   5.459 -0.3357 -1.0533 -0.1231
  145SAPE  H13X15934   4.109   3.712   5.505 -1.2091 -1.7421  2.4550
  145SAPE  H13Y15935   3.943   3.671   5.465  0.5014  1.4397 -0.5140
  145SAPE  C31415936   4.097   3.608   5.323 -0.7539 -0.3872  0.6675
  145SAPE  H14X15937   4.043   3.519   5.282 -1.1221 -1.2902  2.9733
  145SAPE  H14Y15938   4.207   3.597   5.320 -0.5581  1.5306 -0.4652
  145SAPE  C31515939   4.061   3.728   5.231  0.1544 -0.2703 -0.4732
  145SAPE  H15X15940   4.135   3.740   5.149  2.3993 -0.6682  1.3925
  145SAPE  H15Y15941   4.072   3.823   5.288  0.7801 -0.6796  0.1171
  145SAPE  C31615942   3.915   3.725   5.175  0.7406 -0.3383  0.6589
  145SAPE  H16X15943   3.844   3.713   5.259  0.0344 -0.4250  0.0629
  145SAPE  H16Y15944   3.909   3.631   5.117  0.4206  0.0469  0.0461
  145SAPE  C31715945   3.876   3.843   5.082  0.6632 -0.5074 -0.2141
  145SAPE  H17X15946   3.770   3.826   5.052  0.1060  0.7797  0.9433
  145SAPE  H17Y15947   3.938   3.849   4.990  0.7711 -0.1692 -0.1189
  145SAPE  C31815948   3.879   3.974   5.157 -0.0853 -0.0197 -0.0662
  145SAPE  H18X15949   3.985   4.001   5.176 -0.3999  0.1289  1.6877
  145SAPE  H18Y15950   3.838   3.975   5.260  1.5862  2.5474  0.6718
  145SAPE  H18Z15951   3.838   4.055   5.093 -1.1330  1.4982  2.3717
  146SAPE     N15952   1.207   3.890   7.436  0.2102  0.1908 -0.5129
  146SAPE   HN115953   1.134   3.951   7.395 -2.9880 -2.8476  0.1481
  146SAPE   HN215954   1.235   3.926   7.529 -0.9623 -0.3865  0.0901
  146SAPE   HN315955   1.288   3.877   7.371 -1.4421  0.2100 -2.7046
  146SAPE   C1215956   1.158   3.756   7.449  0.6986 -1.1966 -0.5134
  146SAPE  H12A15957   1.217   3.700   7.524  0.2140 -1.6310 -0.4457
  146SAPE  H12B15958   1.163   3.709   7.348  1.5556 -0.7276 -0.6921
  146SAPE   C1115959   1.006   3.755   7.515 -0.4129 -0.3746  0.0759
  146SAPE  H11A15960   1.011   3.823   7.603  0.6420  0.3907 -0.5523
  146SAPE  H11B15961   0.993   3.650   7.548  0.8921 -0.9808 -1.2334
  146SAPE     P15962   0.882   3.943   7.383  0.1268  0.1949 -0.0516
  146SAPE   O1315963   0.871   4.024   7.508  0.3277  0.2429 -0.5178
  146SAPE   O1415964   0.993   3.988   7.303 -0.3922 -0.0770  0.4993
  146SAPE   O1215965   0.908   3.793   7.421  0.6051 -0.2274  0.6523
  146SAPE   O1115966   0.754   3.953   7.294 -0.3504  0.4872  0.2134
  146SAPE    C115967   0.716   3.862   7.192 -0.9337  0.1906  0.0640
  146SAPE    HA15968   0.802   3.802   7.155 -0.4793  1.6437 -1.2928
  146SAPE    HB15969   0.651   3.779   7.229  1.9683 -2.1721  0.2586
  146SAPE    C215970   0.648   3.932   7.075  0.5983 -1.0155 -1.5690
  146SAPE    HS15971   0.599   3.864   7.003 -2.6912  0.3925 -0.8686
  146SAPE   O2115972   0.752   4.011   7.012  0.1452  0.3247  0.5666
  146SAPE   C2115973   0.729   4.025   6.884  0.2232 -0.8501 -0.0412
  146SAPE   O2215974   0.655   3.955   6.818  0.1611  0.1436 -0.2485
  146SAPE   C2215975   0.810   4.137   6.823 -0.1810 -0.6299  0.5765
  146SAPE   H2R15976   0.754   4.231   6.843  1.1838 -0.4870  4.6428
  146SAPE   H2S15977   0.902   4.145   6.885 -0.5552  1.6399  0.9454
  146SAPE    C315978   0.536   4.017   7.129  0.3218  0.2719 -0.1820
  146SAPE    HX15979   0.592   4.094   7.186 -1.0367 -0.0657  1.6728
  146SAPE    HY15980   0.475   3.952   7.196  3.5083 -2.4305  0.3429
  146SAPE   O3115981   0.456   4.090   7.029  0.0877  0.1337 -0.0408
  146SAPE   C3115982   0.326   4.044   7.004 -0.0114 -0.1011 -0.8418
  146SAPE   O3215983   0.272   3.960   7.075  0.1511 -0.0936 -0.2323
  146SAPE   C3215984   0.261   4.115   6.890 -0.1886 -0.1654 -0.3577
  146SAPE   H2X15985   0.331   4.194   6.854 -0.9922  1.3879  1.3306
  146SAPE   H2Y15986   0.168   4.164   6.924 -0.0924  0.3832 -0.8610
  146SAPE   C2315987   0.849   4.117   6.674 -0.2233 -0.3742  0.5146
  146SAPE   H3R15988   0.907   4.207   6.644 -0.0608 -0.0496  1.7542
  146SAPE   H3S15989   0.755   4.116   6.615 -0.4043 -0.5991  0.8072
  146SAPE   C2415990   0.943   3.997   6.638 -0.6775  0.2512  1.4483
  146SAPE   H4R15991   0.886   3.905   6.665  0.9403 -2.0111 -2.1677
  146SAPE   H4S15992   1.028   3.998   6.709 -1.0770  0.1138  1.9350
  146SAPE   C2515993   0.976   4.002   6.488 -0.3893  0.5983  0.0441
  146SAPE   H5R15994   0.900   3.964   6.418 -0.6311 -1.5312  1.3559
  146SAPE   C2615995   1.078   4.067   6.439 -0.1056 -0.2312 -0.4152
  146SAPE   H6R15996   1.111   4.051   6.335  1.3408  0.2669 -0.0527
  146SAPE   C2715997   1.191   4.140   6.513  0.3576 -0.5054 -0.6859
  146SAPE   H7R15998   1.283   4.102   6.463  0.2995 -0.7053 -0.6390
  146SAPE   H7S15999   1.192   4.096   6.615 -1.6799  1.7101  0.3734
  146SAPE   C2816000   1.204   4.290   6.503 -0.3636 -0.2902 -0.7650
  146SAPE   H8R16001   1.176   4.340   6.409 -0.7961  0.9392 -0.0104
  146SAPE   C2916002   1.237   4.373   6.608 -0.0103  0.0463 -0.5557
  146SAPE   H9R16003   1.240   4.482   6.593 -1.3508  0.2121  0.2300
  146SAPE  C21016004   1.270   4.326   6.745  0.0087 -0.3107  0.0705
  146SAPE  H10R16005   1.364   4.268   6.736 -0.8638 -1.6937 -0.4013
  146SAPE  H10S16006   1.185   4.262   6.777 -0.9858  0.6905 -0.4713
  146SAPE  C21116007   1.288   4.439   6.837 -0.2328 -0.3470  0.7329
  146SAPE  H11R16008   1.393   4.469   6.850  0.0471 -0.8444 -0.2894
  146SAPE  C21216009   1.197   4.505   6.913 -0.2610  0.3873 -0.0034
  146SAPE  H12R16010   1.225   4.596   6.968  2.5625  0.8728 -2.0370
  146SAPE  C21316011   1.050   4.474   6.910 -0.0968 -0.0159 -0.3157
  146SAPE  H13R16012   1.028   4.406   6.995  1.2549  2.1003  1.8530
  146SAPE  H13S16013   1.019   4.436   6.809  1.6688  1.5334 -1.5004
  146SAPE  C21416014   0.984   4.604   6.949  0.4622 -0.0594  0.1135
  146SAPE  H14R16015   0.990   4.626   7.057  3.9040 -1.1508  0.2623
  146SAPE  C21516016   0.928   4.691   6.868 -0.2119  0.3769  0.8081
  146SAPE  H15R16017   0.871   4.775   6.910  0.3955  2.0619 -1.4912
  146SAPE  C21616018   0.931   4.675   6.719 -0.4147  0.3521  0.4070
  146SAPE  H16R16019   0.829   4.638   6.697  0.1961 -1.4891  0.5582
  146SAPE  H16S16020   1.002   4.596   6.687 -0.6434  0.0297  0.6979
  146SAPE  C21716021   0.951   4.810   6.652  0.9798 -1.2733 -0.0146
  146SAPE  H17R16022   1.050   4.855   6.675  0.8691 -1.0139 -0.0402
  146SAPE  H17S16023   0.870   4.877   6.687  0.3834 -1.3313 -1.2530
  146SAPE  C21816024   0.964   4.811   6.505 -0.2816 -0.3160 -0.0847
  146SAPE  H18R16025   1.050   4.744   6.480  2.5390  2.3106  1.8143
  146SAPE  H18S16026   0.988   4.914   6.471 -0.3429  0.6031  2.4321
  146SAPE  C21916027   0.834   4.786   6.428  0.5707  0.2307 -0.5219
  146SAPE  H19R16028   0.758   4.867   6.437  0.1226 -0.3598  1.4188
  146SAPE  H19S16029   0.780   4.705   6.482 -0.1968  2.2606  1.9281
  146SAPE  C22016030   0.850   4.766   6.282 -0.2815 -0.3794  0.0725
  146SAPE  H20R16031   0.911   4.842   6.227 -0.5179 -1.4121 -1.6902
  146SAPE  H20S16032   0.752   4.742   6.235 -0.8023  0.6660  0.5979
  146SAPE  H20T16033   0.903   4.671   6.265 -3.2253 -2.5098  1.8180
  146SAPE   C3316034   0.236   4.013   6.774 -0.0693 -0.3981 -0.2977
  146SAPE   H3X16035   0.177   3.924   6.807 -2.1948  1.8765  2.5471
  146SAPE   H3Y16036   0.331   3.961   6.749 -0.8919 -1.7303 -0.7910
  146SAPE   C3416037   0.177   4.083   6.651 -0.2445  0.3783 -0.0506
  146SAPE   H4X16038   0.224   4.184   6.655 -1.0593  0.8021 -0.8144
  146SAPE   H4Y16039   0.067   4.098   6.648 -0.4903 -1.3700 -0.7285
  146SAPE   C3516040   0.214   4.013   6.523  0.6855 -0.0431 -0.5415
  146SAPE   H5X16041   0.155   3.919   6.518  0.1242  0.0290  2.6559
  146SAPE   H5Y16042   0.321   3.982   6.516  0.2546 -2.1443  1.0150
  146SAPE   C3616043   0.193   4.091   6.394  0.0512 -0.5480 -0.3140
  146SAPE   H6X16044   0.220   4.199   6.401  0.5358 -0.7109  0.4871
  146SAPE   H6Y16045   0.084   4.108   6.376 -0.2138 -1.5028  0.3251
  146SAPE   C3716046   0.255   4.044   6.259 -0.0636 -0.6874 -0.3651
  146SAPE   H7X16047   0.270   3.935   6.270 -0.5688 -0.8293 -1.0442
  146SAPE   H7Y16048   0.354   4.093   6.244 -0.9888  1.0976 -0.9625
  146SAPE   C3816049   0.165   4.088   6.144 -0.0411  0.4506  0.5048
  146SAPE   H8X16050   0.164   4.199   6.146 -0.9528  0.4517  2.8948
  146SAPE   H8Y16051   0.062   4.053   6.166 -0.8248  0.5526 -2.4915
  146SAPE   C3916052   0.209   4.027   6.007  0.1371 -0.2840 -0.5770
  146SAPE   H9X16053   0.266   3.934   6.027  2.0581 -0.3313 -5.1336
  146SAPE   H9Y16054   0.278   4.099   5.958  0.6329  1.3279  2.2447
  146SAPE  C31016055   0.097   4.009   5.908  0.4965 -0.0250  0.3365
  146SAPE  H10X16056   0.044   4.106   5.894  0.9570  0.0511 -1.0642
  146SAPE  H10Y16057   0.018   3.942   5.949  1.0029 -0.2726  0.9335
  146SAPE  C31116058   0.152   3.966   5.775  0.1789 -1.0041  0.0601
  146SAPE  H11X16059   0.204   3.869   5.788 -0.8717 -1.4262  1.3920
  146SAPE  H11Y16060   0.224   4.038   5.732  0.9813 -2.2939 -0.7944
  146SAPE  C31216061   0.044   3.948   5.681  0.1912 -0.0692  0.1559
  146SAPE  H12X16062  -0.015   4.043   5.680 -0.5068 -0.4887 -1.1878
  146SAPE  H12Y16063  -0.026   3.873   5.722  0.1139  0.7141  1.5265
  146SAPE  C31316064   0.101   3.917   5.536  0.6390 -0.5329  0.4694
  146SAPE  H13X16065   0.164   4.008   5.528 -1.4437  0.8473 -1.5718
  146SAPE  H13Y16066   0.016   3.927   5.466  1.3421  1.4256 -0.1704
  146SAPE  C31416067   0.180   3.785   5.530 -0.0254  0.2611  1.2234
  146SAPE  H14X16068   0.116   3.704   5.570 -1.6940  0.0985 -1.4485
  146SAPE  H14Y16069   0.268   3.805   5.595 -0.4687  0.0664  1.8879
  146SAPE  C31516070   0.232   3.740   5.386 -0.1242 -0.1902 -0.1578
  146SAPE  H15X16071   0.324   3.799   5.369 -1.1722  1.9945  1.3199
  146SAPE  H15Y16072   0.151   3.778   5.321 -0.1936 -0.2908 -0.1308
  146SAPE  C31616073   0.259   3.592   5.360 -0.3846 -0.0470 -0.0089
  146SAPE  H16X16074   0.170   3.533   5.389  0.8564 -1.2005  1.6468
  146SAPE  H16Y16075   0.337   3.552   5.427 -0.4629  2.2739  1.5762
  146SAPE  C31716076   0.310   3.569   5.220 -0.8819  0.2159  0.1574
  146SAPE  H17X16077   0.231   3.596   5.146 -0.6691 -0.7110 -0.4178
  146SAPE  H17Y16078   0.328   3.461   5.201 -0.0805  0.6729 -2.0463
  146SAPE  C31816079   0.446   3.635   5.193  0.6026 -0.4683 -0.0317
  146SAPE  H18X16080   0.420   3.742   5.206 -2.7289 -1.1048 -0.6295
  146SAPE  H18Y16081   0.495   3.609   5.097  1.7724 -0.3855  0.5211
  146SAPE  H18Z16082   0.527   3.619   5.267  1.7609  2.4727 -0.5207
  147SAPE     N16083   5.922   0.764   7.194 -0.1744  0.2432  0.6434
  147SAPE   HN116084   5.847   0.792   7.128 -0.1160  0.1555  0.5391
  147SAPE   HN216085   5.952   0.667   7.171  3.9522  1.3965  0.4443
  147SAPE   HN316086   5.881   0.763   7.290 -1.1776  1.2235  0.2419
  147SAPE   C1216087   6.052   0.837   7.199 -0.1220  0.7394 -0.2546
  147SAPE  H12A16088   6.057   0.870   7.305  0.1433 -1.0418  0.3208
  147SAPE  H12B16089   6.048   0.922   7.128  1.2943  1.0124 -0.0245
  147SAPE   C1116090   6.168   0.740   7.163 -0.0265  0.0182 -0.0079
  147SAPE  H11A16091   6.265   0.794   7.154  0.3278 -0.6916 -0.4963
  147SAPE  H11B16092   6.148   0.704   7.060  0.9934 -1.6131  0.3254
  147SAPE     P16093   6.318   0.562   7.274 -0.1245  0.3025 -0.2014
  147SAPE   O1316094   6.386   0.657   7.361 -0.1884 -0.2749 -0.3302
  147SAPE   O1416095   6.297   0.425   7.316 -0.4093  0.0301  0.0638
  147SAPE   O1216096   6.179   0.630   7.252  0.8873  0.1265  0.3393
  147SAPE   O1116097   6.390   0.558   7.130 -0.4878 -0.2495  0.0453
  147SAPE    C116098   6.337   0.480   7.022  0.0125 -0.6841 -0.4236
  147SAPE    HA16099   6.338   0.372   7.047  0.5283 -0.2408  1.6721
  147SAPE    HB16100   6.231   0.510   7.006 -0.4856 -2.1455 -0.0771
  147SAPE    C216101   6.422   0.505   6.896 -0.4993 -0.0136 -0.1652
  147SAPE    HS16102   6.362   0.481   6.806  0.3647 -1.1930 -0.4596
  147SAPE   O2116103   6.555   0.447   6.896 -0.1324  0.1002  0.2089
  147SAPE   C2116104   6.543   0.310   6.871 -0.7939 -0.3975 -0.6392
  147SAPE   O2216105   6.437   0.255   6.843 -0.3544  0.4399  0.2804
  147SAPE   C2216106   6.679   0.255   6.883 -0.2027  0.5792 -0.1940
  147SAPE   H2R16107   6.760   0.317   6.839  0.0770  0.0160 -0.4836
  147SAPE   H2S16108   6.702   0.248   6.992  0.2437  1.0156 -0.2531
  147SAPE    C316109   6.425   0.658   6.872 -0.0983  0.6211 -0.3169
  147SAPE    HX16110   6.459   0.716   6.961 -2.6989  2.7768 -0.5857
  147SAPE    HY16111   6.320   0.692   6.859 -0.2683 -0.3260 -1.5923
  147SAPE   O3116112   6.504   0.692   6.753  0.4891 -0.0630 -0.0292
  147SAPE   C3116113   6.632   0.696   6.773  0.1145 -0.1274  0.6957
  147SAPE   O3216114   6.691   0.688   6.881  0.5629 -0.5119  0.2068
  147SAPE   C3216115   6.703   0.723   6.640  0.2512 -0.2715  0.5983
  147SAPE   H2X16116   6.743   0.628   6.599  1.3644  0.4962 -0.1498
  147SAPE   H2Y16117   6.798   0.774   6.664 -0.1476  1.4454 -1.2449
  147SAPE   C2316118   6.698   0.100   6.844  0.3640 -0.2438 -0.0541
  147SAPE   H3R16119   6.618   0.043   6.897 -0.1392  1.6461  1.3375
  147SAPE   H3S16120   6.802   0.076   6.877 -0.1224 -0.1580  1.6437
  147SAPE   C2416121   6.687   0.080   6.689  0.3881 -0.2298  0.0989
  147SAPE   H4R16122   6.582   0.103   6.661  0.0367 -1.6113  0.2015
  147SAPE   H4S16123   6.689  -0.031   6.685  3.7879 -0.3011  0.7516
  147SAPE   C2516124   6.789   0.154   6.605  0.0115  0.1369  0.0730
  147SAPE   H5R16125   6.894   0.122   6.614  1.0154  2.4255 -2.2608
  147SAPE   C2616126   6.765   0.251   6.514 -0.4991  0.0073 -0.5253
  147SAPE   H6R16127   6.853   0.292   6.461 -1.6327  1.1742 -1.5668
  147SAPE   C2716128   6.637   0.322   6.484  0.3880 -0.3502 -0.7377
  147SAPE   H7R16129   6.654   0.427   6.452  0.5644  0.0098  0.4724
  147SAPE   H7S16130   6.583   0.330   6.581  0.2365 -1.7048 -0.6949
  147SAPE   C2816131   6.546   0.244   6.396 -0.5861  0.2860  0.3616
  147SAPE   H8R16132   6.570   0.136   6.399  1.6943  0.7714  2.3630
  147SAPE   C2916133   6.458   0.290   6.304 -0.0836  0.2279 -0.0804
  147SAPE   H9R16134   6.407   0.210   6.250 -0.2487  1.5474 -1.9711
  147SAPE  C21016135   6.423   0.429   6.272 -0.5014  0.0107 -0.4252
  147SAPE  H10R16136   6.369   0.442   6.175 -0.8600  1.1212 -0.0909
  147SAPE  H10S16137   6.517   0.486   6.255 -1.1640  1.1361 -0.3913
  147SAPE  C21116138   6.359   0.513   6.380 -0.3916  0.4344  0.3407
  147SAPE  H11R16139   6.362   0.472   6.482  2.9233 -0.4687 -0.0166
  147SAPE  C21216140   6.298   0.637   6.374 -0.4819 -0.4184 -0.6306
  147SAPE  H12R16141   6.252   0.672   6.468  1.0503  1.2526 -0.4515
  147SAPE  C21316142   6.272   0.715   6.243 -0.1624 -0.1607  0.1196
  147SAPE  H13R16143   6.365   0.703   6.183 -1.4544 -0.1041 -2.0178
  147SAPE  H13S16144   6.259   0.824   6.258 -1.4868 -0.2420 -0.2910
  147SAPE  C21416145   6.158   0.669   6.163  0.0120  0.3811  0.6222
  147SAPE  H14R16146   6.103   0.584   6.205  0.4140 -0.0843  0.2220
  147SAPE  C21516147   6.118   0.711   6.039 -0.1208 -0.8087 -0.1187
  147SAPE  H15R16148   6.031   0.666   5.989 -0.4222 -0.7720  0.3720
  147SAPE  C21616149   6.202   0.800   5.951 -0.3055 -0.1871  0.1226
  147SAPE  H16R16150   6.303   0.796   5.997 -0.5978 -0.2671  0.7658
  147SAPE  H16S16151   6.166   0.905   5.954 -0.7433 -0.3468  0.4671
  147SAPE  C21716152   6.221   0.765   5.805  0.2518  0.3699 -0.3323
  147SAPE  H17R16153   6.254   0.660   5.792  0.2127  0.3563 -0.3214
  147SAPE  H17S16154   6.284   0.839   5.751 -0.6256  0.8079 -0.7825
  147SAPE  C21816155   6.079   0.785   5.730 -0.2208 -0.1520  0.3194
  147SAPE  H18R16156   6.060   0.895   5.728  1.7901  0.2119 -0.9946
  147SAPE  H18S16157   6.001   0.728   5.785 -1.3428  0.1014 -0.9498
  147SAPE  C21916158   6.082   0.715   5.596 -0.0674  0.0909 -0.3339
  147SAPE  H19R16159   5.982   0.734   5.551 -0.7575  0.3583  1.2242
  147SAPE  H19S16160   6.092   0.604   5.599  1.4790  0.2194 -0.4046
  147SAPE  C22016161   6.191   0.775   5.501  0.0371 -0.0813 -0.6334
  147SAPE  H20R16162   6.191   0.882   5.530 -0.1819 -0.4804  0.9589
  147SAPE  H20S16163   6.179   0.761   5.392  2.4567  2.4570 -1.3438
  147SAPE  H20T16164   6.286   0.723   5.527 -0.2304 -0.2160  0.0930
  147SAPE   C3316165   6.612   0.793   6.531 -0.1355 -0.0747 -0.4298
  147SAPE   H3X16166   6.577   0.890   6.571  3.3596  0.8217  0.7488
  147SAPE   H3Y16167   6.527   0.725   6.506  0.4070 -0.4691 -1.2220
  147SAPE   C3416168   6.704   0.834   6.413 -0.9055 -0.2905  0.2630
  147SAPE   H4X16169   6.767   0.744   6.395 -0.1645  0.3410 -0.3860
  147SAPE   H4Y16170   6.771   0.918   6.442  2.0263 -2.8091  1.4588
  147SAPE   C3516171   6.617   0.858   6.283  0.3706  0.2306 -0.3349
  147SAPE   H5X16172   6.535   0.926   6.315  0.5105  0.8040 -1.1502
  147SAPE   H5Y16173   6.571   0.758   6.271  1.4544 -0.3268  0.0620
  147SAPE   C3616174   6.678   0.918   6.159 -0.3837 -0.2776 -0.3899
  147SAPE   H6X16175   6.771   0.863   6.134  0.6626  0.9660  0.5499
  147SAPE   H6Y16176   6.718   1.020   6.179 -0.4204 -0.4502  0.6054
  147SAPE   C3716177   6.585   0.923   6.039 -0.4593  0.3924  0.0952
  147SAPE   H7X16178   6.484   0.953   6.073 -2.4820 -1.5490 -3.5686
  147SAPE   H7Y16179   6.583   0.817   6.004 -0.5461  1.1103 -2.2523
  147SAPE   C3816180   6.650   1.012   5.934 -0.3674  1.0839  0.0451
  147SAPE   H8X16181   6.724   1.085   5.973  1.3176 -1.4394  1.9551
  147SAPE   H8Y16182   6.578   1.072   5.875  0.5175  0.5390 -1.6441
  147SAPE   C3916183   6.731   0.936   5.826  0.3582  0.0903  0.1578
  147SAPE   H9X16184   6.814   0.881   5.876  0.0934 -0.5698 -0.1145
  147SAPE   H9Y16185   6.785   1.009   5.762  0.4389  0.6731  0.8647
  147SAPE  C31016186   6.643   0.836   5.740  0.5429  0.6520 -0.0807
  147SAPE  H10X16187   6.562   0.893   5.689 -1.1820 -0.6111  1.1513
  147SAPE  H10Y16188   6.592   0.766   5.809  2.1291  0.8311  1.3511
  147SAPE  C31116189   6.719   0.744   5.632  0.3034  0.2590 -0.4095
  147SAPE  H11X16190   6.768   0.816   5.562 -0.4786  0.9506 -0.2611
  147SAPE  H11Y16191   6.642   0.693   5.571  0.1951  1.4850 -1.3379
  147SAPE  C31216192   6.813   0.644   5.693  0.0378  0.3239  0.1414
  147SAPE  H12X16193   6.769   0.582   5.773  2.5612  0.7974  2.0188
  147SAPE  H12Y16194   6.894   0.695   5.750  2.3804 -0.2110 -2.4560
  147SAPE  C31316195   6.876   0.544   5.589 -0.2493 -0.3127 -1.2460
  147SAPE  H13X16196   6.933   0.585   5.503 -0.3676  0.0181 -1.1689
  147SAPE  H13Y16197   6.783   0.508   5.539 -2.0679  1.6767  0.4622
  147SAPE  C31416198   6.947   0.434   5.666  0.1614 -0.9324 -0.0374
  147SAPE  H14X16199   6.868   0.383   5.725  0.5211 -1.0136  0.3736
  147SAPE  H14Y16200   7.009   0.470   5.751  1.0431 -0.1827 -0.9808
  147SAPE  C31516201   7.023   0.326   5.584 -0.4434 -0.5008  0.2638
  147SAPE  H15X16202   6.961   0.294   5.497  1.3223 -0.4492 -1.0688
  147SAPE  H15Y16203   7.038   0.242   5.656  0.7643 -0.7612 -0.2673
  147SAPE  C31616204   7.150   0.362   5.521 -0.0095  0.1553 -0.5653
  147SAPE  H16X16205   7.136   0.418   5.426  0.1794 -0.2146 -0.8079
  147SAPE  H16Y16206   7.214   0.279   5.487  1.0307  0.4842  0.5295
  147SAPE  C31716207   7.237   0.452   5.616  0.5638  0.6385 -0.0302
  147SAPE  H17X16208   7.233   0.412   5.720  2.2435  0.6113  0.0530
  147SAPE  H17Y16209   7.182   0.548   5.611  1.0119  0.8526 -3.0246
  147SAPE  C31816210   7.389   0.471   5.573  0.3237  0.2739 -0.3417
  147SAPE  H18X16211   7.432   0.369   5.557 -0.8848 -0.2639 -0.3197
  147SAPE  H18Y16212   7.443   0.533   5.647  0.6472 -1.3641  0.8460
  147SAPE  H18Z16213   7.384   0.520   5.474 -1.3832 -0.0007 -0.4329
  148SAPE     N16214   3.288   0.995   7.832  0.1084 -0.1916  0.0589
  148SAPE   HN116215   3.208   0.938   7.868 -1.2398  0.2049 -2.1262
  148SAPE   HN216216   3.372   0.942   7.862 -1.4055 -1.0170  3.3817
  148SAPE   HN316217   3.293   1.084   7.886  1.3482  1.1425 -2.0992
  148SAPE   C1216218   3.272   1.013   7.680 -0.0393  0.1202  0.5453
  148SAPE  H12A16219   3.201   1.096   7.658 -0.6623 -0.9815 -1.9497
  148SAPE  H12B16220   3.237   0.917   7.638 -1.1889  0.4658  0.6796
  148SAPE   C1116221   3.400   1.042   7.610 -0.2193 -0.2132  0.1340
  148SAPE  H11A16222   3.392   1.069   7.503  1.4462  0.3374  0.1233
  148SAPE  H11B16223   3.458   0.947   7.607  0.8227  0.2802  2.2111
  148SAPE     P16224   3.596   1.220   7.639 -0.3139  0.1841 -0.3314
  148SAPE   O1316225   3.673   1.251   7.768  0.4607  0.0595  0.5974
  148SAPE   O1416226   3.667   1.131   7.552 -1.1507  0.2948  0.0637
  148SAPE   O1216227   3.453   1.155   7.680 -0.5312  0.1623  0.4396
  148SAPE   O1116228   3.559   1.351   7.565  0.2424  0.4859 -0.3626
  148SAPE    C116229   3.442   1.425   7.588 -0.6029 -0.1555  0.0257
  148SAPE    HA16230   3.353   1.360   7.605 -0.3399 -0.3878  0.5501
  148SAPE    HB16231   3.443   1.501   7.669 -2.6266  2.1323 -1.9099
  148SAPE    C216232   3.416   1.513   7.457  0.5041 -0.2569  0.0828
  148SAPE    HS16233   3.305   1.522   7.453  0.6239  1.4002  0.0342
  148SAPE   O2116234   3.465   1.445   7.344  0.4117  0.5023  0.8475
  148SAPE   C2116235   3.391   1.338   7.298 -0.2441 -0.4813 -0.0274
  148SAPE   O2216236   3.277   1.312   7.339 -0.6407 -0.0648 -0.1996
  148SAPE   C2216237   3.471   1.267   7.190  0.3946  0.0706  0.0128
  148SAPE   H2R16238   3.581   1.278   7.197  0.4726  1.5568 -2.4171
  148SAPE   H2S16239   3.460   1.158   7.204  0.7477  0.3893  3.7098
  148SAPE    C316240   3.486   1.647   7.463  0.0345 -1.2550  0.0098
  148SAPE    HX16241   3.594   1.622   7.476  0.1282 -0.5558  0.6594
  148SAPE    HY16242   3.444   1.707   7.547 -0.2187  0.7326 -1.4561
  148SAPE   O3116243   3.488   1.714   7.339 -0.3305  0.4361  0.7715
  148SAPE   C3116244   3.379   1.791   7.318 -0.0183  0.1785  0.0892
  148SAPE   O3216245   3.284   1.803   7.394  0.2005 -0.2688  0.1323
  148SAPE   C3216246   3.396   1.853   7.176  0.2771 -0.1712  0.4375
  148SAPE   H2X16247   3.466   1.787   7.121 -0.1034  1.2580 -1.9437
  148SAPE   H2Y16248   3.450   1.950   7.188  0.2301 -0.3193  2.0485
  148SAPE   C2316249   3.430   1.305   7.043 -0.6765 -0.3181 -0.3904
  148SAPE   H3R16250   3.329   1.266   7.016  0.2115 -2.0344 -1.4313
  148SAPE   H3S16251   3.493   1.248   6.972  2.5126  1.2941  0.9597
  148SAPE   C2416252   3.446   1.452   7.016  0.3680 -0.5559 -0.2101
  148SAPE   H4R16253   3.395   1.504   7.100 -0.4871  0.3728 -1.2718
  148SAPE   H4S16254   3.385   1.483   6.928 -1.5510 -1.0766  0.8704
  148SAPE   C2516255   3.580   1.508   6.990  0.0825  0.9825  0.6518
  148SAPE   H5R16256   3.633   1.517   7.086  0.1036 -1.1087  0.8746
  148SAPE   C2616257   3.639   1.534   6.874  0.7261  0.0284  0.1206
  148SAPE   H6R16258   3.737   1.583   6.881  0.8642 -0.2180 -0.0785
  148SAPE   C2716259   3.582   1.521   6.738  0.3579 -0.2076 -0.3597
  148SAPE   H7R16260   3.542   1.622   6.714 -0.7551  0.0020  2.0843
  148SAPE   H7S16261   3.502   1.444   6.737  0.8043 -0.7265  1.2798
  148SAPE   C2816262   3.685   1.477   6.634  0.1368 -0.2094 -0.9472
  148SAPE   H8R16263   3.694   1.368   6.627  0.5825 -0.1108 -2.1631
  148SAPE   C2916264   3.774   1.555   6.564  0.4185  0.4497 -0.0615
  148SAPE   H9R16265   3.853   1.515   6.500  0.3368  2.1103 -1.2627
  148SAPE  C21016266   3.794   1.703   6.573 -0.3101  0.4742 -0.2170
  148SAPE  H10R16267   3.893   1.723   6.618  0.1848  1.4428 -1.6942
  148SAPE  H10S16268   3.717   1.748   6.640 -1.9976 -1.6775 -0.5999
  148SAPE  C21116269   3.778   1.766   6.437  0.2475 -0.2730 -0.2090
  148SAPE  H11R16270   3.673   1.786   6.411  0.3430 -0.2393 -0.5702
  148SAPE  C21216271   3.873   1.782   6.341  0.0192  1.0190  0.7080
  148SAPE  H12R16272   3.860   1.840   6.249  1.2527 -0.9156 -0.7605
  148SAPE  C21316273   4.017   1.738   6.347  0.0706 -0.5040  0.2369
  148SAPE  H13R16274   4.058   1.735   6.244  1.6974  1.3633  0.7722
  148SAPE  H13S16275   4.026   1.630   6.373  2.2507  0.1300  2.5105
  148SAPE  C21416276   4.104   1.826   6.442 -0.6115 -0.1165  0.2068
  148SAPE  H14R16277   4.059   1.909   6.499  0.3037 -1.1631  2.5480
  148SAPE  C21516278   4.231   1.801   6.465 -0.1605 -0.1067  1.2447
  148SAPE  H15R16279   4.288   1.865   6.534  0.6887 -1.2645  1.6421
  148SAPE  C21616280   4.307   1.691   6.411 -0.0791  0.5170 -0.3025
  148SAPE  H16R16281   4.412   1.725   6.397  0.8315 -1.0240  2.2130
  148SAPE  H16S16282   4.262   1.654   6.316 -0.9588  3.1111 -1.0121
  148SAPE  C21716283   4.294   1.566   6.493 -0.1633  0.5888  0.0364
  148SAPE  H17R16284   4.372   1.493   6.463 -2.3926 -1.4947 -1.0505
  148SAPE  H17S16285   4.196   1.516   6.487  0.4173 -0.4621 -1.2916
  148SAPE  C21816286   4.322   1.588   6.653  0.3697  0.5804 -1.3063
  148SAPE  H18R16287   4.228   1.634   6.689  0.0493  0.4771 -1.9818
  148SAPE  H18S16288   4.411   1.652   6.669  1.2460 -0.3446 -2.2856
  148SAPE  C21916289   4.333   1.455   6.728  0.6033 -0.5926 -0.4713
  148SAPE  H19R16290   4.417   1.403   6.677  1.5337 -0.7690  1.1641
  148SAPE  H19S16291   4.244   1.389   6.720 -0.2450  0.2335  1.4153
  148SAPE  C22016292   4.375   1.475   6.874 -0.6415  0.2186  0.1969
  148SAPE  H20R16293   4.298   1.531   6.932 -0.5068 -2.4287  3.2021
  148SAPE  H20S16294   4.472   1.529   6.878  0.1871 -1.0774 -1.4669
  148SAPE  H20T16295   4.386   1.376   6.923 -1.0220  0.4775  0.8262
  148SAPE   C3316296   3.265   1.867   7.094  0.0081 -0.2499 -0.2794
  148SAPE   H3X16297   3.194   1.936   7.144  2.6445  2.8875 -0.5860
  148SAPE   H3Y16298   3.216   1.767   7.088 -1.3776  0.2946  1.2698
  148SAPE   C3416299   3.288   1.920   6.954 -0.1226  1.1008  0.7504
  148SAPE   H4X16300   3.194   1.920   6.895  0.1992  2.9838  0.1779
  148SAPE   H4Y16301   3.361   1.852   6.906 -0.3444  0.4862  1.2655
  148SAPE   C3516302   3.350   2.056   6.939  0.0248  0.2153 -0.5550
  148SAPE   H5X16303   3.444   2.065   6.998  0.1259 -0.9149 -0.5253
  148SAPE   H5Y16304   3.279   2.129   6.983  0.3128  0.5231 -0.5935
  148SAPE   C3616305   3.373   2.090   6.793 -0.1312 -0.7502  0.1025
  148SAPE   H6X16306   3.272   2.090   6.748 -0.9263  0.0145  1.8006
  148SAPE   H6Y16307   3.440   2.010   6.753  2.9261  0.3231  2.6464
  148SAPE   C3716308   3.428   2.229   6.793  0.2687 -0.1142  0.5306
  148SAPE   H7X16309   3.529   2.232   6.839  1.9287  1.0659 -2.8527
  148SAPE   H7Y16310   3.358   2.290   6.854 -0.2899 -0.8284  0.6150
  148SAPE   C3816311   3.416   2.284   6.650  0.1894 -0.6528 -0.2596
  148SAPE   H8X16312   3.346   2.369   6.661 -0.7278 -1.6045  1.7597
  148SAPE   H8Y16313   3.358   2.207   6.594  1.2109 -1.0494 -0.8052
  148SAPE   C3916314   3.544   2.295   6.570  0.1371  0.2718  0.6975
  148SAPE   H9X16315   3.578   2.191   6.548 -0.9205  0.1751 -0.5842
  148SAPE   H9Y16316   3.633   2.337   6.623  1.5137 -1.9963  0.3252
  148SAPE  C31016317   3.518   2.377   6.435 -0.1661 -0.1650 -0.3707
  148SAPE  H10X16318   3.522   2.485   6.461 -1.8436 -0.1826  0.0313
  148SAPE  H10Y16319   3.417   2.351   6.397  1.0234 -1.2042 -3.0733
  148SAPE  C31116320   3.616   2.330   6.323 -0.3424 -0.9006  0.1947
  148SAPE  H11X16321   3.596   2.224   6.299  1.4173 -1.2888  0.2876
  148SAPE  H11Y16322   3.720   2.326   6.363  0.2033 -0.3053 -1.1040
  148SAPE  C31216323   3.622   2.429   6.199 -0.1555  0.2048  0.2917
  148SAPE  H12X16324   3.632   2.530   6.244 -1.7477  0.3989  0.2564
  148SAPE  H12Y16325   3.527   2.414   6.145 -0.0589  1.2104 -0.1719
  148SAPE  C31316326   3.723   2.387   6.092 -0.9495 -0.5062 -0.0515
  148SAPE  H13X16327   3.690   2.289   6.052 -0.0220 -0.8483 -0.0027
  148SAPE  H13Y16328   3.815   2.371   6.153 -2.4158 -3.3072  1.6266
  148SAPE  C31416329   3.761   2.492   5.991  0.4811  0.2862  0.7209
  148SAPE  H14X16330   3.853   2.472   5.932 -1.5006 -0.2352 -2.4609
  148SAPE  H14Y16331   3.772   2.591   6.039  0.6874  1.5322 -1.7197
  148SAPE  C31516332   3.664   2.491   5.873  0.8850  0.5584 -0.2392
  148SAPE  H15X16333   3.567   2.528   5.912  0.2958  0.8174 -1.9168
  148SAPE  H15Y16334   3.659   2.388   5.832  0.4662  1.5719 -2.9343
  148SAPE  C31616335   3.708   2.580   5.761 -0.2196 -0.0642  0.4911
  148SAPE  H16X16336   3.815   2.582   5.732 -0.4226  2.2782 -0.3388
  148SAPE  H16Y16337   3.700   2.687   5.789  0.3310 -0.5371  2.7085
  148SAPE  C31716338   3.639   2.552   5.634  0.1449 -0.3581  0.3286
  148SAPE  H17X16339   3.530   2.571   5.646 -0.1932 -1.5544 -0.5853
  148SAPE  H17Y16340   3.646   2.442   5.618  3.2490 -0.5928  2.5049
  148SAPE  C31816341   3.702   2.619   5.512  0.4122 -0.3137  0.2722
  148SAPE  H18X16342   3.666   2.724   5.517 -0.7557 -0.7257  0.9106
  148SAPE  H18Y16343   3.670   2.560   5.423 -1.5652  0.1535  0.6222
  148SAPE  H18Z16344   3.811   2.636   5.502  0.8222 -2.4436  0.6870
  149SAPE     N16345   4.651   3.597   7.442  0.1695 -0.2640 -0.6636
  149SAPE   HN116346   4.559   3.583   7.488  1.4318 -0.7774  1.8908
  149SAPE   HN216347   4.644   3.558   7.346  1.5922 -5.3860  0.9361
  149SAPE   HN316348   4.718   3.535   7.493 -0.8598 -0.6106  0.3093
  149SAPE   C1216349   4.682   3.742   7.438  0.4524 -0.3335  0.3006
  149SAPE  H12A16350   4.779   3.744   7.383 -0.4826 -0.4499 -1.4048
  149SAPE  H12B16351   4.686   3.790   7.538 -1.5075  1.3052 -0.3360
  149SAPE   C1116352   4.583   3.821   7.349 -0.7702 -0.3426  0.6322
  149SAPE  H11A16353   4.621   3.926   7.340  1.3429 -1.1902 -1.3946
  149SAPE  H11B16354   4.480   3.812   7.391 -0.9182 -1.7512  0.0062
  149SAPE     P16355   4.489   3.846   7.112  0.5256 -0.3776 -0.0520
  149SAPE   O1316356   4.400   3.950   7.174  0.2488  0.2235  0.9484
  149SAPE   O1416357   4.593   3.890   7.017  0.1514 -0.3179  0.0533
  149SAPE   O1216358   4.561   3.763   7.224 -0.1350 -0.3287  0.1520
  149SAPE   O1116359   4.382   3.743   7.050  0.3343 -0.6290 -0.2111
  149SAPE    C116360   4.399   3.604   7.045  0.0661  0.1050 -0.6064
  149SAPE    HA16361   4.478   3.553   7.104 -1.3104  0.5939  1.7923
  149SAPE    HB16362   4.305   3.568   7.092 -1.2761  3.0227 -0.8763
  149SAPE    C216363   4.385   3.556   6.901  0.3504  0.0999  0.0539
  149SAPE    HS16364   4.454   3.620   6.842 -1.4751  1.0245 -1.1956
  149SAPE   O2116365   4.252   3.589   6.861  0.1677  0.1944 -0.3703
  149SAPE   C2116366   4.229   3.598   6.730 -0.0145 -0.5761 -0.8495
  149SAPE   O2216367   4.314   3.596   6.645  0.2700 -0.4155  0.2397
  149SAPE   C2216368   4.083   3.604   6.705 -0.0788  0.2888  0.1020
  149SAPE   H2R16369   4.037   3.506   6.730  0.9744 -0.0589  0.7587
  149SAPE   H2S16370   4.023   3.682   6.757 -2.2382 -0.2320 -1.4651
  149SAPE    C316371   4.411   3.398   6.898 -0.1854  0.7445 -0.0161
  149SAPE    HX16372   4.333   3.351   6.961 -0.7352  0.5493 -0.8255
  149SAPE    HY16373   4.508   3.381   6.948 -1.1061  2.2469  2.4410
  149SAPE   O3116374   4.397   3.342   6.767  0.3925 -0.3082 -0.0644
  149SAPE   C3116375   4.514   3.336   6.706 -0.0224  0.6673 -0.5894
  149SAPE   O3216376   4.620   3.367   6.755 -0.3542 -0.4734 -0.4728
  149SAPE   C3216377   4.485   3.316   6.559 -0.0388 -0.0264  0.2382
  149SAPE   H2X16378   4.516   3.417   6.523 -2.0672 -0.2067 -2.3025
  149SAPE   H2Y16379   4.381   3.296   6.526  1.0086  1.0692 -4.4457
  149SAPE   C2316380   4.053   3.613   6.547  0.1420  0.0088  0.6438
  149SAPE   H3R16381   4.120   3.539   6.498  1.4994  1.0411  0.8867
  149SAPE   H3S16382   4.094   3.711   6.515 -0.4857 -0.6526 -2.5863
  149SAPE   C2416383   3.906   3.609   6.509  0.1950 -0.0897 -0.0746
  149SAPE   H4R16384   3.861   3.513   6.544 -2.4085  0.8801 -0.4827
  149SAPE   H4S16385   3.899   3.610   6.398 -0.7981  3.0125 -0.0557
  149SAPE   C2516386   3.818   3.716   6.573 -0.3691  0.5864  0.2634
  149SAPE   H5R16387   3.825   3.726   6.682 -1.5473  3.3640  0.1681
  149SAPE   C2616388   3.722   3.790   6.502  0.1458  0.3874  0.1833
  149SAPE   H6R16389   3.670   3.863   6.565 -1.1123 -0.3532  0.0331
  149SAPE   C2716390   3.699   3.789   6.349 -0.7666  0.1889 -0.5565
  149SAPE   H7R16391   3.609   3.849   6.323 -0.7026 -0.3169 -2.0694
  149SAPE   H7S16392   3.683   3.681   6.326 -2.5098  0.1212  0.7590
  149SAPE   C2816393   3.803   3.858   6.264 -0.1795  0.0848  0.1525
  149SAPE   H8R16394   3.882   3.904   6.325 -0.3679 -1.8678  1.9956
  149SAPE   C2916395   3.805   3.888   6.130  0.4708  0.3616  0.5055
  149SAPE   H9R16396   3.902   3.909   6.082  0.4815 -0.3745  0.1964
  149SAPE  C21016397   3.697   3.836   6.030  0.1629  0.0680  0.1165
  149SAPE  H10R16398   3.671   3.927   5.972  2.5144 -0.4515 -1.9465
  149SAPE  H10S16399   3.614   3.796   6.091  1.3982  0.6958  2.3309
  149SAPE  C21116400   3.740   3.729   5.929  0.1138 -0.4537  0.3342
  149SAPE  H11R16401   3.783   3.639   5.975  2.4064  1.7986  2.9576
  149SAPE  C21216402   3.734   3.747   5.796 -0.4019 -0.0769  0.1548
  149SAPE  H12R16403   3.785   3.672   5.733 -1.1470 -0.2292 -0.2774
  149SAPE  C21316404   3.676   3.862   5.714 -0.2170 -0.0690 -0.5375
  149SAPE  H13R16405   3.638   3.936   5.788 -0.9437 -2.2145  1.3499
  149SAPE  H13S16406   3.587   3.814   5.669  0.3814 -2.2483  0.4573
  149SAPE  C21416407   3.766   3.935   5.618  0.1794 -0.2886 -0.4162
  149SAPE  H14R16408   3.874   3.917   5.615 -0.0951 -2.2128 -3.1804
  149SAPE  C21516409   3.729   4.030   5.531 -0.6949  0.0040 -0.0886
  149SAPE  H15R16410   3.804   4.075   5.464  1.0081 -3.0261 -0.4026
  149SAPE  C21616411   3.584   4.075   5.519  0.1003 -0.1425  0.3043
  149SAPE  H16R16412   3.564   4.174   5.567  1.8790 -1.0726  3.2231
  149SAPE  H16S16413   3.509   4.001   5.556  0.0271  0.9550  2.5171
  149SAPE  C21716414   3.548   4.074   5.366  1.0452 -0.5739  0.4221
  149SAPE  H17R16415   3.568   3.976   5.319 -1.5041 -0.1732 -1.7427
  149SAPE  H17S16416   3.609   4.149   5.311 -1.8926  0.1970 -2.0667
  149SAPE  C21816417   3.409   4.119   5.325  0.0035 -0.2346 -0.0420
  149SAPE  H18R16418   3.388   4.203   5.395 -0.5857  0.4355 -1.0040
  149SAPE  H18S16419   3.342   4.039   5.364 -2.0234  0.6593 -1.5250
  149SAPE  C21916420   3.401   4.156   5.181  0.4165  0.5987  0.1074
  149SAPE  H19R16421   3.480   4.225   5.143 -0.6238  2.8434  1.7831
  149SAPE  H19S16422   3.301   4.201   5.164  1.4030  3.0546  0.2880
  149SAPE  C22016423   3.403   4.030   5.096 -0.0954 -0.4815 -0.3694
  149SAPE  H20R16424   3.410   4.052   4.988  1.3877 -3.4299 -0.9775
  149SAPE  H20S16425   3.320   3.956   5.108 -0.2363 -0.2290  0.2404
  149SAPE  H20T16426   3.503   3.986   5.113  0.7305  1.4987  0.0852
  149SAPE   C3316427   4.588   3.218   6.498  0.8363  0.4449  0.4853
  149SAPE   H3X16428   4.540   3.118   6.494 -1.9182  1.7104 -1.6873
  149SAPE   H3Y16429   4.683   3.206   6.555  1.2307 -0.7467 -0.3753
  149SAPE   C3416430   4.638   3.254   6.358  0.1372  0.1113 -0.2147
  149SAPE   H4X16431   4.701   3.177   6.308  1.3665  0.3885  0.8401
  149SAPE   H4Y16432   4.706   3.341   6.366  2.6157 -1.8252  1.6944
  149SAPE   C3516433   4.523   3.280   6.262  0.4489 -0.7223  0.2012
  149SAPE   H5X16434   4.439   3.341   6.302 -1.1039 -1.7952 -1.2843
  149SAPE   H5Y16435   4.463   3.190   6.241 -0.4953 -0.0245 -0.1268
  149SAPE   C3616436   4.575   3.332   6.128  0.8655  0.1793  0.2756
  149SAPE   H6X16437   4.646   3.263   6.078 -0.3806  0.8678 -2.6217
  149SAPE   H6Y16438   4.639   3.421   6.142  2.0704 -0.7879  1.2668
  149SAPE   C3716439   4.459   3.339   6.029 -0.7855 -0.2055  0.4044
  149SAPE   H7X16440   4.368   3.396   6.059 -1.5282 -1.1039 -0.0725
  149SAPE   H7Y16441   4.420   3.239   6.001  1.2922 -0.9931  0.1576
  149SAPE   C3816442   4.507   3.391   5.894  0.0989 -0.0448 -0.5351
  149SAPE   H8X16443   4.588   3.317   5.873 -0.1107 -1.0275  1.8517
  149SAPE   H8Y16444   4.554   3.492   5.898  1.3171 -0.5175 -1.7588
  149SAPE   C3916445   4.405   3.398   5.782  0.6239 -0.2542 -0.3425
  149SAPE   H9X16446   4.320   3.455   5.826  0.4608 -0.1967 -0.7313
  149SAPE   H9Y16447   4.365   3.296   5.765 -2.9168  1.0212 -0.5422
  149SAPE  C31016448   4.465   3.458   5.652  0.8230  0.4534 -0.8206
  149SAPE  H10X16449   4.551   3.525   5.676  1.2131 -0.3979  0.2312
  149SAPE  H10Y16450   4.387   3.511   5.594  0.3541  1.0996  0.3626
  149SAPE  C31116451   4.519   3.340   5.566  0.2241 -0.2654  0.7753
  149SAPE  H11X16452   4.445   3.258   5.554  2.8599 -2.6639 -0.0131
  149SAPE  H11Y16453   4.595   3.294   5.633 -0.0250 -0.7535  0.7253
  149SAPE  C31216454   4.582   3.369   5.431 -0.1802 -0.2685  0.3493
  149SAPE  H12X16455   4.609   3.273   5.381  0.9390  0.1103  0.2085
  149SAPE  H12Y16456   4.682   3.415   5.448 -0.2110 -0.6916  1.7592
  149SAPE  C31316457   4.499   3.459   5.332  0.2457  0.6753  0.1638
  149SAPE  H13X16458   4.476   3.556   5.380  1.1291  0.7774  0.3898
  149SAPE  H13Y16459   4.408   3.398   5.314  0.7776  0.0761 -0.5458
  149SAPE  C31416460   4.584   3.482   5.204  0.3774  0.9926 -0.4218
  149SAPE  H14X16461   4.587   3.380   5.162 -0.7401  0.0817  1.5388
  149SAPE  H14Y16462   4.687   3.523   5.212  0.4346  0.6012  1.0810
  149SAPE  C31516463   4.510   3.581   5.109 -0.2727  0.8257 -0.1930
  149SAPE  H15X16464   4.412   3.537   5.081 -0.2191  0.5225  0.0916
  149SAPE  H15Y16465   4.577   3.596   5.021  0.4199 -0.7704  0.0198
  149SAPE  C31616466   4.494   3.725   5.181 -0.1467  0.0447  0.1834
  149SAPE  H16X16467   4.594   3.750   5.223  1.9544 -1.4973 -3.4592
  149SAPE  H16Y16468   4.418   3.705   5.260 -0.2267  1.6183  0.5302
  149SAPE  C31716469   4.437   3.833   5.087 -0.0347 -0.0791  0.0750
  149SAPE  H17X16470   4.391   3.905   5.158  0.7762 -0.2000  0.7344
  149SAPE  H17Y16471   4.351   3.801   5.024  3.6287  1.1851 -6.4982
  149SAPE  C31816472   4.548   3.905   5.006 -0.3664 -0.2447  0.4769
  149SAPE  H18X16473   4.503   3.996   4.959  0.3886  0.3400  0.8585
  149SAPE  H18Y16474   4.608   3.849   4.932  0.9105  1.4713  0.1550
  149SAPE  H18Z16475   4.626   3.943   5.076  1.1588 -2.1061 -0.1161
  150SAPE     N16476   6.214   5.485   7.319 -0.5060  0.8269 -0.0497
  150SAPE   HN116477   6.178   5.514   7.412 -0.8740  0.6061 -0.1215
  150SAPE   HN216478   6.289   5.413   7.320 -0.9979  0.2951  0.9630
  150SAPE   HN316479   6.257   5.565   7.270 -1.6529  0.5376 -1.5985
  150SAPE   C1216480   6.096   5.450   7.231  0.0312 -1.0625  0.0212
  150SAPE  H12A16481   6.039   5.545   7.218  0.7516 -0.7397 -0.9652
  150SAPE  H12B16482   6.038   5.379   7.294  1.1056 -1.4772  0.5680
  150SAPE   C1116483   6.143   5.376   7.107 -0.1189 -0.2126 -0.2471
  150SAPE  H11A16484   6.207   5.454   7.061 -0.3220 -0.6249 -1.2442
  150SAPE  H11B16485   6.054   5.360   7.042  1.0290  2.1517 -2.5921
  150SAPE     P16486   6.164   5.118   7.114  0.3621 -0.1110  0.4346
  150SAPE   O1316487   6.232   5.048   7.224  0.1121  0.8522 -0.3113
  150SAPE   O1416488   6.015   5.132   7.115 -0.3369 -0.7003  0.3831
  150SAPE   O1216489   6.226   5.263   7.120  0.4860  0.2349  0.3619
  150SAPE   O1116490   6.216   5.077   6.974 -0.3377 -0.5022 -0.0772
  150SAPE    C116491   6.143   5.100   6.852 -0.1446 -0.2489  0.3160
  150SAPE    HA16492   6.089   5.197   6.866  2.3088  1.1522  0.6248
  150SAPE    HB16493   6.220   5.117   6.775  1.0408  0.5485  1.6343
  150SAPE    C216494   6.053   4.983   6.821  1.0305 -0.4340 -0.4041
  150SAPE    HS16495   5.968   4.988   6.893  0.5978  0.1341 -0.9468
  150SAPE   O2116496   6.114   4.853   6.832 -0.2534 -0.0942 -0.1984
  150SAPE   C2116497   6.056   4.733   6.839 -0.0875  0.1711 -0.0875
  150SAPE   O2216498   5.937   4.716   6.815  0.1289  0.5110 -0.0012
  150SAPE   C2216499   6.170   4.628   6.866  0.4017  0.1847  0.8508
  150SAPE   H2R16500   6.273   4.666   6.849  1.4255 -1.7226  2.3221
  150SAPE   H2S16501   6.161   4.592   6.971  1.5369  0.9193  1.2174
  150SAPE    C316502   5.992   4.997   6.681  0.0790 -0.9392 -0.2993
  150SAPE    HX16503   5.929   5.089   6.680  1.5739  0.1652 -3.2716
  150SAPE    HY16504   5.923   4.911   6.668 -1.5184  0.3696 -0.9080
  150SAPE   O3116505   6.089   5.003   6.575  0.5461 -0.3046 -0.1424
  150SAPE   C3116506   6.041   5.054   6.463 -0.9036 -0.2585 -0.0722
  150SAPE   O3216507   5.933   5.094   6.437 -0.2612 -0.0420  0.1553
  150SAPE   C3216508   6.158   5.054   6.369 -0.7557  0.8040 -0.1464
  150SAPE   H2X16509   6.198   4.952   6.347 -1.6354  0.3469  0.3555
  150SAPE   H2Y16510   6.239   5.118   6.412  2.0831 -2.1427 -0.6634
  150SAPE   C2316511   6.169   4.509   6.762 -0.0314  0.0790 -0.1505
  150SAPE   H3R16512   6.068   4.468   6.745 -0.2140  0.0093  1.0325
  150SAPE   H3S16513   6.242   4.435   6.801 -0.5166 -0.5632 -0.4384
  150SAPE   C2416514   6.224   4.544   6.624 -0.1866 -0.2780  0.1532
  150SAPE   H4R16515   6.206   4.452   6.564 -1.2499  1.3549 -2.1926
  150SAPE   H4S16516   6.333   4.565   6.633 -0.5253  1.7492  0.1275
  150SAPE   C2516517   6.167   4.661   6.557  0.4786  0.6190  0.0937
  150SAPE   H5R16518   6.186   4.758   6.605  0.8348  2.2666 -3.0842
  150SAPE   C2616519   6.088   4.653   6.446  0.0548  0.0516 -0.0609
  150SAPE   H6R16520   6.053   4.747   6.401  0.3476 -0.0244 -0.4556
  150SAPE   C2716521   6.062   4.525   6.378 -0.2002 -0.2831  0.1977
  150SAPE   H7R16522   6.011   4.452   6.445 -0.6347 -0.4759 -0.3257
  150SAPE   H7S16523   6.154   4.474   6.342 -0.5394 -0.5524 -0.3103
  150SAPE   C2816524   5.958   4.539   6.265 -0.3861 -0.7815  0.3930
  150SAPE   H8R16525   5.855   4.541   6.303  0.1107  1.4121  1.8128
  150SAPE   C2916526   5.974   4.525   6.129 -0.2879  0.1920 -0.2062
  150SAPE   H9R16527   5.888   4.547   6.064 -1.6166 -0.8274  1.1176
  150SAPE  C21016528   6.109   4.506   6.062  0.4285 -0.7279 -0.1815
  150SAPE  H10R16529   6.160   4.419   6.108  1.8310 -0.4293 -1.1145
  150SAPE  H10S16530   6.168   4.597   6.088 -0.7001  0.3562 -1.2687
  150SAPE  C21116531   6.107   4.487   5.914 -0.0122 -0.8355  0.0873
  150SAPE  H11R16532   6.036   4.410   5.880  0.9958 -1.2671 -1.1405
  150SAPE  C21216533   6.187   4.547   5.821  0.0895  0.2528 -0.7505
  150SAPE  H12R16534   6.170   4.524   5.715 -0.5642  2.1321 -1.0974
  150SAPE  C21316535   6.288   4.657   5.845 -0.6210 -0.2732  0.2131
  150SAPE  H13R16536   6.383   4.630   5.792  0.8787  1.7551  1.7278
  150SAPE  H13S16537   6.326   4.659   5.949  0.1738 -2.2474  0.0183
  150SAPE  C21416538   6.236   4.793   5.816  0.2398 -0.0109 -0.0065
  150SAPE  H14R16539   6.165   4.827   5.893 -0.6414 -1.2955 -0.2200
  150SAPE  C21516540   6.266   4.866   5.708  0.2266  0.2734 -0.3631
  150SAPE  H15R16541   6.217   4.964   5.704 -0.2884  0.0259 -0.1990
  150SAPE  C21616542   6.375   4.846   5.611  0.1302  0.7078  0.4476
  150SAPE  H16R16543   6.459   4.807   5.673  1.0658 -0.9432 -1.7028
  150SAPE  H16S16544   6.402   4.941   5.560  0.7422 -0.6775 -2.0042
  150SAPE  C21716545   6.346   4.742   5.495  0.4419  0.4690  0.4439
  150SAPE  H17R16546   6.259   4.787   5.443  0.1614  1.3230  1.6281
  150SAPE  H17S16547   6.307   4.646   5.536  0.5133 -0.2722 -1.1580
  150SAPE  C21816548   6.456   4.699   5.394  0.3645  0.2027 -0.0291
  150SAPE  H18R16549   6.542   4.649   5.445 -1.8207 -2.3029  1.4646
  150SAPE  H18S16550   6.500   4.785   5.339 -0.1889  1.2167  1.0651
  150SAPE  C21916551   6.392   4.600   5.295 -0.7293 -0.4691  0.8428
  150SAPE  H19R16552   6.302   4.643   5.247 -1.3025 -1.3255  1.1393
  150SAPE  H19S16553   6.371   4.507   5.352 -1.1102  0.9065  3.0453
  150SAPE  C22016554   6.501   4.572   5.183 -0.0523  0.2764  0.2334
  150SAPE  H20R16555   6.603   4.551   5.222  0.7000  0.5955 -1.4662
  150SAPE  H20S16556   6.514   4.654   5.108  2.7452  0.0062  0.2977
  150SAPE  H20T16557   6.473   4.481   5.126 -1.1128  0.9878 -0.4079
  150SAPE   C3316558   6.127   5.128   6.245  0.3714  0.0989 -0.0993
  150SAPE   H3X16559   6.088   5.229   6.270 -1.4266 -0.8131  0.9767
  150SAPE   H3Y16560   6.056   5.066   6.186  0.1713 -1.5533  1.7682
  150SAPE   C3416561   6.248   5.150   6.160 -1.0793 -0.7378  0.2786
  150SAPE   H4X16562   6.294   5.050   6.142  1.8499  0.3566  1.1843
  150SAPE   H4Y16563   6.335   5.202   6.205  1.4204 -2.0971 -2.6528
  150SAPE   C3516564   6.208   5.213   6.023  0.5242  0.0927  0.9186
  150SAPE   H5X16565   6.164   5.312   6.046 -0.2857 -0.2146  0.7227
  150SAPE   H5Y16566   6.118   5.162   5.982 -1.2995  2.0883  2.2183
  150SAPE   C3616567   6.315   5.205   5.911  0.0857 -0.2147 -0.5003
  150SAPE   H6X16568   6.335   5.099   5.883  2.0139 -0.2940  0.9814
  150SAPE   H6Y16569   6.410   5.238   5.957  0.0560 -1.1685  0.2819
  150SAPE   C3716570   6.270   5.297   5.789  0.6249 -0.5194 -0.6833
  150SAPE   H7X16571   6.246   5.405   5.800  1.7848 -0.4903  2.7446
  150SAPE   H7Y16572   6.167   5.265   5.759  0.9416  0.4622 -3.0604
  150SAPE   C3816573   6.359   5.289   5.671  0.4130 -0.1506 -0.3078
  150SAPE   H8X16574   6.410   5.190   5.679 -1.3185 -0.9388  2.7217
  150SAPE   H8Y16575   6.435   5.369   5.684  0.3852 -0.3741  1.5209
  150SAPE   C3916576   6.281   5.304   5.542 -0.3701  0.2946  1.0232
  150SAPE   H9X16577   6.235   5.405   5.553  2.6489  1.7402  1.2358
  150SAPE   H9Y16578   6.198   5.231   5.546 -1.0796  1.0591  0.7419
  150SAPE  C31016579   6.363   5.308   5.411 -0.0944  0.2886  0.1615
  150SAPE  H10X16580   6.428   5.219   5.395 -0.1366  0.6094 -2.0902
  150SAPE  H10Y16581   6.437   5.391   5.411  0.0430  0.1877  1.6239
  150SAPE  C31116582   6.281   5.310   5.275 -0.0096  0.1410 -0.1139
  150SAPE  H11X16583   6.178   5.269   5.284  0.1776 -0.6485 -1.4088
  150SAPE  H11Y16584   6.343   5.252   5.203 -1.2833 -1.9636  0.3982
  150SAPE  C31216585   6.258   5.463   5.239 -0.0195  0.5925 -0.2628
  150SAPE  H12X16586   6.355   5.519   5.239  1.4096 -1.6761 -2.7626
  150SAPE  H12Y16587   6.204   5.520   5.318 -0.5178  1.0509 -0.9195
  150SAPE  C31316588   6.192   5.467   5.097 -0.4811 -0.2246 -0.3660
  150SAPE  H13X16589   6.174   5.572   5.066 -1.5755 -0.9633 -2.4367
  150SAPE  H13Y16590   6.090   5.424   5.109 -1.2310  0.6196 -3.0134
  150SAPE  C31416591   6.262   5.388   4.980  0.7543  0.3035 -0.3317
  150SAPE  H14X16592   6.268   5.279   5.002  0.8746 -0.1946 -2.5921
  150SAPE  H14Y16593   6.370   5.414   4.979  0.8052  0.0660 -1.2193
  150SAPE  C31516594   6.205   5.415   4.843 -0.1851 -0.4744 -0.0602
  150SAPE  H15X16595   6.095   5.408   4.832 -0.0831 -0.6527 -1.1173
  150SAPE  H15Y16596   6.259   5.344   4.776  0.8137  0.5228 -0.3562
  150SAPE  C31616597   6.238   5.561   4.793  0.4081  0.3130  0.5248
  150SAPE  H16X16598   6.232   5.638   4.872  2.2162 -0.0406  1.0433
  150SAPE  H16Y16599   6.165   5.580   4.711  0.9309 -2.9932 -0.8794
  150SAPE  C31716600   6.373   5.580   4.727  0.1334 -1.0918  0.5591
  150SAPE  H17X16601   6.387   5.500   4.651 -0.0354 -0.9605  0.3889
  150SAPE  H17Y16602   6.455   5.578   4.802  0.2030 -2.8457  0.4912
  150SAPE  C31816603   6.376   5.721   4.656 -0.0467 -0.8618 -0.0555
  150SAPE  H18X16604   6.289   5.733   4.587 -0.7806  0.5009  1.0568
  150SAPE  H18Y16605   6.470   5.746   4.602 -0.2677  2.2187  0.7825
  150SAPE  H18Z16606   6.350   5.800   4.730 -0.9668  0.3421 -1.5964
  151SAPE     N16607   6.573   1.958   7.352  0.0473  0.0493 -0.3907
  151SAPE   HN116608   6.498   2.025   7.324  0.4459  0.1777 -1.1786
  151SAPE   HN216609   6.651   1.955   7.284 -0.4257 -3.1096 -0.9177
  151SAPE   HN316610   6.522   1.868   7.358 -0.0486  0.1733  2.2433
  151SAPE   C1216611   6.612   2.002   7.490  0.1392  0.3433  0.1399
  151SAPE  H12A16612   6.690   1.930   7.525  1.7725  2.3361  0.7863
  151SAPE  H12B16613   6.529   1.999   7.564 -0.5789 -2.4585 -0.6335
  151SAPE   C1116614   6.672   2.137   7.493 -0.3128  0.1889  0.0239
  151SAPE  H11A16615   6.675   2.149   7.604 -0.2420 -1.6299  0.2436
  151SAPE  H11B16616   6.604   2.208   7.441 -0.0713 -0.9549 -1.9496
  151SAPE     P16617   6.891   2.268   7.432  0.1193  0.0301 -0.3108
  151SAPE   O1316618   6.897   2.324   7.571  0.1889  0.1139  0.0430
  151SAPE   O1416619   7.022   2.226   7.371  0.5062  0.3691  0.5946
  151SAPE   O1216620   6.796   2.143   7.431  0.1361  0.0903  0.3427
  151SAPE   O1116621   6.824   2.372   7.334 -0.4478  0.7418  0.1831
  151SAPE    C116622   6.746   2.341   7.219 -1.0397 -0.4286  0.3130
  151SAPE    HA16623   6.737   2.231   7.206  1.2112 -0.9140  2.1900
  151SAPE    HB16624   6.642   2.378   7.233 -1.5383 -0.7425 -2.1759
  151SAPE    C216625   6.824   2.401   7.096  0.5185  0.3702  0.0878
  151SAPE    HS16626   6.766   2.371   7.006 -0.8217 -1.4025  1.4770
  151SAPE   O2116627   6.957   2.355   7.068 -0.3912  0.2653 -0.0492
  151SAPE   C2116628   6.960   2.223   7.027  0.0350 -0.2084 -0.1071
  151SAPE   O2216629   6.867   2.149   7.016  0.5247  0.3559  0.3201
  151SAPE   C2216630   7.112   2.181   7.006 -0.0731 -0.4504  1.1208
  151SAPE   H2R16631   7.161   2.271   6.963  1.8274 -1.9793 -0.1311
  151SAPE   H2S16632   7.162   2.172   7.105 -0.0279 -2.0345  0.9805
  151SAPE    C316633   6.825   2.556   7.088  1.4875  0.0628 -0.5741
  151SAPE    HX16634   6.884   2.596   7.173 -0.2690  2.0492 -0.2118
  151SAPE    HY16635   6.720   2.582   7.110  2.2064  0.2021  3.5650
  151SAPE   O3116636   6.880   2.608   6.961 -0.5247  0.1832 -0.2702
  151SAPE   C3116637   6.983   2.682   6.973  0.0777 -0.3660  0.0730
  151SAPE   O3216638   7.058   2.696   7.068  0.2153  0.8036 -0.0307
  151SAPE   C3216639   6.991   2.767   6.849 -0.0992 -0.6233 -0.3185
  151SAPE   H2X16640   6.912   2.841   6.871  0.5058 -0.4538  1.4623
  151SAPE   H2Y16641   6.963   2.696   6.768 -0.3175 -3.7620  2.2986
  151SAPE   C2316642   7.131   2.044   6.928 -0.0908 -0.1086  0.6341
  151SAPE   H3R16643   7.065   1.965   6.970 -0.1903 -0.9400 -0.9726
  151SAPE   H3S16644   7.238   2.014   6.922  1.0271  3.3947  0.8292
  151SAPE   C2416645   7.093   2.064   6.782 -0.0346  0.2111  0.2653
  151SAPE   H4R16646   7.001   2.126   6.783  0.8496  1.5636  0.0613
  151SAPE   H4S16647   7.071   1.965   6.735 -0.6054  0.1523  0.6458
  151SAPE   C2516648   7.201   2.138   6.699  0.0856  0.2370 -0.8400
  151SAPE   H5R16649   7.302   2.136   6.741  0.1232 -1.3889 -0.9225
  151SAPE   C2616650   7.181   2.208   6.588 -0.1063  0.2269  0.5305
  151SAPE   H6R16651   7.275   2.235   6.537  0.1228 -1.5884 -0.0685
  151SAPE   C2716652   7.053   2.201   6.502 -0.0847 -0.1183 -0.1741
  151SAPE   H7R16653   6.969   2.233   6.569  0.1444 -1.4399  0.7730
  151SAPE   H7S16654   7.029   2.098   6.471  0.2053 -0.0963 -0.4779
  151SAPE   C2816655   7.051   2.290   6.388  0.2670 -0.9684 -0.1351
  151SAPE   H8R16656   7.147   2.299   6.336 -0.3837  1.8502 -1.0186
  151SAPE   C2916657   6.942   2.348   6.329  0.4010 -0.1351  0.4745
  151SAPE   H9R16658   6.960   2.415   6.244  1.3249 -1.4914 -0.4268
  151SAPE  C21016659   6.802   2.359   6.392  0.3623 -0.2817  0.0100
  151SAPE  H10R16660   6.805   2.383   6.500 -0.3598 -0.9627  0.1898
  151SAPE  H10S16661   6.753   2.261   6.377  0.0327  0.1637 -2.2730
  151SAPE  C21116662   6.709   2.471   6.331 -0.5381  0.1919  0.4210
  151SAPE  H11R16663   6.674   2.558   6.389  0.7023 -1.0885  3.2784
  151SAPE  C21216664   6.641   2.477   6.217 -0.1276  0.3636  0.3313
  151SAPE  H12R16665   6.579   2.563   6.186 -3.1467 -2.5423 -2.5245
  151SAPE  C21316666   6.659   2.377   6.107  0.4364  0.1555  0.2642
  151SAPE  H13R16667   6.756   2.324   6.113  0.6621  0.1339 -2.2426
  151SAPE  H13S16668   6.677   2.424   6.008  2.6118 -0.3417  0.3720
  151SAPE  C21416669   6.542   2.279   6.099 -0.0691  0.0123 -0.4097
  151SAPE  H14R16670   6.541   2.204   6.180 -4.4160 -1.2639 -1.3258
  151SAPE  C21516671   6.444   2.279   6.011  0.9910 -0.3770  0.4057
  151SAPE  H15R16672   6.375   2.193   6.006  0.1895  0.1540  1.7103
  151SAPE  C21616673   6.436   2.362   5.881 -0.7688  0.2128 -0.3470
  151SAPE  H16R16674   6.476   2.463   5.905  0.0204 -0.5112  1.6102
  151SAPE  H16S16675   6.333   2.384   5.845  0.0335  0.6997 -2.4629
  151SAPE  C21716676   6.520   2.291   5.771  0.6819 -0.1489 -0.3918
  151SAPE  H17R16677   6.459   2.204   5.739  0.4029  0.6422 -2.1155
  151SAPE  H17S16678   6.608   2.250   5.824  1.0640  2.7307  1.4142
  151SAPE  C21816679   6.559   2.383   5.654  1.0187 -0.4392 -0.0544
  151SAPE  H18R16680   6.606   2.476   5.693  0.4451 -0.7201  1.3465
  151SAPE  H18S16681   6.470   2.421   5.600  1.2489  1.8198  1.0324
  151SAPE  C21916682   6.656   2.326   5.556  0.1566 -0.0810 -0.1107
  151SAPE  H19R16683   6.613   2.233   5.511  0.1150 -0.6520  1.0720
  151SAPE  H19S16684   6.745   2.295   5.615  1.6285  3.0983 -0.4830
  151SAPE  C22016685   6.704   2.421   5.448  0.5659 -0.5576  0.1363
  151SAPE  H20R16686   6.789   2.382   5.388  0.6026  0.8317 -0.7566
  151SAPE  H20S16687   6.725   2.519   5.497  1.8328 -0.4043 -0.6720
  151SAPE  H20T16688   6.617   2.441   5.383 -0.1143 -0.7211  0.9718
  151SAPE   C3316689   7.130   2.828   6.843  0.8964 -0.8578  0.4461
  151SAPE   H3X16690   7.152   2.879   6.939 -1.1211  2.3344 -0.6319
  151SAPE   H3Y16691   7.132   2.912   6.771  1.7546 -2.1467 -1.0995
  151SAPE   C3416692   7.236   2.729   6.784 -0.0361 -0.4067 -0.2353
  151SAPE   H4X16693   7.205   2.626   6.814 -1.0646 -0.7688 -2.3615
  151SAPE   H4Y16694   7.337   2.757   6.823  0.9238 -2.3995 -1.1304
  151SAPE   C3516695   7.236   2.736   6.629 -0.4434 -0.3975  0.9087
  151SAPE   H5X16696   7.241   2.840   6.589 -1.3431 -0.9117 -0.5881
  151SAPE   H5Y16697   7.139   2.693   6.599 -0.9033  0.0556  1.7008
  151SAPE   C3616698   7.351   2.678   6.561 -0.5218 -0.3445  0.0291
  151SAPE   H6X16699   7.353   2.573   6.597  1.9910 -0.3498  0.0310
  151SAPE   H6Y16700   7.443   2.725   6.604 -0.5128 -0.2529 -0.0911
  151SAPE   C3716701   7.334   2.679   6.405  0.3463  0.1723  0.2183
  151SAPE   H7X16702   7.324   2.782   6.366 -0.4218 -0.5463 -1.5719
  151SAPE   H7Y16703   7.240   2.624   6.387 -0.5486  0.9567  2.1284
  151SAPE   C3816704   7.440   2.592   6.336 -0.4146 -0.7523  0.1378
  151SAPE   H8X16705   7.430   2.489   6.377 -1.6710 -0.0512  1.6968
  151SAPE   H8Y16706   7.537   2.641   6.359 -1.7967  1.5352  1.5371
  151SAPE   C3916707   7.413   2.589   6.185  0.1100 -0.2805 -0.1016
  151SAPE   H9X16708   7.425   2.693   6.147 -2.8121  0.5596  0.9750
  151SAPE   H9Y16709   7.307   2.560   6.172  0.6825 -2.9312  0.6658
  151SAPE  C31016710   7.516   2.511   6.101  0.5401 -0.2697 -0.1722
  151SAPE  H10X16711   7.533   2.409   6.141 -0.5187 -0.7133 -0.8153
  151SAPE  H10Y16712   7.611   2.569   6.094 -0.7691  1.9474 -0.6064
  151SAPE  C31116713   7.463   2.493   5.960 -0.5895  0.8344 -0.2001
  151SAPE  H11X16714   7.440   2.596   5.926 -2.5522  0.3889 -0.3511
  151SAPE  H11Y16715   7.365   2.441   5.955 -0.3611  0.5184 -2.6325
  151SAPE  C31216716   7.559   2.428   5.859  0.5770 -0.5662 -0.0394
  151SAPE  H12X16717   7.584   2.323   5.884  0.8547 -0.5794 -0.3637
  151SAPE  H12Y16718   7.649   2.493   5.866  1.2465 -1.4903  0.2217
  151SAPE  C31316719   7.524   2.450   5.705 -0.5120  0.9292  0.1089
  151SAPE  H13X16720   7.511   2.559   5.689 -2.6435  1.0435  2.0523
  151SAPE  H13Y16721   7.420   2.411   5.695 -0.0011 -0.6740  0.6312
  151SAPE  C31416722   7.621   2.379   5.611  1.1731 -0.0205 -0.7296
  151SAPE  H14X16723   7.590   2.273   5.602 -2.4006  0.7936  0.3085
  151SAPE  H14Y16724   7.724   2.394   5.650  1.6924 -1.6058 -1.3928
  151SAPE  C31516725   7.604   2.443   5.472 -0.6008 -0.1607  0.2584
  151SAPE  H15X16726   7.644   2.546   5.480 -2.1743  0.4979  0.0299
  151SAPE  H15Y16727   7.499   2.452   5.437 -0.2554 -0.0869 -0.7707
  151SAPE  C31616728   7.690   2.368   5.360  0.5131  0.2914  0.2960
  151SAPE  H16X16729   7.653   2.263   5.350 -0.3004  0.7142 -1.5735
  151SAPE  H16Y16730   7.792   2.366   5.403  1.3785 -0.0035 -1.6837
  151SAPE  C31716731   7.697   2.428   5.219  0.2907 -0.1731 -0.4493
  151SAPE  H17X16732   7.766   2.514   5.233 -0.6174  0.3768  0.8599
  151SAPE  H17Y16733   7.595   2.456   5.186  0.2570 -0.0960 -0.2775
  151SAPE  C31816734   7.761   2.342   5.117 -0.4834 -0.5485  0.2114
  151SAPE  H18X16735   7.705   2.247   5.103  2.2078 -2.2689  0.2853
  151SAPE  H18Y16736   7.871   2.329   5.121 -0.3548  0.7927  2.3017
  151SAPE  H18Z16737   7.757   2.400   5.022 -2.3704  0.7559  1.0503
  152SAPE     N16738   1.922   4.951   7.272  0.8998 -0.4326  0.0634
  152SAPE   HN116739   1.958   5.000   7.187 -2.7814  1.6253 -0.5317
  152SAPE   HN216740   2.002   4.889   7.295  0.0543 -1.4140  0.4168
  152SAPE   HN316741   1.855   4.883   7.231  0.3737  1.2518 -2.0773
  152SAPE   C1216742   1.866   5.025   7.389  0.5725 -0.7310 -0.3943
  152SAPE  H12A16743   1.950   5.075   7.442 -0.4922  1.1116 -0.3438
  152SAPE  H12B16744   1.820   4.944   7.449 -0.0704 -0.3230 -0.3321
  152SAPE   C1116745   1.762   5.127   7.341 -1.0677 -0.0805 -0.1743
  152SAPE  H11A16746   1.816   5.181   7.261  2.3607 -0.5319  1.6377
  152SAPE  H11B16747   1.737   5.202   7.420  0.6514 -0.2171  0.5563
  152SAPE     P16748   1.514   5.081   7.369 -0.3987  0.3624  0.3069
  152SAPE   O1316749   1.526   5.025   7.509  0.2578 -0.5309 -0.1075
  152SAPE   O1416750   1.460   5.219   7.352 -0.0146  0.1740  0.2478
  152SAPE   O1216751   1.649   5.067   7.291  0.1491 -0.5640 -0.3328
  152SAPE   O1116752   1.426   4.986   7.280 -0.3902  0.1997 -0.6060
  152SAPE    C116753   1.449   4.848   7.269 -0.6017 -0.9357  0.8804
  152SAPE    HA16754   1.509   4.815   7.357  0.9226 -1.3500 -0.2636
  152SAPE    HB16755   1.353   4.792   7.265 -1.4179  0.3000  2.2696
  152SAPE    C216756   1.537   4.810   7.145 -0.2773 -0.5941 -0.2261
  152SAPE    HS16757   1.632   4.868   7.150 -0.5593 -0.0615 -0.9101
  152SAPE   O2116758   1.454   4.839   7.032 -0.0852 -0.1747  0.2631
  152SAPE   C2116759   1.509   4.917   6.941 -0.1692  0.0992  0.0155
  152SAPE   O2216760   1.614   4.979   6.959  0.3640  0.1678 -0.4421
  152SAPE   C2216761   1.422   4.911   6.816  0.1594 -0.2485 -0.1897
  152SAPE   H2R16762   1.321   4.941   6.853  1.0317 -0.5625  2.7453
  152SAPE   H2S16763   1.453   4.975   6.731 -1.4310  0.0134 -0.6089
  152SAPE    C316764   1.565   4.659   7.127  0.0428  0.3478  0.6015
  152SAPE    HX16765   1.467   4.620   7.091 -1.5647  3.6768  1.0692
  152SAPE    HY16766   1.584   4.613   7.226  1.5913 -1.3232 -0.3990
  152SAPE   O3116767   1.671   4.620   7.032  0.3566  0.4505 -0.2398
  152SAPE   C3116768   1.796   4.650   7.077  0.3093  0.1139  0.1354
  152SAPE   O3216769   1.818   4.700   7.184 -0.0031 -0.4518 -0.0143
  152SAPE   C3216770   1.900   4.586   6.984  0.6446 -0.2738 -0.2553
  152SAPE   H2X16771   1.858   4.486   6.961  1.3164 -0.9834  1.4294
  152SAPE   H2Y16772   1.997   4.584   7.039  0.6696  3.3825  0.1065
  152SAPE   C2316773   1.420   4.770   6.752  0.1581 -0.1381 -0.0219
  152SAPE   H3R16774   1.333   4.763   6.683  1.1718  0.3897 -1.4006
  152SAPE   H3S16775   1.413   4.689   6.827  0.2074 -0.3751 -0.2710
  152SAPE   C2416776   1.544   4.762   6.656  0.1294 -0.3859 -0.5607
  152SAPE   H4R16777   1.635   4.789   6.715 -0.1094  2.1869 -1.2583
  152SAPE   H4S16778   1.508   4.836   6.581 -0.8517  0.2919  0.5344
  152SAPE   C2516779   1.560   4.619   6.617 -0.0508 -0.7264  0.0853
  152SAPE   H5R16780   1.572   4.548   6.700  0.2661 -0.3202  0.3924
  152SAPE   C2616781   1.568   4.567   6.493 -0.2317 -0.5906  0.5326
  152SAPE   H6R16782   1.595   4.463   6.469 -4.5575 -1.6658 -0.6776
  152SAPE   C2716783   1.555   4.635   6.366  0.3203 -0.2529 -0.0211
  152SAPE   H7R16784   1.648   4.611   6.309  1.0728  0.3068  0.9284
  152SAPE   H7S16785   1.564   4.746   6.373 -1.1826 -0.1349  0.1791
  152SAPE   C2816786   1.423   4.599   6.300  0.5810  0.0068 -0.2953
  152SAPE   H8R16787   1.339   4.575   6.367  1.5170  0.3569  1.0567
  152SAPE   C2916788   1.393   4.607   6.165 -0.3977  0.6635  0.2908
  152SAPE   H9R16789   1.294   4.575   6.129  0.6471 -1.0794 -1.2195
  152SAPE  C21016790   1.484   4.657   6.057 -0.5705 -0.3708  0.6728
  152SAPE  H10R16791   1.590   4.637   6.083  0.2478  1.6406 -0.8006
  152SAPE  H10S16792   1.472   4.767   6.064 -1.6270 -0.4781  0.7783
  152SAPE  C21116793   1.446   4.614   5.915 -0.4968  0.3211  0.4280
  152SAPE  H11R16794   1.508   4.536   5.869  1.7555  2.1111  0.2804
  152SAPE  C21216795   1.338   4.653   5.835 -0.5659 -0.3236  0.5584
  152SAPE  H12R16796   1.335   4.600   5.739 -0.3950  0.6080  0.0297
  152SAPE  C21316797   1.241   4.764   5.853  0.2213  0.0246 -0.3344
  152SAPE  H13R16798   1.228   4.831   5.765 -1.8661  2.2116  1.5046
  152SAPE  H13S16799   1.269   4.828   5.939  0.1452 -1.2996  0.7025
  152SAPE  C21416800   1.107   4.709   5.901  0.2534  0.0605 -0.3529
  152SAPE  H14R16801   1.109   4.607   5.942  0.0627 -0.2856 -1.1774
  152SAPE  C21516802   0.983   4.763   5.883 -0.3278 -0.3170  0.1562
  152SAPE  H15R16803   0.893   4.711   5.919  0.9952 -1.3685  2.1218
  152SAPE  C21616804   0.973   4.902   5.817 -0.2233  0.0894  0.4978
  152SAPE  H16R16805   1.071   4.939   5.779  0.4011 -0.4816  1.5256
  152SAPE  H16S16806   0.940   4.976   5.893 -1.3911 -0.2119  0.3015
  152SAPE  C21716807   0.881   4.902   5.694  0.0803 -0.4825 -0.1886
  152SAPE  H17R16808   0.847   5.004   5.667  0.8860  0.4459  2.0672
  152SAPE  H17S16809   0.791   4.837   5.707  0.4486 -0.9339  0.1580
  152SAPE  C21816810   0.947   4.857   5.565  0.5788 -0.5561 -0.4961
  152SAPE  H18R16811   0.976   4.752   5.589  0.4349 -0.9902 -2.1219
  152SAPE  H18S16812   1.043   4.910   5.548  0.6548 -0.6240 -0.2796
  152SAPE  C21916813   0.861   4.877   5.438 -0.3001  0.1020  0.1774
  152SAPE  H19R16814   0.904   4.820   5.352 -1.9116  0.7399 -1.0898
  152SAPE  H19S16815   0.877   4.984   5.415  0.1189 -0.2356 -1.2159
  152SAPE  C22016816   0.708   4.852   5.457  0.4523 -0.0252  0.0182
  152SAPE  H20R16817   0.660   4.842   5.357  0.9755  3.4066 -0.6986
  152SAPE  H20S16818   0.667   4.932   5.522  2.8397  1.4405 -0.1838
  152SAPE  H20T16819   0.692   4.752   5.504 -1.5875  0.4516  0.4622
  152SAPE   C3316820   1.920   4.670   6.861 -0.0095  0.5061  0.4782
  152SAPE   H3X16821   1.828   4.673   6.799 -0.3648  0.6673  1.0045
  152SAPE   H3Y16822   1.996   4.624   6.794  1.3272  1.7641  1.0534
  152SAPE   C3416823   1.964   4.812   6.880 -0.7928  0.4677  0.3781
  152SAPE   H4X16824   2.061   4.802   6.935 -1.4802 -3.9424  1.1856
  152SAPE   H4Y16825   1.906   4.872   6.953  2.8489  0.7147  3.3739
  152SAPE   C3516826   1.980   4.894   6.744  1.1946 -0.6067 -0.3231
  152SAPE   H5X16827   1.972   4.825   6.657  0.7803  2.4145 -2.8423
  152SAPE   H5Y16828   2.078   4.943   6.723  0.1723  0.6719 -2.4188
  152SAPE   C3616829   1.870   4.999   6.736  0.3078 -0.0146  0.0416
  152SAPE   H6X16830   1.889   5.072   6.817  1.2469 -2.5749  2.3113
  152SAPE   H6Y16831   1.768   4.964   6.763 -0.5131  2.5588  0.5167
  152SAPE   C3716832   1.844   5.071   6.597  0.0365  0.3613 -0.8473
  152SAPE   H7X16833   1.943   5.115   6.571  0.3504 -0.3798 -0.9159
  152SAPE   H7Y16834   1.774   5.156   6.615 -0.1419 -0.0216  0.3886
  152SAPE   C3816835   1.810   4.972   6.485  0.0674  0.2581 -0.1577
  152SAPE   H8X16836   1.748   4.888   6.522  3.6388 -2.1333  1.0068
  152SAPE   H8Y16837   1.909   4.930   6.455  0.2007  0.2841  0.2485
  152SAPE   C3916838   1.761   5.035   6.356 -0.2387  1.1433  0.4155
  152SAPE   H9X16839   1.818   5.129   6.340 -1.0474  1.3949 -1.1507
  152SAPE   H9Y16840   1.656   5.060   6.380 -0.1796  0.1363  1.7956
  152SAPE  C31016841   1.787   4.939   6.235 -0.4222  0.3922  0.3484
  152SAPE  H10X16842   1.720   4.850   6.238  0.8885 -0.6475  0.0292
  152SAPE  H10Y16843   1.885   4.889   6.253  0.8546  2.2399 -1.0727
  152SAPE  C31116844   1.773   5.015   6.105 -0.1754 -0.2996  0.5517
  152SAPE  H11X16845   1.856   5.089   6.103  0.3417 -0.8249 -1.9694
  152SAPE  H11Y16846   1.675   5.065   6.121  0.2766  0.3576  1.3506
  152SAPE  C31216847   1.786   4.928   5.982 -0.7196 -0.1556  0.2675
  152SAPE  H12X16848   1.715   4.843   5.973 -0.3533 -0.3519 -0.8886
  152SAPE  H12Y16849   1.887   4.885   5.973 -1.7318 -2.4527 -0.9507
  152SAPE  C31316850   1.755   5.011   5.853 -0.1056  0.0793  0.1768
  152SAPE  H13X16851   1.839   5.083   5.851  1.1753 -1.3632 -0.7769
  152SAPE  H13Y16852   1.656   5.060   5.867 -0.7991 -1.6849  1.9214
  152SAPE  C31416853   1.743   4.937   5.723  0.2136 -1.1064 -0.4223
  152SAPE  H14X16854   1.637   4.928   5.694 -0.9970 -0.5042  3.2448
  152SAPE  H14Y16855   1.790   4.836   5.727  2.3335 -0.2095 -1.0335
  152SAPE  C31516856   1.812   5.008   5.605 -0.7156  0.1236  0.3092
  152SAPE  H15X16857   1.918   5.025   5.632  0.4258 -0.2847 -3.3573
  152SAPE  H15Y16858   1.769   5.108   5.586  0.4880  0.7230  0.6175
  152SAPE  C31616859   1.816   4.922   5.483 -0.0066  0.3149 -0.5378
  152SAPE  H16X16860   1.710   4.903   5.455 -0.3229 -1.1308  1.4071
  152SAPE  H16Y16861   1.868   4.825   5.498  2.9458  2.1309  2.0708
  152SAPE  C31716862   1.893   4.993   5.365  0.6742  0.0648 -0.0656
  152SAPE  H17X16863   1.993   5.025   5.400  0.2637 -0.1475  1.3668
  152SAPE  H17Y16864   1.843   5.087   5.332  2.0165 -0.1488 -3.0664
  152SAPE  C31816865   1.901   4.909   5.237  0.4219 -0.1787 -0.5182
  152SAPE  H18X16866   1.973   4.952   5.163  1.5307 -0.3143  0.4476
  152SAPE  H18Y16867   1.800   4.889   5.197 -0.4544  0.7539  1.1304
  152SAPE  H18Z16868   1.942   4.808   5.259 -1.1682 -0.5462  0.9292
  153SAPE     N16869   0.760   5.290   7.465  0.0006 -0.5361  0.3438
  153SAPE   HN116870   0.792   5.349   7.545 -0.8616 -0.9993  1.0420
  153SAPE   HN216871   0.716   5.357   7.398 -1.7217 -0.4705  1.4788
  153SAPE   HN316872   0.685   5.223   7.491 -1.1046  0.8814  0.9860
  153SAPE   C1216873   0.874   5.220   7.399 -0.2485  0.5831 -0.0634
  153SAPE  H12A16874   0.962   5.288   7.394 -0.0328  0.4461  1.5384
  153SAPE  H12B16875   0.857   5.190   7.293  1.0335  1.2844 -0.4926
  153SAPE   C1116876   0.904   5.102   7.488  0.0219  0.1664  0.3352
  153SAPE  H11A16877   0.915   5.140   7.592  1.3711 -0.9858  0.6573
  153SAPE  H11B16878   1.003   5.054   7.474 -0.0078  0.0690  0.4546
  153SAPE     P16879   0.794   4.863   7.530 -0.1730  0.1443  0.2112
  153SAPE   O1316880   0.917   4.789   7.480  0.0128 -0.5287 -0.0410
  153SAPE   O1416881   0.785   4.873   7.679 -0.5980  0.0212 -0.3969
  153SAPE   O1216882   0.801   5.006   7.470  0.2799  0.2980  0.1304
  153SAPE   O1116883   0.675   4.790   7.475  0.5721 -0.4897  0.6875
  153SAPE    C116884   0.547   4.848   7.434 -0.1496  0.3767  0.3388
  153SAPE    HA16885   0.465   4.781   7.468  0.3842  0.5349  2.0358
  153SAPE    HB16886   0.524   4.950   7.473 -2.0619 -0.5173  1.7343
  153SAPE    C216887   0.547   4.860   7.271  0.2104 -0.8033 -0.1291
  153SAPE    HS16888   0.445   4.853   7.227 -0.0108 -1.2079  0.4298
  153SAPE   O2116889   0.633   4.756   7.223 -0.6339 -0.3661  0.4839
  153SAPE   C2116890   0.583   4.631   7.230 -0.3366  0.3953 -0.0569
  153SAPE   O2216891   0.477   4.598   7.277  0.1566 -0.3106 -0.0250
  153SAPE   C2216892   0.688   4.531   7.179 -0.1264  0.5541 -0.2144
  153SAPE   H2R16893   0.750   4.598   7.115 -0.3789  0.3834 -0.6452
  153SAPE   H2S16894   0.758   4.507   7.262  2.0960 -1.9713 -2.6045
  153SAPE    C316895   0.608   4.993   7.211 -0.4892  0.4366 -0.7365
  153SAPE    HX16896   0.714   5.006   7.239 -0.7505 -0.5776  0.8621
  153SAPE    HY16897   0.560   5.081   7.259 -0.8333 -0.0618 -0.1546
  153SAPE   O3116898   0.583   5.002   7.070  0.2585 -0.2196  0.1738
  153SAPE   C3116899   0.660   5.090   7.014  0.5411 -0.2391 -0.0969
  153SAPE   O3216900   0.741   5.165   7.068 -0.1255  0.2251  0.5091
  153SAPE   C3216901   0.643   5.080   6.858 -0.0291 -0.0070 -0.3274
  153SAPE   H2X16902   0.535   5.102   6.842 -1.0072 -3.4866  0.8073
  153SAPE   H2Y16903   0.667   4.974   6.838 -0.7487 -0.4821  1.1911
  153SAPE   C2316904   0.633   4.413   7.099 -0.4575  0.3116 -1.1315
  153SAPE   H3R16905   0.581   4.345   7.170 -0.7943  2.4390  0.7669
  153SAPE   H3S16906   0.730   4.371   7.063  1.7298  4.0281 -0.0811
  153SAPE   C2416907   0.534   4.437   6.989  0.0516 -0.2410 -0.0175
  153SAPE   H4R16908   0.444   4.487   7.030 -0.5018  0.4259 -1.9607
  153SAPE   H4S16909   0.501   4.340   6.945  1.0608 -0.5840 -0.0479
  153SAPE   C2516910   0.596   4.514   6.873 -0.1442 -0.2205  0.0182
  153SAPE   H5R16911   0.682   4.577   6.899 -2.5762  2.2043  3.1539
  153SAPE   C2616912   0.576   4.489   6.746  0.2654  0.1470  1.1989
  153SAPE   H6R16913   0.623   4.554   6.670 -0.2650  1.0722  1.6532
  153SAPE   C2716914   0.468   4.405   6.688 -0.4268  0.5442  0.3405
  153SAPE   H7R16915   0.419   4.475   6.617 -0.2303 -0.2199 -0.5652
  153SAPE   H7S16916   0.393   4.387   6.768  1.6247 -2.1432  1.8326
  153SAPE   C2816917   0.511   4.279   6.611 -0.1080  0.2383 -0.1599
  153SAPE   H8R16918   0.489   4.182   6.658 -0.7429  0.2595 -0.4103
  153SAPE   C2916919   0.573   4.274   6.488 -0.4998 -0.7554 -0.1473
  153SAPE   H9R16920   0.601   4.178   6.441  2.5512 -2.0157  3.6580
  153SAPE  C21016921   0.617   4.396   6.414 -1.2248  0.2756 -0.7560
  153SAPE  H10R16922   0.569   4.486   6.457  1.8719  1.4917  0.4293
  153SAPE  H10S16923   0.583   4.400   6.308  0.2941  0.2993 -1.2721
  153SAPE  C21116924   0.765   4.413   6.442  0.5084 -0.0799  0.1371
  153SAPE  H11R16925   0.797   4.461   6.535  1.4343  0.3777 -0.3976
  153SAPE  C21216926   0.854   4.399   6.347 -0.5557  0.4266 -0.4361
  153SAPE  H12R16927   0.951   4.448   6.366 -0.4417 -0.2854  0.9658
  153SAPE  C21316928   0.835   4.346   6.208  0.0244  0.4728  0.4837
  153SAPE  H13R16929   0.859   4.424   6.133  1.1905  1.6825  2.0576
  153SAPE  H13S16930   0.729   4.317   6.190 -0.1636  1.0476  0.6508
  153SAPE  C21416931   0.899   4.211   6.180 -0.4634 -0.3290  0.5083
  153SAPE  H14R16932   0.868   4.129   6.246 -0.7028 -1.0036 -0.4255
  153SAPE  C21516933   1.006   4.184   6.104 -0.2769  0.0035  0.2034
  153SAPE  H15R16934   1.032   4.077   6.098 -1.4456 -0.3160  0.5923
  153SAPE  C21616935   1.110   4.276   6.035  0.7923  0.2375  0.9414
  153SAPE  H16R16936   1.084   4.384   6.042 -0.9143  0.0442 -1.2895
  153SAPE  H16S16937   1.125   4.249   5.928  2.0295  0.5083  1.0235
  153SAPE  C21716938   1.244   4.253   6.108  0.8535 -0.7368  0.9582
  153SAPE  H17R16939   1.233   4.246   6.218  0.5703 -0.5579  0.9436
  153SAPE  H17S16940   1.307   4.340   6.081 -1.4053  0.1118 -2.0687
  153SAPE  C21816941   1.321   4.132   6.044  0.4081 -0.5986  0.2037
  153SAPE  H18R16942   1.342   4.146   5.936  1.9068  1.2168  0.6928
  153SAPE  H18S16943   1.257   4.041   6.056 -2.5278  0.9575 -2.3378
  153SAPE  C21916944   1.462   4.120   6.102 -0.6779 -0.1306 -0.2188
  153SAPE  H19R16945   1.512   4.028   6.063 -0.0179  0.2836 -0.3839
  153SAPE  H19S16946   1.457   4.110   6.212 -1.8739 -0.5790 -0.3078
  153SAPE  C22016947   1.555   4.233   6.067  0.4311  0.4447  0.3878
  153SAPE  H20R16948   1.526   4.335   6.100  0.2914  1.0666 -1.5142
  153SAPE  H20S16949   1.571   4.238   5.957 -0.0744  2.0738  0.3646
  153SAPE  H20T16950   1.664   4.217   6.083  0.4120 -1.6019 -1.1035
  153SAPE   C3316951   0.736   5.169   6.778  0.0656 -0.2850 -0.7335
  153SAPE   H3X16952   0.840   5.132   6.785 -0.3746 -1.2051  1.9731
  153SAPE   H3Y16953   0.723   5.272   6.817 -0.8121 -0.7625  0.2666
  153SAPE   C3416954   0.711   5.178   6.626  0.4539  0.1300  0.3068
  153SAPE   H4X16955   0.607   5.216   6.618  0.8386  1.0961 -0.2863
  153SAPE   H4Y16956   0.713   5.072   6.595 -1.0400 -0.0247  0.6797
  153SAPE   C3516957   0.810   5.269   6.559 -0.4425  0.1318  1.0204
  153SAPE   H5X16958   0.914   5.249   6.593 -0.2655  1.5125  1.3733
  153SAPE   H5Y16959   0.790   5.374   6.589 -0.1973  0.7539 -0.8650
  153SAPE   C3616960   0.804   5.267   6.404 -0.0810  0.0506  0.4355
  153SAPE   H6X16961   0.697   5.280   6.378 -0.1908  1.2870  1.4176
  153SAPE   H6Y16962   0.861   5.174   6.380  3.6566  2.3671 -0.5705
  153SAPE   C3716963   0.886   5.379   6.338  0.4579 -0.1433 -0.1513
  153SAPE   H7X16964   0.988   5.393   6.380  0.1131  0.9013  0.3556
  153SAPE   H7Y16965   0.842   5.481   6.346 -0.3819 -0.5918  1.2708
  153SAPE   C3816966   0.915   5.351   6.190 -0.2393 -0.3242 -0.3318
  153SAPE   H8X16967   0.963   5.251   6.183  2.7950  1.1293 -2.6633
  153SAPE   H8Y16968   0.991   5.421   6.150 -0.1835  0.4749  1.1052
  153SAPE   C3916969   0.795   5.358   6.099 -0.2682 -0.0612 -0.9643
  153SAPE   H9X16970   0.764   5.464   6.093 -0.3206 -0.0961 -1.3543
  153SAPE   H9Y16971   0.714   5.298   6.146  1.3077 -1.6232 -0.0933
  153SAPE  C31016972   0.810   5.304   5.954  0.2799 -0.0839 -0.1786
  153SAPE  H10X16973   0.710   5.302   5.904  0.8425  0.1053 -1.3396
  153SAPE  H10Y16974   0.828   5.195   5.962  3.8235  0.2355 -1.8671
  153SAPE  C31116975   0.903   5.377   5.848 -0.1993 -0.1660 -0.6500
  153SAPE  H11X16976   1.007   5.376   5.887 -0.6781 -1.9679  0.7432
  153SAPE  H11Y16977   0.867   5.482   5.851 -2.3008 -0.8028 -1.6059
  153SAPE  C31216978   0.893   5.314   5.710  0.4046  0.4762 -0.5931
  153SAPE  H12X16979   0.785   5.312   5.685  0.0600 -1.1059  0.8291
  153SAPE  H12Y16980   0.925   5.209   5.726 -1.5401 -0.3667 -1.8698
  153SAPE  C31316981   0.980   5.380   5.605  0.6189  0.5650 -0.0201
  153SAPE  H13X16982   0.957   5.328   5.510  0.0752  0.8007 -0.0181
  153SAPE  H13Y16983   1.087   5.354   5.624  0.1980 -2.1058 -0.8853
  153SAPE  C31416984   0.951   5.529   5.578  0.3594 -0.1229 -0.1153
  153SAPE  H14X16985   1.017   5.573   5.500 -0.3257  0.1950 -0.5327
  153SAPE  H14Y16986   0.979   5.584   5.671  0.6407 -1.1594  0.4245
  153SAPE  C31516987   0.802   5.562   5.531 -0.5521 -0.4592  0.3244
  153SAPE  H15X16988   0.729   5.559   5.615 -1.5149  1.4374 -0.3781
  153SAPE  H15Y16989   0.768   5.491   5.453 -1.5503  0.3321  0.0223
  153SAPE  C31616990   0.772   5.702   5.472 -0.3040  0.1486 -0.0527
  153SAPE  H16X16991   0.829   5.729   5.380  1.4856  3.9506  1.9383
  153SAPE  H16Y16992   0.802   5.769   5.555  0.2043 -1.3615  1.0229
  153SAPE  C31716993   0.627   5.719   5.430  0.9376  0.1687  0.0636
  153SAPE  H17X16994   0.558   5.711   5.517  1.7346  0.3122  0.7146
  153SAPE  H17Y16995   0.622   5.637   5.355  1.3802  1.0224 -0.9167
  153SAPE  C31816996   0.586   5.843   5.359  0.1172 -0.5550  0.5078
  153SAPE  H18X16997   0.614   5.932   5.420  0.2523 -0.1908 -0.0736
  153SAPE  H18Y16998   0.478   5.838   5.337  0.0348 -1.9904  1.1378
  153SAPE  H18Z16999   0.648   5.845   5.266  0.0931  0.3467  0.4997
  154SAPE     N17000   6.266   2.584   7.590 -0.2213  0.4997 -0.5311
  154SAPE   HN117001   6.350   2.640   7.565 -1.4480  1.9217 -1.6693
  154SAPE   HN217002   6.229   2.570   7.494  0.7149 -0.3534 -0.7919
  154SAPE   HN317003   6.209   2.653   7.642  3.6039  1.3220  3.0915
  154SAPE   C1217004   6.283   2.450   7.664 -0.0849  0.0339  0.6456
  154SAPE  H12A17005   6.189   2.413   7.709  0.3681  0.7419  2.2332
  154SAPE  H12B17006   6.345   2.477   7.752  0.8563  2.0152 -0.5474
  154SAPE   C1117007   6.345   2.348   7.570  0.6616 -1.0992  0.1475
  154SAPE  H11A17008   6.365   2.254   7.627  2.3624 -0.7434  0.1687
  154SAPE  H11B17009   6.428   2.402   7.521 -0.3138 -0.8156 -1.2565
  154SAPE     P17010   6.308   2.262   7.325 -0.1868  0.1437 -0.2754
  154SAPE   O1317011   6.363   2.378   7.256 -0.1881  0.7531  0.1381
  154SAPE   O1417012   6.384   2.134   7.336 -0.2492  0.1254 -0.3857
  154SAPE   O1217013   6.258   2.317   7.461 -0.6033  0.4345 -0.3671
  154SAPE   O1117014   6.182   2.213   7.253 -0.5630 -0.3341 -0.0712
  154SAPE    C117015   6.054   2.271   7.252 -0.0208  0.4619 -0.5278
  154SAPE    HA17016   5.983   2.186   7.260  2.2102 -1.4009  0.6715
  154SAPE    HB17017   6.032   2.344   7.333 -1.4466  2.0405 -2.2595
  154SAPE    C217018   6.022   2.340   7.116 -0.5849  0.3668 -0.3974
  154SAPE    HS17019   6.029   2.262   7.038 -0.8655 -0.8587  0.7754
  154SAPE   O2117020   6.115   2.447   7.093  0.8139 -0.2526  0.4887
  154SAPE   C2117021   6.196   2.434   6.992 -0.7665  0.1967 -0.3149
  154SAPE   O2217022   6.212   2.339   6.916 -0.0919  0.7375 -0.3083
  154SAPE   C2217023   6.284   2.563   6.984  0.5314  0.4484  0.1140
  154SAPE   H2R17024   6.242   2.642   7.049 -1.0885  0.9842 -1.5159
  154SAPE   H2S17025   6.382   2.527   7.022  1.5908  0.2696 -2.5591
  154SAPE    C317026   5.880   2.402   7.093  0.1242 -0.2266 -0.1351
  154SAPE    HX17027   5.879   2.465   7.184 -0.5837 -1.3503  0.6603
  154SAPE    HY17028   5.800   2.325   7.098  0.5861 -0.8675 -1.8144
  154SAPE   O3117029   5.871   2.486   6.975 -0.0870 -0.1155  0.0687
  154SAPE   C3117030   5.869   2.417   6.855 -0.1692  0.0062 -0.5499
  154SAPE   O3217031   5.879   2.296   6.837 -0.0736  0.0344  0.5110
  154SAPE   C3217032   5.863   2.526   6.740 -0.1565  0.0764 -1.0788
  154SAPE   H2X17033   5.968   2.520   6.706  0.3335 -0.7333  0.4631
  154SAPE   H2Y17034   5.858   2.624   6.792 -0.7024 -1.0320  1.1214
  154SAPE   C2317035   6.306   2.622   6.852  0.1580 -0.1719  0.7303
  154SAPE   H3R17036   6.212   2.671   6.817  0.7902 -0.1339 -1.0146
  154SAPE   H3S17037   6.315   2.541   6.777  0.6942 -0.1013  0.7182
  154SAPE   C2417038   6.425   2.714   6.839  0.6711  0.1877  0.7279
  154SAPE   H4R17039   6.417   2.783   6.926  3.4969  0.6591  0.7138
  154SAPE   H4S17040   6.410   2.778   6.750 -1.7990 -0.4747  0.5977
  154SAPE   C2517041   6.560   2.650   6.832  0.3721  0.1565  0.2286
  154SAPE   H5R17042   6.580   2.573   6.908  1.1318  0.5773  0.4596
  154SAPE   C2617043   6.652   2.658   6.732 -0.2368  0.0142 -0.0240
  154SAPE   H6R17044   6.743   2.597   6.745 -0.8608 -0.8701  0.2728
  154SAPE   C2717045   6.648   2.763   6.619  0.1394 -0.5040  0.4118
  154SAPE   H7R17046   6.544   2.790   6.595 -0.0411  0.3654  2.0329
  154SAPE   H7S17047   6.674   2.722   6.519 -0.6990  2.5074 -1.1450
  154SAPE   C2817048   6.726   2.892   6.647  0.1470  0.3202  0.0598
  154SAPE   H8R17049   6.686   2.958   6.725 -0.4143  0.4704 -0.3503
  154SAPE   C2917050   6.830   2.940   6.579 -0.9816 -0.2343  0.2049
  154SAPE   H9R17051   6.872   3.032   6.622 -0.2116 -0.7265  0.5390
  154SAPE  C21017052   6.895   2.870   6.460  0.2990 -0.5887 -0.5291
  154SAPE  H10R17053   6.883   2.759   6.456 -0.2844 -0.5587  0.2049
  154SAPE  H10S17054   7.004   2.889   6.462  0.3021 -0.5513 -0.9383
  154SAPE  C21117055   6.827   2.916   6.332  0.7340 -0.7938 -0.6170
  154SAPE  H11R17056   6.719   2.898   6.324  0.3563  0.3236  1.2958
  154SAPE  C21217057   6.893   2.950   6.221 -0.7406 -0.3223  0.6839
  154SAPE  H12R17058   6.837   2.980   6.131 -0.2243  1.4832  0.9409
  154SAPE  C21317059   7.043   2.938   6.210 -0.2175  0.0119 -0.4521
  154SAPE  H13R17060   7.076   2.846   6.264 -2.7002  0.1375  1.4655
  154SAPE  H13S17061   7.091   3.012   6.277  1.8211 -1.8842  0.3136
  154SAPE  C21417062   7.091   2.946   6.072 -0.6117 -0.6015  0.4941
  154SAPE  H14R17063   7.168   3.019   6.045  0.7100 -2.3412 -0.6575
  154SAPE  C21517064   7.071   2.851   5.984  0.2196 -0.4858  0.3755
  154SAPE  H15R17065   7.111   2.872   5.883  0.8037 -0.5916  0.5787
  154SAPE  C21617066   6.990   2.726   6.000 -0.9181 -0.3314 -0.6982
  154SAPE  H16R17067   6.896   2.735   5.943 -0.8478  1.9091 -0.5234
  154SAPE  H16S17068   6.970   2.714   6.109  2.6920  0.7438  0.2162
  154SAPE  C21717069   7.068   2.609   5.957 -0.5061  0.4241 -0.1229
  154SAPE  H17R17070   7.145   2.576   6.029 -1.2779 -1.4216 -0.1088
  154SAPE  H17S17071   7.119   2.621   5.859 -0.5352 -0.3165 -0.2300
  154SAPE  C21817072   6.972   2.488   5.947 -0.2048 -0.4494  0.5520
  154SAPE  H18R17073   6.892   2.510   5.873  2.1996 -2.5003 -2.9224
  154SAPE  H18S17074   6.924   2.471   6.047  0.2473 -0.6606  0.7350
  154SAPE  C21917075   7.028   2.355   5.896 -0.6275  0.2027  0.5998
  154SAPE  H19R17076   7.120   2.337   5.954 -2.2591  1.2811  3.7325
  154SAPE  H19S17077   7.055   2.373   5.790 -0.7448 -0.3300  0.4738
  154SAPE  C22017078   6.933   2.227   5.906 -0.2809 -0.5082 -0.2489
  154SAPE  H20R17079   6.999   2.143   5.874  1.5795  0.8816 -0.1793
  154SAPE  H20S17080   6.837   2.238   5.850  0.0954 -0.3120 -0.8632
  154SAPE  H20T17081   6.919   2.197   6.012 -1.1638  1.6019  0.2738
  154SAPE   C3317082   5.769   2.492   6.623 -0.5716  0.7901 -0.6413
  154SAPE   H3X17083   5.659   2.497   6.636 -0.8632  0.1497 -2.5677
  154SAPE   H3Y17084   5.791   2.392   6.579 -0.3644  0.4472  0.2304
  154SAPE   C3417085   5.809   2.586   6.503 -0.4331 -0.0572  0.9476
  154SAPE   H4X17086   5.913   2.548   6.495 -1.3276 -2.4746 -0.3302
  154SAPE   H4Y17087   5.792   2.693   6.528 -3.1128 -0.7120  2.3399
  154SAPE   C3517088   5.729   2.552   6.377 -0.2131  0.1001  0.7685
  154SAPE   H5X17089   5.622   2.548   6.404  0.0125 -1.1673  1.5454
  154SAPE   H5Y17090   5.751   2.448   6.345 -0.2006  0.0721  0.8684
  154SAPE   C3617091   5.736   2.659   6.267  0.1581  0.3475  0.0031
  154SAPE   H6X17092   5.837   2.653   6.221  0.6545 -1.4631  1.2152
  154SAPE   H6Y17093   5.724   2.761   6.309  1.3441  1.5212 -2.3220
  154SAPE   C3717094   5.652   2.638   6.136 -0.2327  0.2320  0.3292
  154SAPE   H7X17095   5.545   2.623   6.161 -0.0977  0.4980  1.0975
  154SAPE   H7Y17096   5.688   2.551   6.077 -0.2582 -1.5011  2.6957
  154SAPE   C3817097   5.661   2.762   6.046 -0.0845 -0.4910 -0.2591
  154SAPE   H8X17098   5.763   2.778   6.004  0.2290  0.5477  0.8449
  154SAPE   H8Y17099   5.644   2.853   6.107  2.5379  0.3087 -0.5918
  154SAPE   C3917100   5.560   2.759   5.935  0.5437 -0.1330  0.5453
  154SAPE   H9X17101   5.554   2.868   5.911  2.4440 -0.1765 -0.2844
  154SAPE   H9Y17102   5.463   2.713   5.964 -0.2703  1.2164  0.0693
  154SAPE  C31017103   5.609   2.674   5.816  0.9785 -0.1057  0.2444
  154SAPE  H10X17104   5.542   2.585   5.819  0.7082  0.1170  1.5161
  154SAPE  H10Y17105   5.714   2.644   5.835  1.0652  0.1892  0.2388
  154SAPE  C31117106   5.601   2.738   5.674 -0.1351  0.0426  0.3962
  154SAPE  H11X17107   5.626   2.661   5.598 -2.3041  0.3142 -0.6756
  154SAPE  H11Y17108   5.676   2.819   5.670  0.6299 -0.6711 -0.2169
  154SAPE  C31217109   5.470   2.797   5.617  0.2807  0.1449  0.0472
  154SAPE  H12X17110   5.437   2.876   5.687 -0.8692 -0.0237 -0.2844
  154SAPE  H12Y17111   5.393   2.717   5.614  0.8876 -0.4754  0.7131
  154SAPE  C31317112   5.491   2.865   5.476 -0.2567  0.0149  0.6194
  154SAPE  H13X17113   5.558   2.952   5.493 -0.5123  1.1767 -3.3440
  154SAPE  H13Y17114   5.397   2.900   5.427 -0.6774 -0.9170  0.7449
  154SAPE  C31417115   5.541   2.768   5.370 -0.0519  0.4025 -0.6356
  154SAPE  H14X17116   5.466   2.686   5.373 -0.4447  0.7041 -1.8641
  154SAPE  H14Y17117   5.646   2.743   5.398 -0.2926  1.2154  1.1323
  154SAPE  C31517118   5.533   2.833   5.231  0.1334 -0.0850  0.7187
  154SAPE  H15X17119   5.588   2.929   5.231 -0.1602  0.1232  2.7407
  154SAPE  H15Y17120   5.426   2.857   5.217  0.2262  0.7587  1.4000
  154SAPE  C31617121   5.579   2.735   5.114 -0.4126  0.2465  0.1264
  154SAPE  H16X17122   5.513   2.646   5.117 -1.1815  0.7610 -0.9772
  154SAPE  H16Y17123   5.685   2.700   5.116  0.1010  1.7001 -0.5616
  154SAPE  C31717124   5.552   2.792   4.981  0.7597 -0.1125  0.5925
  154SAPE  H17X17125   5.620   2.877   4.960  0.3620  0.1200  0.2251
  154SAPE  H17Y17126   5.453   2.842   4.985 -0.2595 -1.9977  0.5049
  154SAPE  C31817127   5.548   2.692   4.868 -0.6208  0.0178  0.3010
  154SAPE  H18X17128   5.488   2.602   4.893  0.2930 -1.0599 -1.1931
  154SAPE  H18Y17129   5.648   2.661   4.832 -1.4909 -0.6138 -1.7658
  154SAPE  H18Z17130   5.501   2.741   4.780 -0.7973 -0.4955  0.1045
  155SAPE     N17131   0.152   3.359   7.554  0.7538  0.4377  0.1065
  155SAPE   HN117132   0.243   3.331   7.512  0.3200 -0.4319 -0.2720
  155SAPE   HN217133   0.103   3.401   7.472 -1.3476 -0.3873  0.8866
  155SAPE   HN317134   0.164   3.435   7.624 -0.3349 -0.6993  1.6047
  155SAPE   C1217135   0.076   3.233   7.609 -0.4761 -1.2472 -0.2628
  155SAPE  H12A17136  -0.008   3.270   7.671 -0.3670 -2.5071  0.6997
  155SAPE  H12B17137   0.135   3.181   7.688 -2.4388 -2.2405  0.6357
  155SAPE   C1117138   0.034   3.146   7.496 -0.0600 -0.3518 -0.4135
  155SAPE  H11A17139   0.128   3.114   7.446 -0.6034 -0.1937 -1.5871
  155SAPE  H11B17140  -0.028   3.202   7.423 -1.2458 -0.9557  0.1083
  155SAPE     P17141  -0.182   3.017   7.557 -0.2392 -0.3225  0.1000
  155SAPE   O1317142  -0.209   2.876   7.604  0.5061  0.2427 -0.3023
  155SAPE   O1417143  -0.234   3.130   7.626  0.1595 -0.6579 -0.0963
  155SAPE   O1217144  -0.027   3.028   7.549 -0.0278 -0.2897  0.4192
  155SAPE   O1117145  -0.224   3.029   7.405  0.0478 -0.7463 -0.1541
  155SAPE    C117146  -0.172   2.935   7.311  0.2593  0.2061 -0.3130
  155SAPE    HA17147  -0.065   2.910   7.327  0.5341  0.6833 -1.3392
  155SAPE    HB17148  -0.225   2.841   7.336  0.9726  0.3139  1.7644
  155SAPE    C217149  -0.197   2.977   7.161  0.4504 -0.0366 -0.0495
  155SAPE    HS17150  -0.170   2.885   7.104  0.9653  0.2995 -0.3576
  155SAPE   O2117151  -0.114   3.088   7.126 -0.3482  0.3387 -0.0672
  155SAPE   C2117152   0.005   3.061   7.083  0.1042  0.3231  0.6942
  155SAPE   O2217153   0.044   2.945   7.052 -0.7911 -0.6625 -0.1287
  155SAPE   C2217154   0.068   3.192   7.021 -0.2580 -0.7195 -0.1575
  155SAPE   H2R17155  -0.013   3.256   6.979  0.4474  0.3253  0.0409
  155SAPE   H2S17156   0.104   3.244   7.112  0.1536 -1.0878 -0.1042
  155SAPE    C317157  -0.343   3.021   7.141 -0.0769  0.1470  0.1543
  155SAPE    HX17158  -0.348   3.112   7.205  0.8364  0.3136  0.0033
  155SAPE    HY17159  -0.414   2.942   7.173 -0.7486  0.5463 -0.3307
  155SAPE   O3117160  -0.375   3.030   6.996 -0.2437 -0.0550 -0.0003
  155SAPE   C3117161  -0.352   3.139   6.934  0.4646  0.5300 -0.4405
  155SAPE   O3217162  -0.307   3.243   6.984  0.4933  0.0726  0.5141
  155SAPE   C3217163  -0.375   3.110   6.787  0.3502 -0.4121  0.1027
  155SAPE   H2X17164  -0.475   3.150   6.757  0.5807  0.4291  0.4292
  155SAPE   H2Y17165  -0.371   3.001   6.765  0.0286 -0.9691  2.5305
  155SAPE   C2317166   0.179   3.157   6.922 -0.0263  0.8470 -0.5401
  155SAPE   H3R17167   0.142   3.091   6.841 -0.7987  0.3050  0.2469
  155SAPE   H3S17168   0.261   3.109   6.979 -1.6292 -2.1716 -0.5689
  155SAPE   C2417169   0.244   3.272   6.839  0.4941  0.2594  0.4478
  155SAPE   H4R17170   0.339   3.233   6.796 -0.8034 -0.3804 -2.0409
  155SAPE   H4S17171   0.283   3.360   6.894 -0.1246  0.3653  0.7248
  155SAPE   C2517172   0.140   3.320   6.735 -0.1359  0.5447 -0.4802
  155SAPE   H5R17173   0.060   3.390   6.764 -0.5939  1.5436 -3.7055
  155SAPE   C2617174   0.146   3.294   6.602  0.7636 -0.0287  0.3292
  155SAPE   H6R17175   0.067   3.342   6.543  0.0611 -0.1613  1.1423
  155SAPE   C2717176   0.251   3.218   6.522  0.0478  0.5041 -0.1628
  155SAPE   H7R17177   0.210   3.139   6.455 -0.2826  0.1803  0.4165
  155SAPE   H7S17178   0.315   3.159   6.591 -1.4067  0.3923  1.1583
  155SAPE   C2817179   0.349   3.300   6.441  0.8068  0.3930 -0.3073
  155SAPE   H8R17180   0.451   3.259   6.449 -0.6326 -3.6548 -0.4878
  155SAPE   C2917181   0.328   3.400   6.356  0.5863 -0.3738  0.0286
  155SAPE   H9R17182   0.416   3.433   6.299 -0.4929  1.3684 -0.7002
  155SAPE  C21017183   0.201   3.468   6.316  0.2274 -0.2787  0.0130
  155SAPE  H10R17184   0.151   3.491   6.413 -0.6882  0.7028 -0.6613
  155SAPE  H10S17185   0.123   3.399   6.276 -1.0111  1.2667 -0.3112
  155SAPE  C21117186   0.217   3.594   6.231 -0.1146  0.9084  0.7492
  155SAPE  H11R17187   0.265   3.683   6.276  2.2128 -0.4009  1.0450
  155SAPE  C21217188   0.221   3.579   6.096 -0.0562 -0.0920 -0.0864
  155SAPE  H12R17189   0.222   3.670   6.034 -1.6478 -0.2663 -0.4301
  155SAPE  C21317190   0.180   3.454   6.014  0.3123 -0.0116  0.0185
  155SAPE  H13R17191   0.143   3.490   5.916  0.0453 -2.1634 -0.7190
  155SAPE  H13S17192   0.098   3.404   6.070  0.3336  0.7466  0.7484
  155SAPE  C21417193   0.295   3.358   5.973 -0.0076  0.2363 -0.0784
  155SAPE  H14R17194   0.380   3.353   6.043  0.1667 -0.4496 -0.3283
  155SAPE  C21517195   0.286   3.270   5.873 -0.0828 -0.3645 -0.1541
  155SAPE  H15R17196   0.368   3.198   5.857 -0.0635 -0.8569  1.8384
  155SAPE  C21617197   0.171   3.256   5.775  0.0155  0.2290 -0.6371
  155SAPE  H16R17198   0.068   3.260   5.818 -0.1766 -0.6490 -0.9930
  155SAPE  H16S17199   0.176   3.159   5.722 -1.3223  0.5272 -1.3586
  155SAPE  C21717200   0.166   3.365   5.665 -0.0875  0.7109  0.0360
  155SAPE  H17R17201   0.265   3.373   5.615  0.4511  0.5367  1.0684
  155SAPE  H17S17202   0.163   3.469   5.704  1.8732  0.2114  1.6809
  155SAPE  C21817203   0.049   3.338   5.559 -0.7847 -0.2521  0.3182
  155SAPE  H18R17204   0.033   3.444   5.531  1.4122  0.2913  0.8810
  155SAPE  H18S17205  -0.034   3.284   5.610 -1.5607 -0.5193 -1.1749
  155SAPE  C21917206   0.087   3.243   5.449 -0.2595 -0.3350 -1.0365
  155SAPE  H19R17207   0.090   3.138   5.486 -0.6031  0.1120  0.3334
  155SAPE  H19S17208   0.188   3.274   5.416  0.3454 -0.6337  0.4374
  155SAPE  C22017209  -0.002   3.249   5.322  0.0474 -0.0341 -0.4034
  155SAPE  H20R17210  -0.110   3.237   5.344  0.1374 -1.0956 -0.4810
  155SAPE  H20S17211   0.018   3.152   5.271  2.1170 -1.8344  3.3734
  155SAPE  H20T17212   0.019   3.334   5.254  3.2481 -1.1202 -0.9524
  155SAPE   C3317213  -0.278   3.192   6.701 -0.4786 -0.0270  0.5628
  155SAPE   H3X17214  -0.176   3.149   6.710 -0.9198 -1.1462  0.3451
  155SAPE   H3Y17215  -0.267   3.294   6.743 -0.8721  0.6587 -0.9280
  155SAPE   C3417216  -0.335   3.209   6.562 -0.2080  0.0107  0.3219
  155SAPE   H4X17217  -0.427   3.272   6.556 -0.2108 -0.0786 -0.7666
  155SAPE   H4Y17218  -0.359   3.106   6.529  1.1337 -0.7438  1.6380
  155SAPE   C3517219  -0.231   3.282   6.471 -0.0936  0.1997 -0.3270
  155SAPE   H5X17220  -0.138   3.224   6.457  0.2855  0.6972  0.1002
  155SAPE   H5Y17221  -0.198   3.380   6.511  1.6400 -0.6461  0.3847
  155SAPE   C3617222  -0.290   3.304   6.325  0.1752 -0.1301 -0.2087
  155SAPE   H6X17223  -0.380   3.370   6.337 -1.6514 -2.2191 -1.6652
  155SAPE   H6Y17224  -0.331   3.207   6.289 -4.8321  2.5442 -2.8654
  155SAPE   C3717225  -0.197   3.378   6.225 -0.4822  0.4813 -0.9403
  155SAPE   H7X17226  -0.100   3.324   6.232 -0.7406 -0.1395 -1.9084
  155SAPE   H7Y17227  -0.186   3.487   6.244 -1.1203  0.5948 -1.1811
  155SAPE   C3817228  -0.246   3.362   6.083  0.1950  0.4589  0.0453
  155SAPE   H8X17229  -0.353   3.391   6.078  0.3010  0.6523 -1.6793
  155SAPE   H8Y17230  -0.246   3.254   6.057 -1.4066  0.0807  1.4070
  155SAPE   C3917231  -0.171   3.442   5.974 -0.3060 -0.3488  0.7485
  155SAPE   H9X17232  -0.103   3.369   5.926  0.4467  0.5602  0.4229
  155SAPE   H9Y17233  -0.116   3.524   6.026 -2.7052  0.4384  2.2404
  155SAPE  C31017234  -0.260   3.495   5.872 -0.1250 -0.1339  0.2957
  155SAPE  H10X17235  -0.331   3.571   5.912 -1.1391 -0.6909 -0.3958
  155SAPE  H10Y17236  -0.335   3.421   5.837  0.3520 -0.3494 -0.2731
  155SAPE  C31117237  -0.195   3.547   5.740 -0.1398 -0.4703 -1.3281
  155SAPE  H11X17238  -0.142   3.471   5.678 -0.4362 -0.4862 -1.5683
  155SAPE  H11Y17239  -0.119   3.625   5.760 -0.5542  0.1603 -2.1204
  155SAPE  C31217240  -0.293   3.619   5.655 -0.2894  0.2596  0.3393
  155SAPE  H12X17241  -0.335   3.707   5.709 -0.9143  1.0396 -1.3436
  155SAPE  H12Y17242  -0.370   3.543   5.631  0.3014 -0.4091  0.5214
  155SAPE  C31317243  -0.232   3.682   5.531 -0.0871 -0.1947 -0.2569
  155SAPE  H13X17244  -0.175   3.614   5.464  0.4524  0.1371 -0.1390
  155SAPE  H13Y17245  -0.155   3.757   5.559  3.2929 -2.3269 -2.9936
  155SAPE  C31417246  -0.335   3.750   5.448 -0.0697 -0.3174  1.0357
  155SAPE  H14X17247  -0.409   3.795   5.519  0.3416  0.3989  1.0272
  155SAPE  H14Y17248  -0.378   3.675   5.378 -1.5654  1.1545  0.3101
  155SAPE  C31517249  -0.286   3.868   5.359  0.6240 -0.3162 -0.2257
  155SAPE  H15X17250  -0.192   3.835   5.310  1.3308 -0.2761  1.0776
  155SAPE  H15Y17251  -0.256   3.942   5.436  0.8023 -0.2648 -0.3452
  155SAPE  C31617252  -0.391   3.914   5.250 -0.3969 -0.2685 -0.3567
  155SAPE  H16X17253  -0.492   3.904   5.294  0.2674  0.0203  1.2927
  155SAPE  H16Y17254  -0.377   3.865   5.151 -3.8560 -1.6493 -0.2644
  155SAPE  C31717255  -0.366   4.067   5.224 -0.2872 -0.2552 -0.9759
  155SAPE  H17X17256  -0.387   4.086   5.117 -1.0735 -2.5276 -1.2771
  155SAPE  H17Y17257  -0.256   4.076   5.237 -0.2137 -1.4217 -0.6490
  155SAPE  C31817258  -0.446   4.173   5.305 -0.0219 -0.3404  0.0185
  155SAPE  H18X17259  -0.391   4.203   5.397  1.3093  1.2238 -1.2296
  155SAPE  H18Y17260  -0.549   4.139   5.330 -0.6528  1.7664  0.4912
  155SAPE  H18Z17261  -0.452   4.268   5.248 -0.5491  0.0755  0.7499
  156SAPE     N17262   1.137   4.617   7.484 -0.2707  0.0496  0.2081
  156SAPE   HN117263   1.054   4.649   7.537 -0.9464 -0.5592 -0.4668
  156SAPE   HN217264   1.134   4.672   7.396  0.2686 -0.0545  0.1186
  156SAPE   HN317265   1.136   4.515   7.466  1.3835 -0.1742  1.1647
  156SAPE   C1217266   1.258   4.653   7.563 -0.1132 -0.1868  0.4073
  156SAPE  H12A17267   1.234   4.625   7.668 -0.0411 -0.6693  0.2996
  156SAPE  H12B17268   1.273   4.761   7.545  1.3537 -0.4256  0.0384
  156SAPE   C1117269   1.382   4.568   7.508  0.2203  0.3309 -0.4216
  156SAPE  H11A17270   1.468   4.603   7.568 -0.3696  1.8887 -0.4467
  156SAPE  H11B17271   1.397   4.589   7.400 -3.0088 -0.3879 -1.1206
  156SAPE     P17272   1.437   4.317   7.452  0.3327  0.3108 -0.4551
  156SAPE   O1317273   1.569   4.324   7.508 -0.5751 -0.2043 -0.3164
  156SAPE   O1417274   1.378   4.184   7.485  0.2159 -0.6788 -0.7527
  156SAPE   O1217275   1.350   4.429   7.526 -0.0509  0.5660 -0.0547
  156SAPE   O1117276   1.432   4.357   7.294 -0.5789  0.6160  0.1655
  156SAPE    C117277   1.318   4.318   7.219  0.0338 -0.2312  0.9186
  156SAPE    HA17278   1.226   4.308   7.281 -0.6959  0.5607  0.0019
  156SAPE    HB17279   1.295   4.402   7.150  1.3378 -2.5372 -2.5973
  156SAPE    C217280   1.339   4.188   7.129  0.2839 -0.4082 -0.2723
  156SAPE    HS17281   1.377   4.120   7.208 -0.3697  1.5960  1.9007
  156SAPE   O2117282   1.434   4.224   7.029  0.0460 -0.4900  0.1421
  156SAPE   C2117283   1.521   4.132   6.996 -0.8337  0.1919  0.0265
  156SAPE   O2217284   1.532   4.022   7.048  0.3702 -0.8400 -0.2989
  156SAPE   C2217285   1.609   4.178   6.884  0.5235 -0.0211 -0.5815
  156SAPE   H2R17286   1.580   4.282   6.858 -1.7117 -0.2835  0.6122
  156SAPE   H2S17287   1.717   4.177   6.913  0.6496 -0.8511 -1.0431
  156SAPE    C317288   1.216   4.132   7.059  0.8215 -0.0368 -0.7796
  156SAPE    HX17289   1.170   4.219   7.009 -0.8102 -0.2264  0.3135
  156SAPE    HY17290   1.147   4.086   7.133 -0.7144  0.0401 -2.1179
  156SAPE   O3117291   1.254   4.036   6.962  0.4714 -0.2097  0.0990
  156SAPE   C3117292   1.240   3.908   6.998 -0.0346  0.6728  0.0647
  156SAPE   O3217293   1.193   3.873   7.104  0.5296 -0.4321  0.2270
  156SAPE   C3217294   1.307   3.800   6.903  0.6897  0.3767 -0.7220
  156SAPE   H2X17295   1.270   3.702   6.938  0.7274  1.4351  2.6195
  156SAPE   H2Y17296   1.414   3.807   6.933 -0.0524 -0.4519  2.5822
  156SAPE   C2317297   1.577   4.087   6.764 -0.6633  0.0320  0.0256
  156SAPE   H3R17298   1.468   4.065   6.759 -1.1046  1.9957  0.1800
  156SAPE   H3S17299   1.638   3.995   6.773 -0.0441  0.3348 -0.9228
  156SAPE   C2417300   1.618   4.163   6.631 -0.3447  0.7632  0.0100
  156SAPE   H4R17301   1.572   4.264   6.642 -0.3013  0.8669 -0.6897
  156SAPE   H4S17302   1.568   4.114   6.545  0.3035 -0.9229  0.5562
  156SAPE   C2517303   1.769   4.164   6.623  0.5830  0.6662 -0.5754
  156SAPE   H5R17304   1.822   4.173   6.719 -0.5870  1.1969  0.0472
  156SAPE   C2617305   1.840   4.132   6.518  0.0926  0.1659 -0.2837
  156SAPE   H6R17306   1.948   4.128   6.534  0.6889  0.6247 -3.5233
  156SAPE   C2717307   1.807   4.113   6.367 -0.1191 -0.0334 -0.3745
  156SAPE   H7R17308   1.903   4.122   6.312 -0.0479  0.0674 -0.2335
  156SAPE   H7S17309   1.745   4.201   6.340  0.1110 -0.4692 -2.4989
  156SAPE   C2817310   1.732   3.982   6.348  0.2561 -0.1456 -0.2370
  156SAPE   H8R17311   1.665   3.943   6.426 -0.5198  1.3338 -0.1210
  156SAPE   C2917312   1.739   3.905   6.233  0.0151  0.0944  0.8157
  156SAPE   H9R17313   1.672   3.818   6.222  0.4652 -0.4199  1.8674
  156SAPE  C21017314   1.816   3.946   6.113  0.5371  0.6366  0.6999
  156SAPE  H10R17315   1.781   4.048   6.087  1.1426  0.7836  0.4374
  156SAPE  H10S17316   1.776   3.890   6.026  1.1410  1.1311  0.0984
  156SAPE  C21117317   1.970   3.957   6.106  0.5338  0.4195 -0.0773
  156SAPE  H11R17318   2.022   3.993   6.196 -0.0054  0.1497  0.3517
  156SAPE  C21217319   2.041   3.924   5.997 -0.0986  0.3149  0.3468
  156SAPE  H12R17320   2.150   3.935   6.006  0.1402 -1.1617 -0.4278
  156SAPE  C21317321   1.983   3.867   5.867 -0.1285 -0.1100 -0.4897
  156SAPE  H13R17322   2.011   3.938   5.786  1.2070 -0.3514 -0.2579
  156SAPE  H13S17323   1.872   3.868   5.861 -0.0825  0.8236 -1.6014
  156SAPE  C21417324   2.045   3.738   5.842 -0.5556 -0.3141 -0.0074
  156SAPE  H14R17325   2.063   3.675   5.931  0.6530  1.0623  0.7774
  156SAPE  C21517326   2.077   3.689   5.720 -0.1619 -0.5852  0.4348
  156SAPE  H15R17327   2.133   3.595   5.716 -0.4194 -0.7077 -0.3773
  156SAPE  C21617328   2.064   3.754   5.586  0.4887 -0.2081  0.5352
  156SAPE  H16R17329   2.159   3.774   5.532 -0.4435 -0.2028 -1.1728
  156SAPE  H16S17330   2.014   3.853   5.598 -0.6793 -0.8824  1.4381
  156SAPE  C21717331   1.982   3.659   5.501  0.4640  1.0433  0.1092
  156SAPE  H17R17332   1.932   3.721   5.423  0.7810  0.5467 -0.5048
  156SAPE  H17S17333   1.896   3.602   5.542  1.1892 -1.1733 -1.2966
  156SAPE  C21817334   2.071   3.563   5.428  0.3680  0.3545  0.6155
  156SAPE  H18R17335   2.105   3.497   5.511 -0.5422 -1.2898 -0.2550
  156SAPE  H18S17336   2.165   3.608   5.392 -0.1141 -0.1784 -1.4218
  156SAPE  C21917337   2.017   3.497   5.297 -1.2049  0.1342 -0.0656
  156SAPE  H19R17338   2.104   3.446   5.251  0.4284  3.6652 -1.2198
  156SAPE  H19S17339   1.984   3.574   5.224 -0.8403 -0.3537 -0.7564
  156SAPE  C22017340   1.905   3.400   5.323 -0.2082 -0.2725 -0.1876
  156SAPE  H20R17341   1.829   3.448   5.388  0.9810  2.0384 -0.3761
  156SAPE  H20S17342   1.948   3.311   5.374 -0.6736 -0.7248 -0.5719
  156SAPE  H20T17343   1.858   3.367   5.228  0.1301  1.8685 -1.1523
  156SAPE   C3317344   1.289   3.822   6.752  0.1470  0.0270 -0.2811
  156SAPE   H3X17345   1.273   3.931   6.736 -0.4668  0.1087  0.7748
  156SAPE   H3Y17346   1.190   3.777   6.729 -0.3152  0.4832  0.7411
  156SAPE   C3417347   1.403   3.765   6.668  0.4873  0.0991  0.6225
  156SAPE   H4X17348   1.416   3.654   6.670 -1.5491 -0.2066  0.1077
  156SAPE   H4Y17349   1.493   3.814   6.710  0.5956 -0.9613  1.7135
  156SAPE   C3517350   1.392   3.799   6.517 -0.2977 -0.4845 -0.1880
  156SAPE   H5X17351   1.479   3.754   6.466 -0.6075 -1.0191 -0.2507
  156SAPE   H5Y17352   1.405   3.909   6.503 -0.4761 -0.3432  0.6877
  156SAPE   C3617353   1.269   3.745   6.443  0.8383 -0.6761  0.4154
  156SAPE   H6X17354   1.171   3.778   6.485  1.4458 -0.1267  1.4196
  156SAPE   H6Y17355   1.276   3.634   6.445  0.8608 -0.7558 -1.6950
  156SAPE   C3717356   1.264   3.791   6.295  0.2183  0.3373  0.4656
  156SAPE   H7X17357   1.312   3.891   6.284  1.8409 -0.3858  0.7203
  156SAPE   H7Y17358   1.160   3.810   6.262  0.7766  0.5464 -1.3036
  156SAPE   C3817359   1.325   3.685   6.195  0.1379  0.6347 -0.9283
  156SAPE   H8X17360   1.253   3.601   6.194 -0.7219  1.1560  2.7662
  156SAPE   H8Y17361   1.420   3.645   6.234 -0.6420 -1.5335 -1.1517
  156SAPE   C3917362   1.363   3.748   6.057 -0.0724 -0.1116  0.3782
  156SAPE   H9X17363   1.393   3.853   6.080 -2.7822  0.6795  0.6459
  156SAPE   H9Y17364   1.266   3.762   6.005  0.4325 -1.2452 -0.9411
  156SAPE  C31017365   1.459   3.671   5.968  0.0664  0.0108 -0.2126
  156SAPE  H10X17366   1.558   3.666   6.018  0.9452  0.1510 -1.8503
  156SAPE  H10Y17367   1.475   3.731   5.876  1.6253  0.2987  0.2200
  156SAPE  C31117368   1.426   3.525   5.916 -0.4700 -0.2514  0.2760
  156SAPE  H11X17369   1.389   3.450   5.989 -0.1706 -0.5224  0.1509
  156SAPE  H11Y17370   1.517   3.479   5.874  0.5639  1.2223  0.8218
  156SAPE  C31217371   1.321   3.524   5.800  0.3853  0.0995 -0.3047
  156SAPE  H12X17372   1.228   3.570   5.840  0.8012  1.2251 -0.5959
  156SAPE  H12Y17373   1.292   3.418   5.783  1.1079 -0.1277 -0.1775
  156SAPE  C31317374   1.368   3.573   5.665 -0.8269  0.5662 -0.0516
  156SAPE  H13X17375   1.406   3.675   5.689 -0.8013  0.7427 -0.8355
  156SAPE  H13Y17376   1.278   3.592   5.603 -0.9131  0.1155 -0.0625
  156SAPE  C31417377   1.476   3.508   5.584  0.0530 -0.7409  0.0961
  156SAPE  H14X17378   1.569   3.508   5.645  1.3111  2.9060 -1.5283
  156SAPE  H14Y17379   1.489   3.571   5.494 -0.6102 -1.9025 -0.8345
  156SAPE  C31517380   1.437   3.375   5.545  0.2402  0.6878 -0.9743
  156SAPE  H15X17381   1.329   3.366   5.521 -0.5387  0.4605  2.1295
  156SAPE  H15Y17382   1.447   3.309   5.635 -3.1689 -0.8131 -1.5097
  156SAPE  C31617383   1.524   3.316   5.432  1.3553  0.2082  0.4932
  156SAPE  H16X17384   1.622   3.363   5.456 -0.2898  3.0167  2.3524
  156SAPE  H16Y17385   1.480   3.351   5.336  3.8320 -1.4532 -1.3710
  156SAPE  C31717386   1.534   3.164   5.451 -0.4703 -0.0868 -0.2466
  156SAPE  H17X17387   1.435   3.129   5.413 -0.9359  0.8064  0.1192
  156SAPE  H17Y17388   1.537   3.135   5.558 -1.4988  1.5211  0.2524
  156SAPE  C31817389   1.664   3.103   5.385 -0.0069 -1.4585 -0.3122
  156SAPE  H18X17390   1.676   3.162   5.292 -0.6297  2.2938  1.7876
  156SAPE  H18Y17391   1.641   2.997   5.359  0.5217 -1.2996 -1.5051
  156SAPE  H18Z17392   1.747   3.114   5.458 -1.4260 -0.5506  1.2318
  157SAPE     N17393   1.964   2.417   7.343  0.3190  0.0255  0.0913
  157SAPE   HN117394   1.973   2.394   7.444  1.1729 -2.1166 -0.4199
  157SAPE   HN217395   2.057   2.451   7.310  0.0716  0.4014 -0.2209
  157SAPE   HN317396   1.903   2.501   7.343 -0.3285 -0.2846  3.9646
  157SAPE   C1217397   1.927   2.307   7.243  0.3592  0.1172  0.1765
  157SAPE  H12A17398   1.898   2.357   7.149  2.5780 -1.9516 -1.7467
  157SAPE  H12B17399   1.842   2.250   7.286 -0.3341 -0.5654 -2.0150
  157SAPE   C1117400   2.050   2.218   7.204  0.0448 -0.3896  0.7672
  157SAPE  H11A17401   2.113   2.289   7.146 -2.6405  2.2145  0.7975
  157SAPE  H11B17402   2.017   2.138   7.135 -1.8672  1.3813 -0.5007
  157SAPE     P17403   2.105   2.030   7.389  0.4597  0.3008  0.8652
  157SAPE   O1317404   2.227   2.004   7.465  0.0787 -0.8132 -0.1875
  157SAPE   O1417405   1.977   2.018   7.461 -0.3378  0.1240  0.0525
  157SAPE   O1217406   2.119   2.169   7.316  0.3936  0.3167  0.0739
  157SAPE   O1117407   2.108   1.924   7.269 -0.3876 -0.0333 -0.3626
  157SAPE    C117408   2.215   1.893   7.183 -0.2435 -0.4817  0.1401
  157SAPE    HA17409   2.311   1.925   7.228  0.1357  0.3467 -1.2239
  157SAPE    HB17410   2.215   1.782   7.185 -1.1587 -0.5562 -1.7219
  157SAPE    C217411   2.199   1.929   7.029  0.1326 -0.9982 -0.0627
  157SAPE    HS17412   2.274   1.884   6.962  1.7809  3.2924 -1.4219
  157SAPE   O2117413   2.218   2.072   6.998  0.4159  0.2266 -0.2304
  157SAPE   C2117414   2.342   2.116   7.001  0.0241 -1.1727 -0.0356
  157SAPE   O2217415   2.436   2.049   7.043 -0.3477  0.4021  0.1830
  157SAPE   C2217416   2.348   2.266   6.966 -0.2654  0.4831  0.1310
  157SAPE   H2R17417   2.269   2.284   6.889  0.4997  0.5711 -0.6462
  157SAPE   H2S17418   2.325   2.318   7.062 -2.1914 -0.6305  0.3273
  157SAPE    C317419   2.063   1.873   6.990 -0.3493 -0.2939  0.7685
  157SAPE    HX17420   1.985   1.927   7.048 -0.1703  1.8324 -0.8619
  157SAPE    HY17421   2.059   1.765   7.017 -2.0094 -0.3894  0.2534
  157SAPE   O3117422   2.057   1.870   6.843 -0.1182  0.1271 -0.7177
  157SAPE   C3117423   1.939   1.916   6.802  0.4721  0.8210  0.5972
  157SAPE   O3217424   1.841   1.952   6.865  0.0789  0.3467 -0.5983
  157SAPE   C3217425   1.945   1.903   6.652 -0.2210  1.1760 -0.0546
  157SAPE   H2X17426   1.862   1.838   6.617  1.4567 -0.2455 -1.6421
  157SAPE   H2Y17427   2.040   1.855   6.620 -0.2393  0.2077  1.2735
  157SAPE   C2317428   2.489   2.302   6.915  0.6105  0.3501  0.3518
  157SAPE   H3R17429   2.530   2.231   6.840 -1.2855  0.6603 -1.0499
  157SAPE   H3S17430   2.560   2.309   7.000 -1.9361 -1.7765  2.9149
  157SAPE   C2417431   2.474   2.439   6.852 -0.5279  0.3480  0.1201
  157SAPE   H4R17432   2.435   2.514   6.924  1.5985  1.5566  0.1029
  157SAPE   H4S17433   2.398   2.417   6.774  0.5552 -0.0143 -0.8645
  157SAPE   C2517434   2.606   2.479   6.780  0.1832  1.0410 -0.3560
  157SAPE   H5R17435   2.665   2.553   6.836  0.9913 -2.1329  3.3386
  157SAPE   C2617436   2.639   2.440   6.652  0.4905 -0.6786 -0.2421
  157SAPE   H6R17437   2.740   2.473   6.622  1.0222 -1.6250  0.4589
  157SAPE   C2717438   2.576   2.342   6.558  0.0092 -0.1195 -0.9594
  157SAPE   H7R17439   2.552   2.393   6.463 -1.2190  0.2261 -0.4852
  157SAPE   H7S17440   2.478   2.313   6.600  0.1158 -0.3492 -0.8684
  157SAPE   C2817441   2.658   2.219   6.536  0.0857 -0.3750 -0.3192
  157SAPE   H8R17442   2.766   2.234   6.546  0.2963 -1.7100 -0.3551
  157SAPE   C2917443   2.607   2.107   6.483 -0.4743 -0.2412  0.6677
  157SAPE   H9R17444   2.663   2.013   6.477  0.1082 -0.0908  2.8457
  157SAPE  C21017445   2.459   2.084   6.459  0.3430 -0.6213  0.4141
  157SAPE  H10R17446   2.444   2.021   6.368 -1.5662  1.3621 -0.7433
  157SAPE  H10S17447   2.415   2.183   6.436  1.0215  0.1766  2.3849
  157SAPE  C21117448   2.387   2.021   6.573  0.7003 -0.2365  0.5735
  157SAPE  H11R17449   2.360   2.095   6.650  0.5653  0.2850  0.0366
  157SAPE  C21217450   2.346   1.896   6.590  0.0935  0.4415  0.4529
  157SAPE  H12R17451   2.306   1.863   6.687 -1.5261 -1.3466 -0.7530
  157SAPE  C21317452   2.373   1.781   6.501  0.1313  0.2250  0.7716
  157SAPE  H13R17453   2.330   1.808   6.402 -0.1668 -0.2102  0.7829
  157SAPE  H13S17454   2.311   1.698   6.541 -1.3466  0.4120 -1.0129
  157SAPE  C21417455   2.507   1.726   6.489 -0.4800  0.3658 -0.2685
  157SAPE  H14R17456   2.546   1.688   6.585 -0.4505  0.4495 -0.2479
  157SAPE  C21517457   2.578   1.695   6.378 -0.3213 -0.3281  0.1305
  157SAPE  H15R17458   2.676   1.647   6.385 -0.6578 -0.9886  0.4537
  157SAPE  C21617459   2.546   1.737   6.237 -0.1522  0.8474  0.5123
  157SAPE  H16R17460   2.448   1.787   6.221 -1.5408 -1.8190  0.0254
  157SAPE  H16S17461   2.543   1.644   6.175  0.3146  1.1712 -0.0138
  157SAPE  C21717462   2.646   1.833   6.179 -0.2819 -0.2282  0.5645
  157SAPE  H17R17463   2.640   1.916   6.253  0.7808 -0.4366  0.9030
  157SAPE  H17S17464   2.611   1.880   6.084  0.7745  0.7979  0.6518
  157SAPE  C21817465   2.792   1.780   6.174  0.2336  0.8083 -0.1745
  157SAPE  H18R17466   2.790   1.687   6.114 -0.9724 -0.3718  1.5992
  157SAPE  H18S17467   2.826   1.762   6.278  0.2300  1.8481  0.0207
  157SAPE  C21917468   2.893   1.875   6.103  0.1377 -0.4005  0.2562
  157SAPE  H19R17469   2.988   1.819   6.086  0.7355  0.3442  1.0700
  157SAPE  H19S17470   2.923   1.960   6.168  2.7523  1.5241 -3.1683
  157SAPE  C22017471   2.854   1.924   5.965 -0.2172 -0.5697 -1.0207
  157SAPE  H20R17472   2.941   1.976   5.918  1.8173 -1.4602  1.5211
  157SAPE  H20S17473   2.769   1.995   5.972 -0.5243 -1.0627  0.7152
  157SAPE  H20T17474   2.832   1.837   5.898  1.9253 -0.8516 -1.4451
  157SAPE   C3317475   1.946   2.041   6.571 -0.7711  0.4472 -0.0501
  157SAPE   H3X17476   2.031   2.106   6.602 -0.7667 -0.2704  1.5542
  157SAPE   H3Y17477   1.851   2.085   6.608 -2.4402 -3.2421  0.4194
  157SAPE   C3417478   1.953   2.031   6.414 -0.2781  0.2159  0.2027
  157SAPE   H4X17479   1.942   2.137   6.381  3.0385  0.6184 -0.0202
  157SAPE   H4Y17480   1.873   1.970   6.367 -0.8294  1.8379 -1.0739
  157SAPE   C3517481   2.084   1.977   6.359 -0.0444 -0.1613  0.0864
  157SAPE   H5X17482   2.104   1.874   6.394 -0.3695  0.2306  1.4805
  157SAPE   H5Y17483   2.169   2.035   6.401 -0.2177  0.5981 -0.5902
  157SAPE   C3617484   2.088   1.978   6.207  0.3549 -0.0742  0.6944
  157SAPE   H6X17485   2.047   2.075   6.173 -0.5223 -0.5746  0.2916
  157SAPE   H6Y17486   2.018   1.902   6.167 -0.0221  1.6710 -2.2606
  157SAPE   C3717487   2.226   1.952   6.153  0.5012 -0.0424  0.4715
  157SAPE   H7X17488   2.271   1.876   6.220  0.0813  1.1671  2.2003
  157SAPE   H7Y17489   2.293   2.040   6.164 -0.3926  0.7913 -0.5117
  157SAPE   C3817490   2.201   1.902   6.011 -0.0639  0.2826  0.2373
  157SAPE   H8X17491   2.178   1.996   5.956 -2.2965  0.7128  1.7798
  157SAPE   H8Y17492   2.116   1.832   5.997  0.6231 -0.3095 -1.3035
  157SAPE   C3917493   2.333   1.839   5.954  0.6024 -0.2032 -0.0329
  157SAPE   H9X17494   2.360   1.752   6.018 -0.2748 -1.1335 -0.8992
  157SAPE   H9Y17495   2.417   1.911   5.967  0.7805 -0.6751  1.7252
  157SAPE  C31017496   2.324   1.814   5.808  0.2098 -0.5054  0.4851
  157SAPE  H10X17497   2.309   1.916   5.768  0.6764 -0.5810  0.1060
  157SAPE  H10Y17498   2.227   1.768   5.779 -1.3446  2.6736  0.2990
  157SAPE  C31117499   2.455   1.758   5.746  0.1210  0.4882  0.1672
  157SAPE  H11X17500   2.460   1.650   5.772 -0.9300 -0.2602 -2.4124
  157SAPE  H11Y17501   2.535   1.821   5.790 -1.6777  2.2593  1.0757
  157SAPE  C31217502   2.460   1.751   5.590 -0.1500  0.1691 -0.6911
  157SAPE  H12X17503   2.462   1.854   5.548 -1.0914 -0.6628 -2.9067
  157SAPE  H12Y17504   2.365   1.704   5.557  0.2816 -0.8232 -0.5581
  157SAPE  C31317505   2.582   1.679   5.522  0.7512  0.3894  0.4255
  157SAPE  H13X17506   2.581   1.688   5.412 -0.7413  0.6008  0.4433
  157SAPE  H13Y17507   2.560   1.573   5.545 -1.5168  0.9516  1.0390
  157SAPE  C31417508   2.711   1.723   5.593  0.3722 -0.8541  0.2112
  157SAPE  H14X17509   2.788   1.658   5.546  1.1530  1.7295 -2.4063
  157SAPE  H14Y17510   2.715   1.700   5.701  2.3640  2.4097  0.9988
  157SAPE  C31517511   2.765   1.866   5.581  0.4496  0.3295 -0.4249
  157SAPE  H15X17512   2.720   1.934   5.656 -0.6707 -0.2150 -0.5838
  157SAPE  H15Y17513   2.762   1.906   5.477  1.1169  0.3170 -0.4533
  157SAPE  C31617514   2.921   1.866   5.605 -0.4443 -0.2837 -0.1330
  157SAPE  H16X17515   2.965   1.798   5.528 -0.6732 -0.2288 -0.3113
  157SAPE  H16Y17516   2.934   1.819   5.705 -0.3877  1.5740  0.7689
  157SAPE  C31717517   2.976   2.011   5.589 -0.4978  0.1334  0.1546
  157SAPE  H17X17518   2.927   2.076   5.664 -0.4331 -0.2453  0.5344
  157SAPE  H17Y17519   2.945   2.053   5.490  1.1353  1.3745  0.1390
  157SAPE  C31817520   3.134   2.025   5.592 -0.4049 -0.0758 -0.0335
  157SAPE  H18X17521   3.166   2.002   5.696 -0.3566  2.0587  0.4831
  157SAPE  H18Y17522   3.149   2.133   5.569 -4.1923  0.2370 -1.7939
  157SAPE  H18Z17523   3.191   1.960   5.522 -1.2748 -0.5743 -0.2968
  158SAPE     N17524   3.940   1.235   7.729 -0.5728  0.2321 -0.1136
  158SAPE   HN117525   3.838   1.236   7.750 -0.2490 -0.4881  1.7556
  158SAPE   HN217526   3.984   1.177   7.804 -0.1294  0.2624 -0.3459
  158SAPE   HN317527   3.974   1.333   7.738  4.0042 -1.1744  0.8773
  158SAPE   C1217528   3.988   1.168   7.604  0.4024  0.2093  0.4736
  158SAPE  H12A17529   3.934   1.198   7.512  2.5029 -0.4033 -1.0338
  158SAPE  H12B17530   3.983   1.059   7.628  3.3537  0.2838  1.7985
  158SAPE   C1117531   4.141   1.200   7.578  0.4538 -0.8230  0.3292
  158SAPE  H11A17532   4.159   1.309   7.563  0.5915 -1.0895 -1.7480
  158SAPE  H11B17533   4.164   1.156   7.478  0.0820  0.0015 -0.1377
  158SAPE     P17534   4.371   1.175   7.696 -0.0156 -0.0271  0.2530
  158SAPE   O1317535   4.379   1.316   7.735 -0.3383  0.3858 -1.0192
  158SAPE   O1417536   4.420   1.069   7.785  0.2465 -0.0470 -0.2696
  158SAPE   O1217537   4.213   1.137   7.680 -0.0005 -0.4079 -0.2981
  158SAPE   O1117538   4.437   1.162   7.560 -0.0865 -0.3591 -0.1111
  158SAPE    C117539   4.473   1.280   7.486  0.5896 -0.0619 -0.3447
  158SAPE    HA17540   4.382   1.341   7.468 -0.5789 -1.7614 -0.3538
  158SAPE    HB17541   4.557   1.343   7.524 -0.7222  0.3949  1.9886
  158SAPE    C217542   4.511   1.255   7.338 -0.6414  0.2277  0.8972
  158SAPE    HS17543   4.521   1.347   7.276  1.7700 -0.6167 -0.0654
  158SAPE   O2117544   4.429   1.171   7.260 -0.1281  0.0735  0.6305
  158SAPE   C2117545   4.309   1.218   7.227 -0.1634  0.2237  0.3940
  158SAPE   O2217546   4.261   1.318   7.271  0.1243  0.4882  0.1193
  158SAPE   C2217547   4.248   1.118   7.131 -0.6421 -0.1321  0.3019
  158SAPE   H2R17548   4.323   1.094   7.053  1.6479  0.9456  2.0648
  158SAPE   H2S17549   4.213   1.029   7.188  0.9621 -0.3904  0.9239
  158SAPE    C317550   4.652   1.194   7.331  0.2454  0.2288  0.2955
  158SAPE    HX17551   4.663   1.106   7.397 -2.3563 -1.2725 -1.0981
  158SAPE    HY17552   4.724   1.265   7.377  1.1214 -0.5811  0.2013
  158SAPE   O3117553   4.703   1.177   7.195  0.5447 -0.9454  0.2266
  158SAPE   C3117554   4.717   1.049   7.159 -0.2146 -0.1448 -0.9793
  158SAPE   O3217555   4.688   0.953   7.227 -0.1544 -0.3330 -0.7875
  158SAPE   C3217556   4.759   1.045   7.017 -0.4159 -0.6876  0.2225
  158SAPE   H2X17557   4.790   0.942   6.989 -0.3623 -0.3473 -1.0248
  158SAPE   H2Y17558   4.846   1.113   7.005 -0.7231  0.3439  3.0036
  158SAPE   C2317559   4.117   1.179   7.074 -0.0256 -0.3723  0.0709
  158SAPE   H3R17560   4.148   1.269   7.016 -0.5576  1.1336  1.9790
  158SAPE   H3S17561   4.068   1.213   7.168  0.8525  1.8447 -0.1979
  158SAPE   C2417562   4.026   1.087   6.992 -0.6106 -0.6151 -0.2013
  158SAPE   H4R17563   3.979   0.998   7.038 -0.7537 -1.5287 -2.0381
  158SAPE   H4S17564   4.085   1.047   6.907 -0.2927  0.1052 -0.3301
  158SAPE   C2517565   3.911   1.175   6.940  0.0074  0.3797  0.6111
  158SAPE   H5R17566   3.820   1.167   7.001 -0.7567  1.0436 -0.4096
  158SAPE   C2617567   3.902   1.237   6.822 -0.0018 -0.7551 -0.4965
  158SAPE   H6R17568   3.808   1.289   6.795 -1.0376 -1.7022  1.1427
  158SAPE   C2717569   4.009   1.229   6.720 -0.1397 -0.3299  0.3181
  158SAPE   H7R17570   4.111   1.221   6.765  0.2119  2.5535  0.2015
  158SAPE   H7S17571   4.016   1.329   6.673 -0.4317  0.7705  2.4790
  158SAPE   C2817572   3.997   1.116   6.628  0.3296 -0.0485 -0.8983
  158SAPE   H8R17573   3.952   1.029   6.677 -1.1106  0.1155 -1.8947
  158SAPE   C2917574   4.015   1.116   6.496  0.0059  0.1443 -0.1353
  158SAPE   H9R17575   4.015   1.017   6.448  3.8938  0.9359 -2.2227
  158SAPE  C21017576   4.061   1.233   6.415  0.2476 -0.2800  0.4649
  158SAPE  H10R17577   4.135   1.198   6.339  1.1320  1.3469  0.5237
  158SAPE  H10S17578   4.121   1.307   6.472 -0.6885  0.3871  0.6015
  158SAPE  C21117579   3.954   1.304   6.332  0.3916 -0.6005  0.3135
  158SAPE  H11R17580   3.853   1.290   6.374  1.5265  0.7468  3.8960
  158SAPE  C21217581   3.972   1.363   6.211 -0.2246  0.7842  1.2945
  158SAPE  H12R17582   3.880   1.393   6.158  0.0588 -3.1725 -1.9212
  158SAPE  C21317583   4.105   1.380   6.143 -0.8548 -0.1589  0.6847
  158SAPE  H13R17584   4.134   1.285   6.093 -2.6083 -0.1502 -0.4231
  158SAPE  H13S17585   4.181   1.392   6.223  0.6019 -1.3313 -0.4718
  158SAPE  C21417586   4.093   1.507   6.054 -0.2373 -0.0187 -0.3192
  158SAPE  H14R17587   4.099   1.595   6.119  0.3261 -1.8139  2.2028
  158SAPE  C21517588   4.079   1.504   5.920  1.1582 -0.6940 -0.3131
  158SAPE  H15R17589   4.077   1.598   5.863 -0.6083 -1.5051 -1.6942
  158SAPE  C21617590   4.071   1.388   5.819 -0.0257 -0.0987 -0.2980
  158SAPE  H16R17591   4.110   1.292   5.858 -1.7708 -1.6427 -2.1479
  158SAPE  H16S17592   4.127   1.413   5.727  1.2360 -1.2763  0.1149
  158SAPE  C21717593   3.927   1.359   5.776 -0.4716 -0.5504  0.2878
  158SAPE  H17R17594   3.878   1.454   5.746  1.0646  0.8794  2.0175
  158SAPE  H17S17595   3.875   1.319   5.866 -1.6697 -0.5683 -0.3978
  158SAPE  C21817596   3.926   1.256   5.661 -0.2959  0.1372 -0.1144
  158SAPE  H18R17597   3.987   1.169   5.692 -0.6292 -0.0055  0.1569
  158SAPE  H18S17598   3.971   1.291   5.566 -1.5398  0.0107 -0.7818
  158SAPE  C21917599   3.783   1.205   5.632  0.8422 -0.2599 -0.3341
  158SAPE  H19R17600   3.710   1.288   5.628  1.7359  0.5090 -1.9066
  158SAPE  H19S17601   3.741   1.144   5.715 -1.9021  0.0812 -1.3731
  158SAPE  C22017602   3.772   1.123   5.509  0.3283 -0.5253  0.6005
  158SAPE  H20R17603   3.665   1.092   5.510  0.6322 -1.6041  1.3890
  158SAPE  H20S17604   3.834   1.033   5.525 -3.7112 -3.4943  1.0557
  158SAPE  H20T17605   3.782   1.172   5.410 -0.1214 -0.7199  0.4601
  158SAPE   C3317606   4.633   1.085   6.937 -0.0992 -0.0382 -0.5227
  158SAPE   H3X17607   4.615   1.195   6.943 -0.9407 -0.2207  0.8523
  158SAPE   H3Y17608   4.546   1.026   6.974  0.4038 -0.5261 -0.1051
  158SAPE   C3417609   4.655   1.053   6.790  0.2342  0.0847  0.0675
  158SAPE   H4X17610   4.669   0.943   6.788 -1.2129 -0.1140  0.3587
  158SAPE   H4Y17611   4.747   1.109   6.762 -1.7605  2.5075 -2.1167
  158SAPE   C3517612   4.542   1.095   6.693  0.1735 -0.2988 -0.6100
  158SAPE   H5X17613   4.506   1.198   6.713  1.4925 -0.3020  2.1030
  158SAPE   H5Y17614   4.465   1.016   6.705  0.3569 -0.7301 -2.0100
  158SAPE   C3617615   4.577   1.081   6.545  0.4472 -0.0417  0.0282
  158SAPE   H6X17616   4.629   0.985   6.526 -0.9362 -0.8254  0.0735
  158SAPE   H6Y17617   4.644   1.167   6.526  0.7745 -0.3991 -0.4570
  158SAPE   C3717618   4.462   1.108   6.444 -0.4191 -0.4237  0.0416
  158SAPE   H7X17619   4.427   1.214   6.444  3.2789  0.9517 -1.2169
  158SAPE   H7Y17620   4.373   1.043   6.458 -2.2731  1.7413 -0.9567
  158SAPE   C3817621   4.506   1.086   6.299  0.1325  0.1749 -0.8793
  158SAPE   H8X17622   4.521   0.976   6.290  0.8567  0.0288  1.5355
  158SAPE   H8Y17623   4.599   1.137   6.267  0.8227 -0.4721  0.0568
  158SAPE   C3917624   4.403   1.127   6.193  0.5225 -0.7875  0.1340
  158SAPE   H9X17625   4.404   1.239   6.195  0.4604 -0.7943  0.7273
  158SAPE   H9Y17626   4.306   1.086   6.228 -0.5573  1.7953  0.4645
  158SAPE  C31017627   4.438   1.055   6.061 -0.3186 -0.3879 -0.3388
  158SAPE  H10X17628   4.441   0.944   6.066  1.4164 -0.3852 -0.7577
  158SAPE  H10Y17629   4.546   1.068   6.037 -0.0478 -0.2235  0.8742
  158SAPE  C31117630   4.346   1.105   5.945 -0.2096 -0.0103 -0.6727
  158SAPE  H11X17631   4.408   1.180   5.891 -0.1160 -0.5070 -1.2694
  158SAPE  H11Y17632   4.248   1.142   5.983 -0.1315  0.4855 -0.9421
  158SAPE  C31217633   4.309   0.990   5.848 -0.6304  1.0814 -0.2085
  158SAPE  H12X17634   4.229   1.016   5.774  0.0465 -0.7119 -1.6421
  158SAPE  H12Y17635   4.262   0.907   5.904  0.1306  0.3785 -0.5982
  158SAPE  C31317636   4.432   0.941   5.777 -0.0290 -1.0922 -0.2740
  158SAPE  H13X17637   4.423   0.834   5.748 -2.9993 -0.3364 -2.6613
  158SAPE  H13Y17638   4.521   0.943   5.843  1.4407 -0.5615 -2.1879
  158SAPE  C31417639   4.488   1.022   5.650 -0.7175 -0.8756 -0.1434
  158SAPE  H14X17640   4.593   0.993   5.626  0.0178  1.8426 -0.5662
  158SAPE  H14Y17641   4.496   1.129   5.679 -2.1304 -0.8512  0.2479
  158SAPE  C31517642   4.409   1.019   5.517  0.3710 -0.4543 -0.1239
  158SAPE  H15X17643   4.437   1.113   5.466  1.1838 -0.2342  0.6973
  158SAPE  H15Y17644   4.299   1.021   5.534  0.6511  1.3090  1.9357
  158SAPE  C31617645   4.449   0.900   5.424 -0.0849 -0.4217 -0.8600
  158SAPE  H16X17646   4.429   0.805   5.478  0.2302  0.3216  0.6145
  158SAPE  H16Y17647   4.557   0.912   5.400  0.0923  1.1654  0.5048
  158SAPE  C31717648   4.370   0.901   5.293 -0.3168 -0.1884 -0.1597
  158SAPE  H17X17649   4.259   0.899   5.303 -0.3335 -0.2051 -0.3448
  158SAPE  H17Y17650   4.409   0.819   5.230  2.5354  0.4242  0.6734
  158SAPE  C31817651   4.390   1.032   5.213  0.5098 -0.4342  0.1592
  158SAPE  H18X17652   4.494   1.068   5.229  1.8319 -4.0181  0.5063
  158SAPE  H18Y17653   4.315   1.102   5.257 -1.1594 -1.0034 -1.6370
  158SAPE  H18Z17654   4.382   1.009   5.105 -0.2733  1.8750 -0.3464
  159SAPE     N17655   6.677   6.064   3.052 -0.0337  0.3403 -0.1957
  159SAPE   HN117656   6.749   5.989   3.056  1.0965  1.4203  0.8641
  159SAPE   HN217657   6.664   6.102   2.956  2.4625  2.0082  0.0309
  159SAPE   HN317658   6.688   6.149   3.111 -1.2140 -0.4952  1.2935
  159SAPE   C1217659   6.539   6.014   3.086  0.9763  0.0936  0.3279
  159SAPE  H12A17660   6.485   6.097   3.138  0.1582 -1.3608  1.8956
  159SAPE  H12B17661   6.544   5.928   3.155 -0.8757 -1.1604 -1.0132
  159SAPE   C1117662   6.468   5.958   2.962 -0.0216  0.8037 -0.2112
  159SAPE  H11A17663   6.373   5.908   2.991 -0.3638  1.1363 -0.7648
  159SAPE  H11B17664   6.538   5.875   2.936  0.8916  1.4570  0.1211
  159SAPE     P17665   6.326   6.157   2.867  0.1623 -0.0986 -0.0476
  159SAPE   O1317666   6.389   6.286   2.828  0.4215  0.2854  0.7182
  159SAPE   O1417667   6.222   6.095   2.783 -0.2361  0.1586 -0.2146
  159SAPE   O1217668   6.451   6.061   2.864  0.0570  0.4294  0.3307
  159SAPE   O1117669   6.276   6.155   3.012 -0.4007 -0.3918  0.1285
  159SAPE    C117670   6.154   6.216   3.055 -0.2768 -0.6224 -0.8708
  159SAPE    HA17671   6.182   6.323   3.060  1.6372 -1.1329  0.4927
  159SAPE    HB17672   6.064   6.197   2.992 -2.2017  0.6347  1.3166
  159SAPE    C217673   6.120   6.174   3.201 -0.4105  0.4554  0.2095
  159SAPE    HS17674   6.205   6.186   3.272  1.0989 -0.7265 -1.3133
  159SAPE   O2117675   6.080   6.033   3.199 -0.1978  0.3230 -0.4794
  159SAPE   C2117676   6.176   5.948   3.230  0.4628  0.2771 -0.9888
  159SAPE   O2217677   6.291   5.975   3.274  0.5264 -0.2211 -0.8548
  159SAPE   C2217678   6.125   5.805   3.218 -0.0807 -0.1973  0.2826
  159SAPE   H2R17679   6.017   5.794   3.240 -0.3004 -0.7300 -0.9628
  159SAPE   H2S17680   6.133   5.785   3.109  1.6803 -2.2284  0.7056
  159SAPE    C317681   5.998   6.251   3.256  0.6880 -0.2121  0.2003
  159SAPE    HX17682   5.914   6.233   3.186 -0.9053  2.5405  1.2800
  159SAPE    HY17683   6.013   6.361   3.251  0.5794 -0.2370 -2.9219
  159SAPE   O3117684   5.955   6.213   3.389 -0.1245 -0.0231  0.1154
  159SAPE   C3117685   6.017   6.272   3.488 -0.1864 -0.2500 -0.0363
  159SAPE   O3217686   6.102   6.357   3.476  0.2862  0.0052  0.9735
  159SAPE   C3217687   5.949   6.232   3.617 -0.5991 -0.1954  0.2576
  159SAPE   H2X17688   5.905   6.130   3.608  0.7201 -0.6573 -1.8414
  159SAPE   H2Y17689   5.869   6.307   3.634 -2.1916 -1.6670 -0.4659
  159SAPE   C2317690   6.202   5.690   3.288 -0.2536  0.4507 -0.8658
  159SAPE   H3R17691   6.309   5.714   3.273  0.8264 -1.8727  2.1565
  159SAPE   H3S17692   6.189   5.595   3.233  0.8056 -1.2440  1.6134
  159SAPE   C2417693   6.174   5.683   3.444 -0.5086 -0.2000  0.3839
  159SAPE   H4R17694   6.064   5.678   3.462 -0.4934 -0.5965  0.3899
  159SAPE   H4S17695   6.202   5.782   3.484 -1.1865  0.4237 -0.6597
  159SAPE   C2517696   6.240   5.567   3.513  0.3956  0.6069  0.0828
  159SAPE   H5R17697   6.348   5.580   3.523  0.5201  0.4735 -0.9740
  159SAPE   C2617698   6.185   5.462   3.568  0.6037  0.3209 -0.1307
  159SAPE   H6R17699   6.238   5.398   3.640  0.1124  1.2505  1.0800
  159SAPE   C2717700   6.037   5.424   3.559  0.0449  0.6386 -0.7482
  159SAPE   H7R17701   5.993   5.450   3.460  2.6386  0.4889 -2.0434
  159SAPE   H7S17702   5.982   5.483   3.635  0.3399 -0.0885  0.0487
  159SAPE   C2817703   6.010   5.275   3.590 -0.2600  0.5409 -0.7279
  159SAPE   H8R17704   5.991   5.207   3.506  1.0907  1.4194 -1.7838
  159SAPE   C2917705   6.002   5.222   3.709 -0.4938  0.4289  0.6513
  159SAPE   H9R17706   5.979   5.115   3.716  0.1822  0.2973  0.9905
  159SAPE  C21017707   6.023   5.282   3.843 -0.5575  0.0275  0.4068
  159SAPE  H10R17708   5.941   5.267   3.916 -0.2060 -1.1962  0.5695
  159SAPE  H10S17709   6.051   5.390   3.841 -0.3898  0.0123 -2.8363
  159SAPE  C21117710   6.149   5.211   3.895  0.8913 -0.0459  0.2056
  159SAPE  H11R17711   6.213   5.167   3.817 -1.1511  2.2198 -3.0115
  159SAPE  C21217712   6.175   5.186   4.025 -0.3971 -0.2439  0.5300
  159SAPE  H12R17713   6.270   5.138   4.051 -0.8032  0.0047  2.6883
  159SAPE  C21317714   6.112   5.244   4.143 -0.0227 -0.6578  0.0306
  159SAPE  H13R17715   6.019   5.302   4.123 -1.1023 -1.7828  1.4697
  159SAPE  H13S17716   6.193   5.313   4.173  0.8132 -0.3319 -2.6892
  159SAPE  C21417717   6.084   5.137   4.248 -0.1462  0.1399  0.5378
  159SAPE  H14R17718   6.045   5.045   4.202  0.4369  1.0222 -1.8504
  159SAPE  C21517719   6.090   5.144   4.383  0.5344 -0.1242 -0.3991
  159SAPE  H15R17720   6.078   5.053   4.444 -2.2806 -0.9793 -2.0330
  159SAPE  C21617721   6.162   5.262   4.446  0.5747 -0.2500  0.6748
  159SAPE  H16R17722   6.238   5.311   4.381 -0.1968  1.7930  1.2398
  159SAPE  H16S17723   6.207   5.225   4.541  0.3560 -0.4436  0.7039
  159SAPE  C21717724   6.061   5.378   4.464 -0.4481  0.0845  0.2610
  159SAPE  H17R17725   6.012   5.402   4.367  0.4924 -0.8568 -0.4761
  159SAPE  H17S17726   6.120   5.464   4.503 -3.1720  2.1352  0.1589
  159SAPE  C21817727   5.955   5.346   4.559 -0.0938 -0.1270 -0.6669
  159SAPE  H18R17728   5.994   5.320   4.660 -0.3606 -1.3308 -0.8607
  159SAPE  H18S17729   5.890   5.264   4.523  0.6104 -0.3450 -1.4882
  159SAPE  C21917730   5.853   5.453   4.593 -0.2430  0.1032 -0.0486
  159SAPE  H19R17731   5.822   5.498   4.496  2.4079  0.9588 -0.5914
  159SAPE  H19S17732   5.895   5.534   4.657 -0.6438  0.0452  0.2962
  159SAPE  C22017733   5.731   5.392   4.659  0.2588 -0.2517  0.6324
  159SAPE  H20R17734   5.658   5.475   4.673  0.6364  0.3660 -0.8899
  159SAPE  H20S17735   5.755   5.346   4.757  1.3945 -1.2932 -0.1092
  159SAPE  H20T17736   5.677   5.315   4.600 -2.0354 -1.5028  4.0529
  159SAPE   C3317737   6.040   6.220   3.736 -0.0285 -0.5340  0.4840
  159SAPE   H3X17738   6.087   6.321   3.734 -1.0218 -0.0229  1.7593
  159SAPE   H3Y17739   6.122   6.146   3.731  1.3242  0.9677 -0.4166
  159SAPE   C3417740   5.966   6.208   3.865  0.1286  0.4583  0.9188
  159SAPE   H4X17741   5.889   6.128   3.851  0.6269  0.2374 -0.7853
  159SAPE   H4Y17742   5.909   6.302   3.881 -1.6330 -0.2595 -0.7726
  159SAPE   C3517743   6.051   6.179   3.993 -0.0945 -0.3400  0.1709
  159SAPE   H5X17744   6.118   6.267   3.999 -1.4591  0.7890 -0.3789
  159SAPE   H5Y17745   6.119   6.093   3.973 -0.3866 -0.6368  0.4404
  159SAPE   C3617746   5.963   6.144   4.113 -0.3040 -0.1389 -0.0213
  159SAPE   H6X17747   5.943   6.037   4.131 -1.0423  0.1086  0.7182
  159SAPE   H6Y17748   5.867   6.200   4.103 -0.3457  0.1261  1.6310
  159SAPE   C3717749   6.036   6.206   4.237  0.1623  0.7660  0.0767
  159SAPE   H7X17750   6.121   6.271   4.208 -0.3192  1.1752 -0.4368
  159SAPE   H7Y17751   6.077   6.125   4.301  1.4751  1.4728  0.1392
  159SAPE   C3817752   5.949   6.306   4.322 -0.6280  0.0188  0.3081
  159SAPE   H8X17753   5.855   6.252   4.345  0.6528 -2.5777 -0.1582
  159SAPE   H8Y17754   5.913   6.387   4.255 -1.0532  0.8663  1.5347
  159SAPE   C3917755   6.017   6.340   4.453  0.0522  0.4158  0.5526
  159SAPE   H9X17756   5.984   6.444   4.471 -0.3736  0.2983  0.4573
  159SAPE   H9Y17757   6.127   6.354   4.441  0.3201  1.1178  3.0841
  159SAPE  C31017758   5.984   6.253   4.578 -0.8396  0.2305 -0.0817
  159SAPE  H10X17759   5.994   6.146   4.550 -0.7482 -0.0237  0.9087
  159SAPE  H10Y17760   5.875   6.253   4.601 -0.7557 -0.8930  0.3465
  159SAPE  C31117761   6.066   6.278   4.705 -0.0648  0.3377 -0.2262
  159SAPE  H11X17762   6.025   6.365   4.760 -2.4071 -0.7003 -0.1652
  159SAPE  H11Y17763   6.173   6.298   4.683  0.5696 -0.0115  2.2825
  159SAPE  C31217764   6.066   6.154   4.793 -0.1687  0.4321  0.7966
  159SAPE  H12X17765   6.097   6.058   4.745 -0.7097 -0.7242  2.6339
  159SAPE  H12Y17766   5.965   6.143   4.838 -1.2076 -0.4459 -1.5905
  159SAPE  C31317767   6.170   6.162   4.912  0.0473  0.2286 -0.3322
  159SAPE  H13X17768   6.143   6.086   4.989  3.9693  0.2729  1.2850
  159SAPE  H13Y17769   6.167   6.254   4.974 -2.1506 -0.5404  0.8194
  159SAPE  C31417770   6.318   6.138   4.866  0.0631 -0.1867  0.0211
  159SAPE  H14X17771   6.347   6.213   4.789 -0.6856 -0.7176 -0.7856
  159SAPE  H14Y17772   6.322   6.041   4.813  2.1959  0.1535 -0.5381
  159SAPE  C31517773   6.423   6.146   4.980  0.1322 -0.7386 -0.4399
  159SAPE  H15X17774   6.414   6.250   5.018 -0.6852 -1.3844  1.2158
  159SAPE  H15Y17775   6.524   6.128   4.937  0.2457 -1.5125  0.1413
  159SAPE  C31617776   6.401   6.041   5.094 -0.1001 -0.5884  0.0530
  159SAPE  H16X17777   6.314   6.055   5.161 -0.5858 -1.2801 -0.4162
  159SAPE  H16Y17778   6.489   6.048   5.161 -0.1609 -1.9903  0.3166
  159SAPE  C31717779   6.401   5.890   5.053  0.5800 -0.9335 -0.0602
  159SAPE  H17X17780   6.495   5.869   4.997  0.1308  0.9610 -1.6177
  159SAPE  H17Y17781   6.325   5.874   4.973  0.1847  1.8350 -0.3241
  159SAPE  C31817782   6.379   5.798   5.171 -0.0257 -0.2168  0.1070
  159SAPE  H18X17783   6.389   5.693   5.135 -0.5033  0.2696 -1.5034
  159SAPE  H18Y17784   6.280   5.816   5.218 -1.5947 -1.5945 -2.4446
  159SAPE  H18Z17785   6.462   5.819   5.241 -0.7518  0.0858  0.9014
  160SAPE     N17786   5.479   2.264   2.994 -0.8762 -0.0027  0.5573
  160SAPE   HN117787   5.537   2.186   3.032  0.2368  0.6989  0.3644
  160SAPE   HN217788   5.508   2.279   2.895  2.8676 -1.2701  1.2754
  160SAPE   HN317789   5.507   2.351   3.042  0.0030  0.5535 -0.8802
  160SAPE   C1217790   5.328   2.252   3.006 -0.0696 -0.1703  0.5804
  160SAPE  H12A17791   5.298   2.291   3.105 -0.3410 -0.7584  0.7346
  160SAPE  H12B17792   5.310   2.143   3.006 -0.6712 -0.1249 -1.8523
  160SAPE   C1117793   5.252   2.314   2.884 -1.1370 -0.3139  0.2932
  160SAPE  H11A17794   5.145   2.304   2.912 -0.8833 -2.6033  0.6070
  160SAPE  H11B17795   5.275   2.252   2.795  2.2521  1.8450 -0.5701
  160SAPE     P17796   5.223   2.582   2.900  0.2429  0.2696  0.0684
  160SAPE   O1317797   5.320   2.695   2.880  0.2471 -0.4506 -0.0235
  160SAPE   O1417798   5.100   2.604   2.822 -0.1179 -0.4249 -0.4308
  160SAPE   O1217799   5.295   2.451   2.861 -0.2201 -0.4102 -0.4143
  160SAPE   O1117800   5.189   2.576   3.054 -0.2949 -0.1953  0.5241
  160SAPE    C117801   5.062   2.528   3.104 -0.5900  0.0373  0.4559
  160SAPE    HA17802   4.997   2.498   3.019 -0.2078 -1.4206  0.6496
  160SAPE    HB17803   5.086   2.445   3.174 -0.2407  0.6656  1.0940
  160SAPE    C217804   4.988   2.639   3.179 -1.1399  0.2126 -0.6755
  160SAPE    HS17805   4.995   2.732   3.119  0.2979  1.9468  1.9878
  160SAPE   O2117806   5.056   2.670   3.304 -0.0877  0.5366  0.7585
  160SAPE   C2117807   5.043   2.796   3.336  0.0172  0.7549  0.2661
  160SAPE   O2217808   4.994   2.886   3.272  0.2337  0.2866  0.3921
  160SAPE   C2217809   5.103   2.815   3.463 -0.6842 -0.1998  0.2641
  160SAPE   H2R17810   5.211   2.789   3.459 -0.0609  2.2894 -0.4785
  160SAPE   H2S17811   5.103   2.925   3.479 -2.9816 -0.2052  0.6402
  160SAPE    C317812   4.827   2.611   3.195 -0.5258 -0.3289 -0.8927
  160SAPE    HX17813   4.809   2.510   3.237  0.9469 -0.6768 -1.0439
  160SAPE    HY17814   4.788   2.590   3.093  1.7031  0.4593 -1.9882
  160SAPE   O3117815   4.760   2.717   3.269  0.0863  0.9348 -0.2086
  160SAPE   C3117816   4.626   2.718   3.277 -0.5935  0.0417  0.1641
  160SAPE   O3217817   4.560   2.630   3.221  0.1647 -0.7205  0.5504
  160SAPE   C3217818   4.569   2.838   3.351 -1.2881 -0.1711 -0.2831
  160SAPE   H2X17819   4.506   2.898   3.282  1.1060  0.5168 -2.0218
  160SAPE   H2Y17820   4.653   2.908   3.374 -0.1207 -1.3728 -0.7405
  160SAPE   C2317821   5.035   2.734   3.574  0.8618 -0.0045 -0.1956
  160SAPE   H3R17822   5.102   2.763   3.658 -1.3307 -0.1297  1.6946
  160SAPE   H3S17823   5.034   2.623   3.572 -2.6153 -0.0797 -1.6237
  160SAPE   C2417824   4.887   2.777   3.610  0.2002  0.2823  0.1023
  160SAPE   H4R17825   4.843   2.704   3.681 -2.1431 -0.0377 -1.5661
  160SAPE   H4S17826   4.834   2.776   3.512  0.0300 -1.0829  0.1854
  160SAPE   C2517827   4.877   2.919   3.676  0.2846  0.1515  0.5243
  160SAPE   H5R17828   4.889   3.002   3.605  0.6059 -1.5001 -1.4341
  160SAPE   C2617829   4.861   2.945   3.803 -0.0131 -0.8156  0.2241
  160SAPE   H6R17830   4.841   3.051   3.822 -1.3747 -0.7948 -1.1226
  160SAPE   C2717831   4.864   2.844   3.916  0.2922  0.1539 -0.6878
  160SAPE   H7R17832   4.819   2.748   3.883 -0.6397  0.5544 -0.5995
  160SAPE   H7S17833   4.793   2.893   3.986 -2.1027 -1.6731 -1.7313
  160SAPE   C2817834   5.000   2.817   3.981  0.0521  0.3500 -0.0884
  160SAPE   H8R17835   5.083   2.817   3.909  0.3679 -1.0160  0.2396
  160SAPE   C2917836   5.020   2.776   4.108  0.1398 -0.2665  0.0919
  160SAPE   H9R17837   5.127   2.762   4.127  0.1857  0.3508  0.3183
  160SAPE  C21017838   4.923   2.752   4.219 -0.6403  0.1682 -0.7107
  160SAPE  H10R17839   4.966   2.695   4.304 -1.6357  0.7603  0.2248
  160SAPE  H10S17840   4.830   2.699   4.188 -0.4688  0.4795 -1.8077
  160SAPE  C21117841   4.874   2.884   4.276 -0.4674  0.4810 -0.4738
  160SAPE  H11R17842   4.860   2.967   4.206  0.6916  0.2445 -1.0211
  160SAPE  C21217843   4.855   2.906   4.413 -0.2138  0.4019 -0.2525
  160SAPE  H12R17844   4.812   3.000   4.448 -0.7475  1.3830 -3.2150
  160SAPE  C21317845   4.877   2.805   4.530  0.2734  0.1533  0.0029
  160SAPE  H13R17846   4.872   2.702   4.489  0.3597  0.3225 -0.4391
  160SAPE  H13S17847   4.792   2.796   4.601  0.9577 -2.2406  0.5974
  160SAPE  C21417848   5.002   2.832   4.606 -0.0192  0.0932 -0.7650
  160SAPE  H14R17849   5.069   2.909   4.564 -1.3341  0.4400 -2.3120
  160SAPE  C21517850   5.050   2.762   4.709  0.7560  0.6796 -0.6145
  160SAPE  H15R17851   5.142   2.791   4.762 -0.4117 -0.2793  2.1191
  160SAPE  C21617852   4.960   2.662   4.782  0.3101 -0.9746  0.2551
  160SAPE  H16R17853   4.960   2.575   4.713  1.2097 -0.9203  0.1705
  160SAPE  H16S17854   4.858   2.700   4.805  0.7015  1.2515 -1.2812
  160SAPE  C21717855   5.024   2.626   4.922  0.2826  0.4280  0.6642
  160SAPE  H17R17856   5.122   2.575   4.909 -0.2714 -0.5316  0.1653
  160SAPE  H17S17857   4.957   2.559   4.980  1.4320 -0.1918  1.3192
  160SAPE  C21817858   5.050   2.750   5.006  0.7048  0.0828  0.0059
  160SAPE  H18R17859   4.956   2.808   5.017  0.8921  0.0902  1.8982
  160SAPE  H18S17860   5.120   2.818   4.953  2.1393 -0.2890  1.3724
  160SAPE  C21917861   5.104   2.724   5.141 -0.0514  0.5560 -0.2006
  160SAPE  H19R17862   5.140   2.819   5.184  0.6773 -0.9583  2.7841
  160SAPE  H19S17863   5.190   2.654   5.149 -0.8693 -0.3622  0.9660
  160SAPE  C22017864   5.010   2.651   5.238 -0.2909  0.0685 -0.4082
  160SAPE  H20R17865   5.031   2.676   5.344 -0.2416 -1.3594 -0.0569
  160SAPE  H20S17866   4.995   2.542   5.222  0.3625 -0.4270  2.0077
  160SAPE  H20T17867   4.916   2.701   5.205 -0.4861 -0.0608 -0.0514
  160SAPE   C3317868   4.488   2.806   3.481  0.0948 -0.1648  0.5074
  160SAPE   H3X17869   4.555   2.761   3.557  3.3112  1.7546 -1.0032
  160SAPE   H3Y17870   4.408   2.730   3.467 -1.5024  1.0347  2.5747
  160SAPE   C3417871   4.420   2.927   3.549 -0.7631  0.6171 -0.3071
  160SAPE   H4X17872   4.343   2.964   3.478 -0.1009 -1.8692 -2.4699
  160SAPE   H4Y17873   4.509   2.989   3.573 -0.6765 -0.0858  1.3597
  160SAPE   C3517874   4.353   2.884   3.681 -0.6516 -0.4013 -0.4381
  160SAPE   H5X17875   4.280   2.802   3.662  0.0550 -1.3388  0.7992
  160SAPE   H5Y17876   4.299   2.969   3.727  0.2718 -0.0258 -0.0352
  160SAPE   C3617877   4.454   2.837   3.788 -0.6741  0.7106 -0.1695
  160SAPE   H6X17878   4.528   2.919   3.805  0.0709 -0.3249  1.9415
  160SAPE   H6Y17879   4.502   2.744   3.752 -0.5296  1.4335 -1.9074
  160SAPE   C3717880   4.385   2.799   3.914  0.7471 -0.6922  0.0038
  160SAPE   H7X17881   4.331   2.704   3.893  2.4203 -1.8487  0.7545
  160SAPE   H7Y17882   4.312   2.878   3.942  0.5703  0.2567 -2.7561
  160SAPE   C3817883   4.492   2.774   4.020 -0.5543 -0.3750 -0.3327
  160SAPE   H8X17884   4.537   2.870   4.051  2.8668 -0.9833 -2.7406
  160SAPE   H8Y17885   4.581   2.721   3.979  1.7736  1.5093  1.9554
  160SAPE   C3917886   4.441   2.702   4.150  0.6166 -0.0631 -0.4816
  160SAPE   H9X17887   4.426   2.594   4.128 -0.7501  0.1744 -0.8663
  160SAPE   H9Y17888   4.337   2.741   4.165  1.2416  0.9940  1.4109
  160SAPE  C31017889   4.526   2.726   4.272  0.2572 -0.2072  0.0841
  160SAPE  H10X17890   4.532   2.837   4.282 -0.9523 -0.1298  0.1037
  160SAPE  H10Y17891   4.626   2.679   4.259  0.9670  1.1355  0.4309
  160SAPE  C31117892   4.459   2.678   4.401  0.0670 -0.0442 -0.5118
  160SAPE  H11X17893   4.430   2.573   4.378 -0.8695  0.5461 -2.1644
  160SAPE  H11Y17894   4.366   2.736   4.418  0.7178  0.6031  0.9242
  160SAPE  C31217895   4.540   2.700   4.526 -0.9682  0.0355  0.7941
  160SAPE  H12X17896   4.549   2.805   4.559  1.0828  0.2333 -0.1967
  160SAPE  H12Y17897   4.644   2.666   4.504 -1.1793 -1.1356  1.5400
  160SAPE  C31317898   4.492   2.610   4.635  0.1254 -0.1420 -0.6604
  160SAPE  H13X17899   4.505   2.501   4.615 -2.1764 -0.8114  1.0807
  160SAPE  H13Y17900   4.383   2.633   4.630 -0.2438 -1.9613 -2.4664
  160SAPE  C31417901   4.549   2.636   4.772 -0.2061 -0.1805 -0.2561
  160SAPE  H14X17902   4.574   2.744   4.778  0.6036 -0.4414  1.7163
  160SAPE  H14Y17903   4.644   2.581   4.784 -0.1337 -0.1305 -0.5839
  160SAPE  C31517904   4.466   2.581   4.892 -0.3144 -0.3242  0.1898
  160SAPE  H15X17905   4.371   2.637   4.903 -0.7373 -1.1337  0.7536
  160SAPE  H15Y17906   4.529   2.598   4.981  1.6316 -1.0368 -0.9752
  160SAPE  C31617907   4.433   2.432   4.870 -0.2918  0.9927  0.5722
  160SAPE  H16X17908   4.522   2.379   4.829 -1.4959 -1.7024  1.2674
  160SAPE  H16Y17909   4.354   2.433   4.792  0.4336 -0.1631 -0.2100
  160SAPE  C31717910   4.391   2.348   4.988 -0.0552  0.5495 -0.1235
  160SAPE  H17X17911   4.339   2.253   4.966 -1.1390  1.3815 -1.2827
  160SAPE  H17Y17912   4.320   2.411   5.046  0.5137 -0.0207  1.2330
  160SAPE  C31817913   4.503   2.324   5.087 -1.5969  0.6414 -0.0012
  160SAPE  H18X17914   4.479   2.239   5.155 -0.1542  0.7272  0.6585
  160SAPE  H18Y17915   4.532   2.405   5.156  0.7942  0.9139 -1.2261
  160SAPE  H18Z17916   4.590   2.279   5.034 -0.9946  1.8532 -0.0772
  161SAPE     N17917   4.346   6.751   2.926  0.8115 -0.0413 -0.1302
  161SAPE   HN117918   4.445   6.782   2.936  1.0447 -1.4197  2.5611
  161SAPE   HN217919   4.291   6.818   2.869  0.3497  1.1913  1.6874
  161SAPE   HN317920   4.302   6.744   3.020 -2.5294 -0.7150 -1.6096
  161SAPE   C1217921   4.344   6.605   2.868  0.1702 -0.5417 -0.3461
  161SAPE  H12A17922   4.384   6.610   2.764  0.2581  1.9163 -0.2638
  161SAPE  H12B17923   4.239   6.569   2.868  0.5567 -1.7382 -1.6910
  161SAPE   C1117924   4.427   6.514   2.956  0.0144  0.4554  0.6198
  161SAPE  H11A17925   4.376   6.500   3.054 -2.7899 -0.6492 -0.8811
  161SAPE  H11B17926   4.530   6.548   2.980  0.3549 -1.1035  1.5222
  161SAPE     P17927   4.545   6.349   2.792  0.3790  0.1830 -0.1709
  161SAPE   O1317928   4.513   6.215   2.729 -0.1785 -0.0528 -0.2932
  161SAPE   O1417929   4.558   6.452   2.687  0.5709 -0.0167 -0.4855
  161SAPE   O1217930   4.436   6.386   2.898 -0.5095  0.1167 -0.1247
  161SAPE   O1117931   4.679   6.343   2.872  0.1104 -0.3920 -0.5647
  161SAPE    C117932   4.739   6.225   2.932 -0.1255  0.0561  0.0642
  161SAPE    HA17933   4.736   6.145   2.856  1.6364 -0.7894  0.8298
  161SAPE    HB17934   4.848   6.243   2.941 -0.0193 -1.4623  2.7465
  161SAPE    C217935   4.667   6.178   3.067  0.0882  0.4646  0.1257
  161SAPE    HS17936   4.567   6.140   3.037  0.1839 -0.2623  0.6934
  161SAPE   O2117937   4.643   6.289   3.157 -0.7921 -0.2006  0.4004
  161SAPE   C2117938   4.554   6.271   3.254 -0.0857 -0.8243  1.1743
  161SAPE   O2217939   4.478   6.180   3.269 -0.1183  0.1448 -0.2980
  161SAPE   C2217940   4.561   6.395   3.336  0.1387 -0.2673 -0.6033
  161SAPE   H2R17941   4.662   6.398   3.381  0.1211 -0.7366 -0.5210
  161SAPE   H2S17942   4.569   6.483   3.268  0.9577  0.3906  0.3246
  161SAPE    C317943   4.749   6.060   3.130 -0.2685  0.8184  0.4843
  161SAPE    HX17944   4.762   5.973   3.061  3.2609 -0.7342  2.7946
  161SAPE    HY17945   4.695   6.013   3.215  0.6524 -2.3382 -0.5181
  161SAPE   O3117946   4.881   6.090   3.171 -0.4373 -0.3827  0.1168
  161SAPE   C3117947   4.905   6.165   3.276 -0.0290 -0.3984  0.3211
  161SAPE   O3217948   4.823   6.207   3.357 -0.0050 -0.3314 -0.0315
  161SAPE   C3217949   5.057   6.192   3.278  0.4232 -0.6889 -0.4645
  161SAPE   H2X17950   5.057   6.301   3.296  2.4318 -0.1372 -3.1244
  161SAPE   H2Y17951   5.101   6.187   3.176  1.1621  1.0558 -0.2727
  161SAPE   C2317952   4.460   6.405   3.443  0.2464  0.0039 -0.9045
  161SAPE   H3R17953   4.358   6.396   3.401  1.0704 -0.8398 -2.8412
  161SAPE   H3S17954   4.463   6.504   3.493 -1.7581 -1.3222  2.1446
  161SAPE   C2417955   4.466   6.304   3.557 -0.4470  0.7190 -0.6174
  161SAPE   H4R17956   4.574   6.308   3.582 -1.1358 -0.0555  3.1783
  161SAPE   H4S17957   4.441   6.201   3.522 -1.9869  0.8099  0.1158
  161SAPE   C2517958   4.376   6.332   3.674 -0.3831  0.1396  0.4111
  161SAPE   H5R17959   4.269   6.323   3.650 -0.5630  2.8596 -0.0536
  161SAPE   C2617960   4.418   6.343   3.798 -0.2522 -0.7535  0.3495
  161SAPE   H6R17961   4.338   6.358   3.872 -0.0054  3.0462  0.0596
  161SAPE   C2717962   4.558   6.333   3.846  0.3579  0.2135 -0.8227
  161SAPE   H7R17963   4.637   6.310   3.772  2.3262 -1.0610  1.5283
  161SAPE   H7S17964   4.560   6.236   3.899 -2.0350  0.1440 -0.7159
  161SAPE   C2817965   4.599   6.462   3.914 -0.5258  0.9254  1.1835
  161SAPE   H8R17966   4.611   6.543   3.841  1.6095  1.8982  2.5109
  161SAPE   C2917967   4.602   6.481   4.047 -1.2044 -0.3489 -0.1451
  161SAPE   H9R17968   4.642   6.576   4.085  3.1859 -1.8706 -0.4248
  161SAPE  C21017969   4.570   6.372   4.153  0.1640 -0.3990 -0.0423
  161SAPE  H10R17970   4.554   6.272   4.107 -1.7471  0.7884 -2.2234
  161SAPE  H10S17971   4.471   6.394   4.199  0.5027 -1.6592  1.3882
  161SAPE  C21117972   4.666   6.366   4.271 -0.3175  0.6462 -0.1646
  161SAPE  H11R17973   4.752   6.298   4.270 -1.0855 -0.3414 -0.9803
  161SAPE  C21217974   4.633   6.433   4.387 -0.4562  0.5613  0.2031
  161SAPE  H12R17975   4.690   6.409   4.478 -1.3669  2.3403  1.3028
  161SAPE  C21317976   4.515   6.518   4.417 -0.1929 -0.8162 -0.1973
  161SAPE  H13R17977   4.491   6.575   4.324 -3.3876  0.2879  1.1727
  161SAPE  H13S17978   4.547   6.608   4.474  1.4119 -2.0540  0.9332
  161SAPE  C21417979   4.394   6.443   4.471 -0.4454 -0.5595  0.5283
  161SAPE  H14R17980   4.337   6.378   4.403  1.5871 -1.2687 -0.5567
  161SAPE  C21517981   4.344   6.455   4.596  0.0285  0.1639  0.3645
  161SAPE  H15R17982   4.260   6.396   4.634  0.1942  0.1998  0.7874
  161SAPE  C21617983   4.407   6.546   4.700 -0.1327 -0.5007 -0.0446
  161SAPE  H16R17984   4.332   6.589   4.769  0.6298 -1.6664  1.5834
  161SAPE  H16S17985   4.466   6.625   4.649 -1.4847 -0.5977 -1.8952
  161SAPE  C21717986   4.509   6.465   4.783 -0.7413 -0.3944 -0.3237
  161SAPE  H17R17987   4.606   6.449   4.730  1.7973  1.0494  3.4587
  161SAPE  H17S17988   4.451   6.372   4.803 -2.7130  0.7048 -0.6800
  161SAPE  C21817989   4.534   6.543   4.918  0.0749  1.2027  0.7568
  161SAPE  H18R17990   4.436   6.558   4.968  0.5695  2.3207  1.4360
  161SAPE  H18S17991   4.588   6.640   4.911  1.8263  0.5280  3.4127
  161SAPE  C21917992   4.620   6.458   5.022  0.2408 -0.8198 -0.1122
  161SAPE  H19R17993   4.725   6.461   4.987  0.5103  1.6138  0.6754
  161SAPE  H19S17994   4.609   6.349   5.036  2.4208 -0.9721  0.7290
  161SAPE  C22017995   4.603   6.517   5.160 -0.2607 -0.2681  0.3825
  161SAPE  H20R17996   4.630   6.625   5.156  4.7831 -1.3037 -1.7650
  161SAPE  H20S17997   4.675   6.472   5.232 -0.4966 -0.9516  0.2002
  161SAPE  H20T17998   4.498   6.499   5.192 -0.3877 -0.0928  0.0670
  161SAPE   C3317999   5.119   6.116   3.400  0.3259 -0.9310 -0.6616
  161SAPE   H3X18000   5.074   6.138   3.499  3.6984  0.7976  0.6605
  161SAPE   H3Y18001   5.221   6.156   3.423 -0.4555 -0.1634  1.7519
  161SAPE   C3418002   5.126   5.970   3.367 -0.2152  0.6607  0.2694
  161SAPE   H4X18003   5.146   5.956   3.259 -3.4494 -1.9525 -0.1798
  161SAPE   H4Y18004   5.027   5.920   3.374 -0.1874  0.1705 -2.0896
  161SAPE   C3518005   5.235   5.899   3.447 -0.2184 -0.1027  0.4656
  161SAPE   H5X18006   5.336   5.946   3.438 -0.9405  1.5629  0.7311
  161SAPE   H5Y18007   5.247   5.795   3.412 -1.5315  0.5945 -2.3440
  161SAPE   C3618008   5.199   5.884   3.593 -0.0742  0.3157 -0.4396
  161SAPE   H6X18009   5.094   5.848   3.602 -0.0555  0.5864  1.1207
  161SAPE   H6Y18010   5.200   5.983   3.642  1.3927  1.1175 -1.9636
  161SAPE   C3718011   5.297   5.786   3.668  0.0472 -0.7921 -0.0768
  161SAPE   H7X18012   5.403   5.816   3.680  0.9370 -3.3610 -0.7639
  161SAPE   H7Y18013   5.310   5.695   3.605  0.7875 -0.4422 -0.4411
  161SAPE   C3818014   5.253   5.737   3.808  0.5046  0.6749  0.7288
  161SAPE   H8X18015   5.290   5.635   3.834 -0.1543  0.5363  1.1584
  161SAPE   H8Y18016   5.144   5.723   3.818  0.3445  0.4437 -1.0563
  161SAPE   C3918017   5.306   5.825   3.922 -0.0323  0.0629  0.1160
  161SAPE   H9X18018   5.254   5.923   3.922 -1.0865 -0.4788  0.3480
  161SAPE   H9Y18019   5.416   5.836   3.914 -0.1156  1.1021  0.3320
  161SAPE  C31018020   5.270   5.760   4.059  0.3851  0.7448 -0.9146
  161SAPE  H10X18021   5.339   5.675   4.080  0.1399  0.8858  0.5926
  161SAPE  H10Y18022   5.172   5.714   4.039  0.8605 -0.6566 -0.1301
  161SAPE  C31118023   5.286   5.853   4.179  0.2145  0.8799  0.4425
  161SAPE  H11X18024   5.268   5.804   4.277  1.8368  1.0860  0.8806
  161SAPE  H11Y18025   5.213   5.936   4.173  0.4219  1.0770  0.6343
  161SAPE  C31218026   5.422   5.918   4.197  0.0914 -0.6164 -0.0352
  161SAPE  H12X18027   5.391   6.006   4.256  1.2557 -0.2576  0.0682
  161SAPE  H12Y18028   5.455   5.958   4.098  0.7583 -2.9810 -0.8381
  161SAPE  C31318029   5.520   5.839   4.278  0.1072  0.1447 -0.2535
  161SAPE  H13X18030   5.549   5.750   4.218  2.9524  1.1220 -0.4868
  161SAPE  H13Y18031   5.471   5.809   4.373 -3.1251  0.9929 -1.5173
  161SAPE  C31418032   5.649   5.919   4.332  0.2233  0.0304  0.6078
  161SAPE  H14X18033   5.619   5.994   4.409 -0.9681 -0.2972  0.4851
  161SAPE  H14Y18034   5.693   5.968   4.243 -1.6231  1.7369  0.5619
  161SAPE  C31518035   5.750   5.828   4.400  0.4877  0.3372  0.1604
  161SAPE  H15X18036   5.785   5.753   4.325  0.1797  0.2365  0.1167
  161SAPE  H15Y18037   5.710   5.769   4.485  0.1614 -2.9433 -2.0956
  161SAPE  C31618038   5.869   5.914   4.455 -0.0798 -0.2983 -0.5030
  161SAPE  H16X18039   5.831   5.937   4.557 -0.3269 -3.7386  0.2966
  161SAPE  H16Y18040   5.882   6.006   4.394 -0.1253 -0.3312 -0.5623
  161SAPE  C31718041   5.998   5.835   4.477 -0.2652  0.7958  0.6826
  161SAPE  H17X18042   5.983   5.738   4.528  1.4302  0.8629  1.3976
  161SAPE  H17Y18043   6.073   5.892   4.538  1.2625  0.4004 -0.7588
  161SAPE  C31818044   6.063   5.808   4.343 -0.1424  0.2617  0.8944
  161SAPE  H18X18045   5.997   5.733   4.294  1.3965 -1.2377  1.0330
  161SAPE  H18Y18046   6.161   5.756   4.335  0.3707  1.3141  0.0091
  161SAPE  H18Z18047   6.064   5.899   4.278  0.2066 -0.3515  0.0189
  162SAPE     N18048   3.570   3.668   2.887 -0.7665 -0.2742  0.4308
  162SAPE   HN118049   3.613   3.669   2.792 -0.3193 -3.3165  0.5299
  162SAPE   HN218050   3.655   3.646   2.941  1.1668  2.9043 -1.0184
  162SAPE   HN318051   3.499   3.592   2.889 -1.0270 -0.1324 -1.2570
  162SAPE   C1218052   3.528   3.800   2.931 -0.3704  0.4027 -0.2419
  162SAPE  H12A18053   3.496   3.868   2.850 -1.2592  1.0455  0.6298
  162SAPE  H12B18054   3.611   3.849   2.987  2.0803 -3.5347 -0.0545
  162SAPE   C1118055   3.415   3.784   3.031 -0.1504  0.0379  0.2963
  162SAPE  H11A18056   3.397   3.881   3.083  0.7884  2.1151 -2.9499
  162SAPE  H11B18057   3.444   3.726   3.121  1.6009  1.7377  0.9038
  162SAPE     P18058   3.175   3.819   2.961  0.0081 -0.4019  0.1180
  162SAPE   O1318059   3.206   3.963   2.941  0.1018 -0.3433  0.0473
  162SAPE   O1418060   3.078   3.754   2.877  0.2419 -0.0490 -0.0173
  162SAPE   O1218061   3.306   3.727   2.963 -0.1716 -0.6574 -0.4785
  162SAPE   O1118062   3.127   3.805   3.112 -0.0624  0.1725  0.0380
  162SAPE    C118063   3.095   3.677   3.164  0.3431  0.1311  0.0312
  162SAPE    HA18064   3.084   3.600   3.084  2.0262  0.0153 -0.1208
  162SAPE    HB18065   3.179   3.639   3.225  1.9024  2.4035 -0.5701
  162SAPE    C218066   2.962   3.694   3.251  0.3321  0.3746  0.1514
  162SAPE    HS18067   2.883   3.735   3.185  0.4028  2.1274  1.0947
  162SAPE   O2118068   2.994   3.791   3.350  0.0472  0.2858 -0.0618
  162SAPE   C2118069   2.900   3.840   3.424 -0.7749 -0.1663  0.6401
  162SAPE   O2218070   2.779   3.829   3.418  0.2426 -0.2499 -0.0124
  162SAPE   C2218071   2.964   3.906   3.544  0.4459 -0.6399  0.1530
  162SAPE   H2R18072   3.074   3.889   3.548  0.6984  1.0093  0.6266
  162SAPE   H2S18073   2.938   4.013   3.548  1.9858 -0.2690  1.2778
  162SAPE    C318074   2.916   3.560   3.325  0.1658  0.1226  0.7342
  162SAPE    HX18075   2.889   3.483   3.250 -0.0133  0.3865  0.5234
  162SAPE    HY18076   2.823   3.587   3.381  0.8166  2.1556  0.9232
  162SAPE   O3118077   3.023   3.506   3.412  0.1819  0.7486  0.0996
  162SAPE   C3118078   2.986   3.397   3.478  0.0494  0.2178  0.6623
  162SAPE   O3218079   2.881   3.337   3.456 -0.9145 -0.0102 -0.3651
  162SAPE   C3218080   3.087   3.373   3.594  0.2393  0.1616 -0.2598
  162SAPE   H2X18081   3.056   3.434   3.681 -0.5056 -1.6762  0.8116
  162SAPE   H2Y18082   3.195   3.393   3.575  0.3462 -0.3463 -0.2056
  162SAPE   C2318083   2.899   3.844   3.667  0.4719  0.7834 -0.2570
  162SAPE   H3R18084   2.788   3.849   3.661  0.3628  3.3695  1.7407
  162SAPE   H3S18085   2.925   3.895   3.762  0.1635  1.5853 -0.5954
  162SAPE   C2418086   2.956   3.698   3.691  1.4035 -0.3223  0.1785
  162SAPE   H4R18087   3.066   3.715   3.693  1.4344  0.1837 -2.4585
  162SAPE   H4S18088   2.937   3.640   3.598  1.1725 -0.4701  0.3175
  162SAPE   C2518089   2.878   3.628   3.803  0.5265 -0.1160  0.1584
  162SAPE   H5R18090   2.779   3.594   3.769  0.6904  0.6364 -1.1748
  162SAPE   C2618091   2.925   3.595   3.930 -0.2923 -0.2764  0.2150
  162SAPE   H6R18092   2.838   3.564   3.989 -1.3201  0.1239 -1.0398
  162SAPE   C2718093   3.061   3.629   3.985 -0.3548 -0.0615 -0.1106
  162SAPE   H7R18094   3.135   3.610   3.905 -0.5042  2.9177 -1.1001
  162SAPE   H7S18095   3.093   3.556   4.063 -1.1451  1.3427  1.6071
  162SAPE   C2818096   3.063   3.765   4.043  0.7340 -0.0802  0.1863
  162SAPE   H8R18097   2.969   3.812   4.074  0.4072  0.1519 -1.0919
  162SAPE   C2918098   3.178   3.841   4.055 -0.3626  0.2656 -0.1043
  162SAPE   H9R18099   3.181   3.944   4.094  1.6466  0.0080  0.5174
  162SAPE  C21018100   3.315   3.800   4.008 -0.2022  0.1482 -0.2191
  162SAPE  H10R18101   3.341   3.838   3.907 -1.4413 -1.8607 -1.3783
  162SAPE  H10S18102   3.323   3.689   4.000 -1.8180  0.0093 -0.2530
  162SAPE  C21118103   3.409   3.854   4.108 -0.5667  0.3637  0.1220
  162SAPE  H11R18104   3.385   3.959   4.126  0.8258  1.1388 -2.1492
  162SAPE  C21218105   3.522   3.797   4.151  0.7240  0.3177  0.5656
  162SAPE  H12R18106   3.584   3.855   4.221 -1.8836  3.2898  0.6124
  162SAPE  C21318107   3.575   3.658   4.121 -0.5561 -0.5607 -0.3585
  162SAPE  H13R18108   3.683   3.664   4.144 -0.2627  0.8272 -1.9175
  162SAPE  H13S18109   3.566   3.628   4.014 -0.9257  0.7894 -0.7271
  162SAPE  C21418110   3.511   3.540   4.198  0.2024 -1.0536  0.8431
  162SAPE  H14R18111   3.406   3.521   4.175  0.0699  0.6885 -0.1955
  162SAPE  C21518112   3.572   3.470   4.296 -0.2577 -0.1621  0.2663
  162SAPE  H15R18113   3.515   3.389   4.344 -2.8477  0.5040 -1.5104
  162SAPE  C21618114   3.713   3.485   4.349  0.2712  0.0226 -0.0128
  162SAPE  H16R18115   3.757   3.583   4.322  1.2718 -1.3825 -4.2136
  162SAPE  H16S18116   3.786   3.414   4.305  0.9453 -1.5794  3.3526
  162SAPE  C21718117   3.698   3.477   4.503 -0.5619  0.2551  0.7840
  162SAPE  H17R18118   3.799   3.471   4.547 -0.0737 -0.7686 -0.4371
  162SAPE  H17S18119   3.639   3.388   4.534 -0.4447 -0.7295 -1.5875
  162SAPE  C21818120   3.645   3.605   4.568 -0.6638 -0.3820 -0.1249
  162SAPE  H18R18121   3.546   3.633   4.527 -0.7476 -1.4610 -0.6756
  162SAPE  H18S18122   3.708   3.694   4.546 -3.3451  1.1724 -2.0533
  162SAPE  C21918123   3.640   3.591   4.721 -0.3899  0.0856  0.1154
  162SAPE  H19R18124   3.728   3.543   4.769  0.1243  0.7233 -0.1812
  162SAPE  H19S18125   3.554   3.526   4.749  0.4893 -0.3942  1.8291
  162SAPE  C22018126   3.630   3.728   4.782  0.0337  0.1588 -0.3746
  162SAPE  H20R18127   3.652   3.725   4.891  0.2496  0.6433 -0.3995
  162SAPE  H20S18128   3.529   3.770   4.767  0.0308 -0.1421 -1.2298
  162SAPE  H20T18129   3.702   3.796   4.732  0.9990 -0.0865  0.6292
  162SAPE   C3318130   3.079   3.221   3.635  0.4833 -0.5420  0.3962
  162SAPE   H3X18131   3.085   3.163   3.541  0.3240  1.1020 -0.6612
  162SAPE   H3Y18132   2.980   3.204   3.682 -0.3747 -2.5769 -1.9490
  162SAPE   C3418133   3.182   3.180   3.741  0.9303  0.2695 -0.2929
  162SAPE   H4X18134   3.286   3.179   3.702  2.0677 -1.8501  2.3876
  162SAPE   H4Y18135   3.169   3.070   3.756 -1.2330  0.5978  0.5556
  162SAPE   C3518136   3.178   3.244   3.881  0.7858  0.2843  0.0988
  162SAPE   H5X18137   3.078   3.226   3.925  0.8783  0.1072  0.2367
  162SAPE   H5Y18138   3.195   3.353   3.870 -2.1298  0.6170 -2.2872
  162SAPE   C3618139   3.276   3.180   3.980 -0.0495  0.4435 -0.2558
  162SAPE   H6X18140   3.384   3.199   3.958  0.1558  1.8099  1.6751
  162SAPE   H6Y18141   3.249   3.073   3.974  4.0839 -0.7936 -0.1166
  162SAPE   C3718142   3.252   3.219   4.125  0.9892  0.1682 -0.0757
  162SAPE   H7X18143   3.142   3.213   4.141  0.1458  0.7157 -4.4800
  162SAPE   H7Y18144   3.279   3.326   4.138 -0.1530  0.4734 -0.1370
  162SAPE   C3818145   3.329   3.139   4.230 -0.9308 -0.2204 -0.0211
  162SAPE   H8X18146   3.435   3.167   4.207 -0.3223 -2.5758 -0.3273
  162SAPE   H8Y18147   3.303   3.034   4.205 -0.7035 -0.1516 -0.5735
  162SAPE   C3918148   3.309   3.160   4.382 -0.0259  0.1774  0.7561
  162SAPE   H9X18149   3.212   3.112   4.405 -0.5097 -0.0056 -1.4849
  162SAPE   H9Y18150   3.293   3.270   4.394  0.1899  0.4240 -0.9388
  162SAPE  C31018151   3.426   3.115   4.468  0.5608 -0.0124 -0.2964
  162SAPE  H10X18152   3.523   3.163   4.445  0.1553  0.2031 -1.6129
  162SAPE  H10Y18153   3.437   3.006   4.447 -0.3678  0.1598 -1.7647
  162SAPE  C31118154   3.396   3.131   4.623  0.0431 -0.2860  0.2472
  162SAPE  H11X18155   3.308   3.068   4.649  0.1548 -0.9164 -0.8646
  162SAPE  H11Y18156   3.363   3.236   4.642 -0.2211 -0.4317  0.6145
  162SAPE  C31218157   3.511   3.101   4.721  0.2627  0.5928  0.2619
  162SAPE  H12X18158   3.599   3.161   4.690  1.4995 -1.2837 -0.0257
  162SAPE  H12Y18159   3.560   3.001   4.719  0.8537  0.8549  1.0652
  162SAPE  C31318160   3.481   3.142   4.869  0.6482  0.0709 -0.2776
  162SAPE  H13X18161   3.393   3.085   4.905 -0.0886  1.0617 -0.4728
  162SAPE  H13Y18162   3.458   3.250   4.863 -1.3484 -0.3221 -0.3697
  162SAPE  C31418163   3.599   3.105   4.958  0.4060  0.2916  0.1770
  162SAPE  H14X18164   3.611   2.997   4.981 -3.1766 -0.6627 -1.8076
  162SAPE  H14Y18165   3.567   3.159   5.049 -2.1473  0.7903 -0.9433
  162SAPE  C31518166   3.735   3.163   4.919 -1.0146  0.4862  0.0117
  162SAPE  H15X18167   3.716   3.262   4.872  1.1444  0.8818 -0.1106
  162SAPE  H15Y18168   3.773   3.107   4.831 -0.8696 -1.8696  1.4945
  162SAPE  C31618169   3.843   3.170   5.028 -0.7075 -0.2129 -0.0512
  162SAPE  H16X18170   3.834   3.076   5.087 -0.8698  0.3020  0.7647
  162SAPE  H16Y18171   3.815   3.254   5.096  0.3303 -2.1428  2.9624
  162SAPE  C31718172   3.994   3.168   4.989  0.0449 -0.3109 -0.6227
  162SAPE  H17X18173   3.998   3.242   4.906 -1.4646  0.7916  0.2126
  162SAPE  H17Y18174   4.008   3.067   4.946 -0.7144 -0.5213 -0.4032
  162SAPE  C31818175   4.085   3.199   5.110  0.0444 -0.6310  0.1022
  162SAPE  H18X18176   4.049   3.298   5.143  1.1398 -0.5645  1.1895
  162SAPE  H18Y18177   4.191   3.211   5.077  0.2093 -1.7252  0.2009
  162SAPE  H18Z18178   4.074   3.116   5.183  2.0506 -1.4965 -0.4946
  163SAPE     N18179   3.743   1.196   2.868 -0.3314  1.0814 -0.3933
  163SAPE   HN118180   3.801   1.281   2.882 -1.3955  1.6937  0.4908
  163SAPE   HN218181   3.786   1.118   2.921  0.1309 -0.0394 -2.3149
  163SAPE   HN318182   3.740   1.166   2.769  0.5337 -0.9612  0.1563
  163SAPE   C1218183   3.598   1.214   2.922  0.2307 -0.1732  0.0467
  163SAPE  H12A18184   3.535   1.136   2.873 -2.1042  2.6501 -1.8178
  163SAPE  H12B18185   3.566   1.318   2.899 -1.4097 -0.3908  1.1797
  163SAPE   C1118186   3.602   1.205   3.073  0.0260  0.6306 -0.3408
  163SAPE  H11A18187   3.622   1.098   3.094  1.4862  0.9344 -0.0526
  163SAPE  H11B18188   3.499   1.215   3.114 -1.1264  0.4562 -2.9807
  163SAPE     P18189   3.658   1.434   3.182 -0.0724  0.0570 -0.0520
  163SAPE   O1318190   3.785   1.479   3.241 -0.2997 -0.0454 -0.4377
  163SAPE   O1418191   3.608   1.515   3.066 -0.5962 -0.0757 -0.6376
  163SAPE   O1218192   3.694   1.287   3.132  0.1205 -0.2671 -0.0852
  163SAPE   O1118193   3.545   1.410   3.286  0.0078  0.5225 -0.4202
  163SAPE    C118194   3.570   1.325   3.397 -0.1398  0.0820  0.6602
  163SAPE    HA18195   3.536   1.221   3.379  1.2600 -0.1777 -0.6613
  163SAPE    HB18196   3.676   1.321   3.431 -0.4373 -0.1224  1.5929
  163SAPE    C218197   3.483   1.375   3.517 -0.3042  0.3658  0.8277
  163SAPE    HS18198   3.529   1.472   3.543  0.0333  0.5070 -0.2335
  163SAPE   O2118199   3.506   1.292   3.632 -0.1976  0.0293 -0.1719
  163SAPE   C2118200   3.628   1.299   3.686  0.8575 -0.2645 -0.7106
  163SAPE   O2218201   3.716   1.371   3.650  0.1185 -0.3567 -0.5114
  163SAPE   C2218202   3.625   1.215   3.813  0.3327  0.1611 -0.2126
  163SAPE   H2R18203   3.546   1.260   3.877 -0.4355  0.4766 -1.3484
  163SAPE   H2S18204   3.584   1.119   3.777 -2.2129  1.3838 -0.8336
  163SAPE    C318205   3.329   1.396   3.478 -0.0594  0.4597 -0.2038
  163SAPE    HX18206   3.304   1.304   3.421  0.3592  1.1975 -1.6255
  163SAPE    HY18207   3.332   1.488   3.415 -0.4487  0.4539 -0.2329
  163SAPE   O3118208   3.238   1.389   3.583 -0.7828 -0.2222 -0.7550
  163SAPE   C3118209   3.240   1.493   3.668  0.0866 -0.0735  0.5118
  163SAPE   O3218210   3.314   1.582   3.667 -0.4480 -0.1821  0.2386
  163SAPE   C3218211   3.131   1.476   3.774  0.6924  0.2441 -0.4762
  163SAPE   H2X18212   3.087   1.373   3.774  2.6339 -0.6436  0.9000
  163SAPE   H2Y18213   3.042   1.534   3.742  0.1360 -0.4212 -0.1733
  163SAPE   C2318214   3.765   1.198   3.890 -0.0028  0.0543  0.8344
  163SAPE   H3R18215   3.814   1.295   3.913  0.7358 -0.6088  2.1814
  163SAPE   H3S18216   3.837   1.147   3.823  2.5227  2.4371  1.5847
  163SAPE   C2418217   3.750   1.123   4.018  0.0572  0.8768  0.7374
  163SAPE   H4R18218   3.688   1.172   4.096 -2.7905 -1.2977 -0.0202
  163SAPE   H4S18219   3.848   1.122   4.071 -0.1327  3.4307  1.2609
  163SAPE   C2518220   3.711   0.975   3.988  0.1829 -0.4005 -0.4846
  163SAPE   H5R18221   3.710   0.954   3.880  1.0248  1.6065 -0.9161
  163SAPE   C2618222   3.694   0.884   4.082  0.2629  1.3041 -0.4627
  163SAPE   H6R18223   3.679   0.780   4.048  2.2737  0.6301  0.5384
  163SAPE   C2718224   3.707   0.902   4.233  0.6341  0.1524  0.4046
  163SAPE   H7R18225   3.697   1.010   4.258 -2.1792  0.1639 -0.4460
  163SAPE   H7S18226   3.808   0.862   4.257  0.6477 -1.2149 -1.6947
  163SAPE   C2818227   3.597   0.816   4.289  0.0952  0.3672  0.1946
  163SAPE   H8R18228   3.522   0.770   4.223  0.4117  0.1581 -0.0214
  163SAPE   C2918229   3.593   0.786   4.418  0.1989  0.0625 -0.1861
  163SAPE   H9R18230   3.505   0.728   4.450  0.2693 -0.8101 -1.4953
  163SAPE  C21018231   3.687   0.832   4.527  0.4948 -0.1966  0.0673
  163SAPE  H10R18232   3.638   0.853   4.624  1.2178 -0.7656  0.5648
  163SAPE  H10S18233   3.728   0.933   4.505 -2.7933  1.7663  2.2137
  163SAPE  C21118234   3.800   0.738   4.541  0.2348 -0.5110  0.0376
  163SAPE  H11R18235   3.847   0.707   4.446  0.5643 -0.1456  0.0804
  163SAPE  C21218236   3.862   0.690   4.646 -0.2065  0.2092 -0.3384
  163SAPE  H12R18237   3.944   0.622   4.618  0.7684  0.5568  1.5051
  163SAPE  C21318238   3.827   0.699   4.792  0.5687 -1.1841  0.6830
  163SAPE  H13R18239   3.881   0.785   4.836  0.7107 -0.7863 -0.2581
  163SAPE  H13S18240   3.891   0.624   4.843  0.8941 -0.5077  1.2814
  163SAPE  C21418241   3.681   0.687   4.828 -0.2886  0.0708  0.4188
  163SAPE  H14R18242   3.614   0.621   4.771 -1.7875  0.4989  1.6340
  163SAPE  C21518243   3.620   0.777   4.908  0.0367  0.2641  0.5790
  163SAPE  H15R18244   3.513   0.762   4.930 -0.0379 -2.0633 -0.9784
  163SAPE  C21618245   3.673   0.898   4.981  0.1634  0.5441  0.5704
  163SAPE  H16R18246   3.770   0.929   4.937  0.5285 -2.4224 -0.9346
  163SAPE  H16S18247   3.705   0.870   5.084  0.1981  0.1806  0.4625
  163SAPE  C21718248   3.571   1.016   4.987 -0.3017 -0.2464 -0.1883
  163SAPE  H17R18249   3.508   1.007   4.896  0.4301 -0.0004 -0.7270
  163SAPE  H17S18250   3.625   1.112   4.992 -1.7567  0.5648  0.7498
  163SAPE  C21818251   3.469   1.007   5.099  0.9442 -0.2627  0.1148
  163SAPE  H18R18252   3.424   0.905   5.097 -0.2972  0.2688 -0.6276
  163SAPE  H18S18253   3.385   1.076   5.076  0.6252  0.1614  2.4006
  163SAPE  C21918254   3.524   1.043   5.242 -0.0737 -0.2034  0.3743
  163SAPE  H19R18255   3.605   0.972   5.272 -0.7710 -0.6894  1.1502
  163SAPE  H19S18256   3.442   1.038   5.317  1.4502 -1.3922  2.0542
  163SAPE  C22018257   3.575   1.192   5.247  0.0258 -0.6582 -0.1567
  163SAPE  H20R18258   3.520   1.262   5.181  0.5290 -1.3613 -1.3482
  163SAPE  H20S18259   3.676   1.193   5.201 -0.0754 -0.9730 -0.3887
  163SAPE  H20T18260   3.587   1.239   5.347  0.6892 -0.1544 -0.4648
  163SAPE   C3318261   3.181   1.517   3.919  0.1449  0.1404  0.1483
  163SAPE   H3X18262   3.218   1.622   3.914 -1.3017  0.6434 -0.8588
  163SAPE   H3Y18263   3.267   1.459   3.958  1.1215  1.4988  0.0886
  163SAPE   C3418264   3.066   1.519   4.027 -0.3459 -0.1843 -0.6555
  163SAPE   H4X18265   3.029   1.418   4.055  3.6811 -1.4393  0.7579
  163SAPE   H4Y18266   2.974   1.565   3.985 -0.9142 -0.5382  0.1885
  163SAPE   C3518267   3.103   1.592   4.162 -0.4485  0.2563  0.1788
  163SAPE   H5X18268   3.129   1.698   4.137  1.8919 -0.6244 -1.5464
  163SAPE   H5Y18269   3.199   1.548   4.198 -0.0400  0.1589 -0.9837
  163SAPE   C3618270   2.978   1.579   4.250 -0.2176 -0.7348 -0.2284
  163SAPE   H6X18271   3.008   1.623   4.347 -0.3503 -0.3713 -0.3474
  163SAPE   H6Y18272   2.941   1.476   4.268 -0.2147 -0.6139  0.4894
  163SAPE   C3718273   2.858   1.651   4.195  0.0130 -0.1670 -0.2532
  163SAPE   H7X18274   2.774   1.666   4.267 -1.4175 -1.9801 -1.4536
  163SAPE   H7Y18275   2.823   1.584   4.114 -0.0136 -0.2450 -0.1782
  163SAPE   C3818276   2.880   1.795   4.137  0.5358 -0.6095  0.1791
  163SAPE   H8X18277   2.780   1.829   4.103  0.1759 -0.5802  1.2288
  163SAPE   H8Y18278   2.940   1.788   4.044  1.3476  4.8413 -0.0268
  163SAPE   C3918279   2.918   1.902   4.235 -0.2123 -0.7540  0.4218
  163SAPE   H9X18280   2.909   2.005   4.195 -1.0468 -1.3183 -0.8817
  163SAPE   H9Y18281   3.021   1.889   4.276 -0.8607 -0.1319  2.3665
  163SAPE  C31018282   2.831   1.902   4.359 -0.2957  0.3224 -0.4925
  163SAPE  H10X18283   2.835   1.798   4.397 -1.3880  0.1553 -0.8021
  163SAPE  H10Y18284   2.729   1.912   4.316  0.3945  0.7558 -2.1380
  163SAPE  C31118285   2.860   2.003   4.474 -0.2961 -0.7143 -0.0025
  163SAPE  H11X18286   2.914   2.091   4.432 -0.1025 -1.9958 -2.6778
  163SAPE  H11Y18287   2.929   1.955   4.547  1.4540  0.3878 -0.8494
  163SAPE  C31218288   2.726   2.052   4.541 -0.5449  0.3409  0.9728
  163SAPE  H12X18289   2.670   1.958   4.561  0.7860 -0.8284 -0.5584
  163SAPE  H12Y18290   2.676   2.103   4.455  2.9324 -0.0987 -1.5376
  163SAPE  C31318291   2.737   2.124   4.676  0.0298 -0.2512  0.1599
  163SAPE  H13X18292   2.802   2.213   4.661 -0.7574  0.8699  2.8066
  163SAPE  H13Y18293   2.800   2.058   4.739 -0.4937 -1.6633 -0.7673
  163SAPE  C31418294   2.606   2.176   4.737 -0.2119 -0.5070 -0.1009
  163SAPE  H14X18295   2.527   2.098   4.728 -1.5111  0.6312  0.8897
  163SAPE  H14Y18296   2.575   2.258   4.669  0.7723 -1.0655 -1.2743
  163SAPE  C31518297   2.629   2.215   4.887 -0.0150  0.3268  0.4132
  163SAPE  H15X18298   2.720   2.278   4.893  0.2301  0.0247 -0.0143
  163SAPE  H15Y18299   2.625   2.124   4.950 -2.4742  1.5593  2.1693
  163SAPE  C31618300   2.513   2.308   4.937 -1.0031 -0.0502  0.5594
  163SAPE  H16X18301   2.419   2.271   4.892 -0.8499 -1.7325  1.5129
  163SAPE  H16Y18302   2.530   2.409   4.894  2.0947  0.4167  2.5431
  163SAPE  C31718303   2.500   2.321   5.092 -0.0944  0.4019 -0.0552
  163SAPE  H17X18304   2.598   2.361   5.124 -0.4007  1.4751 -0.4208
  163SAPE  H17Y18305   2.485   2.221   5.138 -0.4621  1.2156  1.6919
  163SAPE  C31818306   2.391   2.422   5.131  0.3666 -0.0557  0.3392
  163SAPE  H18X18307   2.404   2.520   5.080  2.6787 -0.3802  0.2080
  163SAPE  H18Y18308   2.402   2.454   5.236 -2.9183  0.6662  0.5661
  163SAPE  H18Z18309   2.285   2.393   5.113  0.4194 -0.2330  0.3099
  164SAPE     N18310   0.581   0.805   2.705 -0.0258  0.2065 -0.8726
  164SAPE   HN118311   0.571   0.902   2.669 -2.4298  0.2880 -0.1106
  164SAPE   HN218312   0.501   0.777   2.765  0.3677  0.8803 -0.0015
  164SAPE   HN318313   0.669   0.788   2.758  0.4883 -0.9360 -2.0657
  164SAPE   C1218314   0.576   0.716   2.588 -0.5372  0.4225 -0.3087
  164SAPE  H12A18315   0.657   0.751   2.520 -0.3508 -1.0624 -0.8925
  164SAPE  H12B18316   0.472   0.713   2.551  0.5695 -1.3412 -3.7185
  164SAPE   C1118317   0.610   0.569   2.624  0.3609 -0.1122 -0.1074
  164SAPE  H11A18318   0.622   0.517   2.527  2.0389 -0.5952  0.3176
  164SAPE  H11B18319   0.527   0.526   2.684 -1.2582 -1.1453 -2.9257
  164SAPE     P18320   0.791   0.429   2.747  0.1260  0.1698  0.0234
  164SAPE   O1318321   0.829   0.346   2.639 -0.4328 -0.4851  0.1194
  164SAPE   O1418322   0.884   0.445   2.858 -0.2579  0.2434 -0.1783
  164SAPE   O1218323   0.743   0.570   2.685  0.2941 -0.2347 -0.3500
  164SAPE   O1118324   0.659   0.371   2.805  0.8298  0.1294 -0.1471
  164SAPE    C118325   0.625   0.399   2.946  0.5731  0.2310  0.3693
  164SAPE    HA18326   0.701   0.439   3.016  0.0436 -0.8975  1.6145
  164SAPE    HB18327   0.535   0.464   2.953 -0.4131 -0.7967 -1.7000
  164SAPE    C218328   0.576   0.278   3.018  0.1346  0.8738  0.5346
  164SAPE    HS18329   0.554   0.285   3.127 -0.2961 -2.7294  0.7978
  164SAPE   O2118330   0.665   0.163   3.004 -0.5055  0.3636  0.8605
  164SAPE   C2118331   0.787   0.177   3.052 -0.2024 -0.1615 -0.1061
  164SAPE   O2218332   0.825   0.267   3.127  0.5025  0.4284 -0.2992
  164SAPE   C2218333   0.878   0.058   3.010 -0.1117  0.0565  0.2735
  164SAPE   H2R18334   0.864   0.046   2.900 -1.1221  0.3366  0.3599
  164SAPE   H2S18335   0.983   0.093   3.023 -0.6408  0.8697  3.1115
  164SAPE    C318336   0.442   0.225   2.961  0.2823 -0.2119 -0.0858
  164SAPE    HX18337   0.439   0.228   2.850 -1.9249  1.1049 -0.0542
  164SAPE    HY18338   0.354   0.289   2.985  0.6461 -0.1739  1.1866
  164SAPE   O3118339   0.425   0.086   2.988  0.4196 -0.4695 -0.2541
  164SAPE   C3118340   0.369   0.064   3.108 -0.7588 -0.0726 -0.5308
  164SAPE   O3218341   0.337   0.143   3.196 -1.0148  0.7194 -0.3738
  164SAPE   C3218342   0.364  -0.089   3.135 -0.4145 -0.2293  0.0201
  164SAPE   H2X18343   0.466  -0.131   3.133  0.3673  1.2716  2.7084
  164SAPE   H2Y18344   0.299  -0.121   3.051  0.9048  0.3045 -1.2438
  164SAPE   C2318345   0.841  -0.064   3.089 -0.3154 -0.9165  0.0758
  164SAPE   H3R18346   0.912  -0.148   3.067  1.1673 -0.4948  2.8201
  164SAPE   H3S18347   0.740  -0.099   3.059 -0.5309 -1.4238  1.3451
  164SAPE   C2418348   0.844  -0.052   3.243  0.0030  0.2466  0.2342
  164SAPE   H4R18349   0.757   0.007   3.281 -1.0671 -0.5994 -0.8377
  164SAPE   H4S18350   0.934   0.012   3.257 -1.3330  2.3358 -0.3200
  164SAPE   C2518351   0.857  -0.180   3.317  0.3532 -0.2620 -0.5533
  164SAPE   H5R18352   0.956  -0.227   3.320  2.0467  3.0252 -0.3925
  164SAPE   C2618353   0.777  -0.229   3.407 -0.1381  0.6208 -0.3762
  164SAPE   H6R18354   0.812  -0.322   3.453  2.4035 -0.2650 -3.7329
  164SAPE   C2718355   0.643  -0.189   3.446 -0.0594 -0.3141  0.0028
  164SAPE   H7R18356   0.594  -0.134   3.363 -0.7904  0.0011  0.6304
  164SAPE   H7S18357   0.639  -0.104   3.517  1.4450  0.0302 -0.2777
  164SAPE   C2818358   0.557  -0.311   3.479 -0.1231 -0.1825 -0.2799
  164SAPE   H8R18359   0.525  -0.373   3.394  4.0715 -1.1453 -1.4088
  164SAPE   C2918360   0.530  -0.362   3.601 -0.1147 -0.5086  0.3927
  164SAPE   H9R18361   0.467  -0.452   3.610 -1.6098  0.5031  0.4727
  164SAPE  C21018362   0.580  -0.293   3.728  0.5220  0.3030 -0.8040
  164SAPE  H10R18363   0.504  -0.221   3.764 -0.2529  0.2085 -2.1901
  164SAPE  H10S18364   0.671  -0.231   3.721 -0.9213  2.9250  1.7584
  164SAPE  C21118365   0.609  -0.410   3.824  0.3689  0.1410  0.7497
  164SAPE  H11R18366   0.655  -0.499   3.780  0.0399 -1.5232  3.5293
  164SAPE  C21218367   0.579  -0.420   3.949  0.0343  0.1794 -0.7019
  164SAPE  H12R18368   0.614  -0.513   3.997  0.9994  1.7154  1.8001
  164SAPE  C21318369   0.517  -0.316   4.044 -0.2336  0.2860 -0.0942
  164SAPE  H13R18370   0.426  -0.273   3.996  0.8656  2.0814 -0.6204
  164SAPE  H13S18371   0.585  -0.229   4.052 -0.6210  0.5216  0.7964
  164SAPE  C21418372   0.472  -0.380   4.168  0.4260  0.1357  0.2221
  164SAPE  H14R18373   0.407  -0.467   4.154  0.8204 -0.4856  1.9655
  164SAPE  C21518374   0.484  -0.333   4.296 -0.4171 -0.4624  0.2316
  164SAPE  H15R18375   0.457  -0.401   4.378 -0.3136  0.4198  1.0066
  164SAPE  C21618376   0.550  -0.197   4.319  0.5367 -0.5091  0.1819
  164SAPE  H16R18377   0.477  -0.113   4.309 -1.5528 -1.8667  2.7528
  164SAPE  H16S18378   0.638  -0.190   4.252 -0.1988  0.2492 -0.7342
  164SAPE  C21718379   0.599  -0.176   4.464 -0.5548  0.1141  0.3634
  164SAPE  H17R18380   0.656  -0.080   4.460  2.3157 -1.5062 -0.5095
  164SAPE  H17S18381   0.664  -0.257   4.504  0.3184  0.2446 -0.7672
  164SAPE  C21818382   0.482  -0.146   4.556  0.3082  0.2863  0.1489
  164SAPE  H18R18383   0.400  -0.221   4.554 -1.3933  2.0705 -0.3585
  164SAPE  H18S18384   0.440  -0.047   4.529  0.0298  0.1766  0.1859
  164SAPE  C21918385   0.535  -0.117   4.696 -0.4800  0.1848 -0.7743
  164SAPE  H19R18386   0.601  -0.027   4.692  0.3364 -0.4619 -2.1742
  164SAPE  H19S18387   0.589  -0.206   4.734 -2.0189 -0.1083  0.8692
  164SAPE  C22018388   0.422  -0.102   4.799  0.2633 -0.1993  0.0032
  164SAPE  H20R18389   0.343  -0.031   4.766  0.5435  0.1711  0.1114
  164SAPE  H20S18390   0.475  -0.057   4.886  2.3719 -2.8110  0.1801
  164SAPE  H20T18391   0.380  -0.200   4.828  1.5543 -0.7501  0.0622
  164SAPE   C3318392   0.299  -0.122   3.267 -0.4121  0.6694  0.3920
  164SAPE   H3X18393   0.339  -0.060   3.350  0.6590  0.8350 -0.2379
  164SAPE   H3Y18394   0.305  -0.231   3.286 -3.2021  0.3397 -0.2036
  164SAPE   C3418395   0.145  -0.119   3.280  1.0410 -0.6654  0.5167
  164SAPE   H4X18396   0.091  -0.183   3.207 -0.0145 -0.8160  1.3929
  164SAPE   H4Y18397   0.132  -0.012   3.253  3.0563 -0.6425 -0.5585
  164SAPE   C3518398   0.110  -0.138   3.425 -0.7063  0.0116  0.7254
  164SAPE   H5X18399   0.185  -0.088   3.491  1.2805 -1.0661 -0.6248
  164SAPE   H5Y18400   0.117  -0.246   3.448 -2.3353  0.4776  4.2194
  164SAPE   C3618401  -0.026  -0.080   3.476  0.0618 -0.0596  0.0528
  164SAPE   H6X18402  -0.094  -0.089   3.389  1.0917  0.6388 -0.8437
  164SAPE   H6Y18403  -0.014   0.029   3.494  0.4052 -0.3729  2.0163
  164SAPE   C3718404  -0.079  -0.160   3.597 -0.4490  0.0414 -0.2062
  164SAPE   H7X18405  -0.038  -0.123   3.693 -1.5760 -2.3148  1.2760
  164SAPE   H7Y18406  -0.051  -0.267   3.588  0.9920  0.4591 -1.0400
  164SAPE   C3818407  -0.230  -0.149   3.609  0.1392 -0.1200  0.0366
  164SAPE   H8X18408  -0.282  -0.209   3.531  0.2949  0.0481 -0.1983
  164SAPE   H8Y18409  -0.283  -0.052   3.599  0.1622 -0.1894 -0.8525
  164SAPE   C3918410  -0.276  -0.207   3.736  0.1028 -0.1566 -0.4325
  164SAPE   H9X18411  -0.227  -0.153   3.819 -2.5085 -1.2758  2.0156
  164SAPE   H9Y18412  -0.254  -0.315   3.748 -0.3258 -0.1216  0.7864
  164SAPE  C31018413  -0.425  -0.185   3.768 -0.0356  0.2552  0.3455
  164SAPE  H10X18414  -0.494  -0.225   3.691 -1.3272  0.9588  1.1092
  164SAPE  H10Y18415  -0.435  -0.075   3.777  0.3925  0.2142  1.5060
  164SAPE  C31118416  -0.465  -0.245   3.901 -0.1396  0.4713 -0.5767
  164SAPE  H11X18417  -0.445  -0.354   3.899 -1.8663 -0.0684  3.0032
  164SAPE  H11Y18418  -0.575  -0.231   3.894 -0.3675  0.5116  1.9486
  164SAPE  C31218419  -0.412  -0.183   4.024  0.1836 -0.5514 -0.0203
  164SAPE  H12X18420  -0.424  -0.074   4.009  0.0475 -0.5035  0.4178
  164SAPE  H12Y18421  -0.302  -0.199   4.021  0.2164 -0.2644 -0.4416
  164SAPE  C31318422  -0.486  -0.221   4.159 -0.6064  0.3195 -0.7127
  164SAPE  H13X18423  -0.468  -0.330   4.175  0.5107  0.8464  2.2857
  164SAPE  H13Y18424  -0.597  -0.214   4.161 -0.5625  0.9572  0.5248
  164SAPE  C31418425  -0.423  -0.141   4.278  0.3298  0.6608 -0.0792
  164SAPE  H14X18426  -0.445  -0.032   4.290  0.2825  0.5015  1.4555
  164SAPE  H14Y18427  -0.313  -0.152   4.275  0.0888 -2.1320 -0.9561
  164SAPE  C31518428  -0.472  -0.196   4.408  0.8472  0.1028  0.1004
  164SAPE  H15X18429  -0.449  -0.304   4.409  0.2997 -0.0353 -1.0861
  164SAPE  H15Y18430  -0.580  -0.171   4.417  0.5357 -1.1152 -0.1088
  164SAPE  C31618431  -0.406  -0.128   4.527  0.7077  0.2506 -0.1949
  164SAPE  H16X18432  -0.418  -0.018   4.527 -0.7513  0.1180  0.6561
  164SAPE  H16Y18433  -0.295  -0.137   4.528  0.9361  1.9584  2.6487
  164SAPE  C31718434  -0.448  -0.180   4.656 -0.1811  0.0106  0.2993
  164SAPE  H17X18435  -0.433  -0.289   4.664 -0.3598 -0.3526 -2.8844
  164SAPE  H17Y18436  -0.555  -0.151   4.665 -0.0363  0.4390  0.7133
  164SAPE  C31818437  -0.365  -0.123   4.773  0.2572  0.1210  0.9445
  164SAPE  H18X18438  -0.256  -0.137   4.783  0.0779  0.3715  4.2717
  164SAPE  H18Y18439  -0.410  -0.158   4.869  2.8884 -0.1215  2.1605
  164SAPE  H18Z18440  -0.375  -0.013   4.763 -0.6514 -0.0114  0.2359
  165SAPE     N18441   6.098   0.272   3.025  0.1818 -0.0111 -0.1569
  165SAPE   HN118442   6.039   0.238   2.947 -0.2517 -0.5027  0.3856
  165SAPE   HN218443   6.190   0.229   3.002  0.9035  0.1261  2.2126
  165SAPE   HN318444   6.070   0.223   3.112  1.9839 -0.2902  0.3102
  165SAPE   C1218445   6.103   0.424   3.032 -0.1814  0.1034 -1.2786
  165SAPE  H12A18446   6.009   0.451   3.085 -0.0282 -1.3964 -0.1900
  165SAPE  H12B18447   6.114   0.466   2.930 -5.2843 -0.3913 -2.2747
  165SAPE   C1118448   6.222   0.462   3.117 -0.6440  0.0360  0.0382
  165SAPE  H11A18449   6.195   0.447   3.224  0.5763 -0.2640  0.3158
  165SAPE  H11B18450   6.226   0.571   3.101 -0.7821  0.1729  0.8675
  165SAPE     P18451   6.481   0.454   3.044 -0.0580 -0.5310 -0.0879
  165SAPE   O1318452   6.583   0.355   3.070  0.3376  0.1158 -0.1130
  165SAPE   O1418453   6.487   0.517   2.908 -0.2273 -0.4967 -0.4100
  165SAPE   O1218454   6.340   0.390   3.075 -0.2300 -0.2339 -0.6080
  165SAPE   O1118455   6.483   0.559   3.158 -0.3856  0.0484  0.2078
  165SAPE    C118456   6.482   0.512   3.289  0.1695  0.5262 -0.3518
  165SAPE    HA18457   6.406   0.434   3.308  3.1066 -2.0090  2.0805
  165SAPE    HB18458   6.583   0.474   3.313  0.5987  1.1549 -1.0837
  165SAPE    C218459   6.474   0.621   3.393  0.7299  0.2893 -0.4470
  165SAPE    HS18460   6.549   0.702   3.376  0.6927  0.6651  0.9736
  165SAPE   O2118461   6.494   0.570   3.528 -0.1134  0.5543 -0.2838
  165SAPE   C2118462   6.508   0.668   3.623 -0.7063 -0.1331 -0.0221
  165SAPE   O2218463   6.521   0.783   3.601  0.0228  0.6152 -0.1124
  165SAPE   C2218464   6.498   0.602   3.766  0.4694 -0.0698 -0.4557
  165SAPE   H2R18465   6.393   0.608   3.803  0.4393  1.3655 -0.7008
  165SAPE   H2S18466   6.532   0.496   3.767  2.0946  0.4213 -0.4227
  165SAPE    C318467   6.337   0.694   3.390  0.0972 -0.7102  0.2819
  165SAPE    HX18468   6.340   0.746   3.291 -0.5258  1.1974  1.2088
  165SAPE    HY18469   6.324   0.771   3.469 -1.2581 -1.9216  1.2749
  165SAPE   O3118470   6.220   0.611   3.389  0.1276 -0.6985  0.3370
  165SAPE   C3118471   6.146   0.603   3.501 -0.4098 -0.3190 -0.0524
  165SAPE   O3218472   6.192   0.641   3.608  0.1931  0.8564  0.3479
  165SAPE   C3218473   6.001   0.552   3.482 -0.2185  0.3112 -0.2925
  165SAPE   H2X18474   6.012   0.458   3.423  3.3603  0.9651 -0.8877
  165SAPE   H2Y18475   5.944   0.618   3.413  0.6564 -0.0585 -1.3906
  165SAPE   C2318476   6.581   0.668   3.885  0.2565  0.1440  0.7134
  165SAPE   H3R18477   6.560   0.777   3.885 -0.0085  0.1150 -0.4562
  165SAPE   H3S18478   6.682   0.660   3.840 -0.8136 -2.6561 -1.5195
  165SAPE   C2418479   6.578   0.616   4.026 -0.1340  0.2917 -0.0049
  165SAPE   H4R18480   6.588   0.506   4.040 -4.2971 -0.3817 -1.1133
  165SAPE   H4S18481   6.474   0.634   4.060  0.8987  2.7511  2.1573
  165SAPE   C2518482   6.677   0.687   4.110 -0.1689 -0.0779  0.1568
  165SAPE   H5R18483   6.632   0.777   4.154 -1.8870  0.7562 -2.9956
  165SAPE   C2618484   6.805   0.657   4.149  0.2225 -0.2672 -0.0688
  165SAPE   H6R18485   6.858   0.730   4.212  0.1019 -0.5511  0.3696
  165SAPE   C2718486   6.875   0.526   4.105 -0.4467  0.3311 -0.3395
  165SAPE   H7R18487   6.840   0.492   4.005  0.9122  3.0260 -1.8287
  165SAPE   H7S18488   6.843   0.455   4.183  0.1268  0.4668  0.0280
  165SAPE   C2818489   7.026   0.521   4.096 -0.4017 -0.4080  0.5566
  165SAPE   H8R18490   7.057   0.522   3.991  0.3767 -0.1892  0.7813
  165SAPE   C2918491   7.121   0.521   4.194 -0.5852  0.2781 -0.4315
  165SAPE   H9R18492   7.229   0.528   4.171 -0.4060 -0.0315  0.2992
  165SAPE  C21018493   7.097   0.503   4.341 -0.4987 -0.3692 -0.6439
  165SAPE  H10R18494   7.182   0.440   4.375  0.4518  0.5284 -1.2975
  165SAPE  H10S18495   7.013   0.432   4.353  0.2046 -0.9162  1.5110
  165SAPE  C21118496   7.099   0.633   4.418  0.1199 -0.1712  0.1042
  165SAPE  H11R18497   7.184   0.701   4.404  0.5389 -0.0581  2.7651
  165SAPE  C21218498   7.007   0.668   4.514  0.5602  0.5544 -0.4271
  165SAPE  H12R18499   7.017   0.770   4.555 -0.1377  0.7791 -0.8079
  165SAPE  C21318500   6.872   0.595   4.541 -0.2881 -0.2084  0.1972
  165SAPE  H13R18501   6.870   0.571   4.649 -0.3650  2.0120  0.7198
  165SAPE  H13S18502   6.873   0.500   4.482 -2.5238  0.0452 -0.3658
  165SAPE  C21418503   6.755   0.688   4.510 -0.4152 -0.2102 -0.4403
  165SAPE  H14R18504   6.746   0.722   4.406 -1.6836 -2.0043 -0.9699
  165SAPE  C21518505   6.645   0.695   4.590 -0.2841  0.1566 -0.0527
  165SAPE  H15R18506   6.568   0.768   4.561 -0.6307 -0.5929 -1.0750
  165SAPE  C21618507   6.624   0.625   4.722  0.0560  0.5724 -0.2027
  165SAPE  H16R18508   6.664   0.523   4.702  1.3703  1.2664 -1.3711
  165SAPE  H16S18509   6.516   0.627   4.746 -0.3132  0.4543 -1.7292
  165SAPE  C21718510   6.697   0.680   4.844 -0.4328  0.3210  0.2100
  165SAPE  H17R18511   6.673   0.788   4.857 -0.4273  0.4831 -1.0025
  165SAPE  H17S18512   6.806   0.674   4.825 -0.5962  0.9323 -1.0777
  165SAPE  C21818513   6.670   0.590   4.964 -0.5470  0.2066 -0.2068
  165SAPE  H18R18514   6.734   0.500   4.955 -0.8961 -0.2031  1.2439
  165SAPE  H18S18515   6.565   0.553   4.963 -0.0100 -1.3778 -1.1327
  165SAPE  C21918516   6.695   0.661   5.099  0.0305 -0.3517  0.0704
  165SAPE  H19R18517   6.612   0.730   5.125  1.1560  1.5554 -1.1360
  165SAPE  H19S18518   6.783   0.728   5.087  1.3383 -2.3536 -2.4346
  165SAPE  C22018519   6.734   0.563   5.212 -0.5067  0.1932 -1.0610
  165SAPE  H20R18520   6.775   0.621   5.297  0.7687  2.4321 -3.1051
  165SAPE  H20S18521   6.806   0.487   5.175 -0.8549 -0.7598  0.1501
  165SAPE  H20T18522   6.648   0.503   5.250 -1.1457  1.2232 -0.8417
  165SAPE   C3318523   5.920   0.544   3.614 -0.9849 -0.3581  0.4090
  165SAPE   H3X18524   5.980   0.492   3.692  0.4487 -0.5815 -0.7843
  165SAPE   H3Y18525   5.841   0.470   3.594 -0.3558 -0.8620 -0.2737
  165SAPE   C3418526   5.867   0.678   3.660 -1.1727  0.4227 -0.5052
  165SAPE   H4X18527   5.826   0.738   3.576  1.7627 -0.0153 -2.3866
  165SAPE   H4Y18528   5.957   0.726   3.703 -1.7173  0.3446  0.7974
  165SAPE   C3518529   5.760   0.662   3.770  0.9087  0.0217 -0.5140
  165SAPE   H5X18530   5.680   0.588   3.749  1.4792 -0.0903 -2.4799
  165SAPE   H5Y18531   5.719   0.765   3.781  0.9436  0.3132 -2.7526
  165SAPE   C3618532   5.808   0.631   3.914 -0.2456  0.4123  1.0447
  165SAPE   H6X18533   5.892   0.701   3.932 -1.3725  2.5600 -1.4725
  165SAPE   H6Y18534   5.862   0.533   3.921 -2.4790 -1.0348 -0.4685
  165SAPE   C3718535   5.702   0.654   4.018  0.4481 -0.1224 -0.2438
  165SAPE   H7X18536   5.627   0.573   4.007 -0.0740  0.4828 -1.3199
  165SAPE   H7Y18537   5.650   0.752   4.009 -2.5472 -1.4403  1.1310
  165SAPE   C3818538   5.765   0.633   4.157  0.8852 -0.3244 -0.7135
  165SAPE   H8X18539   5.827   0.722   4.183 -1.7070  1.2453  0.5490
  165SAPE   H8Y18540   5.823   0.539   4.151  0.3832 -0.6059 -1.2623
  165SAPE   C3918541   5.653   0.629   4.266 -0.0509 -0.7656  0.6117
  165SAPE   H9X18542   5.568   0.567   4.231 -1.0961  1.2854 -0.6997
  165SAPE   H9Y18543   5.618   0.734   4.275  1.1301 -0.3613  0.6824
  165SAPE  C31018544   5.704   0.578   4.397 -0.2048 -0.3044  0.3229
  165SAPE  H10X18545   5.779   0.656   4.421 -0.2358 -0.2230  0.1527
  165SAPE  H10Y18546   5.748   0.478   4.373  1.2576  0.3481  0.1506
  165SAPE  C31118547   5.612   0.579   4.513  1.1085  0.2646 -0.0084
  165SAPE  H11X18548   5.538   0.496   4.512  1.0335  0.3260  0.5287
  165SAPE  H11Y18549   5.567   0.680   4.511  1.7603  0.5716  0.5117
  165SAPE  C31218550   5.685   0.571   4.653  0.5088  0.2231  0.0103
  165SAPE  H12X18551   5.781   0.625   4.660  0.8920 -0.4447  0.0045
  165SAPE  H12Y18552   5.715   0.465   4.671 -0.1741  0.1487  0.7401
  165SAPE  C31318553   5.594   0.618   4.770  1.0971  0.0235 -0.2017
  165SAPE  H13X18554   5.511   0.545   4.773 -0.1573  1.3801 -0.5472
  165SAPE  H13Y18555   5.542   0.715   4.752  0.7304  0.4477  2.6143
  165SAPE  C31418556   5.668   0.629   4.904 -1.0489  0.0275  0.0891
  165SAPE  H14X18557   5.592   0.647   4.983 -0.8876 -0.6041  0.3926
  165SAPE  H14Y18558   5.733   0.719   4.901 -0.2041 -0.5904 -1.3631
  165SAPE  C31518559   5.765   0.517   4.948 -0.3296  0.0618 -0.2955
  165SAPE  H15X18560   5.822   0.549   5.038 -0.6156 -1.1604  0.3405
  165SAPE  H15Y18561   5.837   0.511   4.864  1.1030 -0.1357  0.9208
  165SAPE  C31618562   5.703   0.382   4.967  0.1541  0.0658  0.1413
  165SAPE  H16X18563   5.785   0.315   5.003 -0.1606  0.1454  1.0235
  165SAPE  H16Y18564   5.664   0.354   4.867 -3.5414 -0.7405  1.6443
  165SAPE  C31718565   5.591   0.371   5.074  0.0430 -0.2111  0.2534
  165SAPE  H17X18566   5.505   0.441   5.070 -1.3716 -1.8329  0.7269
  165SAPE  H17Y18567   5.641   0.396   5.170  0.9659 -1.6976  0.2001
  165SAPE  C31818568   5.544   0.229   5.084 -0.1374  0.4474 -0.0073
  165SAPE  H18X18569   5.632   0.162   5.097 -1.3128 -0.9351  1.0475
  165SAPE  H18Y18570   5.482   0.217   4.993 -1.1468 -1.5379  0.8733
  165SAPE  H18Z18571   5.483   0.218   5.176  0.3871  0.0209  0.2989
  166SAPE     N18572   6.766   1.741   3.020 -0.2482  0.0900  0.1729
  166SAPE   HN118573   6.678   1.722   2.968 -0.6473 -0.7239  1.1131
  166SAPE   HN218574   6.833   1.664   3.037 -0.6493 -0.3757 -0.3443
  166SAPE   HN318575   6.733   1.756   3.118 -1.3646 -0.3157 -0.1206
  166SAPE   C1218576   6.832   1.875   2.993  0.0068  0.1429  0.4552
  166SAPE  H12A18577   6.755   1.953   3.011 -2.3576 -1.1743 -2.7471
  166SAPE  H12B18578   6.866   1.874   2.887 -3.9858  0.3239 -1.0350
  166SAPE   C1118579   6.956   1.889   3.082 -0.1911 -0.3725  0.1085
  166SAPE  H11A18580   6.930   1.894   3.190 -1.4077 -3.5326  0.0554
  166SAPE  H11B18581   7.007   1.982   3.048 -0.1641 -0.0409  1.0360
  166SAPE     P18582   7.162   1.783   2.959 -0.0269 -0.1513  0.2139
  166SAPE   O1318583   7.253   1.667   2.975 -0.0795  0.1878  0.7691
  166SAPE   O1418584   7.108   1.802   2.825 -0.0685 -0.5798 -0.0851
  166SAPE   O1218585   7.042   1.776   3.061  0.0315  0.3568  0.7417
  166SAPE   O1118586   7.242   1.914   3.000  0.3647  0.2370  0.0286
  166SAPE    C118587   7.367   1.912   3.069  0.4704  0.1371  0.0754
  166SAPE    HA18588   7.417   1.814   3.066  0.6076  0.2158 -2.4917
  166SAPE    HB18589   7.437   1.987   3.028  0.4810  0.0662 -0.0363
  166SAPE    C218590   7.356   1.952   3.225  0.5333  0.1125  0.0441
  166SAPE    HS18591   7.455   1.946   3.273  0.3250 -0.6501  0.3889
  166SAPE   O2118592   7.257   1.879   3.293  0.1007  0.1677 -0.5679
  166SAPE   C2118593   7.264   1.742   3.302 -0.0572  0.9302  0.0721
  166SAPE   O2218594   7.331   1.668   3.241  0.4345 -0.0862 -0.1121
  166SAPE   C2218595   7.144   1.702   3.389  0.2437 -0.7937 -0.0530
  166SAPE   H2R18596   7.184   1.724   3.490  0.0251 -0.1502 -0.1034
  166SAPE   H2S18597   7.065   1.778   3.371  1.9780  1.3618  0.9740
  166SAPE    C318598   7.321   2.099   3.254  0.5401 -0.5037 -0.4847
  166SAPE    HX18599   7.213   2.114   3.230  0.2074  1.3879  1.8235
  166SAPE    HY18600   7.387   2.156   3.185 -2.6609  2.5827 -1.2972
  166SAPE   O3118601   7.346   2.122   3.393 -0.1369  0.2453  0.3853
  166SAPE   C3118602   7.346   2.249   3.432 -0.1084 -0.5563 -0.2564
  166SAPE   O3218603   7.353   2.350   3.362  0.7218  0.1758 -0.1913
  166SAPE   C3218604   7.336   2.249   3.588  0.3612 -0.0348 -0.3379
  166SAPE   H2X18605   7.388   2.158   3.625 -0.2906  0.4938  2.0403
  166SAPE   H2Y18606   7.227   2.236   3.606  0.4500 -2.2333 -1.0275
  166SAPE   C2318607   7.103   1.553   3.381  0.3580 -0.0094 -0.1407
  166SAPE   H3R18608   7.190   1.486   3.396 -0.2963 -0.5793  1.3883
  166SAPE   H3S18609   7.061   1.538   3.280  1.6114 -1.1800 -0.5161
  166SAPE   C2418610   6.996   1.506   3.481 -0.1753  0.2057 -0.0392
  166SAPE   H4R18611   7.045   1.496   3.581  1.3779  2.7793 -0.4454
  166SAPE   H4S18612   6.961   1.412   3.434  0.7446  0.6301 -1.6444
  166SAPE   C2518613   6.881   1.607   3.480  1.1434  1.0252 -0.1409
  166SAPE   H5R18614   6.873   1.668   3.389 -0.2057 -0.7893 -1.3182
  166SAPE   C2618615   6.792   1.632   3.581 -1.1816  0.0086 -0.1909
  166SAPE   H6R18616   6.703   1.693   3.561 -1.4631 -0.2909  0.1316
  166SAPE   C2718617   6.799   1.561   3.715 -0.1647 -0.3865  0.5719
  166SAPE   H7R18618   6.894   1.601   3.756  0.2509 -0.3643 -0.3806
  166SAPE   H7S18619   6.829   1.454   3.706  0.6331 -0.0050 -2.3770
  166SAPE   C2818620   6.673   1.570   3.793  0.1937  0.4443 -0.2408
  166SAPE   H8R18621   6.580   1.589   3.738  0.0970  0.3050 -0.1240
  166SAPE   C2918622   6.662   1.572   3.924 -0.0343  0.4919 -0.3739
  166SAPE   H9R18623   6.561   1.583   3.967  0.7022 -0.7426  1.8433
  166SAPE  C21018624   6.778   1.558   4.014  0.1272 -0.1899 -0.0103
  166SAPE  H10R18625   6.868   1.602   3.967  1.0320 -0.2192  1.6348
  166SAPE  H10S18626   6.800   1.449   4.020  1.8458  0.0951 -0.7023
  166SAPE  C21118627   6.766   1.629   4.149  0.3611  0.4955 -0.0800
  166SAPE  H11R18628   6.703   1.720   4.147 -0.2189  0.1459 -3.4963
  166SAPE  C21218629   6.814   1.580   4.266  0.7830  0.0431 -0.4674
  166SAPE  H12R18630   6.792   1.638   4.357  1.8740  0.4353 -0.4401
  166SAPE  C21318631   6.884   1.449   4.299 -0.0204 -0.3798  0.1661
  166SAPE  H13R18632   6.926   1.413   4.202  3.5689 -0.7504  1.7005
  166SAPE  H13S18633   6.807   1.378   4.334 -0.6975  0.3367  0.1498
  166SAPE  C21418634   7.005   1.460   4.393  1.2502  0.4870  0.2431
  166SAPE  H14R18635   7.104   1.444   4.348  1.6097  3.5113 -0.2365
  166SAPE  C21518636   6.995   1.455   4.526  0.2622  0.4787  0.0501
  166SAPE  H15R18637   7.089   1.468   4.581  1.0299  0.6404 -1.2407
  166SAPE  C21618638   6.873   1.481   4.611  0.2279  0.6932  0.8900
  166SAPE  H16R18639   6.797   1.401   4.597  1.8726 -0.4394 -3.0065
  166SAPE  H16S18640   6.822   1.577   4.589 -1.3630 -0.6657 -1.9032
  166SAPE  C21718641   6.914   1.509   4.758  0.2383  0.2753  0.0907
  166SAPE  H17R18642   7.004   1.575   4.761 -0.1582  0.8658 -0.5704
  166SAPE  H17S18643   6.938   1.415   4.812 -2.6564  0.7872  2.5720
  166SAPE  C21818644   6.798   1.588   4.829  0.3666  0.4562 -0.1205
  166SAPE  H18R18645   6.707   1.525   4.830 -2.0131  3.6061 -0.0547
  166SAPE  H18S18646   6.784   1.683   4.774  1.9904 -0.0232 -1.4374
  166SAPE  C21918647   6.834   1.618   4.975 -0.3961  0.4938 -0.2742
  166SAPE  H19R18648   6.773   1.701   5.017  0.0809  0.3366  0.7543
  166SAPE  H19S18649   6.935   1.665   4.986  0.9103 -2.5446  2.3008
  166SAPE  C22018650   6.802   1.504   5.071  0.1025  0.4814 -0.3503
  166SAPE  H20R18651   6.852   1.407   5.050 -2.2934 -0.9630  0.2100
  166SAPE  H20S18652   6.695   1.479   5.059 -0.1459  0.8763  0.9408
  166SAPE  H20T18653   6.818   1.529   5.178  1.9482 -2.1780  0.1077
  166SAPE   C3318654   7.380   2.382   3.658 -0.2069  0.4261  0.2952
  166SAPE   H3X18655   7.317   2.465   3.618 -1.2649 -1.6131 -2.6151
  166SAPE   H3Y18656   7.486   2.411   3.640  0.4345 -1.9826 -0.0835
  166SAPE   C3418657   7.363   2.385   3.809  0.1072 -0.0978 -0.3378
  166SAPE   H4X18658   7.461   2.354   3.851 -0.1833 -0.2925  0.1990
  166SAPE   H4Y18659   7.297   2.300   3.837 -0.7790 -0.1991 -2.5103
  166SAPE   C3518660   7.319   2.512   3.866  0.0845  0.2844  0.8977
  166SAPE   H5X18661   7.244   2.570   3.807  1.2505  0.1228 -0.8184
  166SAPE   H5Y18662   7.407   2.579   3.858 -1.1555  1.9255  0.3115
  166SAPE   C3618663   7.279   2.500   4.010 -0.1898  0.4776  0.1489
  166SAPE   H6X18664   7.356   2.453   4.074 -0.1449  2.1011  1.3291
  166SAPE   H6Y18665   7.195   2.428   4.018  0.8353 -0.7493  0.2344
  166SAPE   C3718666   7.237   2.637   4.063  0.0171  0.3041 -0.4459
  166SAPE   H7X18667   7.147   2.666   4.005 -0.1744 -0.2367 -0.4209
  166SAPE   H7Y18668   7.313   2.714   4.039  1.7152 -0.9766  0.5661
  166SAPE   C3818669   7.203   2.636   4.216  0.0042 -0.2467 -0.1780
  166SAPE   H8X18670   7.167   2.740   4.228  2.0932  0.2979  2.0828
  166SAPE   H8Y18671   7.294   2.616   4.277  0.0945 -0.7128 -0.4590
  166SAPE   C3918672   7.096   2.535   4.266 -0.0296 -0.5804 -0.1845
  166SAPE   H9X18673   7.125   2.435   4.228 -0.6527 -0.9292  0.2432
  166SAPE   H9Y18674   6.998   2.549   4.214  0.4300 -3.6571 -2.1106
  166SAPE  C31018675   7.050   2.529   4.413 -0.4739 -0.3661 -0.7216
  166SAPE  H10X18676   6.977   2.446   4.417  0.9758 -1.6467  0.5531
  166SAPE  H10Y18677   7.006   2.623   4.452  0.8912 -0.2611  0.6721
  166SAPE  C31118678   7.165   2.500   4.513 -0.1727  0.3850  0.4364
  166SAPE  H11X18679   7.240   2.582   4.516 -0.2178  0.4065  1.8987
  166SAPE  H11Y18680   7.226   2.417   4.471  2.0125  2.5844 -0.9671
  166SAPE  C31218681   7.116   2.468   4.654 -0.5634 -1.0457 -0.0288
  166SAPE  H12X18682   7.194   2.406   4.702 -0.9263 -1.3594  0.1598
  166SAPE  H12Y18683   7.027   2.401   4.654  0.2460 -2.1552  0.4835
  166SAPE  C31318684   7.091   2.599   4.726  0.2314 -0.6033  0.1747
  166SAPE  H13X18685   7.016   2.653   4.665 -3.3555 -2.2654  2.7049
  166SAPE  H13Y18686   7.180   2.663   4.743  0.7170 -1.3964  0.7483
  166SAPE  C31418687   7.033   2.582   4.865 -0.0261 -0.2196 -0.2043
  166SAPE  H14X18688   7.052   2.677   4.919  2.6269 -1.0892  0.5019
  166SAPE  H14Y18689   7.076   2.494   4.917 -0.2992 -0.8423 -0.9963
  166SAPE  C31518690   6.878   2.551   4.857 -0.1915  0.2480 -0.3552
  166SAPE  H15X18691   6.870   2.449   4.813 -0.9414  0.1516 -0.0047
  166SAPE  H15Y18692   6.840   2.633   4.792  0.1702  0.4587 -0.3034
  166SAPE  C31618693   6.811   2.562   4.992 -0.7273 -0.2962  0.4625
  166SAPE  H16X18694   6.867   2.495   5.060  0.0516  0.1627  0.2847
  166SAPE  H16Y18695   6.705   2.530   4.985 -0.6263 -0.5673  0.1707
  166SAPE  C31718696   6.822   2.701   5.057 -0.5121  0.2302  0.2524
  166SAPE  H17X18697   6.795   2.780   4.983  0.8414  0.7878  0.3353
  166SAPE  H17Y18698   6.930   2.714   5.077 -0.2940 -1.1396  0.0449
  166SAPE  C31818699   6.751   2.720   5.193  0.3610  0.0493 -0.5556
  166SAPE  H18X18700   6.797   2.807   5.246 -0.1608 -0.3441  0.5579
  166SAPE  H18Y18701   6.783   2.635   5.256  0.6124  0.9016  0.4937
  166SAPE  H18Z18702   6.641   2.725   5.178  0.3496  1.5330 -0.1474
  167SAPE     N18703   5.843   5.458   2.622 -0.1049  0.0756  0.6042
  167SAPE   HN118704   5.807   5.361   2.608  1.8769 -0.7861  1.1932
  167SAPE   HN218705   5.808   5.492   2.714 -0.1524 -0.3830  0.7551
  167SAPE   HN318706   5.816   5.501   2.531 -0.5054 -3.2699 -1.0325
  167SAPE   C1218707   5.986   5.424   2.627  0.1013  0.6118 -0.0009
  167SAPE  H12A18708   6.004   5.385   2.729 -0.3804 -0.3575 -0.2769
  167SAPE  H12B18709   6.033   5.523   2.610 -0.8107  1.1870  0.7209
  167SAPE   C1118710   6.007   5.313   2.526 -0.5774 -0.1875  0.0565
  167SAPE  H11A18711   6.111   5.284   2.553 -0.8536  0.5353  2.0841
  167SAPE  H11B18712   5.997   5.345   2.420  1.0088 -1.3028 -0.4573
  167SAPE     P18713   5.944   5.053   2.514 -0.5844 -0.3322  0.2077
  167SAPE   O1318714   5.845   5.025   2.405 -0.6916  0.1657 -0.0134
  167SAPE   O1418715   6.084   5.033   2.493 -0.2674 -0.2647  0.3496
  167SAPE   O1218716   5.920   5.203   2.550 -0.1658 -0.2732  0.1574
  167SAPE   O1118717   5.903   4.976   2.643  0.2517 -0.5025 -0.2459
  167SAPE    C118718   5.776   4.999   2.712 -0.4518  0.1229  0.0356
  167SAPE    HA18719   5.699   5.021   2.635 -0.2841  2.7069  0.5069
  167SAPE    HB18720   5.749   4.906   2.766 -1.8654  0.8029  0.5593
  167SAPE    C218721   5.785   5.101   2.829  0.2020 -0.8836 -0.3628
  167SAPE    HS18722   5.843   5.186   2.787 -1.8402  0.1337 -1.2668
  167SAPE   O2118723   5.860   5.037   2.932  0.0624 -0.1074  0.0833
  167SAPE   C2118724   5.933   5.112   3.009  0.3655  0.1809 -0.5876
  167SAPE   O2218725   5.952   5.234   2.994 -0.2263  0.6482 -0.0983
  167SAPE   C2218726   5.980   5.032   3.117 -0.3487  0.0810 -1.3611
  167SAPE   H2R18727   5.889   4.981   3.156  0.8947 -1.1999 -0.0386
  167SAPE   H2S18728   6.036   4.948   3.069 -1.7438  0.4316 -3.7718
  167SAPE    C318729   5.644   5.136   2.888  0.2226 -0.2318  0.5550
  167SAPE    HX18730   5.590   5.049   2.929 -0.3894 -0.1681 -0.0988
  167SAPE    HY18731   5.577   5.176   2.809 -1.4692  0.5302  2.2725
  167SAPE   O3118732   5.643   5.243   2.984  0.2790  0.2951 -0.0657
  167SAPE   C3118733   5.672   5.362   2.944  0.0702  0.2514  0.1959
  167SAPE   O3218734   5.680   5.403   2.832 -0.2793  0.1793  0.3584
  167SAPE   C3218735   5.671   5.450   3.073 -0.8497 -0.7882  0.6785
  167SAPE   H2X18736   5.577   5.509   3.078  0.0211  1.0733 -2.2764
  167SAPE   H2Y18737   5.755   5.522   3.058 -2.6772  1.0371 -1.5422
  167SAPE   C2318738   6.065   5.110   3.223  0.9832 -0.1986  0.2983
  167SAPE   H3R18739   5.995   5.179   3.276  1.3573  0.4020  0.0260
  167SAPE   H3S18740   6.149   5.164   3.173 -1.4675  1.9991 -1.7441
  167SAPE   C2418741   6.132   5.016   3.331  0.4175 -0.6818 -0.3269
  167SAPE   H4R18742   6.201   5.087   3.381  1.3068 -0.1524 -2.1922
  167SAPE   H4S18743   6.195   4.952   3.266  1.3398  1.1185 -1.2660
  167SAPE   C2518744   6.043   4.931   3.420  1.1160 -0.3024 -0.0161
  167SAPE   H5R18745   5.945   4.907   3.376 -0.0307  1.5244  1.4345
  167SAPE   C2618746   6.081   4.886   3.547 -0.5416 -0.6970  0.7523
  167SAPE   H6R18747   6.024   4.808   3.601 -0.9765  1.0249  2.9332
  167SAPE   C2718748   6.208   4.908   3.622 -0.6441 -0.0669 -0.2075
  167SAPE   H7R18749   6.177   4.872   3.723 -2.0963 -1.8272 -1.2245
  167SAPE   H7S18750   6.240   5.014   3.628 -0.0033 -0.2641 -0.0057
  167SAPE   C2818751   6.336   4.837   3.578  0.1503 -0.8356 -0.1303
  167SAPE   H8R18752   6.339   4.814   3.471 -0.8866  0.2227 -0.4047
  167SAPE   C2918753   6.445   4.827   3.650 -0.1079 -0.6000  0.0792
  167SAPE   H9R18754   6.542   4.791   3.611 -0.1631 -0.8123  0.1386
  167SAPE  C21018755   6.454   4.887   3.788 -0.7716 -0.3626  0.5556
  167SAPE  H10R18756   6.360   4.931   3.829 -0.6989 -0.4722  0.8431
  167SAPE  H10S18757   6.529   4.968   3.785  1.4870 -2.2810  1.8003
  167SAPE  C21118758   6.497   4.780   3.889  0.8217 -0.1138 -0.3961
  167SAPE  H11R18759   6.420   4.709   3.924  0.4115  1.1143  1.3734
  167SAPE  C21218760   6.620   4.770   3.943  0.6600  0.9902  0.4319
  167SAPE  H12R18761   6.633   4.694   4.022 -0.4028 -1.4626 -1.6289
  167SAPE  C21318762   6.735   4.861   3.925 -0.5755 -0.6349  0.2818
  167SAPE  H13R18763   6.722   4.945   3.995  3.3034  0.6742 -0.3046
  167SAPE  H13S18764   6.723   4.904   3.823 -1.0326 -0.4715  0.4021
  167SAPE  C21418765   6.872   4.806   3.941  0.2583 -0.0103 -0.4549
  167SAPE  H14R18766   6.906   4.732   3.867  2.1258 -0.5578  0.8725
  167SAPE  C21518767   6.973   4.859   4.017 -0.7446 -0.3978 -0.8825
  167SAPE  H15R18768   7.074   4.820   3.998 -0.1964  1.0415 -1.0109
  167SAPE  C21618769   6.957   4.968   4.121 -0.4965 -0.8462 -0.0070
  167SAPE  H16R18770   6.874   5.040   4.106 -1.0579 -1.4256  0.2628
  167SAPE  H16S18771   7.045   5.035   4.127 -2.2428  1.4118  2.4144
  167SAPE  C21718772   6.938   4.917   4.268  0.2284  0.0054 -0.2713
  167SAPE  H17R18773   6.998   4.828   4.297  1.1372  0.3614 -0.9953
  167SAPE  H17S18774   6.835   4.875   4.265  0.2819 -0.3014  1.2991
  167SAPE  C21818775   6.966   5.016   4.383  0.5339  0.2731  0.6395
  167SAPE  H18R18776   6.949   5.118   4.343 -1.2582 -0.6576 -1.1729
  167SAPE  H18S18777   7.063   4.993   4.431 -1.3799 -2.6666  3.5272
  167SAPE  C21918778   6.870   4.988   4.504  0.3125  0.6727  0.2019
  167SAPE  H19R18779   6.874   4.878   4.519 -1.4874  0.4553 -0.6312
  167SAPE  H19S18780   6.766   5.010   4.470  0.6838 -0.4154 -1.8140
  167SAPE  C22018781   6.902   5.054   4.634  0.1509  0.0694 -0.3438
  167SAPE  H20R18782   6.904   5.163   4.614  1.5132  0.0533 -0.3632
  167SAPE  H20S18783   7.002   5.024   4.672 -0.1646 -1.5393 -0.7042
  167SAPE  H20T18784   6.830   5.028   4.715  1.5313  1.6994  1.5128
  167SAPE   C3318785   5.700   5.371   3.206 -0.3959 -0.2634  0.5415
  167SAPE   H3X18786   5.799   5.322   3.215 -0.4344  0.0067  3.1946
  167SAPE   H3Y18787   5.625   5.290   3.206 -0.9633  0.2538  0.6013
  167SAPE   C3418788   5.666   5.459   3.325  0.2445 -1.0430  0.0185
  167SAPE   H4X18789   5.581   5.524   3.294 -0.8009 -3.1015 -1.6484
  167SAPE   H4Y18790   5.757   5.518   3.349 -1.1166  1.2680 -0.1943
  167SAPE   C3518791   5.628   5.378   3.450 -0.5058  0.2608  0.4698
  167SAPE   H5X18792   5.727   5.333   3.472  0.0548  0.3550 -1.6351
  167SAPE   H5Y18793   5.555   5.297   3.428  3.1082 -3.4365  0.9803
  167SAPE   C3618794   5.575   5.466   3.563 -0.1531 -0.0706  0.2282
  167SAPE   H6X18795   5.468   5.493   3.551 -0.5363 -1.9387 -1.0744
  167SAPE   H6Y18796   5.631   5.562   3.561 -0.0102 -0.1189  1.2839
  167SAPE   C3718797   5.602   5.394   3.698 -0.3028 -0.4717 -0.2428
  167SAPE   H7X18798   5.704   5.349   3.706  1.0321  2.2004 -1.1538
  167SAPE   H7Y18799   5.528   5.315   3.723  0.1496 -0.0760  2.6936
  167SAPE   C3818800   5.587   5.497   3.813  0.6297 -0.6171 -0.6836
  167SAPE   H8X18801   5.484   5.539   3.805  0.1930 -1.0903  1.6608
  167SAPE   H8Y18802   5.654   5.585   3.805 -0.4782  0.3679  0.4245
  167SAPE   C3918803   5.599   5.427   3.954  0.1270 -0.6802 -0.0301
  167SAPE   H9X18804   5.661   5.334   3.949  1.2617 -0.0257  1.1400
  167SAPE   H9Y18805   5.496   5.411   3.991 -0.3384  1.6269 -0.1934
  167SAPE  C31018806   5.678   5.530   4.045 -1.3128  0.1267 -0.0668
  167SAPE  H10X18807   5.635   5.631   4.060  2.0507  1.5787  0.5060
  167SAPE  H10Y18808   5.772   5.551   3.990 -2.1925 -0.8640 -2.0826
  167SAPE  C31118809   5.716   5.462   4.183 -0.2278  1.0179  0.0192
  167SAPE  H11X18810   5.818   5.495   4.211 -0.0008  0.3670 -0.0387
  167SAPE  H11Y18811   5.738   5.355   4.165 -1.5629  0.0126  3.4474
  167SAPE  C31218812   5.612   5.480   4.292  0.1477  0.2712  0.0459
  167SAPE  H12X18813   5.604   5.586   4.324  0.1234  0.0978  0.6374
  167SAPE  H12Y18814   5.638   5.432   4.389  0.6030  1.1559  0.3665
  167SAPE  C31318815   5.471   5.424   4.257 -0.1747 -0.3053  0.0166
  167SAPE  H13X18816   5.477   5.321   4.216  1.1232  0.4254 -1.7321
  167SAPE  H13Y18817   5.416   5.479   4.178 -0.2363 -0.9184 -0.3756
  167SAPE  C31418818   5.390   5.404   4.380  0.3121 -0.8054  0.0859
  167SAPE  H14X18819   5.402   5.491   4.447  4.1586 -2.1663  1.4260
  167SAPE  H14Y18820   5.432   5.325   4.445 -0.1390 -1.5996 -0.5655
  167SAPE  C31518821   5.249   5.382   4.351 -0.1064  0.4383  0.5053
  167SAPE  H15X18822   5.244   5.294   4.283 -0.3394  0.7946  0.0506
  167SAPE  H15Y18823   5.207   5.470   4.297  1.7701  2.1218  1.6189
  167SAPE  C31618824   5.167   5.341   4.472 -0.0089 -0.0140  0.7975
  167SAPE  H16X18825   5.181   5.423   4.546 -0.0122  1.3554 -0.6750
  167SAPE  H16Y18826   5.206   5.243   4.509 -3.1718 -2.0402 -0.8358
  167SAPE  C31718827   5.022   5.309   4.447  0.0347  0.5845  0.1964
  167SAPE  H17X18828   5.022   5.224   4.376 -2.2368 -0.5337  1.4560
  167SAPE  H17Y18829   4.973   5.400   4.405 -1.9710  0.2905  1.7719
  167SAPE  C31818830   4.944   5.272   4.578 -0.2588  0.1855 -0.1158
  167SAPE  H18X18831   4.971   5.319   4.675  0.4223 -1.7966  0.7232
  167SAPE  H18Y18832   4.956   5.162   4.593 -4.4483 -0.6810 -1.6350
  167SAPE  H18Z18833   4.834   5.281   4.570 -0.5680 -1.7589  1.2503
  168SAPE     N18834   3.079   2.530   3.108 -0.2144  0.0894  0.0206
  168SAPE   HN118835   3.172   2.530   3.062  0.0160  2.2794  0.3853
  168SAPE   HN218836   3.100   2.589   3.191  1.3685 -1.3492  0.7213
  168SAPE   HN318837   3.049   2.441   3.152  0.4497 -0.2803 -0.2551
  168SAPE   C1218838   2.965   2.586   3.025  0.1399  0.5936 -0.0196
  168SAPE  H12A18839   2.928   2.500   2.964 -1.5621  0.3202  1.3098
  168SAPE  H12B18840   3.005   2.670   2.966 -0.3324  0.1454 -1.0036
  168SAPE   C1118841   2.859   2.646   3.114  0.6526  0.3804  0.0555
  168SAPE  H11A18842   2.810   2.571   3.180 -0.2776  1.1879  0.3035
  168SAPE  H11B18843   2.775   2.675   3.047 -1.6667  1.5047  3.2018
  168SAPE     P18844   2.844   2.888   3.215  0.1523  0.5847  0.0127
  168SAPE   O1318845   2.937   2.999   3.260  0.4530 -0.1382  0.1545
  168SAPE   O1418846   2.763   2.926   3.098 -0.5887  0.1308  0.0163
  168SAPE   O1218847   2.915   2.755   3.193  0.3606  0.7711  0.3243
  168SAPE   O1118848   2.741   2.852   3.330  0.3016 -0.1549  0.1970
  168SAPE    C118849   2.759   2.740   3.420 -0.1264 -0.3161 -0.4641
  168SAPE    HA18850   2.674   2.668   3.418 -1.9700  1.6734  1.1226
  168SAPE    HB18851   2.855   2.687   3.403  0.4398 -0.2613  2.1190
  168SAPE    C218852   2.758   2.794   3.571  0.7027 -1.0914  0.0324
  168SAPE    HS18853   2.806   2.711   3.627  1.4405 -0.0112  1.0184
  168SAPE   O2118854   2.624   2.812   3.619 -0.1253  0.2813 -0.0358
  168SAPE   C2118855   2.602   2.782   3.741 -0.0090  1.0869  0.0414
  168SAPE   O2218856   2.687   2.753   3.824  0.2999 -0.1773 -0.2398
  168SAPE   C2218857   2.448   2.778   3.782 -0.0586  0.5382 -0.6253
  168SAPE   H2R18858   2.388   2.771   3.689 -0.3853 -0.2281 -0.3644
  168SAPE   H2S18859   2.431   2.684   3.839 -0.2106  0.8935 -0.0757
  168SAPE    C318860   2.839   2.929   3.571  0.1392 -0.6101 -0.2593
  168SAPE    HX18861   2.790   3.013   3.517  0.3071  0.2657  0.8965
  168SAPE    HY18862   2.941   2.914   3.529  0.9096 -1.2264  1.6924
  168SAPE   O3118863   2.859   2.987   3.702  0.0753  0.2138 -0.1697
  168SAPE   C3118864   2.935   2.903   3.786  0.5883 -0.4976 -0.3002
  168SAPE   O3218865   2.990   2.806   3.748 -0.4211  0.6106 -0.4106
  168SAPE   C3218866   2.911   2.953   3.927  1.0977  0.7107  0.2320
  168SAPE   H2X18867   2.804   2.973   3.945  0.8963  0.9908 -1.1805
  168SAPE   H2Y18868   2.962   3.051   3.940 -0.5402  1.1917  4.6927
  168SAPE   C2318869   2.404   2.888   3.871  0.0695 -0.3047 -0.1180
  168SAPE   H3R18870   2.296   2.902   3.850 -0.0344 -0.7931  0.0777
  168SAPE   H3S18871   2.473   2.973   3.851 -0.0973 -0.4373 -1.3075
  168SAPE   C2418872   2.409   2.852   4.020  0.3951  0.1557 -1.1238
  168SAPE   H4R18873   2.371   2.748   4.030  0.8612  0.1809  1.3892
  168SAPE   H4S18874   2.349   2.919   4.085  1.1268 -1.2351  1.1122
  168SAPE   C2518875   2.548   2.858   4.086 -0.0134  0.2480  0.7704
  168SAPE   H5R18876   2.634   2.865   4.018  0.7617  1.1699  1.7970
  168SAPE   C2618877   2.582   2.878   4.212 -0.0230 -0.0694  0.8661
  168SAPE   H6R18878   2.691   2.889   4.223  0.3459  1.2750 -2.6506
  168SAPE   C2718879   2.495   2.887   4.334 -0.3466 -0.2681  0.2016
  168SAPE   H7R18880   2.539   2.838   4.423  0.8040  0.5735  0.1181
  168SAPE   H7S18881   2.395   2.840   4.319  0.0547 -1.4169  0.9984
  168SAPE   C2818882   2.475   3.027   4.372  0.3000  0.0856  0.6365
  168SAPE   H8R18883   2.381   3.071   4.333  1.9967  1.9090 -1.6925
  168SAPE   C2918884   2.539   3.110   4.457 -0.1105  0.3916 -0.3418
  168SAPE   H9R18885   2.508   3.212   4.483 -1.2039 -0.2488  0.9923
  168SAPE  C21018886   2.657   3.066   4.539  0.4746 -0.0283 -0.0968
  168SAPE  H10R18887   2.749   3.069   4.477  1.7011  4.5619  1.5166
  168SAPE  H10S18888   2.640   2.964   4.580 -0.8060  0.0069 -0.5003
  168SAPE  C21118889   2.672   3.141   4.669 -0.4660  0.0268 -0.1151
  168SAPE  H11R18890   2.577   3.173   4.715 -0.6794 -1.3556  0.4667
  168SAPE  C21218891   2.796   3.167   4.724  0.1200  0.6370 -0.1244
  168SAPE  H12R18892   2.804   3.213   4.823 -0.8716 -0.5918  0.5488
  168SAPE  C21318893   2.928   3.120   4.670 -0.0475  0.5865  0.0912
  168SAPE  H13R18894   2.933   3.129   4.560  0.7522  0.6761  0.1278
  168SAPE  H13S18895   2.935   3.011   4.691  0.7337  0.7149  0.5422
  168SAPE  C21418896   3.060   3.185   4.707 -0.0306  0.8744  0.0391
  168SAPE  H14R18897   3.115   3.222   4.619  0.4404 -1.3853 -0.6862
  168SAPE  C21518898   3.112   3.178   4.833 -0.1393 -0.0152  0.5978
  168SAPE  H15R18899   3.213   3.213   4.860 -0.0431 -0.6419  1.0822
  168SAPE  C21618900   3.054   3.108   4.956  0.2635  0.0970  0.9859
  168SAPE  H16R18901   2.955   3.061   4.938  0.4558 -0.4657  1.3748
  168SAPE  H16S18902   3.031   3.183   5.035 -1.4375  1.2253 -0.4993
  168SAPE  C21718903   3.151   3.005   5.023  0.4169 -1.2909 -0.4563
  168SAPE  H17R18904   3.220   3.064   5.085 -1.9016  1.6362 -0.4187
  168SAPE  H17S18905   3.206   2.949   4.944  1.2515 -0.7056 -0.2870
  168SAPE  C21818906   3.085   2.901   5.120  0.0401 -0.1774 -0.2878
  168SAPE  H18R18907   3.168   2.836   5.156  1.8654  1.2231 -1.7452
  168SAPE  H18S18908   3.006   2.845   5.065  1.4001 -0.5125 -1.9914
  168SAPE  C21918909   3.018   2.958   5.245  0.1040 -0.5751 -0.8075
  168SAPE  H19R18910   2.924   2.998   5.203  0.5229 -0.2862 -1.4939
  168SAPE  H19S18911   3.080   3.039   5.290  1.7523 -1.2485 -1.7769
  168SAPE  C22018912   2.974   2.862   5.362  0.2332  0.2132  0.5573
  168SAPE  H20R18913   2.926   2.768   5.326  1.5298  0.1617 -1.1456
  168SAPE  H20S18914   2.896   2.910   5.425  1.3914 -0.2319  2.4186
  168SAPE  H20T18915   3.069   2.840   5.416  0.9683 -2.4246 -1.5961
  168SAPE   C3318916   2.957   2.843   4.029 -0.4948  0.1703  0.2326
  168SAPE   H3X18917   3.058   2.808   4.002  1.0294  2.8319  2.0353
  168SAPE   H3Y18918   2.879   2.763   4.035 -1.4223  0.9367 -1.0050
  168SAPE   C3418919   2.976   2.893   4.168 -0.1248 -0.4277 -0.1500
  168SAPE   H4X18920   2.873   2.923   4.196 -0.9328 -0.9195 -2.4243
  168SAPE   H4Y18921   3.040   2.983   4.176  0.4453 -0.8309 -0.0710
  168SAPE   C3518922   3.032   2.779   4.255  0.4427  0.0904 -0.5736
  168SAPE   H5X18923   3.139   2.775   4.227  0.4211 -0.0057 -0.6456
  168SAPE   H5Y18924   2.991   2.680   4.222  0.1173 -0.1997  0.6555
  168SAPE   C3618925   3.003   2.784   4.403  1.1262 -0.3521  1.0285
  168SAPE   H6X18926   2.893   2.791   4.417  1.0792 -0.8976  0.9332
  168SAPE   H6Y18927   3.037   2.876   4.455 -1.9873 -0.8417  4.3623
  168SAPE   C3718928   3.057   2.662   4.483 -0.2213 -0.6876 -0.2533
  168SAPE   H7X18929   3.162   2.654   4.447 -0.0488  2.7057 -0.7945
  168SAPE   H7Y18930   3.010   2.565   4.457  0.6830 -1.8234  2.0802
  168SAPE   C3818931   3.049   2.682   4.637 -0.0051 -0.3712  0.2365
  168SAPE   H8X18932   2.940   2.685   4.656 -0.0050  1.6723  0.0644
  168SAPE   H8Y18933   3.082   2.784   4.668  2.1303 -1.3566  1.4481
  168SAPE   C3918934   3.101   2.572   4.727  0.0237 -0.1321 -0.7594
  168SAPE   H9X18935   3.209   2.553   4.711  0.4136  0.2769  1.1969
  168SAPE   H9Y18936   3.046   2.480   4.695 -0.6890  0.4838 -1.3721
  168SAPE  C31018937   3.086   2.616   4.872 -0.3471 -0.0410 -0.1935
  168SAPE  H10X18938   2.981   2.649   4.887  0.1896  1.5269  0.2350
  168SAPE  H10Y18939   3.159   2.697   4.890 -1.1082  0.5351  0.3315
  168SAPE  C31118940   3.108   2.513   4.977  0.7785  0.7645  0.0978
  168SAPE  H11X18941   3.147   2.561   5.069 -0.8464 -1.6867  2.2160
  168SAPE  H11Y18942   3.188   2.449   4.933 -0.2649  1.0594 -2.3453
  168SAPE  C31218943   2.986   2.417   5.002  0.1365 -0.6257 -0.0299
  168SAPE  H12X18944   2.940   2.396   4.903  0.2233 -3.9971  0.5374
  168SAPE  H12Y18945   2.911   2.457   5.074  1.3415  0.6220  0.5720
  168SAPE  C31318946   3.041   2.282   5.054  0.4435  0.5062 -0.0256
  168SAPE  H13X18947   3.107   2.303   5.141 -1.1752  1.0911  1.1121
  168SAPE  H13Y18948   3.102   2.233   4.976 -0.0504  2.3978 -1.6679
  168SAPE  C31418949   2.929   2.184   5.099  0.6237 -0.0807 -0.5886
  168SAPE  H14X18950   2.865   2.171   5.009  1.4775  0.2499 -1.2545
  168SAPE  H14Y18951   2.867   2.224   5.182 -0.0869 -2.7460  0.2906
  168SAPE  C31518952   2.979   2.051   5.142  0.8943  0.4091 -0.2782
  168SAPE  H15X18953   3.026   2.080   5.239  0.2076  1.7761 -0.3357
  168SAPE  H15Y18954   3.047   2.013   5.063 -1.1064 -3.2965 -0.4540
  168SAPE  C31618955   2.881   1.936   5.169 -0.3076  0.6984  0.1110
  168SAPE  H16X18956   2.800   1.927   5.094 -0.8618  1.6183  0.5907
  168SAPE  H16Y18957   2.830   1.949   5.266  0.8947 -0.6193  0.9644
  168SAPE  C31718958   2.950   1.800   5.180  0.3380 -0.4720  0.2690
  168SAPE  H17X18959   3.022   1.787   5.264 -1.0167  1.2700  1.7845
  168SAPE  H17Y18960   3.001   1.782   5.083  0.2562  0.0567  0.1281
  168SAPE  C31818961   2.845   1.684   5.182 -0.0568  0.3591  0.5004
  168SAPE  H18X18962   2.769   1.712   5.258 -0.5437  0.2769  0.0519
  168SAPE  H18Y18963   2.894   1.586   5.198 -0.2445  0.2487  0.3935
  168SAPE  H18Z18964   2.795   1.684   5.083 -1.1361 -2.3894  0.9856
  169SAPE     N18965   6.552   4.878   2.641 -0.1646  0.6368 -0.0318
  169SAPE   HN118966   6.576   4.963   2.697  0.1802 -0.5131  1.6449
  169SAPE   HN218967   6.624   4.860   2.568  2.3166  0.6259  2.2474
  169SAPE   HN318968   6.463   4.890   2.589  0.2875 -2.8698 -1.8855
  169SAPE   C1218969   6.560   4.766   2.739 -0.4993  0.3081 -0.2048
  169SAPE  H12A18970   6.529   4.671   2.691  0.1562  0.7797 -1.6074
  169SAPE  H12B18971   6.480   4.785   2.814  0.2265  0.8792  0.4311
  169SAPE   C1118972   6.698   4.762   2.814 -0.0105 -0.6482  0.1506
  169SAPE  H11A18973   6.688   4.697   2.904  1.1333 -1.5255 -0.3289
  169SAPE  H11B18974   6.734   4.862   2.848 -0.4423 -0.7895  1.0538
  169SAPE     P18975   6.939   4.774   2.714  0.2839  0.7547 -0.3864
  169SAPE   O1318976   7.038   4.684   2.651  0.1248 -0.2536  0.1311
  169SAPE   O1418977   6.934   4.917   2.672 -0.0449  0.1244  0.3931
  169SAPE   O1218978   6.800   4.702   2.724  0.2120 -0.0888  0.1528
  169SAPE   O1118979   6.980   4.789   2.861  0.1517  0.3156 -0.1092
  169SAPE    C118980   6.975   4.682   2.960 -0.2148 -0.0805  0.2362
  169SAPE    HA18981   6.879   4.647   3.004  1.8356 -3.9751  2.1944
  169SAPE    HB18982   7.021   4.591   2.915 -0.6274  0.1556 -0.6938
  169SAPE    C218983   7.061   4.726   3.082  0.7928  0.0109 -0.4769
  169SAPE    HS18984   7.079   4.639   3.148  0.2807  0.6605  0.5515
  169SAPE   O2118985   6.989   4.836   3.155  0.8592 -0.5304 -0.1911
  169SAPE   C2118986   6.911   4.793   3.252  0.7876  0.1105 -0.2897
  169SAPE   O2218987   6.869   4.680   3.261 -0.3253 -0.3816  0.2427
  169SAPE   C2218988   6.859   4.909   3.341 -0.1531  0.7816  0.8241
  169SAPE   H2R18989   6.840   5.003   3.284  1.4190 -0.1084 -1.2979
  169SAPE   H2S18990   6.755   4.882   3.371  0.0219 -0.0797  0.6721
  169SAPE    C318991   7.205   4.771   3.034  0.3715  0.1755  1.0352
  169SAPE    HX18992   7.190   4.858   2.967  0.8863 -1.2516 -1.0320
  169SAPE    HY18993   7.249   4.690   2.972  0.7217 -0.8032  2.5006
  169SAPE   O3118994   7.301   4.800   3.138  0.2836  0.0917 -0.4912
  169SAPE   C3118995   7.300   4.902   3.218  0.0172  0.1511 -0.1984
  169SAPE   O3218996   7.243   5.011   3.208 -0.5674  0.4981  0.2295
  169SAPE   C3218997   7.379   4.872   3.346 -0.6842  0.2131 -0.0944
  169SAPE   H2X18998   7.337   4.786   3.402 -2.8492  1.4852  0.3340
  169SAPE   H2Y18999   7.378   4.960   3.414  0.2354  1.7352 -1.9518
  169SAPE   C2319000   6.953   4.939   3.463  0.5489 -0.0306  0.3409
  169SAPE   H3R19001   6.914   5.029   3.516 -0.8731 -0.1869 -0.4047
  169SAPE   H3S19002   7.049   4.982   3.426  1.2481  0.9215  3.0180
  169SAPE   C2419003   6.958   4.834   3.577 -0.3139  0.2835  0.5490
  169SAPE   H4R19004   6.988   4.883   3.672 -1.8644  0.6693  0.8718
  169SAPE   H4S19005   7.038   4.762   3.550  0.1981  1.0555 -0.0418
  169SAPE   C2519006   6.830   4.769   3.590 -0.4602  0.5810  0.1124
  169SAPE   H5R19007   6.751   4.844   3.601  0.9699  2.2862 -0.7318
  169SAPE   C2619008   6.804   4.635   3.585 -0.1843 -0.4282 -0.3367
  169SAPE   H6R19009   6.699   4.607   3.604 -0.6455  1.9111  0.8394
  169SAPE   C2719010   6.902   4.518   3.586  0.3727 -0.4984 -0.3176
  169SAPE   H7R19011   6.977   4.544   3.663  0.0064 -1.8286  0.5052
  169SAPE   H7S19012   6.951   4.506   3.487 -0.2641  0.2350 -0.7406
  169SAPE   C2819013   6.840   4.385   3.615  0.2770 -0.0341  0.2972
  169SAPE   H8R19014   6.871   4.314   3.537  1.4534  1.0850 -0.2992
  169SAPE   C2919015   6.785   4.350   3.733  0.8102  0.7700  0.3038
  169SAPE   H9R19016   6.760   4.243   3.738  4.0593 -0.0864  0.8043
  169SAPE  C21019017   6.759   4.429   3.858 -0.7833  0.3412  0.6428
  169SAPE  H10R19018   6.793   4.533   3.839  1.1577 -0.5324 -1.0117
  169SAPE  H10S19019   6.828   4.381   3.931 -0.4209  1.0799  0.7975
  169SAPE  C21119020   6.619   4.441   3.906  0.8560  0.5753 -0.4786
  169SAPE  H11R19021   6.553   4.452   3.819  0.8463 -1.6602 -0.8105
  169SAPE  C21219022   6.570   4.425   4.032  1.2093  0.1503  0.2900
  169SAPE  H12R19023   6.463   4.446   4.036  0.9859 -0.8361 -0.1226
  169SAPE  C21319024   6.633   4.387   4.164  0.9523  0.1175  0.7510
  169SAPE  H13R19025   6.687   4.291   4.152  0.2014 -0.3019  0.6774
  169SAPE  H13S19026   6.574   4.369   4.256  1.2901 -1.1524  0.7351
  169SAPE  C21419027   6.739   4.483   4.203 -0.5579 -0.3889 -0.0766
  169SAPE  H14R19028   6.817   4.487   4.125 -0.5809  1.8935 -0.0343
  169SAPE  C21519029   6.737   4.574   4.307 -0.3263  0.2197 -0.0635
  169SAPE  H15R19030   6.827   4.635   4.325  0.8772 -1.1472 -1.2352
  169SAPE  C21619031   6.624   4.584   4.406  0.4418 -0.1856  0.5843
  169SAPE  H16R19032   6.611   4.479   4.442  2.9790 -2.2618 -3.7680
  169SAPE  H16S19033   6.534   4.623   4.355  1.2330 -1.5053 -1.9754
  169SAPE  C21719034   6.663   4.666   4.529  0.2712  0.1742 -0.2172
  169SAPE  H17R19035   6.570   4.676   4.589  0.8332  1.0500  0.5453
  169SAPE  H17S19036   6.684   4.765   4.484  1.5540 -1.3288 -3.2457
  169SAPE  C21819037   6.770   4.616   4.629  0.6334  0.0183  0.3498
  169SAPE  H18R19038   6.851   4.565   4.574 -0.2548 -1.3543  0.2699
  169SAPE  H18S19039   6.736   4.522   4.676  2.5069  0.5593  2.9723
  169SAPE  C21919040   6.813   4.703   4.738  0.4086  0.2544  0.3360
  169SAPE  H19R19041   6.842   4.806   4.707  2.2284  0.2922  1.9309
  169SAPE  H19S19042   6.906   4.662   4.782  0.7551 -0.6172 -1.1358
  169SAPE  C22019043   6.704   4.714   4.852 -0.7151 -0.3186  1.0130
  169SAPE  H20R19044   6.733   4.799   4.918 -0.6904 -0.9607  1.8454
  169SAPE  H20S19045   6.692   4.614   4.899  1.1538 -1.5553 -0.9255
  169SAPE  H20T19046   6.603   4.736   4.810  0.2229 -2.2492 -2.6881
  169SAPE   C3319047   7.529   4.843   3.311  0.0704  0.1478 -0.1878
  169SAPE   H3X19048   7.567   4.933   3.258 -0.8099  0.5983 -0.0776
  169SAPE   H3Y19049   7.540   4.751   3.251  0.7133  0.5356 -0.6795
  169SAPE   C3419050   7.619   4.816   3.436 -0.4563 -0.1112 -0.2032
  169SAPE   H4X19051   7.629   4.907   3.499 -2.5557 -1.2344  1.9256
  169SAPE   H4Y19052   7.716   4.788   3.391 -1.1609 -2.3246 -0.5053
  169SAPE   C3519053   7.562   4.698   3.530  0.1344 -0.6558  0.0784
  169SAPE   H5X19054   7.530   4.609   3.472 -0.0339 -0.3513 -0.2994
  169SAPE   H5Y19055   7.472   4.740   3.579  0.0607  2.1134 -2.1621
  169SAPE   C3619056   7.661   4.670   3.644 -0.5536  0.0355  0.1422
  169SAPE   H6X19057   7.760   4.712   3.616 -0.4639  0.1040  0.5538
  169SAPE   H6Y19058   7.675   4.560   3.651  1.0687  0.2934  1.8939
  169SAPE   C3719059   7.627   4.725   3.783  0.3131 -0.3126  0.5483
  169SAPE   H7X19060   7.531   4.677   3.812  0.2228 -0.2430  0.3664
  169SAPE   H7Y19061   7.616   4.835   3.790  1.4034 -0.2545  1.6900
  169SAPE   C3819062   7.736   4.685   3.880 -0.0017 -0.0535 -0.0883
  169SAPE   H8X19063   7.821   4.755   3.883  1.3697 -1.6569  0.2505
  169SAPE   H8Y19064   7.765   4.581   3.853 -0.0184 -0.4096  1.2033
  169SAPE   C3919065   7.704   4.675   4.031  0.4656  0.6319 -0.3267
  169SAPE   H9X19066   7.615   4.736   4.056  0.4374  1.0482 -1.3734
  169SAPE   H9Y19067   7.781   4.728   4.090  0.1296  2.2971 -1.3289
  169SAPE  C31019068   7.666   4.540   4.089  0.2790  0.6276  0.1836
  169SAPE  H10X19069   7.742   4.463   4.065  0.4396  0.8332  0.0275
  169SAPE  H10Y19070   7.567   4.521   4.042  0.3892 -0.8917  0.5145
  169SAPE  C31119071   7.642   4.541   4.243  0.3648 -0.0435 -0.2094
  169SAPE  H11X19072   7.583   4.451   4.270  0.9450 -0.2936  0.2474
  169SAPE  H11Y19073   7.575   4.626   4.267 -1.3982 -0.9637 -1.5700
  169SAPE  C31219074   7.771   4.554   4.323  0.1734  0.4078 -0.2336
  169SAPE  H12X19075   7.814   4.648   4.283 -2.8141  2.5956  1.3233
  169SAPE  H12Y19076   7.826   4.462   4.292  2.4676  0.8354  2.2301
  169SAPE  C31319077   7.756   4.557   4.476 -0.1578 -0.2447  0.0911
  169SAPE  H13X19078   7.679   4.485   4.509 -0.5482 -0.4460 -1.1999
  169SAPE  H13Y19079   7.714   4.653   4.513  0.6233  0.3900 -0.6194
  169SAPE  C31419080   7.890   4.536   4.557  0.2388  0.1317  0.0234
  169SAPE  H14X19081   7.953   4.625   4.533 -0.1204  0.6849  1.0620
  169SAPE  H14Y19082   7.948   4.446   4.525  1.0387  0.1706  1.2900
  169SAPE  C31519083   7.862   4.552   4.705  0.1782  0.5840 -0.8107
  169SAPE  H15X19084   7.777   4.485   4.732 -0.6043  1.2633 -1.5277
  169SAPE  H15Y19085   7.829   4.658   4.714  2.3994  1.1329  2.6285
  169SAPE  C31619086   7.984   4.527   4.793  0.2133 -0.8721 -0.8947
  169SAPE  H16X19087   8.069   4.590   4.761  0.2649  0.2345  1.1841
  169SAPE  H16Y19088   8.010   4.421   4.774  1.3939 -0.9539  0.9699
  169SAPE  C31719089   7.960   4.566   4.930 -0.5031  0.0978 -0.3262
  169SAPE  H17X19090   8.044   4.533   4.995  0.5452 -0.0299 -1.7060
  169SAPE  H17Y19091   7.877   4.501   4.965 -1.4933  0.2128 -2.3167
  169SAPE  C31819092   7.934   4.714   4.955  0.3720 -0.0683 -0.2955
  169SAPE  H18X19093   8.014   4.785   4.924 -1.0574  0.9728 -1.8513
  169SAPE  H18Y19094   7.917   4.720   5.064 -0.9237  2.2737 -0.5538
  169SAPE  H18Z19095   7.843   4.749   4.902  0.4523 -1.6810 -1.5745
  170SAPE     N19096   1.098   0.597   2.864  0.5917 -0.1485 -0.0741
  170SAPE   HN119097   1.009   0.548   2.887  0.7156  0.7750  2.8457
  170SAPE   HN219098   1.126   0.579   2.766 -0.7616  0.9828 -0.6949
  170SAPE   HN319099   1.171   0.546   2.918 -0.2059 -0.6400  0.5733
  170SAPE   C1219100   1.094   0.745   2.889 -0.2516 -0.3940  0.1204
  170SAPE  H12A19101   1.037   0.794   2.806 -0.6574 -0.7267  0.2003
  170SAPE  H12B19102   1.197   0.783   2.871 -0.2563  0.1032  1.0622
  170SAPE   C1119103   1.052   0.786   3.028 -0.1862  0.0473  0.4594
  170SAPE  H11A19104   1.045   0.897   3.034 -4.1819  0.0374 -1.1074
  170SAPE  H11B19105   1.124   0.752   3.107 -1.3522  0.7743  1.8907
  170SAPE     P19106   0.795   0.805   3.034  0.4254  0.1618  0.1508
  170SAPE   O1319107   0.794   0.836   2.888 -0.4547  0.9677  0.3076
  170SAPE   O1419108   0.677   0.731   3.090 -0.3056  0.2187  0.4512
  170SAPE   O1219109   0.927   0.725   3.065 -0.0289 -0.4525 -0.4392
  170SAPE   O1119110   0.823   0.944   3.110 -0.0509  0.4510  0.1878
  170SAPE    C119111   0.866   0.932   3.248  0.1705  0.6132  0.1802
  170SAPE    HA19112   0.948   0.861   3.270  1.5234  2.2631  0.6539
  170SAPE    HB19113   0.918   1.027   3.272  0.1516  0.8062 -0.5237
  170SAPE    C219114   0.747   0.917   3.348 -0.2998  0.7204  0.4897
  170SAPE    HS19115   0.676   0.838   3.315  0.7759  0.4113 -1.2242
  170SAPE   O2119116   0.686   1.049   3.360 -0.0159  0.2321  0.4647
  170SAPE   C2119117   0.564   1.064   3.308 -0.6471  0.0301  0.2759
  170SAPE   O2219118   0.492   0.974   3.276  0.4871  0.0072  0.2565
  170SAPE   C2219119   0.535   1.211   3.333 -0.5345 -0.4450 -0.0987
  170SAPE   H2R19120   0.427   1.216   3.307 -1.1968 -1.0791  2.3195
  170SAPE   H2S19121   0.552   1.229   3.441  1.0196  1.7430 -0.6373
  170SAPE    C319122   0.800   0.869   3.486  0.2836 -0.1831 -0.1242
  170SAPE    HX19123   0.859   0.959   3.514  0.7919 -0.7654  0.7048
  170SAPE    HY19124   0.860   0.776   3.480  2.4887  1.2086 -1.0705
  170SAPE   O3119125   0.693   0.862   3.579 -0.2281 -0.1865 -0.5160
  170SAPE   C3119126   0.732   0.846   3.707  0.3958  0.0850  0.1402
  170SAPE   O3219127   0.849   0.837   3.737  0.3048  0.3469 -0.6823
  170SAPE   C3219128   0.609   0.851   3.798  0.4607 -0.0687 -0.0597
  170SAPE   H2X19129   0.560   0.751   3.795 -2.7045  1.3919 -0.3189
  170SAPE   H2Y19130   0.528   0.902   3.742  1.9791  0.4671 -1.8654
  170SAPE   C2319131   0.625   1.309   3.255  0.1657 -0.5455 -0.5799
  170SAPE   H3R19132   0.572   1.404   3.234  0.7323  0.5750  2.4640
  170SAPE   H3S19133   0.655   1.260   3.160  4.3820 -0.0470  0.2999
  170SAPE   C2419134   0.755   1.352   3.326  0.1265  0.5009  0.0983
  170SAPE   H4R19135   0.816   1.400   3.247  0.2760 -0.2446 -0.2534
  170SAPE   H4S19136   0.803   1.259   3.365 -0.2503  0.4251  0.3869
  170SAPE   C2519137   0.719   1.451   3.435 -0.5668  0.0645 -0.1910
  170SAPE   H5R19138   0.666   1.540   3.398 -0.4125  0.0827 -0.3651
  170SAPE   C2619139   0.743   1.452   3.564  0.3036 -0.4290 -0.3921
  170SAPE   H6R19140   0.709   1.538   3.624  0.8306  0.8074 -1.8139
  170SAPE   C2719141   0.819   1.343   3.637  0.5459  0.3799  0.3592
  170SAPE   H7R19142   0.863   1.377   3.733 -1.1299  1.4749  0.7790
  170SAPE   H7S19143   0.902   1.304   3.574  0.4444 -1.2161  1.1700
  170SAPE   C2819144   0.739   1.215   3.667  0.4817 -0.8935  0.4661
  170SAPE   H8R19145   0.759   1.128   3.602  0.5960 -0.3429 -0.2469
  170SAPE   C2919146   0.653   1.204   3.763 -0.0017 -0.4872  0.5171
  170SAPE   H9R19147   0.606   1.106   3.777  2.4436 -1.9125 -0.5727
  170SAPE  C21019148   0.619   1.314   3.863  0.5076 -0.0784 -0.1841
  170SAPE  H10R19149   0.708   1.376   3.889  0.4895 -0.0132 -0.2763
  170SAPE  H10S19150   0.595   1.278   3.965 -1.3249  1.5942  0.0261
  170SAPE  C21119151   0.519   1.416   3.824  0.3947 -0.0291  0.3678
  170SAPE  H11R19152   0.496   1.418   3.717  0.2722 -0.3668  0.3855
  170SAPE  C21219153   0.458   1.497   3.914 -0.0833 -0.4408  0.2546
  170SAPE  H12R19154   0.402   1.580   3.868  0.5631 -0.2928 -0.2731
  170SAPE  C21319155   0.473   1.496   4.064  0.1489  0.2992 -0.0809
  170SAPE  H13R19156   0.580   1.490   4.095  0.1048  2.8627  0.8187
  170SAPE  H13S19157   0.430   1.404   4.111  0.6713  0.9998  1.8861
  170SAPE  C21419158   0.416   1.616   4.139  0.4978  0.0587 -0.4245
  170SAPE  H14R19159   0.306   1.613   4.144  0.4943  0.6833 -0.0106
  170SAPE  C21519160   0.486   1.700   4.219  0.1284  0.3176  0.1790
  170SAPE  H15R19161   0.429   1.779   4.271  0.6397  0.4787  0.4992
  170SAPE  C21619162   0.637   1.709   4.227  0.0430 -0.1748 -0.5057
  170SAPE  H16R19163   0.664   1.817   4.220 -1.9615  0.4065 -0.1138
  170SAPE  H16S19164   0.681   1.668   4.133 -1.4192 -0.8389 -0.9304
  170SAPE  C21719165   0.703   1.643   4.356 -0.4963  0.5920 -0.2253
  170SAPE  H17R19166   0.652   1.685   4.445  0.2852 -0.2689  0.6537
  170SAPE  H17S19167   0.811   1.669   4.363 -0.2833 -0.0661 -0.8961
  170SAPE  C21819168   0.691   1.491   4.360  0.0845  0.4659  0.7204
  170SAPE  H18R19169   0.729   1.451   4.264  1.8496  1.6375  0.8630
  170SAPE  H18S19170   0.585   1.464   4.374 -0.2341  0.7597 -0.9512
  170SAPE  C21919171   0.770   1.422   4.477 -0.3490  0.3999 -0.0469
  170SAPE  H19R19172   0.872   1.465   4.476 -1.1587  2.4769 -2.0918
  170SAPE  H19S19173   0.782   1.315   4.451 -0.2865  0.6497 -1.0950
  170SAPE  C22019174   0.717   1.438   4.621 -0.2540  0.2458  0.6550
  170SAPE  H20R19175   0.613   1.398   4.617 -0.9511  1.9866  0.1193
  170SAPE  H20S19176   0.707   1.544   4.652  1.4628  2.1103 -4.1862
  170SAPE  H20T19177   0.774   1.374   4.692  0.0104  0.0397  0.2611
  170SAPE   C3319178   0.645   0.900   3.935  0.5326  0.2513 -0.2563
  170SAPE   H3X19179   0.700   0.997   3.930  1.1037 -0.1290 -3.0058
  170SAPE   H3Y19180   0.709   0.820   3.978 -0.8435 -1.3611 -1.0719
  170SAPE   C3419181   0.522   0.911   4.027  0.2652  0.3087  0.0441
  170SAPE   H4X19182   0.447   0.839   3.988  0.5255  0.0612 -0.0076
  170SAPE   H4Y19183   0.469   1.007   4.011 -1.1423 -0.5201 -0.3724
  170SAPE   C3519184   0.549   0.884   4.173  0.0161 -0.1667 -0.1972
  170SAPE   H5X19185   0.589   0.782   4.191  0.3817 -0.0816 -0.5092
  170SAPE   H5Y19186   0.453   0.897   4.228 -0.1114 -0.5786 -0.3248
  170SAPE   C3619187   0.653   0.987   4.222 -0.2003 -1.0019 -0.4408
  170SAPE   H6X19188   0.644   1.074   4.153  1.0379 -0.5417 -0.0587
  170SAPE   H6Y19189   0.758   0.955   4.202  0.1448 -0.1876  0.0235
  170SAPE   C3719190   0.641   1.032   4.365  0.6794 -0.4799 -0.3752
  170SAPE   H7X19191   0.538   1.070   4.379  0.2131 -1.1218 -1.8757
  170SAPE   H7Y19192   0.713   1.111   4.396 -0.3420  0.0368  0.7366
  170SAPE   C3819193   0.659   0.913   4.458 -0.0879 -0.1589 -0.4268
  170SAPE   H8X19194   0.723   0.830   4.422 -1.8234 -2.0750  0.6143
  170SAPE   H8Y19195   0.560   0.861   4.459 -0.4043  0.2906 -3.0294
  170SAPE   C3919196   0.698   0.947   4.600 -0.5922 -0.0966  0.2346
  170SAPE   H9X19197   0.625   1.020   4.640 -1.9796 -1.9036  1.1446
  170SAPE   H9Y19198   0.800   0.990   4.586 -0.5894 -0.8251 -2.5571
  170SAPE  C31019199   0.714   0.833   4.696 -0.6337  1.0675 -1.1513
  170SAPE  H10X19200   0.781   0.750   4.667 -1.3111  1.3804 -3.8299
  170SAPE  H10Y19201   0.615   0.784   4.708 -1.0724  1.9646 -0.9937
  170SAPE  C31119202   0.758   0.892   4.827 -0.3836  0.4270  0.2927
  170SAPE  H11X19203   0.698   0.985   4.840 -1.9342 -0.6312  1.1250
  170SAPE  H11Y19204   0.867   0.913   4.826  0.1675 -2.0599  0.9979
  170SAPE  C31219205   0.728   0.809   4.954 -0.5307  0.0121  0.2768
  170SAPE  H12X19206   0.632   0.756   4.940  0.7467 -2.1610 -0.8543
  170SAPE  H12Y19207   0.719   0.882   5.037  1.6068  0.7510 -0.0811
  170SAPE  C31319208   0.837   0.704   4.986 -1.1867 -0.0477  0.3613
  170SAPE  H13X19209   0.940   0.744   4.973 -0.6906 -0.6417  2.0969
  170SAPE  H13Y19210   0.823   0.627   4.908  0.0293 -0.1610  0.2298
  170SAPE  C31419211   0.820   0.652   5.124 -0.8941  0.4869  0.8194
  170SAPE  H14X19212   0.725   0.599   5.142 -1.9738  2.4442  1.1828
  170SAPE  H14Y19213   0.825   0.744   5.187 -2.0915  1.3786 -0.3602
  170SAPE  C31519214   0.931   0.560   5.173  0.1088 -0.1622 -0.3328
  170SAPE  H15X19215   1.028   0.615   5.167 -0.5654  1.0653 -0.4916
  170SAPE  H15Y19216   0.940   0.465   5.116 -1.1847 -1.2020  1.1163
  170SAPE  C31619217   0.908   0.524   5.319 -0.1435 -0.2014  0.6372
  170SAPE  H16X19218   0.813   0.466   5.314 -0.7161  0.8100 -3.1348
  170SAPE  H16Y19219   0.876   0.615   5.373  0.7269  0.9806 -0.7529
  170SAPE  C31719220   1.031   0.452   5.376  0.4456 -0.3392 -0.0469
  170SAPE  H17X19221   1.109   0.526   5.402 -0.0617  0.3718 -0.4953
  170SAPE  H17Y19222   1.063   0.380   5.298  0.8298 -0.7899  0.5199
  170SAPE  C31819223   1.000   0.376   5.500 -0.3777 -0.0358  0.1138
  170SAPE  H18X19224   0.915   0.308   5.480  0.1323 -0.9226  0.8870
  170SAPE  H18Y19225   0.972   0.451   5.576 -0.2173 -0.3128  0.4511
  170SAPE  H18Z19226   1.083   0.314   5.540 -0.0734  0.7880  0.7991
  171SAPE     N19227   1.572   0.210   3.372 -0.2169  0.2931 -0.1793
  171SAPE   HN119228   1.634   0.219   3.289  2.6810 -1.8224  1.5659
  171SAPE   HN219229   1.481   0.258   3.359 -1.3460 -0.7007  3.1827
  171SAPE   HN319230   1.616   0.257   3.454 -2.0408 -0.3450  1.2127
  171SAPE   C1219231   1.549   0.067   3.399  0.7495  1.3089 -0.0030
  171SAPE  H12A19232   1.459   0.066   3.464  1.4523  0.2518  0.9856
  171SAPE  H12B19233   1.640   0.026   3.447 -1.2543 -0.5964  2.4174
  171SAPE   C1119234   1.534  -0.005   3.263 -0.2391  0.3700 -0.0743
  171SAPE  H11A19235   1.517  -0.111   3.290 -2.3131  0.4829 -0.7581
  171SAPE  H11B19236   1.631   0.008   3.212  0.1240 -1.7837 -0.0161
  171SAPE     P19237   1.275   0.022   3.213 -0.2869  0.1705  0.3172
  171SAPE   O1319238   1.219   0.158   3.242 -0.1000  0.4394  0.0574
  171SAPE   O1419239   1.215  -0.062   3.111 -0.3596  0.0167  0.2472
  171SAPE   O1219240   1.425   0.042   3.176 -0.3666  0.3120  0.3018
  171SAPE   O1119241   1.277  -0.057   3.347  0.5918 -1.0212 -0.2795
  171SAPE    C119242   1.253  -0.189   3.373  0.6731  0.1459  0.4072
  171SAPE    HA19243   1.150  -0.220   3.344  1.0605 -1.7643  0.9005
  171SAPE    HB19244   1.314  -0.262   3.316 -1.0145 -1.0119 -0.0083
  171SAPE    C219245   1.250  -0.215   3.525  0.3316 -0.6169 -0.3592
  171SAPE    HS19246   1.232  -0.323   3.539 -0.1026 -0.4135  0.8182
  171SAPE   O2119247   1.135  -0.146   3.580 -0.1199 -0.0519  0.0207
  171SAPE   C2119248   1.080  -0.196   3.691  0.1294  0.2690  0.4632
  171SAPE   O2219249   1.100  -0.307   3.738 -1.0238 -0.4930 -0.0924
  171SAPE   C2219250   0.993  -0.086   3.743 -0.2459  0.2512  0.0379
  171SAPE   H2R19251   0.962  -0.015   3.664  0.8928 -0.1583 -0.7996
  171SAPE   H2S19252   0.899  -0.128   3.785  0.0910 -2.0532 -1.3498
  171SAPE    C319253   1.372  -0.174   3.610  0.7982  0.0401  0.3281
  171SAPE    HX19254   1.351  -0.077   3.660 -0.1602 -1.1823  2.4532
  171SAPE    HY19255   1.459  -0.160   3.543 -1.2021  0.2886 -2.3781
  171SAPE   O3119256   1.398  -0.277   3.708  0.0512  0.2835  0.0167
  171SAPE   C3119257   1.491  -0.365   3.696 -0.9695  0.5830  0.9517
  171SAPE   O3219258   1.568  -0.368   3.601  0.4993  0.1996  0.0940
  171SAPE   C3219259   1.506  -0.436   3.833  0.7334  0.6006 -0.1611
  171SAPE   H2X19260   1.402  -0.471   3.850 -0.1277  2.0505 -2.0800
  171SAPE   H2Y19261   1.526  -0.360   3.912  2.1249  1.5314 -1.3483
  171SAPE   C2319262   1.061  -0.000   3.863 -0.0742  0.4762  0.4119
  171SAPE   H3R19263   1.134   0.058   3.803  0.2693  0.3724  0.7236
  171SAPE   H3S19264   1.118  -0.067   3.930  0.1431  1.7463  1.5419
  171SAPE   C2419265   0.971   0.084   3.953 -0.3281 -0.2363  0.6069
  171SAPE   H4R19266   0.899   0.126   3.880  1.0657  0.7998 -0.2410
  171SAPE   H4S19267   1.021   0.178   3.985 -1.0487  0.1556  0.6024
  171SAPE   C2519268   0.888  -0.002   4.040 -0.1744  0.4100  0.1697
  171SAPE   H5R19269   0.799  -0.050   3.995 -0.1582 -0.9694  1.5375
  171SAPE   C2619270   0.909  -0.012   4.172 -0.0297  0.2815 -0.1820
  171SAPE   H6R19271   0.836  -0.062   4.237 -0.0121  2.3865  1.5768
  171SAPE   C2719272   1.030   0.034   4.255  0.0355 -0.1711 -0.6160
  171SAPE   H7R19273   0.994   0.112   4.325  0.9030  0.2695 -0.6350
  171SAPE   H7S19274   1.098   0.103   4.200  0.0214 -0.4300 -0.9666
  171SAPE   C2819275   1.118  -0.074   4.322  0.5171  0.9913  0.2814
  171SAPE   H8R19276   1.145  -0.152   4.249 -2.4980  2.7158 -2.9771
  171SAPE   C2919277   1.173  -0.075   4.452 -0.0876  0.3516 -0.0078
  171SAPE   H9R19278   1.237  -0.156   4.490  1.5035  1.3762 -0.4288
  171SAPE  C21019279   1.144   0.025   4.554 -0.4017 -0.0962  0.2439
  171SAPE  H10R19280   1.045   0.073   4.539 -0.0388  0.5596 -0.0922
  171SAPE  H10S19281   1.214   0.107   4.525  0.4603 -1.4130 -1.5801
  171SAPE  C21119282   1.165  -0.015   4.697  0.2716  0.0904  0.2995
  171SAPE  H11R19283   1.266  -0.043   4.732  0.2355  0.8182  1.0104
  171SAPE  C21219284   1.068  -0.023   4.790  0.3120 -0.3767  0.2422
  171SAPE  H12R19285   1.087  -0.059   4.892 -0.5929  2.1013  1.3867
  171SAPE  C21319286   0.916   0.006   4.785  0.0486  0.5276  0.1086
  171SAPE  H13R19287   0.887   0.005   4.678 -0.0579  0.3160  0.1410
  171SAPE  H13S19288   0.894   0.109   4.820 -0.9141  0.4946 -0.3727
  171SAPE  C21419289   0.831  -0.082   4.863  0.7893 -0.3031 -0.2101
  171SAPE  H14R19290   0.777  -0.157   4.804  0.8989 -1.6281  1.3184
  171SAPE  C21519291   0.815  -0.069   4.996 -0.1309  0.2631 -0.2006
  171SAPE  H15R19292   0.749  -0.142   5.046  0.3435  1.6074  2.5724
  171SAPE  C21619293   0.877   0.022   5.102  0.1035 -0.1021 -0.2542
  171SAPE  H16R19294   0.924   0.110   5.054  1.2648 -0.4232  0.2617
  171SAPE  H16S19295   0.958  -0.024   5.164  2.7454  2.3325 -1.6603
  171SAPE  C21719296   0.767   0.073   5.195  0.5447 -0.5744  0.0262
  171SAPE  H17R19297   0.819   0.137   5.269  0.8806 -0.2866 -0.4547
  171SAPE  H17S19298   0.718  -0.010   5.252  0.4098  0.0784  0.8879
  171SAPE  C21819299   0.658   0.168   5.133 -0.5079  0.3764 -0.0609
  171SAPE  H18R19300   0.615   0.119   5.043  2.0146 -0.7740 -0.7389
  171SAPE  H18S19301   0.709   0.256   5.088 -0.9403  0.0022 -1.3329
  171SAPE  C21919302   0.561   0.217   5.233  0.5036 -0.0511 -0.3309
  171SAPE  H19R19303   0.526   0.312   5.187 -0.0746  0.7239  1.5928
  171SAPE  H19S19304   0.620   0.231   5.326  4.1289 -0.6363 -2.3618
  171SAPE  C22019305   0.448   0.125   5.251 -0.0800 -0.2100  0.3493
  171SAPE  H20R19306   0.388   0.130   5.157  3.3195 -0.7872 -2.0199
  171SAPE  H20S19307   0.373   0.148   5.330 -0.4272 -0.1986  0.0242
  171SAPE  H20T19308   0.483   0.022   5.269  0.5592  0.3389  2.4840
  171SAPE   C3319309   1.611  -0.550   3.837  0.4525  0.3895  0.4088
  171SAPE   H3X19310   1.711  -0.502   3.830 -0.5097  2.7876  2.0372
  171SAPE   H3Y19311   1.589  -0.611   3.747  3.9784 -1.7621  0.8210
  171SAPE   C3419312   1.595  -0.642   3.961 -0.2578 -0.4757 -0.1953
  171SAPE   H4X19313   1.674  -0.719   3.964  2.8995  2.5547  0.8864
  171SAPE   H4Y19314   1.490  -0.679   3.955 -0.5787  0.4382 -0.4324
  171SAPE   C3519315   1.605  -0.574   4.093  0.3855  0.1100 -0.1609
  171SAPE   H5X19316   1.518  -0.509   4.117 -1.4954 -2.1470 -0.4665
  171SAPE   H5Y19317   1.692  -0.506   4.084  0.2688  0.2155 -0.5018
  171SAPE   C3619318   1.622  -0.668   4.211 -0.4885 -0.1168  0.0933
  171SAPE   H6X19319   1.718  -0.724   4.207 -2.1947 -3.2988 -0.0118
  171SAPE   H6Y19320   1.535  -0.737   4.220 -1.3010  0.4853 -2.3097
  171SAPE   C3719321   1.639  -0.597   4.347  0.5243  0.7358 -0.4102
  171SAPE   H7X19322   1.549  -0.532   4.351 -0.8837 -0.9948 -2.0103
  171SAPE   H7Y19323   1.722  -0.523   4.353  0.7391  0.3748  3.0845
  171SAPE   C3819324   1.638  -0.689   4.462 -0.5184  0.3274 -0.8398
  171SAPE   H8X19325   1.724  -0.759   4.474 -1.0327 -0.1741  0.0442
  171SAPE   H8Y19326   1.557  -0.765   4.455 -0.2920 -0.0311  0.1270
  171SAPE   C3919327   1.626  -0.607   4.593 -0.1203  0.1808  0.2821
  171SAPE   H9X19328   1.541  -0.536   4.584 -1.6240 -1.5976 -0.2057
  171SAPE   H9Y19329   1.717  -0.561   4.637 -0.3499 -1.2136  2.3557
  171SAPE  C31019330   1.600  -0.721   4.700  0.3716 -0.2055  0.0211
  171SAPE  H10X19331   1.684  -0.794   4.696 -1.0219 -1.8923  0.1254
  171SAPE  H10Y19332   1.503  -0.767   4.674  0.8868 -1.1725 -0.2642
  171SAPE  C31119333   1.606  -0.666   4.843 -0.3409 -0.4466  0.6965
  171SAPE  H11X19334   1.522  -0.596   4.859 -0.9276 -0.0465 -3.3005
  171SAPE  H11Y19335   1.702  -0.619   4.874 -0.2633  1.9185 -2.6740
  171SAPE  C31219336   1.592  -0.783   4.939 -0.8547  0.7654 -0.0724
  171SAPE  H12X19337   1.691  -0.833   4.936 -2.1396 -1.9319 -0.5908
  171SAPE  H12Y19338   1.520  -0.862   4.909  0.2120 -0.2419 -0.0128
  171SAPE  C31319339   1.565  -0.744   5.077 -0.2141 -0.4893  0.2522
  171SAPE  H13X19340   1.458  -0.716   5.085 -0.0736  0.3447 -0.6311
  171SAPE  H13Y19341   1.635  -0.663   5.107 -1.6206  1.1696 -0.7727
  171SAPE  C31419342   1.585  -0.866   5.170 -0.1934 -0.1849  0.5895
  171SAPE  H14X19343   1.691  -0.891   5.192  0.8609  2.3710 -1.1117
  171SAPE  H14Y19344   1.535  -0.948   5.114  1.1517 -1.9994  1.9339
  171SAPE  C31519345   1.507  -0.839   5.301 -0.3885  0.8977  0.0836
  171SAPE  H15X19346   1.400  -0.857   5.275  0.4477 -1.0304 -2.3494
  171SAPE  H15Y19347   1.530  -0.734   5.329  0.5767  0.2254  2.0332
  171SAPE  C31619348   1.532  -0.921   5.429 -0.0002 -0.4605  0.2327
  171SAPE  H16X19349   1.476  -0.870   5.510  2.1316  0.0880  1.4228
  171SAPE  H16Y19350   1.642  -0.922   5.445 -0.1329 -2.2924  1.2587
  171SAPE  C31719351   1.495  -1.065   5.413 -0.9000 -0.1058 -0.0211
  171SAPE  H17X19352   1.562  -1.124   5.348 -0.2762  0.0471  0.4805
  171SAPE  H17Y19353   1.392  -1.070   5.370  0.5033 -0.7172 -3.7141
  171SAPE  C31819354   1.507  -1.131   5.547  0.6893 -0.1184 -0.4506
  171SAPE  H18X19355   1.608  -1.115   5.590  0.5575  2.7052 -0.9944
  171SAPE  H18Y19356   1.477  -1.238   5.544  1.2393 -0.2590 -1.4110
  171SAPE  H18Z19357   1.433  -1.082   5.614  1.0032  1.1934 -1.0380
  172SAPE     N19358   1.402   1.759   2.613 -0.2774 -0.1189 -0.3902
  172SAPE   HN119359   1.305   1.751   2.650 -0.0971 -0.1144  0.0972
  172SAPE   HN219360   1.409   1.852   2.567 -0.9172  0.4537  0.6371
  172SAPE   HN319361   1.415   1.676   2.552 -1.0538 -0.1735 -0.4839
  172SAPE   C1219362   1.489   1.750   2.738  0.1150  0.4411 -0.1622
  172SAPE  H12A19363   1.590   1.779   2.704 -0.2059  0.8169 -0.8337
  172SAPE  H12B19364   1.490   1.646   2.776 -0.7033  0.9534  1.3737
  172SAPE   C1119365   1.449   1.846   2.853 -0.0136 -0.0818 -0.3176
  172SAPE  H11A19366   1.538   1.862   2.917 -1.4475  0.8037  1.5780
  172SAPE  H11B19367   1.371   1.796   2.914  0.3588  0.3942  0.5693
  172SAPE     P19368   1.458   2.110   2.806  0.0273 -0.5099  0.3254
  172SAPE   O1319369   1.605   2.081   2.802 -0.4528  0.6528  0.7264
  172SAPE   O1419370   1.398   2.200   2.698 -0.3346 -0.5257  0.8796
  172SAPE   O1219371   1.389   1.970   2.803  0.2915  0.5552  0.3240
  172SAPE   O1119372   1.433   2.159   2.952  0.0956 -0.4888 -0.1954
  172SAPE    C119373   1.310   2.164   3.021  0.2496  0.0272 -0.2552
  172SAPE    HA19374   1.248   2.082   2.979 -1.1301  0.4672  0.8500
  172SAPE    HB19375   1.337   2.135   3.125  0.5434  0.9599 -0.0674
  172SAPE    C219376   1.242   2.298   3.014 -0.7870 -0.2388  0.3544
  172SAPE    HS19377   1.244   2.328   2.907  0.3876 -1.7490 -0.0780
  172SAPE   O2119378   1.321   2.391   3.098 -0.0384  0.2541  0.1215
  172SAPE   C2119379   1.311   2.520   3.067 -0.4050 -0.3315 -0.2042
  172SAPE   O2219380   1.241   2.570   2.979  0.4416 -0.2568 -0.2692
  172SAPE   C2219381   1.409   2.601   3.150 -0.4566 -0.0037  0.3665
  172SAPE   H2R19382   1.513   2.593   3.111 -1.4761 -0.1391 -2.5111
  172SAPE   H2S19383   1.383   2.708   3.133 -4.1939 -0.0275  4.1929
  172SAPE    C319384   1.096   2.310   3.054 -0.1882 -0.6126 -0.5411
  172SAPE    HX19385   1.037   2.248   2.982 -1.3472  1.3001 -1.3238
  172SAPE    HY19386   1.054   2.411   3.036 -0.7575 -0.3877  1.7581
  172SAPE   O3119387   1.067   2.246   3.180 -0.5577 -0.0879 -0.2209
  172SAPE   C3119388   1.042   2.328   3.282 -0.6765 -0.4957  0.4107
  172SAPE   O3219389   1.045   2.449   3.282  0.2774  0.0266  0.2840
  172SAPE   C3219390   1.012   2.245   3.404 -0.9096  0.2647 -0.0001
  172SAPE   H2X19391   1.108   2.191   3.420 -0.1815  1.2782 -0.7763
  172SAPE   H2Y19392   0.934   2.169   3.387 -1.6294  1.2872 -1.4739
  172SAPE   C2319393   1.399   2.569   3.300 -0.2599 -0.4106 -0.4387
  172SAPE   H3R19394   1.423   2.462   3.317  1.1171 -0.1616 -0.6777
  172SAPE   H3S19395   1.294   2.586   3.331 -0.7307 -2.3976 -0.8068
  172SAPE   C2419396   1.493   2.651   3.388  0.7482 -0.5141  0.2641
  172SAPE   H4R19397   1.601   2.628   3.379  0.3803 -2.5520  0.5142
  172SAPE   H4S19398   1.458   2.622   3.490 -0.4270 -1.3619 -0.3460
  172SAPE   C2519399   1.467   2.799   3.369 -0.0433  0.3902  0.1098
  172SAPE   H5R19400   1.553   2.854   3.327 -0.3493 -0.5500 -1.8831
  172SAPE   C2619401   1.373   2.881   3.426  0.4611 -0.3160 -0.1299
  172SAPE   H6R19402   1.374   2.983   3.384 -0.1251 -0.2056  0.1147
  172SAPE   C2719403   1.249   2.834   3.509 -0.1525 -0.3070 -0.3607
  172SAPE   H7R19404   1.267   2.734   3.555  1.3198 -0.1634 -0.5589
  172SAPE   H7S19405   1.170   2.821   3.433 -0.7474  1.3189 -0.0569
  172SAPE   C2819406   1.200   2.925   3.614  0.4785  0.8803  0.1621
  172SAPE   H8R19407   1.125   3.000   3.585  1.0885  0.5557 -2.4510
  172SAPE   C2919408   1.244   2.935   3.739  0.2059 -0.3510  0.5412
  172SAPE   H9R19409   1.197   3.011   3.804 -0.7471  1.4443 -2.0725
  172SAPE  C21019410   1.351   2.843   3.802 -0.4315  0.4841  0.2769
  172SAPE  H10R19411   1.428   2.908   3.847  0.2628  0.1513 -0.4009
  172SAPE  H10S19412   1.387   2.778   3.719  0.1491 -1.6999  2.1460
  172SAPE  C21119413   1.289   2.749   3.907  0.7908 -0.4506  0.3526
  172SAPE  H11R19414   1.287   2.644   3.876 -0.5580 -0.9318  1.9087
  172SAPE  C21219415   1.260   2.779   4.038 -0.0553 -0.1811 -0.2493
  172SAPE  H12R19416   1.210   2.697   4.093 -0.5509  0.9475  1.0340
  172SAPE  C21319417   1.262   2.906   4.123  0.4830 -0.2336 -0.6052
  172SAPE  H13R19418   1.238   2.990   4.054 -0.6969  2.0817  2.4028
  172SAPE  H13S19419   1.361   2.917   4.171 -0.0168  0.5926  0.2629
  172SAPE  C21419420   1.144   2.905   4.216 -0.1858 -0.4588 -0.0882
  172SAPE  H14R19421   1.048   2.917   4.163 -1.3299 -0.1696  1.9307
  172SAPE  C21519422   1.134   2.891   4.347 -0.0590 -0.4943 -0.8590
  172SAPE  H15R19423   1.037   2.922   4.389  1.1243  3.3630 -0.5946
  172SAPE  C21619424   1.251   2.875   4.438 -0.7582  0.8776 -1.2216
  172SAPE  H16R19425   1.262   2.958   4.511  0.7744  0.7697 -1.2825
  172SAPE  H16S19426   1.350   2.859   4.388 -0.4720 -0.2203 -0.3390
  172SAPE  C21719427   1.234   2.744   4.518  0.1687  0.4178 -0.4838
  172SAPE  H17R19428   1.329   2.689   4.533 -1.0534 -1.1702  2.0072
  172SAPE  H17S19429   1.166   2.666   4.478 -1.5609  0.9704  1.2608
  172SAPE  C21819430   1.175   2.784   4.658  0.5521 -0.0761  0.3070
  172SAPE  H18R19431   1.120   2.696   4.696  2.7788 -1.0161  1.5806
  172SAPE  H18S19432   1.105   2.870   4.652  4.2421  3.2679  0.4755
  172SAPE  C21919433   1.281   2.819   4.763  0.4246 -0.5679  0.6476
  172SAPE  H19R19434   1.241   2.893   4.836  2.6506  0.4347  0.9532
  172SAPE  H19S19435   1.365   2.868   4.708 -0.6077  1.1555  0.5477
  172SAPE  C22019436   1.320   2.690   4.827 -0.3404  0.6927 -0.6439
  172SAPE  H20R19437   1.341   2.610   4.754  1.7430  1.2688 -0.7336
  172SAPE  H20S19438   1.244   2.651   4.898 -0.7038  2.3091 -0.1098
  172SAPE  H20T19439   1.413   2.695   4.889 -1.7047 -1.0355  1.7164
  172SAPE   C3319440   0.986   2.332   3.525 -0.4285  0.3003 -0.2221
  172SAPE   H3X19441   0.957   2.261   3.605 -1.0224  0.0950 -0.6145
  172SAPE   H3Y19442   0.903   2.398   3.493  0.4537  1.5924  0.0719
  172SAPE   C3419443   1.099   2.419   3.585  0.1401  0.7231 -0.0924
  172SAPE   H4X19444   1.148   2.480   3.506  0.3627  1.0201  0.2694
  172SAPE   H4Y19445   1.170   2.345   3.627  2.2833  1.1871 -2.6413
  172SAPE   C3519446   1.050   2.526   3.686 -0.2485  0.5564 -0.6323
  172SAPE   H5X19447   0.987   2.597   3.628 -1.8763 -2.3347 -2.6924
  172SAPE   H5Y19448   1.145   2.575   3.714  2.4388 -2.0964 -4.1986
  172SAPE   C3619449   0.983   2.475   3.816 -0.4840  0.4420 -0.7360
  172SAPE   H6X19450   1.066   2.418   3.863 -0.2503  1.3416 -0.0179
  172SAPE   H6Y19451   0.903   2.400   3.795  0.2604 -1.2277  1.8463
  172SAPE   C3719452   0.938   2.584   3.910  0.2000 -1.1559 -0.0350
  172SAPE   H7X19453   0.850   2.634   3.864  1.2680 -1.4414 -2.5162
  172SAPE   H7Y19454   1.019   2.661   3.907 -0.9776  0.0767 -2.2152
  172SAPE   C3819455   0.919   2.526   4.052 -0.1080 -0.1450  0.9657
  172SAPE   H8X19456   1.014   2.476   4.079 -0.0355 -0.7733 -0.3481
  172SAPE   H8Y19457   0.846   2.442   4.049 -1.0338  0.5497  2.7268
  172SAPE   C3919458   0.862   2.616   4.160  0.1071  0.5561  0.4038
  172SAPE   H9X19459   0.762   2.656   4.134 -0.4304 -0.9268  0.1384
  172SAPE   H9Y19460   0.918   2.712   4.155  0.0950  0.5036 -1.1950
  172SAPE  C31019461   0.867   2.555   4.307  0.3880  0.3710  0.5000
  172SAPE  H10X19462   0.972   2.525   4.327  0.5515 -0.6503 -1.5836
  172SAPE  H10Y19463   0.815   2.457   4.310  1.3562 -0.1854 -0.1267
  172SAPE  C31119464   0.802   2.649   4.406  0.1436  0.6886 -0.4678
  172SAPE  H11X19465   0.695   2.655   4.377 -0.5375  0.3143  1.7711
  172SAPE  H11Y19466   0.840   2.753   4.406 -0.4692  0.9195 -0.3683
  172SAPE  C31219467   0.815   2.589   4.555  0.3006  0.1055  0.9436
  172SAPE  H12X19468   0.921   2.574   4.586  0.9754 -0.9363 -1.6260
  172SAPE  H12Y19469   0.777   2.485   4.553 -0.4349  0.3767  0.3291
  172SAPE  C31319470   0.750   2.669   4.670 -0.1853 -0.0093 -0.0685
  172SAPE  H13X19471   0.649   2.623   4.674  0.7983 -2.3592 -0.0240
  172SAPE  H13Y19472   0.758   2.778   4.652  0.9785  0.1577  1.2732
  172SAPE  C31419473   0.820   2.645   4.806  0.2659  0.0345  0.4358
  172SAPE  H14X19474   0.918   2.698   4.795  0.4507 -0.5622 -1.0019
  172SAPE  H14Y19475   0.828   2.537   4.829 -0.2163  0.0177  0.5183
  172SAPE  C31519476   0.752   2.714   4.923 -0.1950  0.6863  0.3814
  172SAPE  H15X19477   0.697   2.808   4.900 -0.5200  0.3154 -0.3984
  172SAPE  H15Y19478   0.816   2.742   5.010  2.5568  0.6696 -1.4917
  172SAPE  C31619479   0.651   2.613   4.982  0.4550 -0.4425  0.4054
  172SAPE  H16X19480   0.707   2.517   4.985 -0.5012 -1.0193  0.3000
  172SAPE  H16Y19481   0.566   2.610   4.910  0.0272  0.2652  0.8591
  172SAPE  C31719482   0.592   2.652   5.122  0.3717  0.2615  0.1407
  172SAPE  H17X19483   0.540   2.750   5.115  0.4860  0.1908 -2.1835
  172SAPE  H17Y19484   0.677   2.674   5.191  0.2181 -2.1987  1.2268
  172SAPE  C31819485   0.510   2.537   5.173 -0.0427 -0.2980 -0.0694
  172SAPE  H18X19486   0.572   2.444   5.171 -1.2839 -1.1300 -0.7653
  172SAPE  H18Y19487   0.432   2.516   5.097  1.4575 -1.2240 -1.4096
  172SAPE  H18Z19488   0.471   2.547   5.276  2.8757  0.6805  1.0510
  173SLPC     N19489   0.219   2.704   7.471 -0.0194  0.2770 -0.0228
  173SLPC   C1319490   0.318   2.630   7.384 -0.1934  0.1201 -0.1260
  173SLPC  H13A19491   0.309   2.523   7.389 -1.2686  0.2591  3.4442
  173SLPC  H13B19492   0.308   2.658   7.280 -1.4344 -0.9464 -0.3156
  173SLPC  H13C19493   0.421   2.638   7.416 -0.2296  0.0832 -0.0012
  173SLPC   C1419494   0.224   2.658   7.619 -0.0983 -0.2411  0.6772
  173SLPC  H14A19495   0.324   2.681   7.653 -0.2085 -0.6071  1.2689
  173SLPC  H14B19496   0.144   2.704   7.674 -0.2249 -0.2022  0.4592
  173SLPC  H14C19497   0.209   2.551   7.623 -3.0702  0.0588 -0.4267
  173SLPC   C1519498   0.091   2.658   7.429  1.1763  0.3539 -0.0570
  173SLPC  H15A19499   0.057   2.717   7.345  0.4905 -0.6186 -0.4902
  173SLPC  H15B19500   0.081   2.552   7.407  0.4293 -0.2967  3.0118
  173SLPC  H15C19501   0.018   2.681   7.505 -3.2216 -2.8366 -2.8021
  173SLPC   C1219502   0.237   2.851   7.458 -0.4255 -1.0068 -0.0285
  173SLPC  H12A19503   0.315   2.879   7.527  0.4347  1.0834 -1.7306
  173SLPC  H12B19504   0.159   2.910   7.503  0.9161  0.4024  0.5184
  173SLPC   C1119505   0.285   2.897   7.322  0.4769 -0.4485  0.1864
  173SLPC  H11A19506   0.210   2.878   7.242  0.4441 -0.9356  0.3298
  173SLPC  H11B19507   0.383   2.850   7.300  1.8476  1.6328  1.4957
  173SLPC     P19508   0.426   3.116   7.390  0.4698 -0.3453  0.0435
  173SLPC   O1319509   0.365   3.238   7.452  0.0515  0.5303  0.5107
  173SLPC   O1419510   0.481   3.017   7.488 -0.6821  0.0844  0.1420
  173SLPC   O1219511   0.307   3.039   7.321  1.1398  0.0651 -0.3702
  173SLPC   O1119512   0.524   3.148   7.271 -0.7809 -0.1500  0.2246
  173SLPC    C119513   0.501   3.093   7.139 -0.5506 -0.0311 -0.1617
  173SLPC    HA19514   0.428   3.010   7.128  0.3927 -0.6970 -1.5839
  173SLPC    HB19515   0.459   3.179   7.083 -1.4101 -0.3537 -0.0342
  173SLPC    C219516   0.636   3.049   7.075 -0.4295  0.3820 -0.0749
  173SLPC    HS19517   0.696   3.141   7.090  2.4388 -1.4353  0.4204
  173SLPC   O2119518   0.627   3.009   6.938  0.2620 -0.3416 -0.3216
  173SLPC   C2119519   0.639   3.109   6.850  0.7380 -0.6557 -0.6956
  173SLPC   O2219520   0.637   3.227   6.876 -1.0975  0.1465 -0.1381
  173SLPC   C2219521   0.633   3.057   6.711  0.5182 -0.3316 -0.4724
  173SLPC   H2R19522   0.682   2.957   6.716  0.1748 -0.4470  3.0122
  173SLPC   H2S19523   0.526   3.043   6.686  0.2671  0.8916 -0.1439
  173SLPC    C319524   0.703   2.927   7.160  0.1455  0.3013 -0.4505
  173SLPC    HX19525   0.638   2.838   7.155 -0.0539  0.2792  1.6122
  173SLPC    HY19526   0.710   2.962   7.265  1.2088 -2.0047  0.3019
  173SLPC   O3119527   0.838   2.900   7.117  0.0976  0.8097 -0.0244
  173SLPC   C3119528   0.846   2.806   7.020 -0.0767  0.0434  0.1551
  173SLPC   O3219529   0.769   2.716   6.990  0.9243  0.7372 -0.5111
  173SLPC   C3219530   0.990   2.819   6.957 -0.1395 -0.2475 -0.4537
  173SLPC   H2X19531   1.031   2.717   6.939 -1.4570 -0.5331 -2.0817
  173SLPC   H2Y19532   1.045   2.862   7.044 -1.2347  0.6628 -0.1909
  173SLPC   C2319533   0.702   3.158   6.607 -0.2768  0.6136  0.0350
  173SLPC   H3R19534   0.806   3.182   6.639 -0.6078  3.0056 -0.5107
  173SLPC   H3S19535   0.643   3.252   6.598 -0.5701  0.9147  3.5925
  173SLPC   C2419536   0.707   3.102   6.466  0.3062  0.4971  0.2467
  173SLPC   H4R19537   0.677   3.172   6.385  2.2615 -0.2508 -1.2079
  173SLPC   H4S19538   0.644   3.011   6.454 -1.5140  1.7818 -0.4722
  173SLPC   C2519539   0.840   3.043   6.432  0.0931  0.8183 -0.0703
  173SLPC   H5R19540   0.876   2.999   6.528 -3.0809  1.0048  1.3006
  173SLPC   H5S19541   0.911   3.127   6.417  1.4059 -0.4168 -1.1299
  173SLPC   C2619542   0.844   2.953   6.311 -0.9975  0.8607  0.1862
  173SLPC   H6R19543   0.774   2.868   6.325  0.2581 -0.2044  0.1711
  173SLPC   H6S19544   0.947   2.913   6.303 -0.5775  2.1022 -0.9629
  173SLPC   C2719545   0.819   3.043   6.185  0.2100  0.3479  0.0855
  173SLPC   H7R19546   0.891   3.126   6.198  3.7289 -2.4340 -0.1796
  173SLPC   H7S19547   0.711   3.067   6.189 -0.5860 -2.6510 -0.5660
  173SLPC   C2819548   0.840   2.964   6.050  0.2324  0.5559  0.2955
  173SLPC   H8R19549   0.793   2.865   6.034 -2.7796  1.4025  2.6999
  173SLPC   H8S19550   0.950   2.952   6.046  0.0113 -1.9057  0.3565
  173SLPC   C2919551   0.793   3.058   5.938 -0.0391 -0.0622 -0.0382
  173SLPC   H9R19552   0.786   3.164   5.967  0.9588  0.1422 -0.5100
  173SLPC  C21019553   0.742   3.026   5.822 -0.4297 -0.6662 -0.3718
  173SLPC  H10R19554   0.702   3.107   5.759 -0.5520 -0.7502 -0.4020
  173SLPC  C21119555   0.724   2.884   5.764  0.2016 -0.4491  0.4387
  173SLPC  H11R19556   0.645   2.887   5.686  0.7931 -2.7620 -0.3573
  173SLPC  H11S19557   0.692   2.817   5.846 -0.1294 -1.7675 -0.7303
  173SLPC  C21219558   0.848   2.837   5.691 -1.2392 -0.5657 -0.1283
  173SLPC  H12R19559   0.904   2.770   5.758  2.5130  3.2715  1.0138
  173SLPC  C21319560   0.886   2.852   5.564 -0.0534 -0.0396  0.0951
  173SLPC  H13R19561   0.978   2.805   5.527  0.4809 -0.3490  1.7632
  173SLPC  C21419562   0.818   2.939   5.460 -0.6787  0.1951 -0.3192
  173SLPC  H14R19563   0.708   2.945   5.474 -0.5320  1.4976  0.4977
  173SLPC  H14S19564   0.843   2.894   5.362  2.8646  1.9523 -0.3901
  173SLPC  C21519565   0.886   3.078   5.448 -0.0157 -0.3535 -0.7499
  173SLPC  H15R19566   0.993   3.053   5.433  0.4306  1.8640 -1.5744
  173SLPC  H15S19567   0.882   3.137   5.542  1.7498 -0.3235 -0.6726
  173SLPC  C21619568   0.827   3.161   5.328 -0.9651  0.1040 -0.4646
  173SLPC  H16R19569   0.748   3.230   5.365  0.0742  0.7396  0.6359
  173SLPC  H16S19570   0.789   3.105   5.240  1.2252  0.9231 -2.0300
  173SLPC  C21719571   0.928   3.256   5.261  1.2707 -0.0295 -0.4045
  173SLPC  H17R19572   0.869   3.333   5.206  1.0999 -0.6138 -1.0600
  173SLPC  H17S19573   0.985   3.210   5.177  3.7875  1.1188  0.5529
  173SLPC  C21819574   1.026   3.322   5.352 -0.6914  0.2529 -0.2420
  173SLPC  H18R19575   0.971   3.368   5.437 -0.8185  0.8405 -0.6369
  173SLPC  H18S19576   1.091   3.397   5.303 -0.6848 -0.1824 -0.9040
  173SLPC  H18T19577   1.098   3.247   5.393  0.3092  0.3862 -1.7027
  173SLPC   C3319578   0.993   2.914   6.825 -0.1065 -0.2505 -0.0007
  173SLPC   H3X19579   1.007   3.021   6.855  0.3016 -0.8501  2.0954
  173SLPC   H3Y19580   0.893   2.926   6.779 -0.0819  2.6536  0.4671
  173SLPC   C3419581   1.089   2.852   6.724 -0.5594  0.2042 -0.2721
  173SLPC   H4X19582   1.096   2.892   6.620  2.5461 -0.1355 -0.2839
  173SLPC   H4Y19583   1.047   2.750   6.710  0.0294  0.0615 -1.1415
  173SLPC   C3519584   1.228   2.833   6.782  0.2128 -0.0348  0.1851
  173SLPC   H5X19585   1.229   2.787   6.883  1.4736 -1.7416 -0.5602
  173SLPC   H5Y19586   1.274   2.933   6.797  0.6933 -0.2408  0.1038
  173SLPC   C3619587   1.326   2.751   6.695  0.1479 -0.0497 -0.9774
  173SLPC   H6X19588   1.279   2.651   6.680 -4.4593  1.6442  0.4448
  173SLPC   H6Y19589   1.421   2.751   6.752 -0.3023  1.4711 -0.1728
  173SLPC   C3719590   1.349   2.824   6.552  0.1400  0.5425 -0.0392
  173SLPC   H7X19591   1.393   2.925   6.569 -0.8085  1.1695 -1.2403
  173SLPC   H7Y19592   1.254   2.828   6.496 -1.0320 -0.0659  1.8118
  173SLPC   C3819593   1.459   2.752   6.471  0.2668  1.2677 -0.0548
  173SLPC   H8X19594   1.429   2.647   6.448  1.0344  1.3949 -1.7716
  173SLPC   H8Y19595   1.549   2.741   6.535  0.0047 -2.4576 -0.0773
  173SLPC   C3919596   1.489   2.813   6.329 -0.8585 -0.3024  0.2200
  173SLPC   H9X19597   1.513   2.921   6.338 -1.2374 -0.0806 -1.1605
  173SLPC   H9Y19598   1.384   2.819   6.293 -2.0450 -0.9622  3.3195
  173SLPC  C31019599   1.577   2.727   6.238 -0.1519 -0.5132 -0.6842
  173SLPC  H10X19600   1.555   2.621   6.266  2.4477 -0.1613  3.4025
  173SLPC  H10Y19601   1.682   2.744   6.269 -1.1671  1.5752  1.9227
  173SLPC  C31119602   1.561   2.758   6.084  0.1875 -0.5865 -0.2849
  173SLPC  H11X19603   1.564   2.869   6.078  0.1751 -0.4913  1.2063
  173SLPC  H11Y19604   1.463   2.715   6.055 -0.0521  0.5164 -1.2366
  173SLPC  C31219605   1.681   2.694   6.009 -0.2350  0.0869  0.3447
  173SLPC  H12X19606   1.687   2.587   6.039  0.3060  0.2014  0.6600
  173SLPC  H12Y19607   1.782   2.736   6.030  0.0519 -0.8732  0.9754
  173SLPC  C31319608   1.660   2.699   5.853  0.7752 -0.0618  0.8625
  173SLPC  H13X19609   1.568   2.637   5.847 -0.2787  1.3514  1.8147
  173SLPC  H13Y19610   1.751   2.659   5.803 -0.1617 -0.6043 -0.4750
  173SLPC  C31419611   1.626   2.842   5.804  0.0447  0.1549  0.9945
  173SLPC  H14X19612   1.557   2.893   5.874 -0.2082  0.7561  0.3154
  173SLPC  H14Y19613   1.577   2.834   5.704  1.7353  1.9827 -0.0627
  173SLPC  C31519614   1.752   2.926   5.777 -0.5584 -0.5639 -0.1563
  173SLPC  H15X19615   1.813   2.914   5.869  0.5052 -1.4556 -0.9563
  173SLPC  H15Y19616   1.719   3.032   5.770 -1.3050 -0.5519  2.4004
  173SLPC  C31619617   1.821   2.909   5.645 -0.2408  0.1949  0.3409
  173SLPC  H16X19618   1.746   2.915   5.563 -0.2333 -3.3255 -0.1142
  173SLPC  H16Y19619   1.849   2.801   5.639 -2.5009 -0.4068 -0.6676
  173SLPC  C31719620   1.953   2.986   5.605  0.0683 -0.3235  0.3432
  173SLPC  H17X19621   2.033   2.962   5.679  1.7285  1.5422 -0.7227
  173SLPC  H17Y19622   1.921   3.091   5.622 -0.1471 -0.3658  0.1989
  173SLPC  C31819623   2.014   2.964   5.470 -0.4643  0.0447  0.3202
  173SLPC  H18X19624   2.117   3.004   5.470 -0.8668  1.2784  2.8658
  173SLPC  H18Y19625   1.944   3.012   5.398 -0.4901  0.4855  0.6429
  173SLPC  H18Z19626   1.999   2.858   5.439 -2.9397 -0.1368  1.8914
  174SLPC     N19627   5.174   3.222   7.835  0.7040 -0.1309 -0.1553
  174SLPC   C1319628   5.077   3.148   7.924  0.2524  0.9718 -0.4955
  174SLPC  H13A19629   4.982   3.137   7.874  0.3679  3.2824 -1.3328
  174SLPC  H13B19630   5.112   3.050   7.953  0.2073  1.5378  1.6062
  174SLPC  H13C19631   5.057   3.213   8.008 -3.6600 -2.0975  1.2878
  174SLPC   C1419632   5.311   3.235   7.909 -0.2691  0.2686 -0.2810
  174SLPC  H14A19633   5.293   3.291   7.999 -0.1866 -0.6290  0.3045
  174SLPC  H14B19634   5.350   3.136   7.924  2.3824  1.2205 -0.3745
  174SLPC  H14C19635   5.386   3.293   7.857  1.0889 -0.3053  0.9849
  174SLPC   C1519636   5.125   3.368   7.818 -0.1428 -0.3102  0.1205
  174SLPC  H15A19637   5.121   3.430   7.906  0.0468 -1.3869  0.9105
  174SLPC  H15B19638   5.186   3.416   7.743 -1.6178  2.4387  0.5791
  174SLPC  H15C19639   5.030   3.376   7.767 -1.6688 -1.9327  2.4784
  174SLPC   C1219640   5.183   3.151   7.703  0.7217 -0.4527  0.0622
  174SLPC  H12A19641   5.230   3.055   7.719  0.0011 -0.9095 -0.5406
  174SLPC  H12B19642   5.247   3.214   7.643  0.1572  0.1490  0.0884
  174SLPC   C1119643   5.054   3.139   7.624 -0.1023 -0.1820  0.0638
  174SLPC  H11A19644   4.977   3.086   7.684 -0.0264  2.8926  3.1202
  174SLPC  H11B19645   5.076   3.070   7.539  3.5781  0.2669  0.4637
  174SLPC     P19646   4.837   3.302   7.573  0.2947  0.0741 -0.0297
  174SLPC   O1319647   4.758   3.249   7.686  0.5695 -0.4634  0.2424
  174SLPC   O1419648   4.833   3.449   7.561  0.1617  0.1165  0.0668
  174SLPC   O1219649   4.989   3.260   7.581 -0.1570  0.1565  0.2080
  174SLPC   O1119650   4.772   3.239   7.440 -0.3468  0.1810 -0.2157
  174SLPC    C119651   4.823   3.107   7.414 -0.0073  0.8712 -0.1522
  174SLPC    HA19652   4.929   3.107   7.381 -0.1933 -1.2191 -0.8961
  174SLPC    HB19653   4.803   3.034   7.496 -0.8440 -0.0277 -1.1172
  174SLPC    C219654   4.753   3.045   7.292 -0.2262  0.3944  0.0357
  174SLPC    HS19655   4.796   2.945   7.269 -2.7745 -0.6905 -0.3411
  174SLPC   O2119656   4.743   3.133   7.176 -0.4854  0.3227 -0.4478
  174SLPC   C2119657   4.855   3.148   7.114 -0.2783  0.1180  0.3151
  174SLPC   O2219658   4.961   3.082   7.117 -0.0819 -0.2019 -0.4805
  174SLPC   C2219659   4.835   3.251   7.002  0.3061  0.2847 -0.0003
  174SLPC   H2R19660   4.732   3.265   6.962  0.1717 -1.1275 -0.2024
  174SLPC   H2S19661   4.875   3.351   7.031 -0.2856  0.7922 -0.8712
  174SLPC    C319662   4.603   3.010   7.322 -0.3675  0.4048 -0.3458
  174SLPC    HX19663   4.536   3.087   7.366 -2.5192 -1.3384 -0.3703
  174SLPC    HY19664   4.614   2.945   7.411  0.4740  0.8541 -0.1114
  174SLPC   O3119665   4.536   2.936   7.223 -0.0703  0.0511  0.1750
  174SLPC   C3119666   4.489   3.000   7.115 -0.2252 -0.0094 -0.2860
  174SLPC   O3219667   4.500   3.116   7.099 -0.7805  0.3432 -0.2805
  174SLPC   C3219668   4.426   2.899   7.013  0.0527 -0.3298 -0.0445
  174SLPC   H2X19669   4.323   2.881   7.049  0.1138  0.6762  0.6804
  174SLPC   H2Y19670   4.478   2.801   7.026  1.3052  0.1070 -1.3858
  174SLPC   C2319671   4.926   3.215   6.877  0.2130  0.2732 -0.7247
  174SLPC   H3R19672   5.036   3.212   6.896 -0.1882  0.6993  2.1249
  174SLPC   H3S19673   4.904   3.300   6.810  1.5111  0.6423 -0.7149
  174SLPC   C2419674   4.876   3.093   6.800 -0.1139  0.2051 -0.2349
  174SLPC   H4R19675   4.770   3.111   6.772 -0.5111  2.2579  2.2328
  174SLPC   H4S19676   4.880   3.011   6.874 -0.4272 -0.7403 -1.2455
  174SLPC   C2519677   4.961   3.069   6.673  0.1701 -0.0189 -0.3367
  174SLPC   H5R19678   5.066   3.063   6.709 -0.6277  1.3444  2.4275
  174SLPC   H5S19679   4.950   3.157   6.606  0.6150  2.1422  2.2711
  174SLPC   C2619680   4.931   2.932   6.592 -0.1120  0.6257 -0.0859
  174SLPC   H6R19681   4.822   2.921   6.579 -0.3158 -0.5120  2.1214
  174SLPC   H6S19682   4.980   2.864   6.665  2.9277  2.0222 -0.6392
  174SLPC   C2719683   5.006   2.936   6.463 -0.2749  0.2930  0.7123
  174SLPC   H7R19684   5.044   2.834   6.440 -0.1374  0.8501 -1.8118
  174SLPC   H7S19685   5.091   3.007   6.458 -0.2685  0.2265 -2.9389
  174SLPC   C2819686   4.909   2.978   6.343 -0.1659 -0.3228 -1.0220
  174SLPC   H8R19687   4.976   2.998   6.257 -1.7455 -1.6736 -2.6494
  174SLPC   H8S19688   4.854   3.070   6.372 -1.0912 -1.1238 -0.1552
  174SLPC   C2919689   4.818   2.868   6.295 -0.5760  0.5243  0.5573
  174SLPC   H9R19690   4.743   2.842   6.371  0.4456 -2.0028  0.7781
  174SLPC  C21019691   4.812   2.829   6.171 -0.0419  0.2648 -0.7045
  174SLPC  H10R19692   4.738   2.755   6.137  0.8055 -1.0709  0.2558
  174SLPC  C21119693   4.889   2.870   6.047 -0.3655  0.3814 -0.3190
  174SLPC  H11R19694   4.887   2.783   5.979 -2.5546  0.5710 -0.5737
  174SLPC  H11S19695   4.995   2.879   6.077  0.5921 -1.3626 -2.8283
  174SLPC  C21219696   4.851   2.997   5.976  0.6465 -0.6087 -0.7502
  174SLPC  H12R19697   4.900   3.088   6.014  4.8213 -1.9201 -2.4242
  174SLPC  C21319698   4.784   3.009   5.859 -0.5660 -0.0898  0.2617
  174SLPC  H13R19699   4.751   3.106   5.819  1.2603 -0.5104 -2.5564
  174SLPC  C21419700   4.733   2.897   5.768  0.9942 -0.1614  0.1235
  174SLPC  H14R19701   4.790   2.801   5.775  1.4307  0.0162 -0.8182
  174SLPC  H14S19702   4.770   2.924   5.667  1.7772  1.5318  0.8170
  174SLPC  C21519703   4.579   2.871   5.757  0.1308  0.3603  0.3612
  174SLPC  H15R19704   4.538   2.851   5.858 -1.5017 -0.2210 -0.3707
  174SLPC  H15S19705   4.555   2.777   5.702  2.1239  0.2185 -0.3222
  174SLPC  C21619706   4.499   2.993   5.704 -0.8069  0.9903  0.4847
  174SLPC  H16R19707   4.533   3.017   5.601 -0.4101 -0.2557  0.3050
  174SLPC  H16S19708   4.513   3.086   5.763 -2.1330  2.3008 -1.1602
  174SLPC  C21719709   4.349   2.964   5.688 -0.3558 -0.3374  0.4318
  174SLPC  H17R19710   4.331   2.876   5.622 -1.0171  0.0749  0.0539
  174SLPC  H17S19711   4.303   3.051   5.637 -3.2391 -0.1368  3.0590
  174SLPC  C21819712   4.269   2.949   5.820 -0.9956  0.1373  0.4660
  174SLPC  H18R19713   4.168   2.925   5.781 -0.2006  0.5691 -1.9887
  174SLPC  H18S19714   4.273   3.048   5.871  0.4642  0.4473 -0.2073
  174SLPC  H18T19715   4.298   2.870   5.892 -1.1520 -0.0115  0.3652
  174SLPC   C3319716   4.431   2.939   6.864  0.7829 -0.5787 -0.5724
  174SLPC   H3X19717   4.537   2.934   6.832  0.5689 -1.0767 -1.2475
  174SLPC   H3Y19718   4.405   3.046   6.850  1.1058 -0.2420  1.2132
  174SLPC   C3419719   4.348   2.847   6.781 -0.3338  0.4038  0.0847
  174SLPC   H4X19720   4.239   2.863   6.798 -0.1087  0.9114  1.1229
  174SLPC   H4Y19721   4.359   2.742   6.816  0.4279  0.7477  0.9304
  174SLPC   C3519722   4.385   2.848   6.634 -0.0676  0.4161 -0.6530
  174SLPC   H5X19723   4.474   2.781   6.631  0.9181  1.6122  0.8895
  174SLPC   H5Y19724   4.414   2.950   6.601  3.7328 -0.4734 -0.5300
  174SLPC   C3619725   4.275   2.810   6.531  0.8853  0.7685  0.3629
  174SLPC   H6X19726   4.222   2.903   6.499 -0.7577 -1.0218 -2.4418
  174SLPC   H6Y19727   4.212   2.738   6.588 -0.5318  1.8096  0.1687
  174SLPC   C3719728   4.326   2.752   6.394 -0.4206 -0.7127 -0.3857
  174SLPC   H7X19729   4.390   2.663   6.413  1.0633  0.2483 -0.7199
  174SLPC   H7Y19730   4.378   2.839   6.349 -0.8054  0.0380  0.5806
  174SLPC   C3819731   4.215   2.706   6.302 -0.4000  0.3636  0.4085
  174SLPC   H8X19732   4.131   2.778   6.303 -0.9976 -0.3298  1.0457
  174SLPC   H8Y19733   4.173   2.607   6.329  0.8322 -1.6283 -4.0070
  174SLPC   C3919734   4.258   2.689   6.155 -0.3016 -0.5301 -0.1832
  174SLPC   H9X19735   4.369   2.683   6.150 -0.2717  0.6375 -1.6496
  174SLPC   H9Y19736   4.229   2.779   6.097  0.9704 -1.2916 -2.1173
  174SLPC  C31019737   4.193   2.571   6.076 -0.4074 -0.1538 -0.4196
  174SLPC  H10X19738   4.083   2.586   6.073 -0.1516  2.5394  0.5653
  174SLPC  H10Y19739   4.211   2.481   6.137 -0.0988  1.4388  1.9521
  174SLPC  C31119740   4.232   2.556   5.929 -0.3263 -0.4825  0.1308
  174SLPC  H11X19741   4.342   2.543   5.923 -0.0191  1.6951  0.0479
  174SLPC  H11Y19742   4.215   2.652   5.875  2.1955 -0.8730 -1.5199
  174SLPC  C31219743   4.165   2.430   5.870  0.6377  0.1264 -0.5768
  174SLPC  H12X19744   4.070   2.433   5.928  1.3849 -0.6376  0.7392
  174SLPC  H12Y19745   4.210   2.339   5.914  0.5952 -0.0871 -0.9769
  174SLPC  C31319746   4.144   2.422   5.718 -0.2724 -0.1651  0.3481
  174SLPC  H13X19747   4.237   2.395   5.665 -0.1465  0.1128  0.4280
  174SLPC  H13Y19748   4.130   2.528   5.689 -1.4124 -0.2532  0.5108
  174SLPC  C31419749   4.029   2.332   5.677  0.8524  0.2025  0.2892
  174SLPC  H14X19750   3.933   2.378   5.709  1.3233  1.0406  0.5157
  174SLPC  H14Y19751   4.050   2.236   5.729  0.4087  1.2891  2.6276
  174SLPC  C31519752   4.025   2.310   5.526  0.0352 -0.0874 -0.8005
  174SLPC  H15X19753   4.118   2.256   5.502 -0.9632 -0.8729 -3.2026
  174SLPC  H15Y19754   4.022   2.406   5.471 -2.0798 -0.0747 -0.7743
  174SLPC  C31619755   3.906   2.234   5.473 -0.6434  0.1533 -0.3630
  174SLPC  H16X19756   3.820   2.288   5.518 -0.5543  0.1676 -0.2102
  174SLPC  H16Y19757   3.893   2.133   5.518 -2.7406 -0.5402 -2.3564
  174SLPC  C31719758   3.897   2.236   5.323 -0.2297 -0.2495 -0.4310
  174SLPC  H17X19759   3.976   2.183   5.266 -1.4782 -1.6068 -0.9702
  174SLPC  H17Y19760   3.904   2.343   5.296  2.5541 -0.4888 -0.9305
  174SLPC  C31819761   3.772   2.171   5.267 -0.0461  0.3551  0.4298
  174SLPC  H18X19762   3.770   2.183   5.156  0.9308  0.4303  0.4153
  174SLPC  H18Y19763   3.675   2.215   5.299 -2.5405 -1.8641 -3.1650
  174SLPC  H18Z19764   3.777   2.063   5.291 -1.8641  0.3896  1.1085
  175SLPC     N19765   5.971   6.419   7.233  0.6364 -0.5187 -0.0112
  175SLPC   C1319766   5.902   6.304   7.156 -0.5526  0.1353 -0.4554
  175SLPC  H13A19767   5.923   6.204   7.189  1.4862 -0.1570 -2.3949
  175SLPC  H13B19768   5.796   6.319   7.163 -0.4819  0.1784  0.6917
  175SLPC  H13C19769   5.920   6.299   7.050 -1.6146  0.1854 -0.6450
  175SLPC   C1419770   5.944   6.415   7.378 -0.3829 -0.2521  0.1682
  175SLPC  H14A19771   5.983   6.500   7.431 -3.0150  2.1088 -1.3858
  175SLPC  H14B19772   5.837   6.410   7.395 -0.3996 -0.5413 -0.0012
  175SLPC  H14C19773   5.982   6.321   7.416 -0.0282 -0.3576 -0.4333
  175SLPC   C1519774   5.917   6.549   7.183  0.1514 -1.0751 -0.0914
  175SLPC  H15A19775   5.933   6.563   7.078  1.4648  1.3056  0.3348
  175SLPC  H15B19776   5.813   6.565   7.207  0.1793  0.0877 -0.6951
  175SLPC  H15C19777   5.965   6.639   7.219  0.9192 -0.0085 -3.4321
  175SLPC   C1219778   6.124   6.425   7.213  0.0680 -0.0714 -0.2147
  175SLPC  H12A19779   6.147   6.524   7.250  1.1819 -0.5876  0.5371
  175SLPC  H12B19780   6.148   6.426   7.108 -0.4790  0.4891 -0.3341
  175SLPC   C1119781   6.213   6.320   7.290  0.2957  0.6575 -0.5388
  175SLPC  H11A19782   6.200   6.362   7.392 -3.2563 -0.1727 -0.5201
  175SLPC  H11B19783   6.317   6.321   7.251  1.4763  0.2678  2.3459
  175SLPC     P19784   6.158   6.088   7.399  0.2223  0.1245 -0.6042
  175SLPC   O1319785   6.111   6.150   7.527 -0.1423  0.3835  0.0445
  175SLPC   O1419786   6.077   5.968   7.356 -0.3508  0.0547 -0.0933
  175SLPC   O1219787   6.163   6.190   7.287 -0.0369  0.0014  0.1143
  175SLPC   O1119788   6.310   6.049   7.438  0.5639  0.9602  0.0364
  175SLPC    C119789   6.387   5.968   7.344  0.4345  0.0572  0.1731
  175SLPC    HA19790   6.346   5.866   7.335  1.0473 -0.1696 -0.0954
  175SLPC    HB19791   6.388   6.014   7.243  0.8043 -0.1447  0.0842
  175SLPC    C219792   6.531   5.941   7.401 -0.2317 -0.0497 -0.2362
  175SLPC    HS19793   6.518   5.926   7.510 -1.0958 -0.6973 -0.4113
  175SLPC   O2119794   6.607   6.054   7.363  0.6632  0.1858 -0.1618
  175SLPC   C2119795   6.621   6.153   7.445 -0.6765  0.2353 -0.5192
  175SLPC   O2219796   6.583   6.148   7.557 -0.2841 -0.8197  0.0131
  175SLPC   C2219797   6.701   6.261   7.380  0.9927  0.1414 -0.4159
  175SLPC   H2R19798   6.658   6.358   7.412  2.7636  0.8267  0.0068
  175SLPC   H2S19799   6.799   6.264   7.434 -0.2306  0.2150  1.9345
  175SLPC    C319800   6.592   5.813   7.329  0.6367 -0.2924 -0.0164
  175SLPC    HX19801   6.533   5.727   7.369  1.0538  0.2470  1.8410
  175SLPC    HY19802   6.693   5.792   7.369  0.6629 -2.2555 -0.9573
  175SLPC   O3119803   6.592   5.817   7.189 -0.2376 -0.8487  0.1236
  175SLPC   C3119804   6.707   5.865   7.132 -0.1316 -0.3856 -0.4990
  175SLPC   O3219805   6.804   5.895   7.201 -0.5111 -0.4036  1.3159
  175SLPC   C3219806   6.699   5.885   6.975 -0.1738  0.4376 -0.6277
  175SLPC   H2X19807   6.629   5.805   6.942 -0.6920  1.4424 -2.0436
  175SLPC   H2Y19808   6.806   5.874   6.946 -0.5105  1.7482 -2.5481
  175SLPC   C2319809   6.702   6.261   7.225 -0.0607  0.7433 -0.2968
  175SLPC   H3R19810   6.606   6.276   7.171  0.3479  1.9982 -0.7206
  175SLPC   H3S19811   6.735   6.160   7.194 -0.6235 -0.1427  1.8091
  175SLPC   C2419812   6.791   6.378   7.166 -0.3231  0.4430 -0.1580
  175SLPC   H4R19813   6.900   6.359   7.181  0.4834  2.9425 -2.0617
  175SLPC   H4S19814   6.762   6.464   7.230 -0.2298  0.1470  0.2854
  175SLPC   C2519815   6.764   6.409   7.019 -1.2039 -0.0537 -0.5683
  175SLPC   H5R19816   6.664   6.459   7.018 -0.9231  0.5125 -0.7799
  175SLPC   H5S19817   6.754   6.311   6.967 -0.6572 -0.2818 -0.2447
  175SLPC   C2619818   6.872   6.496   6.950 -0.1633 -0.2896 -1.0781
  175SLPC   H6R19819   6.969   6.460   6.990 -0.1106  1.9415  1.0331
  175SLPC   H6S19820   6.862   6.599   6.991  0.1669 -0.0173 -1.6768
  175SLPC   C2719821   6.886   6.500   6.801  0.1714 -0.0325 -0.4661
  175SLPC   H7R19822   6.791   6.529   6.751 -0.4810 -1.4690 -0.1214
  175SLPC   H7S19823   6.913   6.402   6.755 -0.4618 -0.0496 -0.8105
  175SLPC   C2819824   6.994   6.601   6.753  0.9368  0.7082 -0.8632
  175SLPC   H8R19825   7.093   6.573   6.794  1.1370 -2.7601 -3.2743
  175SLPC   H8S19826   6.972   6.702   6.794  1.9285  0.1660  1.1029
  175SLPC   C2919827   7.018   6.606   6.603 -0.3570 -0.0783 -0.0226
  175SLPC   H9R19828   6.957   6.537   6.543  2.0358 -1.2686 -1.1731
  175SLPC  C21019829   7.106   6.687   6.546 -0.1342 -0.1683 -0.2786
  175SLPC  H10R19830   7.119   6.681   6.437  0.8942  1.3131 -0.2691
  175SLPC  C21119831   7.210   6.770   6.622  0.0326  0.7705  0.4059
  175SLPC  H11R19832   7.206   6.745   6.730 -0.4117 -2.7249 -0.3037
  175SLPC  H11S19833   7.195   6.879   6.602  2.5773  1.2285  0.6568
  175SLPC  C21219834   7.344   6.748   6.565 -0.7740 -0.2311  0.6581
  175SLPC  H12R19835   7.343   6.692   6.471  2.0040  1.9823 -0.8492
  175SLPC  C21319836   7.468   6.782   6.614 -0.3413 -0.3292 -0.5577
  175SLPC  H13R19837   7.561   6.751   6.565 -0.6432 -0.7579 -0.8667
  175SLPC  C21419838   7.490   6.860   6.741 -0.2179  0.8326 -0.1201
  175SLPC  H14R19839   7.527   6.794   6.822  1.9563  1.1917 -0.7695
  175SLPC  H14S19840   7.400   6.903   6.791 -0.5181 -1.2865  1.3124
  175SLPC  C21519841   7.604   6.966   6.709 -0.2635  0.1166 -0.9812
  175SLPC  H15R19842   7.566   7.035   6.631 -2.9835  1.2474  1.1511
  175SLPC  H15S19843   7.694   6.916   6.669  0.3896  0.7328 -0.3338
  175SLPC  C21619844   7.636   7.047   6.836 -0.3306 -0.3771 -0.5884
  175SLPC  H16R19845   7.698   7.128   6.792 -1.2321  1.1099  0.8091
  175SLPC  H16S19846   7.693   6.983   6.907  2.7454  1.5679 -1.1161
  175SLPC  C21719847   7.517   7.108   6.917 -0.3769  0.3111  0.2409
  175SLPC  H17R19848   7.450   7.028   6.954 -0.1732  0.2679  0.5164
  175SLPC  H17S19849   7.457   7.189   6.870 -0.4452 -0.0119 -0.2355
  175SLPC  C21819850   7.587   7.178   7.040 -0.2224 -0.1665 -0.5732
  175SLPC  H18R19851   7.657   7.261   7.021  3.4473 -2.7157  0.6430
  175SLPC  H18S19852   7.658   7.105   7.085 -1.2680 -1.2488 -0.6344
  175SLPC  H18T19853   7.514   7.202   7.121 -0.0940  0.2527 -0.5835
  175SLPC   C3319854   6.639   6.020   6.933  0.1705 -0.1406  0.1946
  175SLPC   H3X19855   6.708   6.105   6.955 -1.8558  1.5845  0.2626
  175SLPC   H3Y19856   6.555   6.046   7.000  0.5909  0.6952  0.4231
  175SLPC   C3419857   6.586   6.031   6.790  0.0873  0.5548 -0.0771
  175SLPC   H4X19858   6.499   5.963   6.779 -0.2049  0.5991  1.6174
  175SLPC   H4Y19859   6.661   5.999   6.715 -1.9555 -0.8065 -1.6416
  175SLPC   C3519860   6.542   6.173   6.753 -0.2246 -0.1767 -0.1987
  175SLPC   H5X19861   6.500   6.223   6.843 -0.8130 -0.2248 -0.4385
  175SLPC   H5Y19862   6.461   6.161   6.678  1.6960 -1.0803 -2.2298
  175SLPC   C3619863   6.648   6.260   6.688  1.3161  0.0806  0.2095
  175SLPC   H6X19864   6.738   6.228   6.745 -0.8314  0.6367  4.2197
  175SLPC   H6Y19865   6.626   6.366   6.711 -0.3781  0.2801 -2.0273
  175SLPC   C3719866   6.664   6.232   6.543 -0.0842  0.1070  1.1694
  175SLPC   H7X19867   6.568   6.252   6.491 -0.1568 -0.4053  1.1077
  175SLPC   H7Y19868   6.698   6.128   6.529  1.4243  0.6613  0.4675
  175SLPC   C3819869   6.763   6.328   6.483 -0.0431 -1.1923  0.8159
  175SLPC   H8X19870   6.848   6.341   6.553  0.6198  0.1627 -0.1966
  175SLPC   H8Y19871   6.716   6.428   6.494  0.4897 -0.9759  1.1460
  175SLPC   C3919872   6.795   6.306   6.333 -0.1415 -0.3321  0.1395
  175SLPC   H9X19873   6.696   6.298   6.284  0.4643  1.2561 -1.4442
  175SLPC   H9Y19874   6.840   6.205   6.321 -0.0562 -0.3291  0.4253
  175SLPC  C31019875   6.877   6.417   6.263  0.8358  0.1579  0.2544
  175SLPC  H10X19876   6.970   6.428   6.323  0.1366 -3.9513  2.4032
  175SLPC  H10Y19877   6.823   6.514   6.273 -0.4244 -0.2523 -1.8596
  175SLPC  C31119878   6.906   6.375   6.112 -0.0217 -0.0131 -0.2224
  175SLPC  H11X19879   6.921   6.265   6.107  0.1531  0.0570 -1.5603
  175SLPC  H11Y19880   7.002   6.422   6.081 -0.6368  1.3427 -0.1746
  175SLPC  C31219881   6.787   6.399   6.024  0.3809 -0.8452 -0.1395
  175SLPC  H12X19882   6.733   6.487   6.067  0.7827 -0.6873  0.0511
  175SLPC  H12Y19883   6.724   6.308   6.022 -0.6493 -0.2079  1.2186
  175SLPC  C31319884   6.814   6.429   5.877 -0.6571 -0.5072 -0.5897
  175SLPC  H13X19885   6.848   6.335   5.828 -1.5134 -1.6285  0.8578
  175SLPC  H13Y19886   6.906   6.489   5.858 -1.9890  1.2433 -1.8205
  175SLPC  C31419887   6.699   6.490   5.802  0.4676  0.2732 -0.1068
  175SLPC  H14X19888   6.682   6.593   5.838 -0.6514  0.1578 -0.2520
  175SLPC  H14Y19889   6.603   6.436   5.822  0.2937  0.8286  0.6009
  175SLPC  C31519890   6.729   6.493   5.656  0.6724 -0.6426  0.4728
  175SLPC  H15X19891   6.652   6.429   5.606  0.9906 -1.7662  1.3808
  175SLPC  H15Y19892   6.821   6.434   5.635  1.8455  1.2449  0.1038
  175SLPC  C31619893   6.726   6.635   5.595  0.2538 -0.3620  0.3771
  175SLPC  H16X19894   6.639   6.689   5.638 -0.0037 -0.0964 -0.4485
  175SLPC  H16Y19895   6.710   6.618   5.486 -3.8028 -1.3159  0.9629
  175SLPC  C31719896   6.838   6.734   5.613  0.3275  0.6124 -0.1175
  175SLPC  H17X19897   6.859   6.741   5.721  0.4980  0.1892 -0.1217
  175SLPC  H17Y19898   6.806   6.835   5.579 -1.0921  0.3833  0.4747
  175SLPC  C31819899   6.955   6.688   5.531 -0.0955 -0.8916 -0.1025
  175SLPC  H18X19900   7.001   6.603   5.584 -1.6057 -0.2989  2.2872
  175SLPC  H18Y19901   7.033   6.766   5.520  2.4378 -3.5164 -2.3197
  175SLPC  H18Z19902   6.928   6.649   5.430 -0.1379 -1.6144  0.1875
  176SLPC     N19903   0.404   5.645   7.679  0.8363  0.1848 -0.0876
  176SLPC   C1319904   0.395   5.788   7.716  0.9199 -0.2490 -0.4799
  176SLPC  H13A19905   0.290   5.810   7.701  0.6522 -2.1417 -1.7534
  176SLPC  H13B19906   0.418   5.806   7.820 -1.1195 -1.4767  0.2411
  176SLPC  H13C19907   0.445   5.859   7.652 -0.3825  1.2037  0.0588
  176SLPC   C1419908   0.301   5.578   7.766 -0.4471  0.4631  0.5892
  176SLPC  H14A19909   0.221   5.534   7.708 -0.5917  1.3396  0.1104
  176SLPC  H14B19910   0.348   5.500   7.824 -2.1652 -1.1946 -0.1576
  176SLPC  H14C19911   0.252   5.638   7.840 -1.8281 -0.7717  0.7132
  176SLPC   C1519912   0.541   5.601   7.731  0.0575 -0.3821  0.4788
  176SLPC  H15A19913   0.618   5.637   7.664 -1.0198  1.9650  0.4021
  176SLPC  H15B19914   0.569   5.627   7.831  3.0688  0.9080 -0.5829
  176SLPC  H15C19915   0.546   5.493   7.729  0.7960 -0.3794  1.5328
  176SLPC   C1219916   0.387   5.621   7.530  0.1372  0.3772 -0.1807
  176SLPC  H12A19917   0.446   5.698   7.483 -0.0242  1.0222  0.6522
  176SLPC  H12B19918   0.289   5.642   7.490  0.4496 -0.7983 -1.6674
  176SLPC   C1119919   0.432   5.481   7.477 -0.3315  0.4608  0.4699
  176SLPC  H11A19920   0.541   5.466   7.487  0.0331  0.7609 -2.2171
  176SLPC  H11B19921   0.414   5.479   7.367  1.1464 -2.6021  0.1977
  176SLPC     P19922   0.372   5.233   7.514 -0.2803  0.5624 -0.1381
  176SLPC   O1319923   0.513   5.200   7.542  0.2772 -0.1931  0.0587
  176SLPC   O1419924   0.269   5.168   7.593 -0.0100  0.1197  0.5276
  176SLPC   O1219925   0.356   5.382   7.535  0.0873 -0.1651  0.6355
  176SLPC   O1119926   0.340   5.197   7.362 -0.4886 -0.1326  0.5729
  176SLPC    C119927   0.216   5.246   7.308 -0.4031  0.2817 -0.0194
  176SLPC    HA19928   0.126   5.197   7.352  0.3856 -1.7288 -0.5056
  176SLPC    HB19929   0.211   5.357   7.310 -1.1196  0.3019 -1.4527
  176SLPC    C219930   0.210   5.210   7.161 -0.1612 -0.5150 -0.4198
  176SLPC    HS19931   0.126   5.259   7.107  0.6336  0.6586 -0.6115
  176SLPC   O2119932   0.185   5.072   7.155 -0.3465 -0.0970  0.2032
  176SLPC   C2119933   0.136   5.030   7.040 -0.1917 -0.5457 -0.0718
  176SLPC   O2219934   0.092   5.107   6.951  0.1385 -0.1219 -0.6330
  176SLPC   C2219935   0.145   4.882   7.038 -0.5136 -0.0890 -0.5437
  176SLPC   H2R19936   0.209   4.843   7.120  0.3714  1.4129 -0.4954
  176SLPC   H2S19937   0.051   4.829   7.065  0.6699 -1.8791  0.2633
  176SLPC    C319938   0.343   5.256   7.089  0.6667 -0.0982  0.2939
  176SLPC    HX19939   0.427   5.211   7.145  1.1376  1.8325  1.2214
  176SLPC    HY19940   0.354   5.366   7.102 -0.8383 -0.1039  2.0996
  176SLPC   O3119941   0.361   5.227   6.951 -0.3465  0.5603 -0.3340
  176SLPC   C3119942   0.285   5.313   6.873  0.8744  0.3054 -0.1459
  176SLPC   O3219943   0.232   5.416   6.911 -0.3834 -0.0035 -0.4006
  176SLPC   C3219944   0.283   5.241   6.736 -0.0852 -0.3880  0.4934
  176SLPC   H2X19945   0.187   5.186   6.729  0.9802 -2.2665 -0.2375
  176SLPC   H2Y19946   0.374   5.177   6.736 -1.2691 -2.3065 -2.7270
  176SLPC   C2319947   0.200   4.823   6.908  1.0528 -0.6566  0.4287
  176SLPC   H3R19948   0.140   4.863   6.823 -1.0872 -0.1744  2.0503
  176SLPC   H3S19949   0.198   4.713   6.924  1.8209 -0.3993  2.5894
  176SLPC   C2419950   0.347   4.872   6.883  0.4637  0.1431  0.4963
  176SLPC   H4R19951   0.417   4.839   6.963  0.0836 -0.7997  0.4484
  176SLPC   H4S19952   0.356   4.983   6.884  0.9751  0.1217 -0.6983
  176SLPC   C2519953   0.405   4.822   6.750 -0.2291 -0.4775  0.7684
  176SLPC   H5R19954   0.373   4.717   6.732  0.2459 -0.2279 -2.0918
  176SLPC   H5S19955   0.516   4.818   6.749 -0.0553  2.0769 -1.4153
  176SLPC   C2619956   0.375   4.905   6.633  1.0168 -0.9833 -0.5709
  176SLPC   H6R19957   0.450   4.985   6.616  0.7611 -0.6053  0.0422
  176SLPC   H6S19958   0.272   4.946   6.640  1.3463 -0.1019 -0.7372
  176SLPC   C2719959   0.395   4.822   6.509 -0.0540  0.2134  0.0640
  176SLPC   H7R19960   0.311   4.749   6.516 -0.6420  0.9801  1.6029
  176SLPC   H7S19961   0.488   4.763   6.509 -0.3342 -0.3067 -1.9649
  176SLPC   C2819962   0.376   4.890   6.374 -0.2907 -0.1375 -0.2382
  176SLPC   H8R19963   0.279   4.944   6.377 -0.1197  0.1669 -0.0928
  176SLPC   H8S19964   0.358   4.816   6.294  3.7402 -0.5105 -1.0139
  176SLPC   C2919965   0.491   4.984   6.335  0.2161  0.3665  0.1089
  176SLPC   H9R19966   0.518   5.046   6.421 -0.7965  0.8196  0.1237
  176SLPC  C21019967   0.558   4.991   6.220 -0.2441  0.1131  0.4575
  176SLPC  H10R19968   0.640   5.063   6.212  0.0480 -0.1653  0.9070
  176SLPC  C21119969   0.525   4.910   6.094 -0.0550 -0.2416  0.5315
  176SLPC  H11R19970   0.415   4.894   6.086 -0.1725  0.8160 -0.1651
  176SLPC  H11S19971   0.576   4.812   6.108 -0.1260 -0.0762  2.1040
  176SLPC  C21219972   0.585   4.972   5.964  0.6901 -0.3184 -0.7500
  176SLPC  H12R19973   0.694   4.987   5.961  0.5678  1.6890  1.4264
  176SLPC  C21319974   0.515   5.004   5.856 -0.0930  0.4885 -0.4823
  176SLPC  H13R19975   0.581   5.042   5.776  2.2022  0.1738  1.1663
  176SLPC  C21419976   0.367   5.000   5.836 -0.2429  0.7646 -0.0997
  176SLPC  H14R19977   0.337   5.087   5.774  1.3379  0.9620 -0.6453
  176SLPC  H14S19978   0.316   5.008   5.935 -1.4833  1.4850 -0.7746
  176SLPC  C21519979   0.330   4.867   5.767  0.3252 -0.0927 -0.2499
  176SLPC  H15R19980   0.221   4.877   5.752  0.5782 -0.4429 -2.7988
  176SLPC  H15S19981   0.347   4.787   5.842 -1.7320 -0.4360 -0.0881
  176SLPC  C21619982   0.413   4.826   5.650  0.2569 -1.1472  0.6289
  176SLPC  H16R19983   0.505   4.779   5.692  1.1005 -2.2310 -2.2420
  176SLPC  H16S19984   0.433   4.916   5.588 -0.8046 -0.9385  0.5667
  176SLPC  C21719985   0.348   4.725   5.555 -0.2587  0.6039 -0.0909
  176SLPC  H17R19986   0.410   4.728   5.462  1.6624  1.9498  1.1419
  176SLPC  H17S19987   0.245   4.763   5.540 -0.7541  0.4178  2.4523
  176SLPC  C21819988   0.352   4.575   5.607 -0.7081 -0.0440 -0.3786
  176SLPC  H18R19989   0.454   4.539   5.630  0.1562  2.0219 -0.7324
  176SLPC  H18S19990   0.315   4.515   5.522 -2.1651  1.1734 -0.6624
  176SLPC  H18T19991   0.290   4.571   5.700 -0.2082  0.4658 -0.0167
  176SLPC   C3319992   0.287   5.328   6.603  0.3935  0.2854 -0.3070
  176SLPC   H3X19993   0.366   5.403   6.623  0.3064  0.2794  0.0688
  176SLPC   H3Y19994   0.193   5.388   6.598  0.3594  0.2774  0.2006
  176SLPC   C3419995   0.312   5.259   6.468  0.1299 -0.2446 -0.4196
  176SLPC   H4X19996   0.242   5.175   6.446 -1.4495  1.2650 -1.3661
  176SLPC   H4Y19997   0.418   5.226   6.467 -0.4462 -2.4439 -3.1414
  176SLPC   C3519998   0.315   5.365   6.360  0.1851 -0.5747 -0.5081
  176SLPC   H5X19999   0.376   5.447   6.402  0.6198 -0.7780 -0.7365
  176SLPC   H5Y20000   0.213   5.409   6.362  0.8673  1.1040 -1.0190
  176SLPC   C3620001   0.364   5.324   6.223  0.0905  0.6219 -0.2818
  176SLPC   H6X20002   0.307   5.239   6.180  0.4578  0.6991 -0.9390
  176SLPC   H6Y20003   0.471   5.296   6.215 -0.1922  0.0658 -3.1902
  176SLPC   C3720004   0.360   5.449   6.126  0.8331 -0.0221 -0.0283
  176SLPC   H7X20005   0.423   5.526   6.175 -1.1987  0.1627  2.4901
  176SLPC   H7Y20006   0.259   5.495   6.125  0.1712 -1.4387 -0.8923
  176SLPC   C3820007   0.416   5.419   5.991  0.1430  0.5775 -0.0536
  176SLPC   H8X20008   0.370   5.322   5.963  0.8726  0.4625 -0.8982
  176SLPC   H8Y20009   0.525   5.397   5.996  0.0105 -0.2568 -0.7844
  176SLPC   C3920010   0.377   5.521   5.889 -0.4581 -0.3547  0.2144
  176SLPC   H9X20011   0.388   5.626   5.924  1.0029 -1.1473  2.3539
  176SLPC   H9Y20012   0.267   5.514   5.878 -0.6730  0.9303  1.2643
  176SLPC  C31020013   0.457   5.489   5.763 -0.4544 -0.5327 -0.9189
  176SLPC  H10X20014   0.560   5.509   5.800 -1.4755  0.3977  1.5997
  176SLPC  H10Y20015   0.418   5.564   5.691 -0.4942  1.1398  0.7897
  176SLPC  C31120016   0.446   5.349   5.710  0.3189 -0.3304  0.9956
  176SLPC  H11X20017   0.340   5.320   5.724 -0.4593 -0.4606 -3.4890
  176SLPC  H11Y20018   0.511   5.280   5.768  1.3625 -1.4835 -1.3681
  176SLPC  C31220019   0.493   5.330   5.559 -0.0522 -0.8096  0.3592
  176SLPC  H12X20020   0.603   5.331   5.540 -0.2068 -0.7136 -0.6155
  176SLPC  H12Y20021   0.448   5.409   5.494 -1.2388 -1.4145  0.4283
  176SLPC  C31320022   0.433   5.205   5.499 -0.0821 -0.0007  0.2970
  176SLPC  H13X20023   0.323   5.207   5.512 -0.2449  1.3365 -1.0880
  176SLPC  H13Y20024   0.484   5.121   5.551 -0.2627 -2.7143 -3.5069
  176SLPC  C31420025   0.453   5.193   5.345  0.2005  0.1375 -0.4726
  176SLPC  H14X20026   0.554   5.210   5.302  0.7756 -1.1625  0.2984
  176SLPC  H14Y20027   0.397   5.279   5.305  1.9954  1.5902 -0.0006
  176SLPC  C31520028   0.406   5.052   5.309 -0.2515 -0.4170  0.3538
  176SLPC  H15X20029   0.303   5.025   5.344 -0.5338 -0.6328 -0.6185
  176SLPC  H15Y20030   0.475   4.984   5.363  1.0254  0.3585 -0.2624
  176SLPC  C31620031   0.405   5.031   5.158 -0.1631  0.0795 -0.7737
  176SLPC  H16X20032   0.333   5.097   5.105 -2.4019  0.8362  2.8447
  176SLPC  H16Y20033   0.372   4.926   5.144 -0.3426 -0.0473  0.4915
  176SLPC  C31720034   0.538   5.041   5.087  0.2390  0.1445 -0.0001
  176SLPC  H17X20035   0.563   5.149   5.076  1.0940  0.0252  0.6082
  176SLPC  H17Y20036   0.507   5.013   4.984  0.2622  0.2013 -0.0225
  176SLPC  C31820037   0.658   4.964   5.140 -0.4028 -0.1445  0.6789
  176SLPC  H18X20038   0.704   5.021   5.223 -0.1680 -0.2016  0.5871
  176SLPC  H18Y20039   0.733   4.956   5.058 -2.3219  4.5439 -1.9715
  176SLPC  H18Z20040   0.635   4.859   5.168  1.4328 -0.8335 -0.2716
  177SLPC     N20041   6.595   5.036   7.431  0.4456 -0.4307  0.1749
  177SLPC   C1320042   6.679   5.141   7.491  0.9408  0.1792  0.3767
  177SLPC  H13A20043   6.613   5.215   7.534 -0.9851  0.7988 -3.2292
  177SLPC  H13B20044   6.758   5.105   7.556  1.1780  1.4287  0.7984
  177SLPC  H13C20045   6.710   5.193   7.402  1.0238  1.2399  1.0016
  177SLPC   C1420046   6.504   4.980   7.534 -0.0530  0.2244  0.5241
  177SLPC  H14A20047   6.560   4.961   7.625  0.4063 -3.8898 -0.4102
  177SLPC  H14B20048   6.430   5.054   7.558 -1.2036 -1.0778  1.1514
  177SLPC  H14C20049   6.458   4.896   7.485  0.4065  2.0079 -3.2465
  177SLPC   C1520050   6.679   4.924   7.383  0.4860  0.3089  0.4387
  177SLPC  H15A20051   6.739   4.966   7.303 -0.3442 -0.7665 -0.7835
  177SLPC  H15B20052   6.722   4.861   7.459 -0.4194 -2.2496 -1.0625
  177SLPC  H15C20053   6.619   4.846   7.339  1.8582  0.7974 -2.5378
  177SLPC   C1220054   6.512   5.086   7.311 -0.0505 -0.2341 -0.5609
  177SLPC  H12A20055   6.451   5.169   7.344  0.0067 -0.4540  0.1056
  177SLPC  H12B20056   6.456   5.002   7.275 -2.0003  0.1100  1.4728
  177SLPC   C1120057   6.589   5.142   7.190  0.8061  0.5218 -0.0446
  177SLPC  H11A20058   6.514   5.159   7.110  0.5446 -2.3372 -0.5168
  177SLPC  H11B20059   6.664   5.076   7.140 -2.3830 -1.9340 -2.0270
  177SLPC     P20060   6.595   5.404   7.270  0.5722  0.1327  0.2106
  177SLPC   O1320061   6.462   5.386   7.338  0.5969 -0.2517  0.3772
  177SLPC   O1420062   6.702   5.475   7.348  0.3657 -0.3351 -0.1703
  177SLPC   O1220063   6.654   5.262   7.226 -0.4502 -0.0382  0.3491
  177SLPC   O1120064   6.571   5.470   7.125  0.1631  0.6685 -0.4132
  177SLPC    C120065   6.637   5.405   7.015  0.3745  0.2818  0.0445
  177SLPC    HA20066   6.746   5.424   7.030  0.1222  1.2752  0.6575
  177SLPC    HB20067   6.616   5.297   6.997 -0.2477  0.7035 -1.9638
  177SLPC    C220068   6.600   5.479   6.887  0.6796  0.0772 -1.1131
  177SLPC    HS20069   6.599   5.585   6.918 -2.4083 -0.2554  0.3472
  177SLPC   O2120070   6.472   5.440   6.847 -0.2389 -0.2364 -0.0471
  177SLPC   C2120071   6.386   5.540   6.824  0.9192  0.2988  0.2550
  177SLPC   O2220072   6.405   5.661   6.835 -0.4645  0.2159  0.3289
  177SLPC   C2220073   6.253   5.483   6.770 -0.6377 -0.1101 -0.4579
  177SLPC   H2R20074   6.234   5.389   6.827  0.8887 -0.2847 -0.1820
  177SLPC   H2S20075   6.176   5.562   6.767 -0.8297 -0.2330  0.7799
  177SLPC    C320076   6.701   5.445   6.775 -0.0727 -0.2911 -0.2848
  177SLPC    HX20077   6.700   5.335   6.758 -1.0549 -0.2343 -0.6677
  177SLPC    HY20078   6.805   5.460   6.813 -0.1440  0.1681 -0.2596
  177SLPC   O3120079   6.671   5.516   6.652  0.1363 -0.4960 -0.2466
  177SLPC   C3120080   6.727   5.636   6.640 -0.0180 -0.2883  0.6637
  177SLPC   O3220081   6.796   5.693   6.721 -0.5237  0.1177  0.1202
  177SLPC   C3220082   6.673   5.686   6.509 -0.6576 -0.0794 -0.2050
  177SLPC   H2X20083   6.632   5.784   6.540  0.8561 -0.1631  2.3406
  177SLPC   H2Y20084   6.606   5.611   6.462 -1.4944  0.8496 -0.5402
  177SLPC   C2320085   6.269   5.430   6.626 -0.1644  0.1831  0.7484
  177SLPC   H3R20086   6.182   5.362   6.613  0.6989 -0.8807  0.4399
  177SLPC   H3S20087   6.360   5.367   6.629  0.1688  0.6823  2.7463
  177SLPC   C2420088   6.277   5.534   6.511  0.1683 -1.1191  0.2422
  177SLPC   H4R20089   6.334   5.627   6.535 -1.0545  0.4132 -2.2712
  177SLPC   H4S20090   6.179   5.582   6.486  1.5505  0.6239 -2.2878
  177SLPC   C2520091   6.322   5.486   6.377 -0.4653  0.1835 -0.7362
  177SLPC   H5R20092   6.237   5.421   6.345 -0.6518  1.2878 -2.6395
  177SLPC   H5S20093   6.407   5.417   6.395 -0.9529 -0.2571 -0.0240
  177SLPC   C2620094   6.351   5.594   6.281 -0.2559  0.6167  0.1381
  177SLPC   H6R20095   6.428   5.664   6.319  0.2367  0.5803 -0.7747
  177SLPC   H6S20096   6.259   5.653   6.261  0.2603  1.6594  0.7672
  177SLPC   C2720097   6.404   5.531   6.145 -0.2057  0.1886 -0.5320
  177SLPC   H7R20098   6.310   5.505   6.092 -0.4233 -2.7325  1.0746
  177SLPC   H7S20099   6.453   5.434   6.169 -1.5375 -1.1282 -2.7822
  177SLPC   C2820100   6.494   5.625   6.069 -0.2971  0.0967  0.1563
  177SLPC   H8R20101   6.584   5.647   6.129  0.8297 -0.8275 -1.1268
  177SLPC   H8S20102   6.433   5.718   6.064 -3.0537 -1.5898  0.1347
  177SLPC   C2920103   6.539   5.564   5.934  0.0741  0.0971 -0.5730
  177SLPC   H9R20104   6.576   5.460   5.933  1.2805  0.4873 -2.2692
  177SLPC  C21020105   6.510   5.619   5.817  0.1078  0.1924  0.5062
  177SLPC  H10R20106   6.549   5.573   5.725 -1.4174  2.7369 -1.5482
  177SLPC  C21120107   6.430   5.745   5.783  0.1201 -0.4396 -0.1471
  177SLPC  H11R20108   6.512   5.819   5.789  0.5587 -0.9104 -0.2844
  177SLPC  H11S20109   6.357   5.783   5.858 -0.0130  1.0596 -0.9901
  177SLPC  C21220110   6.375   5.731   5.642 -0.2038  0.1385  0.1899
  177SLPC  H12R20111   6.319   5.637   5.629 -2.2427  1.3094  0.1501
  177SLPC  C21320112   6.379   5.812   5.537 -0.1251 -0.5701  0.2400
  177SLPC  H13R20113   6.310   5.788   5.455 -0.3477 -2.0872  0.8355
  177SLPC  C21420114   6.437   5.954   5.543 -0.4218 -0.0133  0.6071
  177SLPC  H14R20115   6.459   5.980   5.648  0.7369 -1.9363  0.8990
  177SLPC  H14S20116   6.361   6.026   5.506 -0.2335  1.6936  3.2826
  177SLPC  C21520117   6.579   5.964   5.464 -0.3260 -0.0051 -0.0281
  177SLPC  H15R20118   6.580   5.927   5.360  1.2594 -0.0006 -0.0392
  177SLPC  H15S20119   6.656   5.906   5.520  0.4714  1.8097  0.8555
  177SLPC  C21620120   6.614   6.111   5.452 -0.3479  0.1189  0.4887
  177SLPC  H16R20121   6.623   6.157   5.553 -0.2286 -0.5217  0.7725
  177SLPC  H16S20122   6.531   6.167   5.404  0.3986  0.7465 -0.1004
  177SLPC  C21720123   6.742   6.145   5.365 -0.5076 -0.1007 -0.2207
  177SLPC  H17R20124   6.767   6.253   5.374  0.4614 -0.2660 -0.7797
  177SLPC  H17S20125   6.717   6.125   5.259 -1.3551 -0.8020  0.0916
  177SLPC  C21820126   6.874   6.060   5.399  0.1285 -0.5817 -0.2708
  177SLPC  H18R20127   6.897   6.070   5.508 -1.2652  3.0436 -0.1728
  177SLPC  H18S20128   6.969   6.098   5.355  0.4028 -1.9955 -0.9579
  177SLPC  H18T20129   6.873   5.951   5.378 -0.0175 -0.3470 -1.5074
  177SLPC   C3320130   6.784   5.711   6.406  0.0692 -0.3645 -0.0090
  177SLPC   H3X20131   6.794   5.617   6.347  3.2883  0.3646 -0.7954
  177SLPC   H3Y20132   6.888   5.731   6.441 -0.0653  2.5670 -1.0473
  177SLPC   C3420133   6.756   5.828   6.307  0.0557 -0.4846  0.3562
  177SLPC   H4X20134   6.717   5.924   6.346  4.2751  2.1185 -1.1256
  177SLPC   H4Y20135   6.669   5.792   6.247 -0.5737  0.0237  0.9533
  177SLPC   C3520136   6.881   5.862   6.234 -0.5143  0.0082  0.0621
  177SLPC   H5X20137   6.934   5.765   6.222 -1.9818 -0.9079  0.6560
  177SLPC   H5Y20138   6.950   5.926   6.293 -2.5987  1.0772  1.5013
  177SLPC   C3620139   6.844   5.924   6.100  1.4580 -0.2321  0.4970
  177SLPC   H6X20140   6.805   6.028   6.109  0.8051 -0.2935 -1.3087
  177SLPC   H6Y20141   6.763   5.859   6.060 -0.4826  1.1135  2.0107
  177SLPC   C3720142   6.951   5.930   5.983  0.9103  0.9970  0.1591
  177SLPC   H7X20143   6.997   5.830   5.969  2.3396  1.3081  2.1404
  177SLPC   H7Y20144   7.039   5.988   6.017  0.9313 -0.0082  1.9682
  177SLPC   C3820145   6.889   5.975   5.853 -0.9682  0.5507 -0.2350
  177SLPC   H8X20146   6.962   6.028   5.789  0.5760  0.1099  1.0961
  177SLPC   H8Y20147   6.807   6.044   5.883  0.7257  1.2434  3.2413
  177SLPC   C3920148   6.832   5.860   5.776 -0.7326  0.0079  0.0943
  177SLPC   H9X20149   6.749   5.901   5.713 -1.4389  1.2208  1.7580
  177SLPC   H9Y20150   6.780   5.785   5.839 -0.2964 -1.9419 -1.7300
  177SLPC  C31020151   6.937   5.796   5.684  0.0027 -0.1196  0.9749
  177SLPC  H10X20152   7.028   5.783   5.746 -0.7201 -3.2857  1.5556
  177SLPC  H10Y20153   6.955   5.865   5.599 -0.5314 -2.8328 -1.5099
  177SLPC  C31120154   6.890   5.667   5.604  0.4437 -0.8971  0.0350
  177SLPC  H11X20155   6.783   5.683   5.577  0.3758 -0.3887  0.5841
  177SLPC  H11Y20156   6.885   5.577   5.669 -1.0383 -1.6509 -1.0669
  177SLPC  C31220157   6.964   5.637   5.475 -0.1105 -0.0088  0.6297
  177SLPC  H12X20158   7.065   5.596   5.500  0.1440 -1.7616 -2.6430
  177SLPC  H12Y20159   6.975   5.727   5.411  0.4188 -2.1768 -2.5946
  177SLPC  C31320160   6.902   5.527   5.389  0.0539  0.1117  0.0586
  177SLPC  H13X20161   6.908   5.432   5.446  0.7914 -0.1176 -0.4006
  177SLPC  H13Y20162   6.954   5.502   5.295 -1.8359 -1.1554 -0.7046
  177SLPC  C31420163   6.755   5.555   5.342  0.4267  0.0931 -0.1248
  177SLPC  H14X20164   6.755   5.655   5.293  0.0146  0.3337  0.3657
  177SLPC  H14Y20165   6.694   5.566   5.434 -0.7426  2.2486 -1.0828
  177SLPC  C31520166   6.698   5.447   5.252  0.0953 -0.9523  0.5010
  177SLPC  H15X20167   6.594   5.477   5.226  0.0776 -0.3346  1.2502
  177SLPC  H15Y20168   6.698   5.350   5.306 -1.5011 -0.8595  0.7042
  177SLPC  C31620169   6.764   5.405   5.121 -0.5528  0.7750  0.3493
  177SLPC  H16X20170   6.833   5.322   5.146 -0.1359  1.7638  2.7219
  177SLPC  H16Y20171   6.833   5.479   5.073  2.1904 -2.8600 -1.9250
  177SLPC  C31720172   6.662   5.360   5.012 -0.1135  0.5344 -0.3140
  177SLPC  H17X20173   6.586   5.440   4.997 -2.6376 -1.1392  2.3879
  177SLPC  H17Y20174   6.591   5.292   5.064 -2.0738  1.4982 -1.6231
  177SLPC  C31820175   6.715   5.285   4.890 -0.2028 -0.0504 -0.6961
  177SLPC  H18X20176   6.803   5.226   4.924  0.2306  1.2126  0.4458
  177SLPC  H18Y20177   6.746   5.354   4.809 -0.5699 -0.9778 -1.6557
  177SLPC  H18Z20178   6.652   5.201   4.855 -1.3077 -0.2526  1.6141
  178SLPC     N20179   6.183   3.271   7.577 -0.3389  0.2288  0.5724
  178SLPC   C1320180   6.239   3.406   7.561  0.6519  0.2502 -0.2253
  178SLPC  H13A20181   6.346   3.418   7.563  0.7337 -0.4540  0.1931
  178SLPC  H13B20182   6.205   3.455   7.472 -0.5285  1.2924  0.7557
  178SLPC  H13C20183   6.203   3.461   7.647 -0.0768 -0.4023 -0.0933
  178SLPC   C1420184   6.038   3.279   7.542 -0.2194  0.0279 -0.2403
  178SLPC  H14A20185   5.999   3.178   7.548  1.8005 -0.7525  0.6252
  178SLPC  H14B20186   5.990   3.340   7.616  0.2022  0.6309 -0.4550
  178SLPC  H14C20187   6.025   3.319   7.443  2.6197 -1.9795 -1.5827
  178SLPC   C1520188   6.190   3.232   7.721  0.3752  0.1503 -0.2561
  178SLPC  H15A20189   6.138   3.301   7.785 -3.1022 -1.1165 -1.4790
  178SLPC  H15B20190   6.128   3.146   7.741 -0.0631 -0.1075 -2.4825
  178SLPC  H15C20191   6.292   3.219   7.754  0.1069  1.2864  1.1205
  178SLPC   C1220192   6.259   3.173   7.487  0.3510 -0.0282  0.1666
  178SLPC  H12A20193   6.363   3.172   7.517 -0.1809  1.0639  2.1984
  178SLPC  H12B20194   6.255   3.222   7.391 -0.3490 -2.3000 -1.0302
  178SLPC   C1120195   6.201   3.034   7.458 -0.7204  0.3192 -0.1280
  178SLPC  H11A20196   6.273   2.975   7.397 -2.6521 -1.9463 -0.3595
  178SLPC  H11B20197   6.116   3.062   7.393 -0.1328 -2.0406 -2.0846
  178SLPC     P20198   6.019   2.888   7.584 -0.1182 -0.4567 -0.1903
  178SLPC   O1320199   6.034   2.749   7.639  0.3563  0.5746  0.0098
  178SLPC   O1420200   5.923   2.975   7.657 -0.8487 -0.0167 -0.3524
  178SLPC   O1220201   6.163   2.955   7.572  0.3560  0.5594 -0.1848
  178SLPC   O1120202   5.960   2.878   7.435  0.9484 -0.5246 -0.0503
  178SLPC    C120203   5.820   2.895   7.426 -0.3560 -0.0360  0.0566
  178SLPC    HA20204   5.762   2.820   7.486  2.1340 -1.3579  0.9334
  178SLPC    HB20205   5.789   2.998   7.455 -2.6462 -0.2055 -1.4910
  178SLPC    C220206   5.773   2.869   7.284 -0.5602 -0.0455  0.7044
  178SLPC    HS20207   5.776   2.763   7.253 -1.8960  0.9274 -3.4177
  178SLPC   O2120208   5.848   2.951   7.187 -0.6784  0.6617  0.2238
  178SLPC   C2120209   5.961   2.889   7.161  0.6305  0.0830  0.2933
  178SLPC   O2220210   5.998   2.774   7.179  0.4014  0.0207  0.3348
  178SLPC   C2220211   6.058   2.986   7.087  0.0868  0.8284 -0.4398
  178SLPC   H2R20212   6.078   3.066   7.161 -0.6657  1.7852 -1.2477
  178SLPC   H2S20213   6.156   2.941   7.059  1.9508  3.6750  1.0431
  178SLPC    C320214   5.627   2.910   7.271  0.2038 -0.6242  0.4720
  178SLPC    HX20215   5.607   3.016   7.297  0.6419 -0.2231 -0.7752
  178SLPC    HY20216   5.568   2.854   7.346  1.9844  0.7912  3.0912
  178SLPC   O3120217   5.579   2.889   7.134 -0.1323 -0.2368 -0.7001
  178SLPC   C3120218   5.499   2.788   7.117  0.2098  0.2906 -0.8982
  178SLPC   O3220219   5.473   2.698   7.200  0.3194 -0.7000 -0.0756
  178SLPC   C3220220   5.449   2.782   6.978 -0.4016  0.1165 -0.1375
  178SLPC   H2X20221   5.406   2.880   6.947  0.0825 -0.4439 -2.8414
  178SLPC   H2Y20222   5.372   2.702   6.967 -0.0136 -0.1744 -0.8020
  178SLPC   C2320223   5.996   3.041   6.965  0.5952  0.0613  0.3008
  178SLPC   H3R20224   6.051   3.120   6.909  2.1778 -2.3283 -1.7000
  178SLPC   H3S20225   5.894   3.085   6.972  0.6527  0.2032  0.2566
  178SLPC   C2420226   5.988   2.933   6.854 -0.3296 -1.2221  0.1876
  178SLPC   H4R20227   5.930   2.845   6.891 -0.6341 -0.4600  1.5963
  178SLPC   H4S20228   6.092   2.895   6.841 -0.0331 -0.8602  1.4225
  178SLPC   C2520229   5.933   2.980   6.713  0.1056 -1.0463 -0.0318
  178SLPC   H5R20230   5.955   3.089   6.707  1.0829 -1.2768 -0.8994
  178SLPC   H5S20231   5.823   2.967   6.701 -0.3687  1.8843  0.3432
  178SLPC   C2620232   6.008   2.918   6.590  0.2519  0.6989  0.1293
  178SLPC   H6R20233   6.029   2.810   6.604  2.1788  0.8452 -1.1865
  178SLPC   H6S20234   6.111   2.960   6.599 -0.1387  1.4677  1.2520
  178SLPC   C2720235   5.945   2.936   6.451 -0.2720 -0.1159  0.2925
  178SLPC   H7R20236   5.844   2.888   6.457 -0.6966  0.5681 -0.9392
  178SLPC   H7S20237   6.002   2.877   6.376  1.9886  0.7342  1.2616
  178SLPC   C2820238   5.926   3.082   6.407 -0.2528 -0.1406 -0.8360
  178SLPC   H8R20239   5.870   3.135   6.487  1.5620 -0.7327  0.9274
  178SLPC   H8S20240   5.868   3.079   6.312 -0.9013  3.2944 -0.7097
  178SLPC   C2920241   6.064   3.153   6.375  0.5090  0.4484  0.0773
  178SLPC   H9R20242   6.121   3.189   6.462  2.4123 -2.7905  0.3230
  178SLPC  C21020243   6.127   3.164   6.257 -0.8824  0.0395 -1.2046
  178SLPC  H10R20244   6.230   3.201   6.263 -1.6858  2.4000 -1.1107
  178SLPC  C21120245   6.081   3.101   6.124 -0.0717  0.3467 -0.0125
  178SLPC  H11R20246   6.037   2.999   6.131 -2.1970  1.1004 -1.1619
  178SLPC  H11S20247   6.176   3.094   6.067 -0.2842  2.2622 -0.6732
  178SLPC  C21220248   5.982   3.191   6.057 -0.6770 -0.5199  0.4424
  178SLPC  H12R20249   5.925   3.255   6.126  1.9666 -0.4741  2.7799
  178SLPC  C21320250   5.953   3.196   5.924 -1.0309 -0.3120 -0.2986
  178SLPC  H13R20251   5.883   3.273   5.890 -1.8959 -1.1970 -0.5446
  178SLPC  C21420252   6.018   3.120   5.820  0.1747 -0.0222 -0.3114
  178SLPC  H14R20253   5.928   3.062   5.792 -1.3660  1.5005  1.2884
  178SLPC  H14S20254   6.092   3.040   5.841  0.9502 -0.3006 -3.5668
  178SLPC  C21520255   6.077   3.199   5.701 -0.2367 -0.4643 -0.2725
  178SLPC  H15R20256   6.004   3.268   5.655 -3.1343 -1.4744  2.4454
  178SLPC  H15S20257   6.108   3.128   5.622 -0.4168 -1.0761  0.1995
  178SLPC  C21620258   6.215   3.272   5.736  0.1205  0.4919  0.0528
  178SLPC  H16R20259   6.209   3.332   5.829  2.9807  2.1249 -0.6703
  178SLPC  H16S20260   6.234   3.342   5.651  1.2756 -0.2972 -0.3630
  178SLPC  C21720261   6.334   3.173   5.758 -0.3091  0.2538  0.3973
  178SLPC  H17R20262   6.300   3.069   5.775  1.9466 -1.0133 -2.1150
  178SLPC  H17S20263   6.388   3.206   5.849 -1.4498 -0.5299  1.3924
  178SLPC  C21820264   6.431   3.179   5.639  0.2151  0.1522  0.1474
  178SLPC  H18R20265   6.382   3.142   5.546  1.4129 -0.2105 -0.3702
  178SLPC  H18S20266   6.515   3.106   5.646 -0.5334 -1.2475 -3.2589
  178SLPC  H18T20267   6.471   3.279   5.611  0.8380 -1.0842 -4.2036
  178SLPC   C3320268   5.563   2.733   6.882 -0.2238 -0.0678 -0.5312
  178SLPC   H3X20269   5.602   2.630   6.899 -0.1696  0.3251  2.0208
  178SLPC   H3Y20270   5.651   2.801   6.884  0.2200 -0.6337 -0.2943
  178SLPC   C3420271   5.517   2.737   6.734 -0.2666  0.4819 -0.6298
  178SLPC   H4X20272   5.417   2.693   6.715 -0.5055  1.2027 -1.0703
  178SLPC   H4Y20273   5.595   2.689   6.670 -0.7687 -1.5245  0.1625
  178SLPC   C3520274   5.517   2.885   6.681 -0.6202  0.9176  0.4178
  178SLPC   H5X20275   5.615   2.928   6.711  0.2599  0.4628 -1.5878
  178SLPC   H5Y20276   5.435   2.939   6.733 -1.0264  0.0512  0.7023
  178SLPC   C3620277   5.509   2.903   6.530  0.0856 -0.3561  0.5871
  178SLPC   H6X20278   5.409   2.873   6.492 -0.2303 -0.5065  1.5130
  178SLPC   H6Y20279   5.587   2.845   6.476 -1.0522 -2.7962  1.4326
  178SLPC   C3720280   5.535   3.051   6.496 -0.1420  0.2807 -0.0173
  178SLPC   H7X20281   5.635   3.084   6.530  0.6750  0.9448 -2.7899
  178SLPC   H7Y20282   5.458   3.113   6.547  0.3999  1.0535 -0.1156
  178SLPC   C3820283   5.529   3.088   6.343  0.1843  0.3791 -0.0959
  178SLPC   H8X20284   5.624   3.069   6.290  0.5204 -1.4780  1.0758
  178SLPC   H8Y20285   5.525   3.199   6.340 -2.3140  0.6203  3.7575
  178SLPC   C3920286   5.416   3.020   6.264 -0.0041 -0.0832  0.4736
  178SLPC   H9X20287   5.317   3.044   6.308 -0.4707 -2.1168  0.6352
  178SLPC   H9Y20288   5.426   2.909   6.263 -0.3777 -0.1154 -0.5290
  178SLPC  C31020289   5.417   3.078   6.123 -0.5514  0.0318 -0.4409
  178SLPC  H10X20290   5.509   3.050   6.068  0.4551 -1.9110  2.0542
  178SLPC  H10Y20291   5.408   3.188   6.127 -0.8627 -0.0070 -0.0061
  178SLPC  C31120292   5.304   3.014   6.042  0.2721 -0.0700 -0.2458
  178SLPC  H11X20293   5.206   3.031   6.091  0.9217  1.5463  0.5746
  178SLPC  H11Y20294   5.318   2.904   6.044  0.7858 -0.0001  0.4976
  178SLPC  C31220295   5.308   3.048   5.895  0.3797  0.0049  0.2668
  178SLPC  H12X20296   5.406   3.027   5.848  0.0130 -1.4362  0.0936
  178SLPC  H12Y20297   5.274   3.151   5.871  1.5296  0.2717 -0.2419
  178SLPC  C31320298   5.194   2.971   5.821  0.2960 -0.4510  0.5018
  178SLPC  H13X20299   5.098   2.997   5.870  0.2182 -1.9810  1.2015
  178SLPC  H13Y20300   5.211   2.862   5.829  0.2845 -0.3983  1.3372
  178SLPC  C31420301   5.187   3.015   5.672 -0.2422 -0.3167  0.7592
  178SLPC  H14X20302   5.288   3.024   5.627 -1.0036 -2.6413 -1.6286
  178SLPC  H14Y20303   5.132   3.112   5.672  0.0700 -0.0709 -1.6995
  178SLPC  C31520304   5.118   2.922   5.578  0.5753  0.1658 -0.2902
  178SLPC  H15X20305   5.040   2.882   5.646  0.6122 -0.4493 -0.5984
  178SLPC  H15Y20306   5.174   2.829   5.553 -0.1621 -0.5117  0.5125
  178SLPC  C31620307   5.056   2.984   5.455  0.5777  0.1156  0.0598
  178SLPC  H16X20308   4.996   3.069   5.495  1.1020  2.6557 -3.9347
  178SLPC  H16Y20309   5.003   2.901   5.405  0.3860  1.3391 -1.8642
  178SLPC  C31720310   5.158   3.048   5.360  0.1403  0.3845 -0.4536
  178SLPC  H17X20311   5.215   2.961   5.321 -1.2784 -0.6028 -0.3675
  178SLPC  H17Y20312   5.220   3.116   5.423 -0.7132  0.1206  0.7007
  178SLPC  C31820313   5.093   3.113   5.238  0.3155 -0.1670  0.1542
  178SLPC  H18X20314   5.165   3.173   5.179 -1.4917 -1.3167 -3.5050
  178SLPC  H18Y20315   5.028   3.193   5.279  0.6605  0.6487 -0.8640
  178SLPC  H18Z20316   5.031   3.045   5.176 -1.0718  0.6112  0.6480
  179SLPC     N20317   3.088   6.322   2.711  0.2487  0.1537  0.2911
  179SLPC   C1320318   3.031   6.378   2.589 -0.6093 -0.5516  1.0394
  179SLPC  H13A20319   3.107   6.425   2.529  0.7598 -1.4303  2.0176
  179SLPC  H13B20320   2.985   6.310   2.519  1.0513  1.0424 -1.7530
  179SLPC  H13C20321   2.953   6.448   2.615 -0.6601  0.1112 -0.7831
  179SLPC   C1420322   2.985   6.296   2.810  0.1281 -0.0924 -0.8151
  179SLPC  H14A20323   2.895   6.251   2.769  0.6336 -3.0141  0.9557
  179SLPC  H14B20324   3.030   6.234   2.887  1.2034  1.5643 -0.0714
  179SLPC  H14C20325   2.954   6.387   2.859  1.1810  0.2500 -0.7617
  179SLPC   C1520326   3.166   6.442   2.767  0.0351 -0.2883  0.7013
  179SLPC  H15A20327   3.097   6.523   2.785 -1.8644 -1.0392 -2.3849
  179SLPC  H15B20328   3.214   6.408   2.857 -0.8457 -0.9983  0.9198
  179SLPC  H15C20329   3.238   6.478   2.695 -2.7657  0.8049 -1.7955
  179SLPC   C1220330   3.176   6.204   2.678  0.2038  0.5467 -0.7747
  179SLPC  H12A20331   3.238   6.182   2.764  0.9366  0.9142 -1.1949
  179SLPC  H12B20332   3.243   6.237   2.599 -0.3517  0.9466 -1.0862
  179SLPC   C1120333   3.114   6.076   2.628 -0.4503 -0.4054  0.1489
  179SLPC  H11A20334   3.053   6.039   2.713  3.3223 -0.5817  3.0718
  179SLPC  H11B20335   3.202   6.008   2.628 -0.0868  0.0535  0.2734
  179SLPC     P20336   2.914   6.056   2.462 -0.0689  0.5129  0.2101
  179SLPC   O1320337   2.836   6.180   2.454 -0.4509 -0.0150  0.5500
  179SLPC   O1420338   2.913   5.967   2.342  0.2569  0.3728  0.1229
  179SLPC   O1220339   3.061   6.086   2.499  0.6042 -0.0802  0.2163
  179SLPC   O1120340   2.871   5.961   2.579 -0.3798 -0.5461 -0.1558
  179SLPC    C120341   2.735   5.949   2.630  0.1431 -0.0560  0.2806
  179SLPC    HA20342   2.704   6.048   2.671  2.9344  1.2356 -0.4711
  179SLPC    HB20343   2.660   5.928   2.550 -0.1337  1.1806  0.1852
  179SLPC    C220344   2.730   5.857   2.753  0.1041  0.1789  0.0048
  179SLPC    HS20345   2.749   5.753   2.718  1.7526 -0.3394  2.1970
  179SLPC   O2120346   2.609   5.878   2.829 -0.0435 -0.2874 -0.6167
  179SLPC   C2120347   2.505   5.814   2.773  0.2416  0.2439 -0.5338
  179SLPC   O2220348   2.507   5.725   2.690  0.2012  0.2575 -0.0407
  179SLPC   C2220349   2.380   5.869   2.857 -0.3289 -0.2324 -0.6020
  179SLPC   H2R20350   2.411   5.950   2.926  1.3788 -2.4444  1.4096
  179SLPC   H2S20351   2.286   5.895   2.805 -1.2894 -0.9145  0.7393
  179SLPC    C320352   2.850   5.871   2.856 -0.4248  0.0270  0.0994
  179SLPC    HX20353   2.835   5.979   2.876 -0.0312 -0.0877  1.0513
  179SLPC    HY20354   2.950   5.857   2.810  0.4130  0.5879  1.6896
  179SLPC   O3120355   2.833   5.793   2.978 -0.3400 -0.0953  1.0368
  179SLPC   C3120356   2.869   5.667   2.959  0.3225 -0.1233  0.0972
  179SLPC   O3220357   2.942   5.622   2.874  0.4882 -0.5053 -0.1809
  179SLPC   C3220358   2.821   5.578   3.074  0.1470 -0.2276  0.3075
  179SLPC   H2X20359   2.778   5.483   3.037  0.2297  0.0995 -0.6643
  179SLPC   H2Y20360   2.742   5.636   3.126  0.1318  0.5105 -0.5101
  179SLPC   C2320361   2.330   5.758   2.954  0.7832 -0.4224  0.7387
  179SLPC   H3R20362   2.292   5.672   2.894 -0.8480  1.0970 -0.5123
  179SLPC   H3S20363   2.241   5.790   3.013  0.4332 -0.0655  0.0317
  179SLPC   C2420364   2.424   5.715   3.064  0.0511  0.3506  0.2988
  179SLPC   H4R20365   2.411   5.785   3.149 -0.5831  2.7457 -1.6626
  179SLPC   H4S20366   2.527   5.718   3.023 -0.2673  2.4516 -0.4642
  179SLPC   C2520367   2.419   5.580   3.120  0.0795 -0.0688 -0.4796
  179SLPC   H5R20368   2.475   5.576   3.216  0.9691  0.5045 -0.9526
  179SLPC   H5S20369   2.457   5.500   3.054 -1.2186 -0.3653 -0.9022
  179SLPC   C2620370   2.278   5.534   3.159  0.7871  0.4932  0.1758
  179SLPC   H6R20371   2.282   5.424   3.177 -2.5801  0.3109  0.4695
  179SLPC   H6S20372   2.199   5.543   3.081 -0.9405  0.1730  1.8055
  179SLPC   C2720373   2.231   5.599   3.290 -0.3428 -0.0405  0.2877
  179SLPC   H7R20374   2.245   5.709   3.279 -0.2885 -0.2496 -2.4099
  179SLPC   H7S20375   2.304   5.573   3.370  2.5520  0.6744 -1.9374
  179SLPC   C2820376   2.084   5.563   3.326 -0.6247 -0.1055 -0.4534
  179SLPC   H8R20377   2.027   5.602   3.238 -0.9792 -0.7244 -0.5068
  179SLPC   H8S20378   2.040   5.621   3.410 -4.5285  0.7694 -2.8055
  179SLPC   C2920379   2.079   5.408   3.339 -0.7044  0.1098 -0.3275
  179SLPC   H9R20380   2.101   5.359   3.243 -1.2151  0.0936 -0.4362
  179SLPC  C21020381   2.051   5.342   3.450  0.0420  0.3496  0.2892
  179SLPC  H10R20382   2.056   5.233   3.454 -0.6375  0.3562  2.6188
  179SLPC  C21120383   2.008   5.400   3.586 -0.1869  0.0085  0.1660
  179SLPC  H11R20384   1.934   5.336   3.639 -1.1017  1.0456  0.1676
  179SLPC  H11S20385   1.953   5.495   3.575 -1.0399 -0.4308  0.5532
  179SLPC  C21220386   2.118   5.454   3.677 -0.0781  1.3672 -0.0630
  179SLPC  H12R20387   2.206   5.484   3.618 -1.4048  2.1338 -1.7295
  179SLPC  C21320388   2.116   5.462   3.813 -0.0384 -0.2099  0.1733
  179SLPC  H13R20389   2.198   5.507   3.871  1.5098 -1.1289 -1.2136
  179SLPC  C21420390   2.003   5.421   3.907 -0.5486  0.4241  0.5045
  179SLPC  H14R20391   1.909   5.396   3.852 -1.3871  3.0488  0.6038
  179SLPC  H14S20392   1.964   5.513   3.956 -1.4373  0.0999  0.4364
  179SLPC  C21520393   2.031   5.311   4.013  0.1905 -0.5033 -0.1497
  179SLPC  H15R20394   2.090   5.237   3.955 -1.6210 -3.5252  1.6255
  179SLPC  H15S20395   1.939   5.268   4.058  0.7216 -0.0984  1.3987
  179SLPC  C21620396   2.107   5.360   4.142  0.5746 -0.2281  0.1552
  179SLPC  H16R20397   2.029   5.417   4.198  0.5277 -2.0490  2.0725
  179SLPC  H16S20398   2.193   5.427   4.120  1.6117 -0.9412  1.8066
  179SLPC  C21720399   2.159   5.252   4.234  0.7872 -0.4327 -0.2998
  179SLPC  H17R20400   2.234   5.193   4.177  2.1819 -0.8654  1.8548
  179SLPC  H17S20401   2.072   5.187   4.259  0.8229 -0.3983 -0.0863
  179SLPC  C21820402   2.213   5.308   4.365 -0.0996  0.0985  0.1963
  179SLPC  H18R20403   2.202   5.231   4.444  1.3005  0.6590  0.9684
  179SLPC  H18S20404   2.153   5.393   4.405 -1.0734  0.5754 -2.0859
  179SLPC  H18T20405   2.318   5.337   4.343  0.3882 -0.9662  1.0442
  179SLPC   C3320406   2.931   5.579   3.179 -0.2948 -0.2653 -0.5700
  179SLPC   H3X20407   2.962   5.683   3.206 -0.0604 -0.5142  0.1502
  179SLPC   H3Y20408   3.024   5.538   3.135 -0.2967  0.5679 -1.3805
  179SLPC   C3420409   2.883   5.520   3.311  0.1481  0.0427 -0.2963
  179SLPC   H4X20410   2.858   5.414   3.288  1.8944 -0.6618  0.7926
  179SLPC   H4Y20411   2.786   5.570   3.331 -0.3519  0.6780 -3.7942
  179SLPC   C3520412   2.982   5.524   3.424 -0.8343  0.3677  0.8242
  179SLPC   H5X20413   3.066   5.455   3.400 -0.0001  1.7306 -0.3035
  179SLPC   H5Y20414   3.024   5.627   3.419 -1.1742  0.4462 -2.4103
  179SLPC   C3620415   2.924   5.507   3.563  0.1890 -0.5581  0.5515
  179SLPC   H6X20416   2.880   5.406   3.578 -1.7646 -0.1276 -1.7020
  179SLPC   H6Y20417   2.835   5.574   3.562 -1.0325 -2.1208 -0.5219
  179SLPC   C3720418   3.020   5.529   3.678 -0.1782 -0.0448 -0.2465
  179SLPC   H7X20419   3.057   5.634   3.685  0.1372 -0.2254  1.0517
  179SLPC   H7Y20420   3.103   5.457   3.667  1.9614  2.0133  1.3896
  179SLPC   C3820421   2.963   5.494   3.818  0.0070 -0.0349 -0.7249
  179SLPC   H8X20422   2.901   5.402   3.817 -0.1773  0.0739  0.1968
  179SLPC   H8Y20423   2.892   5.576   3.844  1.2045  0.2584  1.9717
  179SLPC   C3920424   3.065   5.491   3.934  0.8117  0.4336 -0.5871
  179SLPC   H9X20425   3.094   5.598   3.947  0.8758  0.2997  0.4508
  179SLPC   H9Y20426   3.157   5.432   3.917  0.5447  0.5944 -3.0314
  179SLPC  C31020427   3.002   5.448   4.065  0.0887 -0.1561  0.3567
  179SLPC  H10X20428   2.963   5.345   4.058  0.7957 -0.3546 -1.1298
  179SLPC  H10Y20429   2.911   5.508   4.088 -2.1563 -3.5248  0.9164
  179SLPC  C31120430   3.096   5.454   4.191 -0.0411 -0.0315  0.4688
  179SLPC  H11X20431   3.119   5.562   4.201  0.5602  0.2709 -3.0073
  179SLPC  H11Y20432   3.190   5.399   4.167 -0.9859 -1.7313  0.5074
  179SLPC  C31220433   3.016   5.399   4.310  0.0325  0.3777 -0.9564
  179SLPC  H12X20434   2.990   5.295   4.279  2.1277 -0.4577 -0.0971
  179SLPC  H12Y20435   2.917   5.450   4.316 -0.8137 -1.3875  1.6612
  179SLPC  C31320436   3.084   5.406   4.453  0.5180 -0.3997  0.1960
  179SLPC  H13X20437   3.186   5.365   4.438  0.7346  0.4076 -0.6410
  179SLPC  H13Y20438   3.027   5.344   4.526 -0.4206 -1.8724 -1.7016
  179SLPC  C31420439   3.094   5.548   4.510  0.1724 -0.0002 -0.4104
  179SLPC  H14X20440   3.003   5.612   4.512 -0.4914 -0.9228 -0.2544
  179SLPC  H14Y20441   3.172   5.592   4.445  1.0547 -2.4052 -1.0827
  179SLPC  C31520442   3.157   5.543   4.649 -1.0289  0.4268 -0.0731
  179SLPC  H15X20443   3.224   5.629   4.668  0.6151 -1.0481  1.1051
  179SLPC  H15Y20444   3.231   5.461   4.644 -1.8158 -0.4328  1.6011
  179SLPC  C31620445   3.059   5.516   4.760 -0.4722  0.5269  0.1325
  179SLPC  H16X20446   3.116   5.484   4.849  0.6046  2.4063  0.1578
  179SLPC  H16Y20447   2.990   5.433   4.729  1.9598 -1.2979 -0.6954
  179SLPC  C31720448   2.971   5.629   4.792  0.4006 -0.2771 -0.1279
  179SLPC  H17X20449   2.923   5.669   4.700 -1.0234 -1.1374  0.2093
  179SLPC  H17Y20450   3.029   5.713   4.837  3.0382 -2.4279  0.7442
  179SLPC  C31820451   2.862   5.597   4.905 -0.4264 -0.1119  0.5563
  179SLPC  H18X20452   2.914   5.546   4.989  3.1684  0.0919 -1.3463
  179SLPC  H18Y20453   2.781   5.526   4.877  0.9450 -0.8130 -2.0037
  179SLPC  H18Z20454   2.817   5.695   4.931  0.9290  0.3316  1.3636
  180SLPC     N20455   1.064   2.976   3.124 -0.7205 -0.0747  0.1047
  180SLPC   C1320456   0.968   2.893   3.054  0.1312  0.7829 -0.2284
  180SLPC  H13A20457   0.883   2.950   3.022 -1.7833 -2.6095 -1.7560
  180SLPC  H13B20458   1.009   2.853   2.962 -1.4240 -0.2297 -0.5211
  180SLPC  H13C20459   0.937   2.811   3.117  2.6209 -0.0047  0.1138
  180SLPC   C1420460   1.191   2.898   3.140 -0.0529 -0.5705  0.6369
  180SLPC  H14A20461   1.169   2.808   3.195 -1.8478 -1.6613 -1.7071
  180SLPC  H14B20462   1.228   2.874   3.042  1.5405  0.7398  0.8745
  180SLPC  H14C20463   1.271   2.949   3.191 -2.8431  1.4576  3.3909
  180SLPC   C1520464   1.014   3.010   3.254 -0.1131 -0.2045  0.3044
  180SLPC  H15A20465   0.953   3.097   3.237  0.1538 -0.5482 -3.1950
  180SLPC  H15B20466   0.956   2.931   3.299 -2.6904  0.6012 -1.3466
  180SLPC  H15C20467   1.093   3.040   3.321 -2.4605 -0.5204  3.4394
  180SLPC   C1220468   1.104   3.105   3.043  0.3631 -0.6331 -0.3403
  180SLPC  H12A20469   1.148   3.073   2.950  1.1663 -0.4310 -0.0356
  180SLPC  H12B20470   1.174   3.167   3.097 -2.1923  2.3614 -0.2154
  180SLPC   C1120471   0.987   3.210   3.019 -0.6413  0.5090  0.7783
  180SLPC  H11A20472   0.904   3.163   2.963  0.5922  0.4350 -1.0492
  180SLPC  H11B20473   1.032   3.282   2.948  0.6256 -0.0194  1.0182
  180SLPC     P20474   1.007   3.406   3.184  0.2431  1.0714  0.3092
  180SLPC   O1320475   1.156   3.397   3.163 -0.2463 -0.0498  0.0172
  180SLPC   O1420476   0.934   3.520   3.131  0.4139 -0.1289 -0.3460
  180SLPC   O1220477   0.937   3.276   3.133  0.0731  0.6177  0.2596
  180SLPC   O1120478   0.976   3.390   3.331 -0.0778 -0.1980  0.1338
  180SLPC    C120479   0.866   3.457   3.393  0.4274  0.4310 -0.2796
  180SLPC    HA20480   0.845   3.558   3.352 -2.2286  0.6349  1.3297
  180SLPC    HB20481   0.771   3.401   3.382 -0.2712  1.1454  1.7430
  180SLPC    C220482   0.881   3.478   3.548 -0.0820  0.1922  0.3092
  180SLPC    HS20483   0.792   3.530   3.590 -1.5892 -1.2498 -0.9729
  180SLPC   O2120484   1.012   3.539   3.573 -0.1373 -0.2168  0.0625
  180SLPC   C2120485   1.009   3.654   3.643  0.1435 -0.2036  0.6296
  180SLPC   O2220486   0.908   3.716   3.673  0.6819 -0.3107 -0.1645
  180SLPC   C2220487   1.153   3.693   3.688  0.2206 -0.5503  0.3666
  180SLPC   H2R20488   1.203   3.596   3.707 -0.3183 -0.4436  2.7027
  180SLPC   H2S20489   1.193   3.734   3.593  1.9222  0.5876  1.5257
  180SLPC    C320490   0.876   3.345   3.625 -0.1176 -0.3075 -0.5539
  180SLPC    HX20491   0.952   3.277   3.580  1.2030 -0.4258  1.6902
  180SLPC    HY20492   0.775   3.300   3.613 -0.7184 -0.6542  3.8837
  180SLPC   O3120493   0.882   3.374   3.764 -0.5451  0.3757 -0.0601
  180SLPC   C3120494   0.989   3.370   3.839 -0.5221  0.1572  0.9367
  180SLPC   O3220495   1.103   3.346   3.801  0.1234 -0.2362  0.0115
  180SLPC   C3220496   0.949   3.404   3.983 -0.1928  0.6852 -0.1877
  180SLPC   H2X20497   0.840   3.389   3.991 -0.1989 -0.0680 -1.5485
  180SLPC   H2Y20498   0.967   3.513   3.994  2.0605  0.3911 -0.4543
  180SLPC   C2320499   1.174   3.785   3.809 -0.3235  0.3972  0.7360
  180SLPC   H3R20500   1.122   3.881   3.789  0.0034  0.5965  0.8569
  180SLPC   H3S20501   1.281   3.806   3.825 -0.3948  1.2524  0.1349
  180SLPC   C2420502   1.120   3.740   3.945  0.8035  0.2605  0.4797
  180SLPC   H4R20503   1.174   3.653   3.987 -0.3128 -1.1037 -0.7600
  180SLPC   H4S20504   1.013   3.717   3.921  0.7248  1.4481 -0.4388
  180SLPC   C2520505   1.138   3.852   4.048 -0.5087 -0.1840 -0.6733
  180SLPC   H5R20506   1.082   3.945   4.023 -0.0117  0.4279  0.4092
  180SLPC   H5S20507   1.242   3.887   4.063 -0.2299 -1.6269  1.0424
  180SLPC   C2620508   1.076   3.798   4.177 -0.0503 -0.2314 -0.4730
  180SLPC   H6R20509   0.976   3.763   4.145 -0.5274 -0.3192  1.0315
  180SLPC   H6S20510   1.057   3.879   4.251 -0.8892 -1.7938  1.1053
  180SLPC   C2720511   1.165   3.696   4.255 -0.0948 -0.0152 -0.0888
  180SLPC   H7R20512   1.269   3.724   4.283  0.7271 -2.2333 -0.7245
  180SLPC   H7S20513   1.171   3.599   4.201  1.4993 -0.4983  0.8923
  180SLPC   C2820514   1.096   3.658   4.391  0.2737 -0.2807  0.1286
  180SLPC   H8R20515   1.144   3.565   4.430  0.3541 -0.5453 -0.5813
  180SLPC   H8S20516   0.993   3.619   4.377  0.5643 -0.3081 -2.3770
  180SLPC   C2920517   1.104   3.762   4.500 -0.0863  0.2924 -0.2595
  180SLPC   H9R20518   1.061   3.863   4.486  0.9386  0.6666 -0.7734
  180SLPC  C21020519   1.147   3.741   4.627  0.2791 -0.1661  0.5618
  180SLPC  H10R20520   1.155   3.832   4.689  0.3149  0.8935 -0.9303
  180SLPC  C21120521   1.193   3.610   4.693  0.4641 -0.3669 -0.1641
  180SLPC  H11R20522   1.190   3.532   4.613 -0.0152  0.0123 -0.5238
  180SLPC  H11S20523   1.130   3.577   4.778  1.1199 -0.6031  0.2306
  180SLPC  C21220524   1.341   3.624   4.728  0.2063  0.1847  0.2148
  180SLPC  H12R20525   1.408   3.627   4.641 -1.3619  2.9839 -1.0143
  180SLPC  C21320526   1.395   3.635   4.851  0.2359 -0.6078  0.3603
  180SLPC  H13R20527   1.501   3.660   4.866 -0.1170  0.7823  0.6877
  180SLPC  C21420528   1.311   3.639   4.981 -0.0736 -0.1490  0.0853
  180SLPC  H14R20529   1.316   3.542   5.034  1.5850 -0.3285 -0.3515
  180SLPC  H14S20530   1.203   3.657   4.960 -0.4427 -0.9309  1.2549
  180SLPC  C21520531   1.342   3.740   5.092  0.4091 -0.5476 -0.0086
  180SLPC  H15R20532   1.271   3.726   5.176  3.1841  0.4890  2.6879
  180SLPC  H15S20533   1.317   3.831   5.032 -0.0595 -0.9539 -0.4438
  180SLPC  C21620534   1.485   3.735   5.152  0.1319  0.1234  0.1599
  180SLPC  H16R20535   1.548   3.722   5.061 -0.1536  1.8624 -0.3367
  180SLPC  H16S20536   1.496   3.642   5.212  2.2064 -1.0623 -1.8945
  180SLPC  C21720537   1.521   3.846   5.248 -0.2411 -0.1067  0.5930
  180SLPC  H17R20538   1.525   3.939   5.187  2.5169  1.0642  2.3775
  180SLPC  H17S20539   1.628   3.825   5.269  0.0667 -1.6153 -2.0579
  180SLPC  C21820540   1.432   3.876   5.369 -0.6026 -0.2111  0.3771
  180SLPC  H18R20541   1.346   3.937   5.335 -0.0308  1.5320  1.9472
  180SLPC  H18S20542   1.487   3.943   5.438  0.4037 -0.4387 -0.1708
  180SLPC  H18T20543   1.397   3.782   5.418 -1.8681  0.2156  0.3239
  180SLPC   C3320544   1.016   3.322   4.087 -0.4571  0.5001  0.0897
  180SLPC   H3X20545   1.124   3.346   4.082 -0.7200  1.9947  1.1164
  180SLPC   H3Y20546   1.010   3.213   4.063 -0.4628  0.8858 -1.8388
  180SLPC   C3420547   0.962   3.352   4.223  0.0277  0.3632 -0.9004
  180SLPC   H4X20548   0.852   3.361   4.214 -0.2034  0.2174  1.2590
  180SLPC   H4Y20549   0.989   3.459   4.236 -0.3463  0.3839 -0.2578
  180SLPC   C3520550   0.990   3.265   4.344 -0.1090  0.6079 -0.3027
  180SLPC   H5X20551   1.100   3.254   4.360 -0.2185  0.4593  0.3739
  180SLPC   H5Y20552   0.946   3.164   4.329  0.5669  0.3839 -0.8274
  180SLPC   C3620553   0.927   3.320   4.474 -0.0381  0.1528  0.1014
  180SLPC   H6X20554   0.817   3.321   4.457  0.2009 -0.4761 -1.6675
  180SLPC   H6Y20555   0.970   3.418   4.503  0.3296 -0.0568  0.2650
  180SLPC   C3720556   0.954   3.222   4.596 -0.2031 -0.1855  0.2795
  180SLPC   H7X20557   1.064   3.223   4.609 -0.0425  3.1261 -0.5023
  180SLPC   H7Y20558   0.934   3.115   4.572 -3.0235  0.5334 -0.9920
  180SLPC   C3820559   0.884   3.267   4.720  0.3053 -0.5127  0.9641
  180SLPC   H8X20560   0.907   3.192   4.798  2.0639 -0.7260  0.2856
  180SLPC   H8Y20561   0.773   3.264   4.711  0.2327  1.2967  0.9752
  180SLPC   C3920562   0.906   3.412   4.763 -0.1615  0.7473  0.6106
  180SLPC   H9X20563   0.890   3.479   4.677  2.3343  1.7220  0.8114
  180SLPC   H9Y20564   1.010   3.422   4.800 -0.2590 -0.3321  1.2464
  180SLPC  C31020565   0.822   3.464   4.878  0.8972 -0.0872 -0.5229
  180SLPC  H10X20566   0.850   3.410   4.971  0.2867  0.3297 -0.0896
  180SLPC  H10Y20567   0.715   3.446   4.855  0.7487 -1.6617  1.1497
  180SLPC  C31120568   0.838   3.617   4.893 -0.3691 -0.3152  0.0247
  180SLPC  H11X20569   0.778   3.669   4.815 -0.9593  2.5508  2.2294
  180SLPC  H11Y20570   0.945   3.634   4.873 -0.1877 -3.2695 -2.2262
  180SLPC  C31220571   0.804   3.691   5.025  0.8490 -0.5542  0.3292
  180SLPC  H12X20572   0.697   3.668   5.046  0.1976  1.3351 -0.7153
  180SLPC  H12Y20573   0.825   3.798   5.006  2.2208 -0.6600  1.1375
  180SLPC  C31320574   0.876   3.629   5.148  0.3532  0.1765 -0.0643
  180SLPC  H13X20575   0.971   3.579   5.118  0.3691  0.8038 -1.1338
  180SLPC  H13Y20576   0.809   3.546   5.177 -0.5225  0.9266  0.0972
  180SLPC  C31420577   0.882   3.733   5.258 -0.4367  0.5698  0.5726
  180SLPC  H14X20578   0.782   3.780   5.271 -0.8283 -0.3281  0.8314
  180SLPC  H14Y20579   0.961   3.796   5.211  0.0828 -2.2104 -2.7410
  180SLPC  C31520580   0.942   3.683   5.394  0.3814  0.0120 -0.4915
  180SLPC  H15X20581   1.030   3.619   5.370  2.1246  2.1238 -0.0084
  180SLPC  H15Y20582   0.864   3.618   5.439  2.2625 -2.6018 -0.7385
  180SLPC  C31620583   0.987   3.810   5.470 -0.4916  0.0700  0.1562
  180SLPC  H16X20584   0.912   3.892   5.472 -0.2228  0.3124  0.5842
  180SLPC  H16Y20585   1.078   3.851   5.420  0.7206 -1.4288  1.0735
  180SLPC  C31720586   1.019   3.778   5.615  0.6011  0.5929  0.2745
  180SLPC  H17X20587   1.049   3.672   5.621 -0.2511  0.1531 -2.1063
  180SLPC  H17Y20588   0.933   3.792   5.684 -0.2982 -0.6178 -0.5581
  180SLPC  C31820589   1.130   3.870   5.675  0.4421 -0.1896 -0.1027
  180SLPC  H18X20590   1.217   3.900   5.614  0.3092 -1.5906 -1.0157
  180SLPC  H18Y20591   1.172   3.828   5.769 -1.4747 -0.2114  0.7974
  180SLPC  H18Z20592   1.094   3.971   5.708 -1.3764 -0.6397 -0.5887
  181SLPC     N20593   0.265   2.751   2.945 -0.0638 -0.4515 -0.1832
  181SLPC   C1320594   0.396   2.801   2.888  0.3237 -0.3303 -0.5389
  181SLPC  H13A20595   0.390   2.876   2.811  0.0963  1.3530  1.0522
  181SLPC  H13B20596   0.455   2.857   2.958 -2.0892  1.0470  0.5366
  181SLPC  H13C20597   0.451   2.712   2.865  1.8898  0.1307  1.2150
  181SLPC   C1420598   0.182   2.705   2.834 -0.0383 -0.0127  0.4922
  181SLPC  H14A20599   0.088   2.672   2.876  0.4183 -1.0602  0.7378
  181SLPC  H14B20600   0.174   2.783   2.760  3.9595 -1.2923 -1.5481
  181SLPC  H14C20601   0.227   2.616   2.793 -1.8385 -0.9913  0.4998
  181SLPC   C1520602   0.188   2.870   3.011 -0.3237  0.1010 -0.4839
  181SLPC  H15A20603   0.237   2.897   3.104 -0.4602  0.5749 -0.5477
  181SLPC  H15B20604   0.180   2.958   2.948 -1.5610 -0.9632 -1.8863
  181SLPC  H15C20605   0.092   2.834   3.045 -0.2902 -0.9547 -1.4584
  181SLPC   C1220606   0.293   2.640   3.046  0.8058 -0.0991  0.2084
  181SLPC  H12A20607   0.334   2.556   2.991  1.4419  1.1965 -1.3660
  181SLPC  H12B20608   0.200   2.599   3.081  2.2861 -3.0304  1.0527
  181SLPC   C1120609   0.380   2.665   3.164  0.1037 -0.0504  0.1645
  181SLPC  H11A20610   0.371   2.582   3.236  1.2322 -1.0850 -0.8330
  181SLPC  H11B20611   0.342   2.750   3.224  0.8951 -0.0711  0.7079
  181SLPC     P20612   0.622   2.775   3.182  0.1390  0.0442  0.3061
  181SLPC   O1320613   0.746   2.699   3.215  0.1605  0.3108 -0.0801
  181SLPC   O1420614   0.636   2.897   3.100  0.0823  0.2726 -0.7366
  181SLPC   O1220615   0.518   2.676   3.118 -0.2751 -0.4740 -0.0478
  181SLPC   O1120616   0.558   2.806   3.316  0.0129 -0.5245  0.2598
  181SLPC    C120617   0.544   2.717   3.434 -0.1795  0.2664  0.1110
  181SLPC    HA20618   0.435   2.707   3.458 -0.6179  0.5900 -1.6464
  181SLPC    HB20619   0.576   2.612   3.415 -0.8702  0.2268 -0.9372
  181SLPC    C220620   0.610   2.775   3.564 -0.3705 -0.2976 -0.5681
  181SLPC    HS20621   0.606   2.688   3.633  0.8010 -0.3738 -0.5732
  181SLPC   O2120622   0.553   2.894   3.627 -0.4620  0.2950  0.1425
  181SLPC   C2120623   0.423   2.884   3.665 -0.6336  0.6586 -0.1552
  181SLPC   O2220624   0.364   2.779   3.683  0.4282 -0.4887  0.2967
  181SLPC   C2220625   0.357   3.020   3.674  0.0918 -0.5093 -0.6216
  181SLPC   H2R20626   0.431   3.096   3.707  0.3071 -1.3181  0.8486
  181SLPC   H2S20627   0.325   3.056   3.574  0.7927  1.0735 -0.3029
  181SLPC    C320628   0.760   2.792   3.529  0.0684  0.2171  0.1756
  181SLPC    HX20629   0.782   2.858   3.442 -0.9782  0.7393  0.2882
  181SLPC    HY20630   0.803   2.692   3.506  0.2363  0.9014 -2.8208
  181SLPC   O3120631   0.830   2.824   3.644 -0.4569 -0.4199 -0.5071
  181SLPC   C3120632   0.837   2.956   3.672  0.7323 -0.2105 -0.5907
  181SLPC   O3220633   0.807   3.043   3.592  0.0216  0.1009  0.0556
  181SLPC   C3220634   0.881   2.991   3.820  0.2032  0.0322  0.4415
  181SLPC   H2X20635   0.939   3.084   3.803  0.5127 -0.3757 -0.8163
  181SLPC   H2Y20636   0.937   2.904   3.861 -0.0843  0.4544  1.7876
  181SLPC   C2320637   0.234   3.019   3.769  0.2337  0.7273  0.3507
  181SLPC   H3R20638   0.169   2.930   3.754  0.6334  0.6854 -1.3492
  181SLPC   H3S20639   0.183   3.115   3.746 -1.4844 -0.3134 -0.3950
  181SLPC   C2420640   0.283   3.014   3.915 -1.0862 -0.7470 -1.2505
  181SLPC   H4R20641   0.322   3.115   3.938 -0.5710 -1.2530  0.1670
  181SLPC   H4S20642   0.369   2.945   3.931 -0.6311  0.0679 -0.1307
  181SLPC   C2520643   0.182   2.977   4.025 -0.0266  0.3310 -0.7614
  181SLPC   H5R20644   0.145   2.876   4.000  1.1453  0.2556 -2.2784
  181SLPC   H5S20645   0.087   3.033   4.009  1.2662  2.0913 -2.8741
  181SLPC   C2620646   0.227   2.997   4.167  0.0448 -0.7329 -0.4321
  181SLPC   H6R20647   0.239   3.102   4.202 -1.1771 -0.2406 -1.4325
  181SLPC   H6S20648   0.317   2.934   4.186 -0.6594 -1.3580  0.9709
  181SLPC   C2720649   0.131   2.922   4.260  0.1184  0.5173  0.6610
  181SLPC   H7R20650   0.142   2.815   4.234  1.9288  0.9654 -0.5857
  181SLPC   H7S20651   0.026   2.957   4.246  0.6969  2.0785 -0.1155
  181SLPC   C2820652   0.164   2.949   4.406 -0.7945  0.8149  0.3257
  181SLPC   H8R20653   0.151   3.059   4.416  1.4333  1.2432 -0.9602
  181SLPC   H8S20654   0.268   2.920   4.433 -1.2208  0.9212  2.2687
  181SLPC   C2920655   0.078   2.869   4.500  0.6894 -0.3626 -0.0877
  181SLPC   H9R20656   0.038   2.770   4.471 -3.9221  0.6504  1.8620
  181SLPC  C21020657   0.034   2.919   4.617 -0.3262 -0.0554 -0.6102
  181SLPC  H10R20658  -0.019   2.853   4.689 -0.9397 -0.9539 -1.8509
  181SLPC  C21120659   0.082   3.048   4.672 -0.9644  0.1025 -0.1225
  181SLPC  H11R20660   0.193   3.053   4.665 -0.8397 -1.3475  0.4368
  181SLPC  H11S20661   0.060   3.050   4.781 -2.1074 -0.6943 -0.3258
  181SLPC  C21220662   0.015   3.178   4.628  0.7560  0.1750  0.1012
  181SLPC  H12R20663  -0.035   3.178   4.530  1.2254  0.5305 -0.1392
  181SLPC  C21320664   0.027   3.290   4.693 -0.6184 -0.1601 -0.5719
  181SLPC  H13R20665  -0.014   3.383   4.649 -3.1285 -1.6802 -1.6603
  181SLPC  C21420666   0.123   3.319   4.813 -1.1451 -0.3219  0.4322
  181SLPC  H14R20667   0.217   3.336   4.757 -2.5168  0.4482 -1.7507
  181SLPC  H14S20668   0.134   3.234   4.884  0.0118 -1.7360 -1.3571
  181SLPC  C21520669   0.089   3.441   4.905 -0.3077  0.1253 -0.2990
  181SLPC  H15R20670   0.115   3.530   4.843 -0.7269 -1.9935 -3.7550
  181SLPC  H15S20671   0.146   3.454   4.999 -3.0856 -0.7390  1.6222
  181SLPC  C21620672  -0.057   3.437   4.950 -0.3270  0.0428 -0.2566
  181SLPC  H16R20673  -0.065   3.328   4.971  1.3196  0.2345  1.7196
  181SLPC  H16S20674  -0.137   3.452   4.875  1.3394 -0.4290 -2.2401
  181SLPC  C21720675  -0.085   3.524   5.075 -0.7350  0.2981  0.1839
  181SLPC  H17R20676   0.013   3.526   5.126  0.0489  1.0262 -1.3059
  181SLPC  H17S20677  -0.170   3.480   5.133 -0.9152  0.5448  0.1115
  181SLPC  C21820678  -0.126   3.664   5.032 -0.1527  0.5837 -0.2489
  181SLPC  H18R20679  -0.215   3.661   4.966  0.3324 -0.6577 -0.8810
  181SLPC  H18S20680  -0.042   3.715   4.981 -0.9002  3.0600  0.8380
  181SLPC  H18T20681  -0.138   3.714   5.131 -1.3206 -1.9375  0.9892
  181SLPC   C3320682   0.751   3.002   3.903 -0.0894  0.0989  0.6085
  181SLPC   H3X20683   0.689   2.911   3.889  1.8982 -1.2531  0.2419
  181SLPC   H3Y20684   0.701   3.097   3.876 -0.7593 -0.7085 -1.0773
  181SLPC   C3420685   0.783   3.007   4.054  0.2814 -0.1127  0.1413
  181SLPC   H4X20686   0.837   3.102   4.073 -0.8374  0.9750 -1.7519
  181SLPC   H4Y20687   0.844   2.919   4.084  1.0045  0.7617  1.3208
  181SLPC   C3520688   0.659   3.008   4.147  0.6694  0.0817  0.0352
  181SLPC   H5X20689   0.583   2.929   4.127  1.0116 -0.5646  1.2010
  181SLPC   H5Y20690   0.598   3.098   4.128 -0.5621 -0.7853 -0.2515
  181SLPC   C3620691   0.682   3.001   4.300  0.4296  0.0219  0.3588
  181SLPC   H6X20692   0.735   3.095   4.324 -0.1155 -0.1941  2.7675
  181SLPC   H6Y20693   0.742   2.913   4.334 -0.0084 -0.0266  1.0360
  181SLPC   C3720694   0.552   3.005   4.379  0.0632 -0.0695 -0.2292
  181SLPC   H7X20695   0.498   2.909   4.362 -3.7447  1.7268  0.5940
  181SLPC   H7Y20696   0.478   3.079   4.342 -0.6757  0.1334  1.5510
  181SLPC   C3820697   0.583   3.032   4.527 -0.2105 -0.1753  1.0391
  181SLPC   H8X20698   0.622   3.135   4.535 -0.9598  0.2103  0.0498
  181SLPC   H8Y20699   0.667   2.966   4.557  0.0012 -1.1013 -1.3269
  181SLPC   C3920700   0.466   3.028   4.618  0.2331 -0.2908 -0.6663
  181SLPC   H9X20701   0.395   2.944   4.602 -0.6616 -0.5747  3.5726
  181SLPC   H9Y20702   0.416   3.127   4.618  3.0932  1.4474  3.2520
  181SLPC  C31020703   0.510   3.016   4.765 -0.6594  0.2653 -0.2500
  181SLPC  H10X20704   0.590   3.091   4.782  0.4807 -0.1965 -3.0048
  181SLPC  H10Y20705   0.562   2.918   4.774 -0.5010  0.3892  0.2072
  181SLPC  C31120706   0.399   3.024   4.863  0.0743 -0.0856 -0.5725
  181SLPC  H11X20707   0.343   2.928   4.861  0.1499 -0.1301 -0.5688
  181SLPC  H11Y20708   0.327   3.104   4.834 -2.2998 -1.8355  0.1666
  181SLPC  C31220709   0.448   3.054   5.004 -0.3752  0.6752  0.6244
  181SLPC  H12X20710   0.490   3.156   5.013 -0.3045  0.6771  0.2642
  181SLPC  H12Y20711   0.531   2.983   5.024 -0.6787 -0.7717 -2.6155
  181SLPC  C31320712   0.340   3.035   5.110  0.6062 -0.2184 -0.2636
  181SLPC  H13X20713   0.287   2.940   5.136  0.8331  0.3090  2.3375
  181SLPC  H13Y20714   0.248   3.089   5.078  0.4571  0.1815  0.8153
  181SLPC  C31420715   0.384   3.081   5.245  0.3081  0.3265  0.1838
  181SLPC  H14X20716   0.293   3.103   5.306 -0.5709 -2.3773 -0.0125
  181SLPC  H14Y20717   0.453   3.168   5.239  1.3421 -0.4332  0.7898
  181SLPC  C31520718   0.467   2.975   5.314 -0.8585  0.8260  0.2152
  181SLPC  H15X20719   0.499   3.026   5.407 -0.9165  0.2052  0.5785
  181SLPC  H15Y20720   0.550   2.932   5.254 -2.1922 -0.0986 -1.0469
  181SLPC  C31620721   0.390   2.857   5.366  0.1474  0.2942 -0.0172
  181SLPC  H16X20722   0.370   2.791   5.279  1.1697  1.0957 -0.9009
  181SLPC  H16Y20723   0.293   2.897   5.401 -0.1842 -1.6041  1.3823
  181SLPC  C31720724   0.463   2.790   5.485 -0.0562 -0.0066  0.3788
  181SLPC  H17X20725   0.481   2.867   5.562 -2.1443 -1.1108  2.0904
  181SLPC  H17Y20726   0.565   2.758   5.455 -0.6623 -1.8276  0.1141
  181SLPC  C31820727   0.390   2.659   5.538  0.5418 -0.5018  0.2078
  181SLPC  H18X20728   0.291   2.666   5.588  1.5089 -0.8546  2.2886
  181SLPC  H18Y20729   0.436   2.611   5.627 -0.6545 -1.4908  0.3296
  181SLPC  H18Z20730   0.385   2.584   5.456 -0.4672  1.0305 -1.2097
  182SLPC     N20731   5.027   1.612   2.747  0.3047 -0.0371  0.0155
  182SLPC   C1320732   4.940   1.507   2.684 -0.0990  0.1911  0.1392
  182SLPC  H13A20733   4.839   1.508   2.723 -0.5457  0.8127 -0.9986
  182SLPC  H13B20734   4.931   1.535   2.580  0.6388 -0.7498 -0.1892
  182SLPC  H13C20735   4.984   1.410   2.703 -1.7247 -0.5030  0.5646
  182SLPC   C1420736   4.966   1.749   2.737 -0.6683  0.0413  0.2981
  182SLPC  H14A20737   4.946   1.773   2.634 -1.9492 -2.4093 -0.0933
  182SLPC  H14B20738   4.869   1.743   2.786  0.7199 -1.6634  3.1278
  182SLPC  H14C20739   5.029   1.826   2.779  0.2530 -0.2073 -0.5954
  182SLPC   C1520740   5.155   1.625   2.678  0.3358  0.8866  0.7081
  182SLPC  H15A20741   5.207   1.530   2.674 -1.6809 -0.2273 -2.3302
  182SLPC  H15B20742   5.145   1.653   2.574 -0.2290  1.0545  0.8088
  182SLPC  H15C20743   5.220   1.695   2.729  3.3482 -0.1713 -1.3878
  182SLPC   C1220744   5.045   1.579   2.893 -0.8783  0.1092  0.0867
  182SLPC  H12A20745   5.106   1.490   2.896  0.5761  1.0684 -0.4735
  182SLPC  H12B20746   4.947   1.553   2.932 -2.3222  1.0817 -2.6376
  182SLPC   C1120747   5.110   1.670   2.989 -0.7524  0.7469  0.0068
  182SLPC  H11A20748   5.093   1.630   3.091 -2.3969  1.2128 -0.0596
  182SLPC  H11B20749   5.053   1.765   2.994 -0.8715  0.6974 -0.3502
  182SLPC     P20750   5.353   1.557   2.993 -0.0252  0.0450  0.0892
  182SLPC   O1320751   5.269   1.436   3.018  0.5742 -0.2170 -0.0633
  182SLPC   O1420752   5.452   1.552   2.884 -0.0763  0.2296 -0.4311
  182SLPC   O1220753   5.250   1.682   2.954  0.0371 -0.2187  0.0309
  182SLPC   O1120754   5.419   1.599   3.129  0.4524  0.4168 -0.1262
  182SLPC    C120755   5.493   1.722   3.144  0.5044  0.1758  0.0122
  182SLPC    HA20756   5.595   1.696   3.179  0.2825  1.2269  1.5595
  182SLPC    HB20757   5.507   1.778   3.050  1.8273  0.9553  0.6504
  182SLPC    C220758   5.436   1.820   3.246 -0.0639  0.2644  0.3866
  182SLPC    HS20759   5.504   1.906   3.265  0.2803 -0.1447  1.0339
  182SLPC   O2120760   5.416   1.760   3.373 -0.0140 -0.3141  0.4647
  182SLPC   C2120761   5.532   1.743   3.447 -0.4420  0.0267  0.5150
  182SLPC   O2220762   5.646   1.772   3.412  0.2117 -0.5763  0.2939
  182SLPC   C2220763   5.501   1.682   3.578  0.4995  0.4238  0.1084
  182SLPC   H2R20764   5.419   1.734   3.631  0.2493  0.9877 -0.8108
  182SLPC   H2S20765   5.467   1.578   3.559 -1.8331  0.8173  1.6941
  182SLPC    C320766   5.304   1.876   3.198  0.8573 -0.0374 -0.3543
  182SLPC    HX20767   5.234   1.795   3.169 -0.5444  0.6812  0.8944
  182SLPC    HY20768   5.340   1.931   3.108 -0.3721  1.2992 -0.0698
  182SLPC   O3120769   5.246   1.976   3.281 -0.3588  0.0789  0.7633
  182SLPC   C3120770   5.156   1.933   3.372  0.3593  0.2663  0.3722
  182SLPC   O3220771   5.127   1.819   3.403 -0.2634  0.0742 -0.3397
  182SLPC   C3220772   5.103   2.052   3.442  0.2270 -0.0601  0.3072
  182SLPC   H2X20773   5.190   2.112   3.477  1.3682  0.7218 -3.4221
  182SLPC   H2Y20774   5.044   2.016   3.528 -0.7567 -0.0494 -0.3504
  182SLPC   C2320775   5.620   1.658   3.675 -0.3183 -0.9499  0.2205
  182SLPC   H3R20776   5.655   1.757   3.711 -1.0443 -1.3197  2.0741
  182SLPC   H3S20777   5.707   1.613   3.622  0.9639  1.7593 -0.1178
  182SLPC   C2420778   5.584   1.589   3.807 -0.6432  0.1252  0.3358
  182SLPC   H4R20779   5.599   1.482   3.783  3.0960  0.9068 -1.5933
  182SLPC   H4S20780   5.479   1.608   3.838  0.1076  1.1106  2.5162
  182SLPC   C2520781   5.680   1.628   3.912 -0.0933  0.0096 -0.0818
  182SLPC   H5R20782   5.700   1.737   3.915  0.4878 -0.0532 -1.0824
  182SLPC   H5S20783   5.780   1.587   3.886  0.7058  1.9522 -0.2786
  182SLPC   C2620784   5.643   1.584   4.057 -0.0574  0.1858  0.0864
  182SLPC   H6R20785   5.616   1.476   4.053 -2.0733  0.6746 -1.2145
  182SLPC   H6S20786   5.547   1.636   4.075  0.1228  0.7711 -0.5936
  182SLPC   C2720787   5.756   1.614   4.150  0.0886  0.4227 -0.3361
  182SLPC   H7R20788   5.783   1.719   4.175  0.3414  0.2227  0.2725
  182SLPC   H7S20789   5.844   1.579   4.092  0.6686 -0.7817  1.1767
  182SLPC   C2820790   5.741   1.517   4.276 -0.0228 -0.6076  0.5915
  182SLPC   H8R20791   5.670   1.435   4.253 -1.1978  0.3006  0.8755
  182SLPC   H8S20792   5.683   1.580   4.346 -2.8403 -2.1528 -0.2296
  182SLPC   C2920793   5.871   1.461   4.314 -1.1033 -0.7089  0.0629
  182SLPC   H9R20794   5.928   1.421   4.229 -0.0102  0.4619  0.2178
  182SLPC  C21020795   5.919   1.433   4.436  0.2729  0.0703 -0.3749
  182SLPC  H10R20796   6.016   1.383   4.450 -0.5612 -1.6234 -0.3435
  182SLPC  C21120797   5.840   1.462   4.565 -0.5566  0.1248  0.3082
  182SLPC  H11R20798   5.780   1.372   4.593  1.7643 -1.9704 -1.0960
  182SLPC  H11S20799   5.758   1.537   4.557  0.0304  1.0040  2.0493
  182SLPC  C21220800   5.929   1.510   4.677  0.5008  0.9352  0.2205
  182SLPC  H12R20801   5.997   1.593   4.656  2.8364 -0.5227  1.5036
  182SLPC  C21320802   5.949   1.452   4.798 -0.7244 -0.5477 -0.2824
  182SLPC  H13R20803   6.016   1.507   4.866  0.8632 -0.4133 -1.8829
  182SLPC  C21420804   5.879   1.332   4.856 -0.6284  0.2168  0.7855
  182SLPC  H14R20805   5.788   1.304   4.799 -1.0423 -0.2720  1.6764
  182SLPC  H14S20806   5.840   1.370   4.953  0.3495  1.4582  0.7205
  182SLPC  C21520807   5.962   1.202   4.879  0.2533 -0.7586  0.2118
  182SLPC  H15R20808   6.046   1.220   4.950  1.4340  0.8959 -1.4900
  182SLPC  H15S20809   5.990   1.166   4.778 -1.0814  0.2318 -0.5452
  182SLPC  C21620810   5.881   1.095   4.955 -0.2157  0.0436  0.3157
  182SLPC  H16R20811   5.945   1.011   4.990 -0.8598 -0.1040  1.1632
  182SLPC  H16S20812   5.810   1.056   4.880 -0.4674  1.2693 -0.1136
  182SLPC  C21720813   5.804   1.148   5.075  0.4177 -0.7872 -0.3904
  182SLPC  H17R20814   5.716   1.200   5.033  0.4257 -0.3922  0.0726
  182SLPC  H17S20815   5.860   1.208   5.149 -2.1188  1.1010  0.1461
  182SLPC  C21820816   5.748   1.033   5.168  0.3023 -0.0152 -0.4507
  182SLPC  H18R20817   5.699   0.959   5.102  0.8188 -1.1132  0.3609
  182SLPC  H18S20818   5.662   1.074   5.225  0.8214  1.9839 -1.0337
  182SLPC  H18T20819   5.828   0.995   5.236  0.3015  3.0565  1.4454
  182SLPC   C3320820   5.014   2.127   3.345  0.5583 -0.5489 -0.7989
  182SLPC   H3X20821   4.934   2.063   3.303 -0.0822  0.6621 -1.4669
  182SLPC   H3Y20822   5.077   2.159   3.260  1.6357  1.0170  0.5027
  182SLPC   C3420823   4.951   2.250   3.409  0.5849  0.4362 -0.3502
  182SLPC   H4X20824   4.873   2.289   3.341 -1.0769  0.2195  1.3375
  182SLPC   H4Y20825   5.033   2.325   3.421  0.1570  0.6315  1.7025
  182SLPC   C3520826   4.868   2.240   3.543 -0.3520  0.1893  0.6550
  182SLPC   H5X20827   4.932   2.179   3.610 -0.4568  0.1688  0.7364
  182SLPC   H5Y20828   4.769   2.194   3.525 -0.2041  0.3047 -0.5412
  182SLPC   C3620829   4.848   2.371   3.620  0.3596  0.3980 -0.2991
  182SLPC   H6X20830   4.820   2.454   3.552 -1.4722  1.7062  1.9170
  182SLPC   H6Y20831   4.949   2.398   3.656 -0.1884  1.0373  0.8335
  182SLPC   C3720832   4.747   2.366   3.727  0.6342  0.0575  0.4672
  182SLPC   H7X20833   4.654   2.332   3.676  1.3768  2.0179 -2.4231
  182SLPC   H7Y20834   4.724   2.467   3.768 -0.7931  0.7574 -1.8479
  182SLPC   C3820835   4.766   2.271   3.838 -0.5917  0.3896 -0.1364
  182SLPC   H8X20836   4.775   2.165   3.803 -3.5630  0.2780 -0.7615
  182SLPC   H8Y20837   4.673   2.249   3.894  0.8862 -0.5632  2.1065
  182SLPC   C3920838   4.874   2.307   3.942 -0.0859  0.0401  0.0348
  182SLPC   H9X20839   4.973   2.307   3.893 -1.4002 -1.7660 -2.8499
  182SLPC   H9Y20840   4.868   2.225   4.017  2.9920  0.7947  1.2210
  182SLPC  C31020841   4.855   2.442   4.016  0.8637 -0.4007  0.2732
  182SLPC  H10X20842   4.857   2.526   3.944  1.4519 -0.6178  0.0310
  182SLPC  H10Y20843   4.941   2.447   4.087  1.2447 -0.4823 -0.1824
  182SLPC  C31120844   4.716   2.454   4.089 -0.7614 -0.6749 -0.6454
  182SLPC  H11X20845   4.641   2.415   4.017  1.0455  0.9381 -3.6573
  182SLPC  H11Y20846   4.702   2.558   4.125  3.9506 -1.0376  3.2823
  182SLPC  C31220847   4.708   2.360   4.209 -0.1361  0.2040  0.2556
  182SLPC  H12X20848   4.751   2.259   4.187  0.1828  0.8520 -2.3442
  182SLPC  H12Y20849   4.602   2.347   4.239 -0.6463  3.0337 -0.0393
  182SLPC  C31320850   4.773   2.420   4.330  0.1796  0.2461  0.3664
  182SLPC  H13X20851   4.737   2.525   4.343 -1.8298 -0.1632 -1.3763
  182SLPC  H13Y20852   4.883   2.412   4.322  0.1489 -0.2117  0.3933
  182SLPC  C31420853   4.752   2.346   4.461 -0.0243  0.5036 -0.5083
  182SLPC  H14X20854   4.781   2.239   4.460 -0.5992  0.2922  1.1031
  182SLPC  H14Y20855   4.645   2.341   4.492  0.4924 -1.0249  1.1958
  182SLPC  C31520856   4.819   2.411   4.581 -0.1930 -0.7093 -0.3371
  182SLPC  H15X20857   4.776   2.512   4.593  1.2015 -0.1400  0.0995
  182SLPC  H15Y20858   4.919   2.436   4.539 -1.5264  1.1882 -2.6370
  182SLPC  C31620859   4.808   2.341   4.719 -0.3720  0.0568  0.5390
  182SLPC  H16X20860   4.705   2.300   4.728 -1.3651  2.3479  0.1216
  182SLPC  H16Y20861   4.824   2.415   4.801 -0.0188  2.8951 -1.9372
  182SLPC  C31720862   4.915   2.235   4.728  0.4490  0.3918  0.1670
  182SLPC  H17X20863   5.010   2.275   4.686  0.7355  0.6430  1.0230
  182SLPC  H17Y20864   4.889   2.153   4.657  0.0578  1.4373 -0.9331
  182SLPC  C31820865   4.938   2.179   4.872  0.2205 -0.2428  0.3533
  182SLPC  H18X20866   4.975   2.263   4.934 -2.3836 -1.9447  4.6649
  182SLPC  H18Y20867   5.011   2.096   4.875  1.2489  0.6473  0.3837
  182SLPC  H18Z20868   4.835   2.160   4.911 -0.1766  0.4724 -0.3123
  183SLPC     N20869   6.649   4.247   2.619 -0.9285  0.2828 -0.3383
  183SLPC   C1320870   6.582   4.383   2.632  0.0617 -0.6940 -0.0656
  183SLPC  H13A20871   6.482   4.372   2.669  0.1630 -0.0705  0.4098
  183SLPC  H13B20872   6.639   4.459   2.684 -2.6522  1.6453 -0.3305
  183SLPC  H13C20873   6.568   4.423   2.533 -1.0655  0.0544  0.3879
  183SLPC   C1420874   6.788   4.266   2.562 -0.7950 -0.5091  0.1538
  183SLPC  H14A20875   6.844   4.347   2.605  2.2811 -1.4999 -1.6963
  183SLPC  H14B20876   6.853   4.181   2.568 -0.3013 -0.2065 -0.7020
  183SLPC  H14C20877   6.779   4.281   2.455  1.8936 -0.7422 -0.1552
  183SLPC   C1520878   6.567   4.167   2.530 -0.1987  0.0840 -0.4163
  183SLPC  H15A20879   6.544   4.221   2.439 -0.7193 -0.0170 -0.3478
  183SLPC  H15B20880   6.615   4.074   2.503 -0.5032 -0.5402  1.0839
  183SLPC  H15C20881   6.473   4.147   2.580  0.0311  0.4653  0.1798
  183SLPC   C1220882   6.660   4.201   2.762 -0.1276 -0.0926  0.7433
  183SLPC  H12A20883   6.566   4.207   2.814 -1.5929 -0.3017 -1.7322
  183SLPC  H12B20884   6.713   4.275   2.819 -2.3385  1.0812  1.3676
  183SLPC   C1120885   6.726   4.066   2.796 -0.4450 -0.3047  0.1185
  183SLPC  H11A20886   6.654   3.988   2.763  0.9585 -2.0775  1.0569
  183SLPC  H11B20887   6.724   4.060   2.907 -2.0882  1.4374  0.2387
  183SLPC     P20888   6.996   4.053   2.792  0.1319  0.0352 -0.0268
  183SLPC   O1320889   7.080   3.988   2.694 -0.1476  0.0264  0.0097
  183SLPC   O1420890   7.028   4.194   2.821  0.4241 -0.6354 -0.0980
  183SLPC   O1220891   6.852   4.037   2.739 -0.3473 -0.0416 -0.2137
  183SLPC   O1120892   7.005   3.965   2.923  0.3245  0.1296  0.0703
  183SLPC    C120893   7.063   4.027   3.047 -0.2982 -0.0145 -0.4166
  183SLPC    HA20894   7.169   4.043   3.017 -0.0897 -0.9829 -0.2405
  183SLPC    HB20895   7.012   4.124   3.062  2.1342  1.4838 -1.2438
  183SLPC    C220896   7.034   3.932   3.166 -0.1185  0.7338  0.1478
  183SLPC    HS20897   6.926   3.905   3.164  0.7479 -3.2648 -0.3241
  183SLPC   O2120898   7.083   4.000   3.291  0.1501 -0.0019 -0.0499
  183SLPC   C2120899   7.008   3.987   3.395 -0.0612  0.1964 -0.2226
  183SLPC   O2220900   6.903   3.923   3.397 -0.4527 -0.9698  0.0953
  183SLPC   C2220901   7.061   4.066   3.517 -0.0695 -0.0161  0.1517
  183SLPC   H2R20902   7.167   4.033   3.517  0.1773  0.7629  0.3479
  183SLPC   H2S20903   7.055   4.176   3.505 -2.3000 -0.2485 -1.3337
  183SLPC    C320904   7.116   3.793   3.145  0.5386 -0.5091  0.1080
  183SLPC    HX20905   7.222   3.824   3.132  1.4878 -2.5770  2.2481
  183SLPC    HY20906   7.090   3.738   3.052 -3.0474  0.0010  0.6553
  183SLPC   O3120907   7.117   3.716   3.259  0.3100 -0.1442 -0.0154
  183SLPC   C3120908   7.008   3.649   3.283  0.5642 -0.3412  0.4067
  183SLPC   O3220909   6.907   3.660   3.209  0.0900  0.3204 -0.5143
  183SLPC   C3220910   7.031   3.537   3.391  0.6138  0.4122  0.3965
  183SLPC   H2X20911   7.135   3.500   3.384  0.3331 -0.5726  1.0902
  183SLPC   H2Y20912   6.972   3.449   3.358  0.2421  1.1424 -0.9449
  183SLPC   C2320913   6.988   4.012   3.645 -0.8580 -0.7084  0.2063
  183SLPC   H3R20914   6.991   3.901   3.654 -2.2836 -0.6783  1.6380
  183SLPC   H3S20915   6.886   4.054   3.659 -1.2954 -2.6593  4.5930
  183SLPC   C2420916   7.050   4.066   3.774 -0.7053 -0.7085 -0.9126
  183SLPC   H4R20917   7.034   4.175   3.787 -0.4902 -0.8256  0.4790
  183SLPC   H4S20918   7.159   4.052   3.763 -0.1931 -0.4735  2.7054
  183SLPC   C2520919   6.996   3.995   3.902  0.6252 -0.0455 -0.6332
  183SLPC   H5R20920   6.977   3.886   3.896 -2.5362  0.3986 -0.3544
  183SLPC   H5S20921   6.893   4.028   3.924  0.0235 -3.3715  2.3165
  183SLPC   C2620922   7.090   4.014   4.020 -0.2876  0.9967 -0.0233
  183SLPC   H6R20923   7.116   4.122   4.030 -1.7364  1.3067  0.8042
  183SLPC   H6S20924   7.182   3.955   4.004  0.0894  1.8461 -1.1072
  183SLPC   C2720925   7.030   3.976   4.159  0.9052 -0.0881 -0.0719
  183SLPC   H7R20926   7.111   3.994   4.233  0.0106 -2.0273  1.4641
  183SLPC   H7S20927   7.017   3.865   4.160  0.1555 -0.0057  0.8977
  183SLPC   C2820928   6.898   4.051   4.197 -1.2853 -0.0739  0.6866
  183SLPC   H8R20929   6.810   4.020   4.137 -1.4551 -1.3296  1.5338
  183SLPC   H8S20930   6.912   4.157   4.168 -1.5971 -0.2228 -0.0314
  183SLPC   C2920931   6.870   4.027   4.343  0.1149 -0.5300 -0.6715
  183SLPC   H9R20932   6.809   3.940   4.371 -1.0124  0.7495  1.1113
  183SLPC  C21020933   6.893   4.115   4.440  0.2988 -0.3470  0.5827
  183SLPC  H10R20934   6.883   4.092   4.547 -0.6060  1.7034  0.9852
  183SLPC  C21120935   6.981   4.242   4.415 -0.3202 -0.5807  0.5125
  183SLPC  H11R20936   6.920   4.313   4.354  0.7325 -0.0195  0.0945
  183SLPC  H11S20937   7.071   4.230   4.351 -0.2092  0.3806  0.4761
  183SLPC  C21220938   7.020   4.311   4.542 -0.5208 -0.8766 -0.9487
  183SLPC  H12R20939   6.966   4.406   4.559 -0.6251 -1.1329  0.2509
  183SLPC  C21320940   7.118   4.268   4.629 -0.1583  0.2316 -0.9961
  183SLPC  H13R20941   7.120   4.319   4.726  2.9031  0.1178 -0.9018
  183SLPC  C21420942   7.175   4.127   4.631  0.0672  0.5799 -0.5923
  183SLPC  H14R20943   7.279   4.131   4.591  0.1683 -1.3344 -0.5964
  183SLPC  H14S20944   7.122   4.048   4.573  0.8785  0.8876 -1.7923
  183SLPC  C21520945   7.183   4.079   4.788  0.1240  0.1336 -0.1595
  183SLPC  H15R20946   7.080   4.077   4.829 -0.2918  2.3829 -0.9383
  183SLPC  H15S20947   7.245   4.155   4.839  0.7072  1.1313 -2.2372
  183SLPC  C21620948   7.247   3.942   4.805 -0.2371 -0.4882  0.4657
  183SLPC  H16R20949   7.353   3.950   4.773 -0.7653 -2.3351 -2.0366
  183SLPC  H16S20950   7.194   3.879   4.731  0.0475  1.3434 -1.3934
  183SLPC  C21720951   7.237   3.884   4.944  0.7484  0.7134 -0.6195
  183SLPC  H17R20952   7.279   3.781   4.938 -2.2033 -0.5576 -1.3515
  183SLPC  H17S20953   7.128   3.877   4.965  1.1751  0.2151  1.6120
  183SLPC  C21820954   7.308   3.957   5.060 -1.0305  0.3417 -0.8263
  183SLPC  H18R20955   7.278   4.064   5.066  1.5569  1.0580  2.4621
  183SLPC  H18S20956   7.419   3.955   5.051 -1.0288 -2.4175 -1.0667
  183SLPC  H18T20957   7.288   3.908   5.158 -0.3986  0.5365 -0.5973
  183SLPC   C3320958   6.997   3.559   3.539  0.5211  0.1458 -0.2444
  183SLPC   H3X20959   7.052   3.653   3.561 -1.1136  1.7570 -2.4920
  183SLPC   H3Y20960   7.042   3.475   3.595  1.8527  0.1303 -1.3001
  183SLPC   C3420961   6.843   3.565   3.575  0.3196  0.0486 -0.0769
  183SLPC   H4X20962   6.793   3.469   3.553 -0.3394  0.1861  0.7619
  183SLPC   H4Y20963   6.799   3.643   3.509 -0.8336 -1.9192 -1.7656
  183SLPC   C3520964   6.824   3.605   3.723  0.1395 -0.3470  0.0499
  183SLPC   H5X20965   6.718   3.634   3.736  0.8389  3.2975 -1.1164
  183SLPC   H5Y20966   6.874   3.703   3.730  0.1718 -0.3021 -0.6741
  183SLPC   C3620967   6.878   3.505   3.829  0.3525  0.1348  0.0178
  183SLPC   H6X20968   6.989   3.503   3.826  0.3806  1.3908 -0.7226
  183SLPC   H6Y20969   6.842   3.402   3.807 -0.3061 -0.5343  3.5909
  183SLPC   C3720970   6.841   3.550   3.971 -0.1187 -0.6002  1.2882
  183SLPC   H7X20971   6.732   3.566   3.981  0.0911  1.8719  0.4785
  183SLPC   H7Y20972   6.900   3.641   3.997 -0.3512  0.2987 -1.0650
  183SLPC   C3820973   6.882   3.435   4.070 -0.1831  0.2292 -0.1292
  183SLPC   H8X20974   6.987   3.402   4.059 -0.4705 -1.0654  0.7209
  183SLPC   H8Y20975   6.828   3.340   4.046  1.9945 -1.4775  1.3704
  183SLPC   C3920976   6.845   3.457   4.215 -0.4185 -0.2343 -0.2885
  183SLPC   H9X20977   6.926   3.526   4.248 -0.5955  0.0308 -0.4177
  183SLPC   H9Y20978   6.863   3.359   4.266 -1.4719 -0.8477 -1.0715
  183SLPC  C31020979   6.704   3.518   4.247 -0.1433 -1.0172 -0.7186
  183SLPC  H10X20980   6.621   3.475   4.187 -0.0821 -0.3479 -1.2955
  183SLPC  H10Y20981   6.712   3.622   4.208 -1.1429 -0.2548  0.9677
  183SLPC  C31120982   6.663   3.533   4.402 -0.2175 -0.1274 -0.3615
  183SLPC  H11X20983   6.715   3.441   4.439 -0.3499  0.1146  0.4340
  183SLPC  H11Y20984   6.555   3.524   4.427  0.0883 -1.4875  0.6073
  183SLPC  C31220985   6.722   3.667   4.457  0.3912 -0.1929  0.2274
  183SLPC  H12X20986   6.738   3.732   4.368  1.7614  0.0901  0.6525
  183SLPC  H12Y20987   6.825   3.658   4.498  1.2942 -0.2492 -1.9420
  183SLPC  C31320988   6.636   3.729   4.567  1.0115  0.1147 -0.0677
  183SLPC  H13X20989   6.638   3.663   4.656  0.1615  1.4314  0.9661
  183SLPC  H13Y20990   6.531   3.736   4.533  1.2143  0.3351 -0.6630
  183SLPC  C31420991   6.690   3.868   4.604 -0.1414 -0.7166 -0.8879
  183SLPC  H14X20992   6.666   3.937   4.520 -1.0071  0.0366 -0.0323
  183SLPC  H14Y20993   6.798   3.862   4.628 -1.0778 -3.2424  3.7776
  183SLPC  C31520994   6.622   3.930   4.727  0.2685  0.0897 -0.3104
  183SLPC  H15X20995   6.622   3.862   4.815  2.5273  1.1103  0.5719
  183SLPC  H15Y20996   6.516   3.948   4.698  0.6142 -0.2685 -1.8965
  183SLPC  C31620997   6.673   4.067   4.764 -0.1364 -0.0378  0.2229
  183SLPC  H16X20998   6.647   4.143   4.686 -0.2352 -0.7326 -0.4362
  183SLPC  H16Y20999   6.784   4.066   4.776 -0.1638  1.3694  0.8248
  183SLPC  C31721000   6.627   4.119   4.899 -0.1398 -0.0924  0.2708
  183SLPC  H17X21001   6.670   4.047   4.971 -0.5886 -1.6027 -0.9255
  183SLPC  H17Y21002   6.518   4.105   4.915 -0.4314  3.3179  2.3049
  183SLPC  C31821003   6.653   4.268   4.941  0.2872  0.4847 -0.1826
  183SLPC  H18X21004   6.612   4.279   5.044 -0.0599  1.5336 -0.4180
  183SLPC  H18Y21005   6.588   4.334   4.880 -2.1139 -1.2879  0.3129
  183SLPC  H18Z21006   6.759   4.293   4.918  0.5824 -0.6379 -0.0836
  184SLPC     N21007   0.167   5.198   2.980 -0.5150  0.8486  0.4417
  184SLPC   C1321008   0.157   5.063   2.924 -0.9015  0.2421  0.4269
  184SLPC  H13A21009   0.068   5.059   2.863 -0.5213  3.8663 -0.6186
  184SLPC  H13B21010   0.238   5.037   2.857 -1.5970  0.8048 -0.6602
  184SLPC  H13C21011   0.160   4.989   3.003 -1.1213  1.5663  1.7114
  184SLPC   C1421012   0.296   5.205   3.065  0.4214  0.0573 -0.1994
  184SLPC  H14A21013   0.376   5.168   3.001 -0.4025  0.8113 -1.7226
  184SLPC  H14B21014   0.307   5.307   3.099 -1.6595 -0.4645  2.2857
  184SLPC  H14C21015   0.291   5.133   3.145  1.6377  2.0155  1.7525
  184SLPC   C1521016   0.051   5.224   3.061  0.5802  0.5696  0.5485
  184SLPC  H15A21017   0.059   5.308   3.129  1.5047 -0.5462  1.8990
  184SLPC  H15B21018  -0.033   5.232   2.995  0.8587  3.3018  0.4412
  184SLPC  H15C21019   0.031   5.139   3.125 -1.2059  1.2228  0.9233
  184SLPC   C1221020   0.193   5.301   2.864  0.0287 -0.0222 -0.6230
  184SLPC  H12A21021   0.255   5.238   2.802 -0.2340 -2.3022  1.2919
  184SLPC  H12B21022   0.258   5.383   2.892 -1.1063  0.7011 -0.0322
  184SLPC   C1121023   0.071   5.357   2.782 -0.2934  0.3486 -0.9086
  184SLPC  H11A21024   0.120   5.413   2.699  1.4959 -0.0244 -0.1481
  184SLPC  H11B21025   0.015   5.426   2.849  0.2893  1.0293 -1.1099
  184SLPC     P21026  -0.155   5.235   2.759 -0.3210  0.1109  0.5068
  184SLPC   O1321027  -0.238   5.305   2.661  0.1232  0.0195  0.0169
  184SLPC   O1421028  -0.172   5.092   2.771  0.0645  0.3381  0.1886
  184SLPC   O1221029  -0.004   5.257   2.724  0.0804 -0.4047 -0.4783
  184SLPC   O1121030  -0.190   5.295   2.898  0.4636 -0.1302 -0.0603
  184SLPC    C121031  -0.310   5.377   2.918 -0.1057 -0.6354  0.8494
  184SLPC    HA21032  -0.287   5.470   2.861 -0.5205 -0.3931  1.0667
  184SLPC    HB21033  -0.401   5.339   2.867 -1.9681  1.9453  2.0219
  184SLPC    C221034  -0.336   5.409   3.062  0.2721 -0.3609  0.2017
  184SLPC    HS21035  -0.432   5.460   3.083  0.0785 -0.4287 -0.4931
  184SLPC   O2121036  -0.223   5.478   3.113  0.3257 -0.1306  0.3979
  184SLPC   C2121037  -0.228   5.603   3.136 -0.3684 -0.2259 -0.2438
  184SLPC   O2221038  -0.314   5.680   3.096  0.1593  0.4853 -0.3926
  184SLPC   C2221039  -0.113   5.648   3.224  0.0522 -0.3153 -0.0187
  184SLPC   H2R21040  -0.022   5.605   3.177 -0.8395 -1.9197 -0.3491
  184SLPC   H2S21041  -0.108   5.759   3.230 -2.5882 -0.2399  3.1715
  184SLPC    C321042  -0.344   5.274   3.129  0.0148 -0.3691 -0.7946
  184SLPC    HX21043  -0.258   5.207   3.106  1.7713  1.7507 -0.7785
  184SLPC    HY21044  -0.428   5.216   3.086  1.3564 -2.9570 -0.0873
  184SLPC   O3121045  -0.366   5.274   3.268 -0.1208 -0.6885  0.4188
  184SLPC   C3121046  -0.265   5.243   3.345 -0.4700  0.2385 -0.2033
  184SLPC   O3221047  -0.158   5.199   3.313  0.1236 -0.1044  0.0128
  184SLPC   C3221048  -0.307   5.265   3.492  0.4117 -0.3112  0.5174
  184SLPC   H2X21049  -0.388   5.192   3.511 -1.1894  1.5855  1.3438
  184SLPC   H2Y21050  -0.347   5.367   3.513  1.5625  0.7045 -1.8574
  184SLPC   C2321051  -0.120   5.603   3.371  0.1137 -0.0938  0.6974
  184SLPC   H3R21052  -0.080   5.500   3.381 -0.1424 -0.2916 -0.1477
  184SLPC   H3S21053  -0.225   5.587   3.403 -0.0287 -1.5695 -0.4080
  184SLPC   C2421054  -0.054   5.709   3.463  0.1187  0.5550 -0.6582
  184SLPC   H4R21055  -0.114   5.802   3.455  0.1941  0.6810  0.1629
  184SLPC   H4S21056   0.047   5.730   3.421 -0.2197  0.1081 -1.7446
  184SLPC   C2521057  -0.044   5.657   3.606  0.4528 -1.1267  0.7443
  184SLPC   H5R21058   0.037   5.582   3.611  1.4927 -0.0404  0.5809
  184SLPC   H5S21059  -0.147   5.624   3.632 -0.7432  1.2811 -0.5599
  184SLPC   C2621060  -0.013   5.771   3.703  0.4500  0.9656 -1.0157
  184SLPC   H6R21061  -0.102   5.835   3.717 -1.5424 -1.9302  0.4331
  184SLPC   H6S21062   0.069   5.828   3.653  1.5973  1.4566  1.2807
  184SLPC   C2721063   0.032   5.712   3.836  0.3331 -0.3204  0.3472
  184SLPC   H7R21064   0.134   5.670   3.826  0.2160 -0.6597  0.5804
  184SLPC   H7S21065  -0.038   5.627   3.853 -2.1090  1.2738 -1.0955
  184SLPC   C2821066   0.020   5.810   3.957  1.0307 -0.3717 -0.0761
  184SLPC   H8R21067   0.031   5.753   4.051 -0.1837  0.3128  0.5065
  184SLPC   H8S21068  -0.084   5.850   3.955 -0.2223 -3.2872  1.0489
  184SLPC   C2921069   0.112   5.925   3.958  0.1474  0.6942  0.6323
  184SLPC   H9R21070   0.120   5.973   3.859 -1.7164  1.8583  1.0004
  184SLPC  C21021071   0.162   5.996   4.064  0.3605 -0.3813 -0.0813
  184SLPC  H10R21072   0.221   6.086   4.044 -0.4587  0.3131  0.5695
  184SLPC  C21121073   0.127   5.967   4.217  0.1433  0.3804 -0.0064
  184SLPC  H11R21074   0.197   5.893   4.263 -0.0893 -0.5652 -1.1255
  184SLPC  H11S21075   0.026   5.921   4.226 -0.0517  0.5935 -0.9945
  184SLPC  C21221076   0.121   6.094   4.300 -0.1912  0.3848 -0.0542
  184SLPC  H12R21077   0.145   6.187   4.246 -0.1060 -0.9879 -2.5406
  184SLPC  C21321078   0.092   6.095   4.431 -0.8917  0.3001 -0.1566
  184SLPC  H13R21079   0.099   6.187   4.491 -0.3688 -0.3038  0.7143
  184SLPC  C21421080   0.068   5.973   4.519  0.1489 -0.4867  0.6488
  184SLPC  H14R21081   0.085   5.873   4.472  0.1367 -0.5935  0.8682
  184SLPC  H14S21082  -0.034   5.994   4.558  0.0562  1.3918 -0.4990
  184SLPC  C21521083   0.154   5.987   4.645  0.1639  0.6030 -0.7436
  184SLPC  H15R21084   0.135   6.078   4.707  1.4631  1.4153 -1.4676
  184SLPC  H15S21085   0.256   5.996   4.600 -0.9650  0.7503 -3.4563
  184SLPC  C21621086   0.139   5.852   4.718 -0.2426  0.0746  0.3974
  184SLPC  H16R21087   0.205   5.848   4.807 -1.0897  0.1395  1.0409
  184SLPC  H16S21088   0.157   5.761   4.657 -0.2646 -0.0619  0.5902
  184SLPC  C21721089   0.010   5.833   4.800 -0.2355 -0.0410  0.2963
  184SLPC  H17R21090  -0.071   5.853   4.726  0.0472  1.3996  0.3460
  184SLPC  H17S21091  -0.006   5.919   4.868  0.7069  0.9520 -0.6829
  184SLPC  C21821092  -0.009   5.694   4.859 -0.2645 -0.0219  0.9726
  184SLPC  H18R21093  -0.095   5.693   4.929 -2.2782 -0.3892 -1.4064
  184SLPC  H18S21094   0.091   5.669   4.902 -0.4335 -1.5020  0.5762
  184SLPC  H18T21095  -0.034   5.619   4.781  0.8812  0.0752  0.4859
  184SLPC   C3321096  -0.187   5.235   3.584  0.0906 -0.3688  0.1183
  184SLPC   H3X21097  -0.096   5.293   3.558 -2.6324  3.9192 -0.8952
  184SLPC   H3Y21098  -0.162   5.129   3.566  2.2234  0.2920 -1.2347
  184SLPC   C3421099  -0.225   5.260   3.733  0.8493  0.3708 -0.4328
  184SLPC   H4X21100  -0.318   5.209   3.764  0.1237  0.6315 -2.0736
  184SLPC   H4Y21101  -0.240   5.370   3.736  0.0018  0.3869 -3.0864
  184SLPC   C3521102  -0.117   5.216   3.834 -0.5852  0.5257 -0.0772
  184SLPC   H5X21103  -0.082   5.112   3.814 -0.6245  0.3148  0.8847
  184SLPC   H5Y21104  -0.163   5.212   3.935  2.3650 -1.4726  1.3480
  184SLPC   C3621105  -0.008   5.326   3.847  0.0506  0.2932  0.4426
  184SLPC   H6X21106  -0.065   5.421   3.847 -0.1550  0.1754 -0.3215
  184SLPC   H6Y21107   0.060   5.322   3.759 -0.2079  0.3643  0.2377
  184SLPC   C3721108   0.075   5.321   3.976 -0.4912 -0.4369  0.4645
  184SLPC   H7X21109   0.160   5.253   3.954 -0.1424  0.8660 -2.7119
  184SLPC   H7Y21110   0.018   5.292   4.068  1.5121  1.3942  2.3871
  184SLPC   C3821111   0.145   5.456   4.014 -0.9687 -0.0311  0.4183
  184SLPC   H8X21112   0.072   5.531   4.051 -1.0490 -0.6011  1.4442
  184SLPC   H8Y21113   0.207   5.482   3.925 -0.8897 -2.6743 -0.3978
  184SLPC   C3921114   0.245   5.434   4.125 -0.4991  0.3258 -0.3239
  184SLPC   H9X21115   0.320   5.370   4.074 -2.1970 -1.1384 -1.0876
  184SLPC   H9Y21116   0.195   5.392   4.214  0.6357  2.3612  1.3609
  184SLPC  C31021117   0.310   5.569   4.175 -0.4041 -0.2725  0.1165
  184SLPC  H10X21118   0.232   5.643   4.201 -1.7761 -1.5989 -0.0594
  184SLPC  H10Y21119   0.375   5.611   4.097 -0.6196 -0.1060  0.0255
  184SLPC  C31121120   0.404   5.542   4.294 -0.4734  0.3324  0.2310
  184SLPC  H11X21121   0.457   5.636   4.321  1.5329 -0.2995 -1.2191
  184SLPC  H11Y21122   0.489   5.474   4.272  0.1931  0.3533  2.4334
  184SLPC  C31221123   0.335   5.480   4.412  0.1269 -0.5741  0.0763
  184SLPC  H12X21124   0.368   5.375   4.422  2.3649 -0.0224 -0.7961
  184SLPC  H12Y21125   0.224   5.494   4.407  0.0704 -1.0613 -0.0265
  184SLPC  C31321126   0.381   5.543   4.544  0.0368 -0.0954  0.2336
  184SLPC  H13X21127   0.376   5.654   4.542  2.7012  0.0990 -0.0293
  184SLPC  H13Y21128   0.488   5.516   4.556  0.0217  0.2988  1.3685
  184SLPC  C31421129   0.292   5.487   4.655  0.2894  0.2534  0.3221
  184SLPC  H14X21130   0.232   5.394   4.643  0.6392 -0.1662  1.6433
  184SLPC  H14Y21131   0.212   5.558   4.685 -1.0748 -0.8121 -0.6517
  184SLPC  C31521132   0.374   5.468   4.774 -0.4266  0.4558  0.0904
  184SLPC  H15X21133   0.415   5.566   4.807 -1.2280  1.0926 -0.7702
  184SLPC  H15Y21134   0.457   5.398   4.750 -1.2843 -0.3897 -0.4741
  184SLPC  C31621135   0.297   5.396   4.879  0.4701 -0.2333  0.4843
  184SLPC  H16X21136   0.251   5.302   4.843 -1.7980  1.1248 -0.3213
  184SLPC  H16Y21137   0.207   5.457   4.901  0.9118  0.5250  0.2208
  184SLPC  C31721138   0.367   5.374   5.015  0.4323 -0.3907  0.6534
  184SLPC  H17X21139   0.464   5.328   4.985 -0.6978 -2.2346 -0.3392
  184SLPC  H17Y21140   0.310   5.298   5.073 -2.4409  0.6021 -0.6927
  184SLPC  C31821141   0.382   5.506   5.094 -0.1042 -0.2596 -0.0596
  184SLPC  H18X21142   0.287   5.554   5.126  0.9035  1.3803  0.6227
  184SLPC  H18Y21143   0.431   5.585   5.034 -0.1958  0.9774  1.4135
  184SLPC  H18Z21144   0.438   5.482   5.188 -2.0537  1.0143  1.5113
  185POPC     N21145   2.474   0.654   7.909 -0.2715 -0.0814 -0.3301
  185POPC   C1221146   2.377   0.713   8.012  0.0860  0.0720 -0.5450
  185POPC  H12A21147   2.399   0.818   8.027  0.2275 -0.1064  0.5850
  185POPC  H12B21148   2.387   0.653   8.101 -0.0805  2.5769  1.2527
  185POPC   C1321149   2.611   0.642   7.973  0.2177  1.1540  0.3087
  185POPC  H13A21150   2.615   0.571   8.053 -0.3532  0.0103 -0.6467
  185POPC  H13B21151   2.678   0.608   7.895  0.7247  1.5573  0.5604
  185POPC  H13C21152   2.650   0.736   8.011  1.9848 -0.4606  2.7585
  185POPC   C1421153   2.434   0.514   7.875 -0.6051 -0.4956  0.0462
  185POPC  H14A21154   2.506   0.476   7.805 -0.5321 -1.9033  0.8470
  185POPC  H14B21155   2.435   0.446   7.959 -2.9978 -1.5039 -0.6695
  185POPC  H14C21156   2.339   0.500   7.826 -1.1541  1.4587  0.4665
  185POPC   C1521157   2.481   0.738   7.786 -0.4202 -0.9625  0.3963
  185POPC  H15A21158   2.495   0.842   7.814  1.8733 -0.9950 -0.3859
  185POPC  H15B21159   2.385   0.739   7.737  0.4082  1.0882 -1.3402
  185POPC  H15C21160   2.565   0.715   7.721  0.9848  0.5002  1.6024
  185POPC   C1121161   2.227   0.716   7.959 -0.4318 -0.4745 -0.7608
  185POPC  H11A21162   2.166   0.773   8.032 -1.8888 -1.5135 -1.1156
  185POPC  H11B21163   2.189   0.612   7.961 -2.5310  0.2185  2.0739
  185POPC     P21164   2.083   0.745   7.751  0.0810  0.2978 -0.2932
  185POPC   O1321165   1.971   0.824   7.808  0.0010  1.1920  0.5656
  185POPC   O1421166   2.063   0.601   7.752 -0.4375  0.1448 -0.4131
  185POPC   O1221167   2.219   0.782   7.834 -0.0947 -0.2970  0.0435
  185POPC   O1121168   2.127   0.795   7.599 -0.2083  0.3749  0.5657
  185POPC    C121169   2.094   0.926   7.569 -0.0881 -0.1535 -0.2203
  185POPC    HA21170   2.152   0.996   7.633  1.1459 -0.8362 -0.5506
  185POPC    HB21171   1.988   0.958   7.577  0.5151  2.2559 -1.1434
  185POPC    C221172   2.137   0.947   7.424  0.4043  0.1363 -0.2851
  185POPC    HS21173   2.107   1.049   7.392  1.4077  0.9493  1.2377
  185POPC   O2121174   2.077   0.856   7.340  0.3529  0.4570  0.2597
  185POPC   C2121175   1.950   0.859   7.321  0.1593  0.2721 -0.1075
  185POPC   O2221176   1.869   0.942   7.360 -0.0882 -0.0269 -0.1159
  185POPC   C2221177   1.920   0.731   7.233 -1.3236  0.4729  0.4324
  185POPC   H2R21178   1.916   0.652   7.311  0.8755 -0.2704 -0.1431
  185POPC   H2S21179   2.007   0.711   7.168 -2.3432 -0.7663 -0.6055
  185POPC    C321180   2.291   0.962   7.404  0.3426  1.0380  0.0466
  185POPC    HX21181   2.338   0.861   7.408 -2.9165 -0.7432 -1.5044
  185POPC    HY21182   2.326   1.020   7.492  0.6827  0.7266  0.1195
  185POPC   O3121183   2.317   1.032   7.275 -0.4034  0.7614 -0.1968
  185POPC   C3121184   2.443   1.036   7.244 -0.3389 -0.6604 -0.7816
  185POPC   O3221185   2.537   1.004   7.319  0.1539  1.0341 -0.1906
  185POPC   C3221186   2.468   1.072   7.102 -0.4205  0.3384 -0.2280
  185POPC   H2X21187   2.442   1.177   7.080  0.7201  0.6630 -0.0702
  185POPC   H2Y21188   2.398   1.005   7.047  1.1705  0.0917 -2.0482
  185POPC   C2321189   1.792   0.759   7.154  0.0592 -0.1289  0.3019
  185POPC   H3R21190   1.713   0.808   7.216  0.2075  0.8731 -0.2838
  185POPC   H3S21191   1.743   0.661   7.136  2.0678 -0.7272 -2.4268
  185POPC   C2421192   1.806   0.829   7.018  0.1645  0.0126 -0.2651
  185POPC   H4R21193   1.883   0.782   6.952  0.4211 -1.5281  1.0975
  185POPC   H4S21194   1.843   0.933   7.032 -0.0663 -0.0684  0.9864
  185POPC   C2521195   1.679   0.855   6.935 -0.0535 -0.4569  0.0588
  185POPC   H5R21196   1.602   0.904   6.998 -0.8410  0.4143 -1.5291
  185POPC   H5S21197   1.620   0.764   6.910 -1.4655  0.0300  1.4369
  185POPC   C2621198   1.710   0.932   6.813 -0.0920 -0.5033  0.5468
  185POPC   H6R21199   1.768   1.018   6.853  1.6528  0.0072 -2.7707
  185POPC   H6S21200   1.616   0.969   6.768  1.6916  0.9520 -2.2910
  185POPC   C2721201   1.784   0.860   6.706  0.1485  0.3605  0.1399
  185POPC   H7R21202   1.725   0.768   6.688  1.1616 -0.1977 -0.4272
  185POPC   H7S21203   1.878   0.822   6.751 -0.2028 -1.2984 -0.4616
  185POPC   C2821204   1.819   0.949   6.584  0.1731 -0.2741 -0.6626
  185POPC   H8R21205   1.730   0.985   6.529 -0.7054 -2.1145 -0.5259
  185POPC   H8S21206   1.878   0.889   6.511  0.4275 -0.7434 -0.0802
  185POPC   C2921207   1.907   1.069   6.612  0.8426 -0.2592  0.3951
  185POPC   H9121208   1.865   1.133   6.692  0.4178 -0.5254  0.3868
  185POPC  C21021209   2.029   1.109   6.567  0.0929 -0.3968 -0.0346
  185POPC  H10121210   2.062   1.206   6.608 -0.7091  0.5780 -1.5814
  185POPC  C21121211   2.132   1.043   6.467  0.0860  0.5571 -0.5106
  185POPC  H11R21212   2.092   0.942   6.443  1.3473  0.0005 -0.3528
  185POPC  H11S21213   2.228   1.016   6.516  0.6604 -1.4038 -2.5086
  185POPC  C21221214   2.158   1.110   6.332  0.2878 -0.0813 -0.6739
  185POPC  H12R21215   2.236   1.190   6.334 -0.1900  0.3814  0.7542
  185POPC  H12S21216   2.065   1.160   6.297 -1.3723 -2.4261  0.1852
  185POPC  C21321217   2.206   1.014   6.223  0.3926 -0.3074 -0.1137
  185POPC  H13R21218   2.150   0.918   6.219  1.5560 -0.9935 -0.7242
  185POPC  H13S21219   2.306   0.983   6.259  0.5015 -0.8126 -0.8242
  185POPC  C21421220   2.205   1.066   6.079  0.3022  0.4553 -0.4485
  185POPC  H14R21221   2.109   1.109   6.044  1.3388  4.0380  0.5788
  185POPC  H14S21222   2.239   0.980   6.018  2.4202  0.2947  0.8629
  185POPC  C21521223   2.296   1.188   6.060 -0.0346 -0.4104  0.0445
  185POPC  H15R21224   2.402   1.153   6.066 -0.2778 -1.8350 -2.5745
  185POPC  H15S21225   2.288   1.266   6.139 -0.9570  0.9501 -1.3363
  185POPC  C21621226   2.285   1.265   5.927  0.3063  0.4454 -0.8844
  185POPC  H16R21227   2.324   1.369   5.938 -0.0996  1.0122 -3.7726
  185POPC  H16S21228   2.178   1.289   5.909  0.2166  2.1627  1.3731
  185POPC  C21721229   2.342   1.179   5.810  0.4240  0.1898 -0.4137
  185POPC  H17R21230   2.306   1.074   5.805  2.5666 -0.5994 -0.6452
  185POPC  H17S21231   2.451   1.170   5.830  0.3631 -0.3752 -0.3263
  185POPC  C21821232   2.327   1.242   5.670 -0.1053 -0.2552  0.7156
  185POPC  H18R21233   2.400   1.325   5.659 -0.3946 -0.0402  0.3785
  185POPC  H18S21234   2.222   1.272   5.649 -0.3953 -2.5391 -1.6385
  185POPC  H18T21235   2.363   1.162   5.601  0.7137 -0.2795  1.1554
  185POPC   C3321236   2.608   1.042   7.059  0.0475 -0.0466  0.4129
  185POPC   H3X21237   2.634   0.941   7.097 -2.5888 -1.0466 -0.2234
  185POPC   H3Y21238   2.685   1.105   7.109 -1.7145  1.2150  1.6460
  185POPC   C3421239   2.634   1.058   6.907 -0.4428  0.2182 -0.0967
  185POPC   H4X21240   2.606   1.160   6.874  1.8027  0.7203 -0.5541
  185POPC   H4Y21241   2.575   0.980   6.853 -1.4722  1.0543 -0.2137
  185POPC   C3521242   2.785   1.039   6.876 -0.7076  0.9062 -0.1689
  185POPC   H5X21243   2.815   0.942   6.920 -4.8080  0.0385  1.1596
  185POPC   H5Y21244   2.849   1.108   6.936  0.0494 -2.1480  2.7760
  185POPC   C3621245   2.811   1.049   6.724 -0.0483  0.2739  0.3346
  185POPC   H6X21246   2.797   1.152   6.685 -0.3251 -0.4456 -1.5892
  185POPC   H6Y21247   2.733   0.985   6.677  0.4631 -0.8021  0.9321
  185POPC   C3721248   2.952   0.997   6.684  0.0277  0.1668 -1.2542
  185POPC   H7X21249   2.971   0.899   6.733 -0.0377  0.1417 -1.2785
  185POPC   H7Y21250   3.015   1.073   6.733 -1.8437  0.7378  0.3718
  185POPC   C3821251   2.988   0.987   6.533 -0.0258  0.4447 -0.2721
  185POPC   H8X21252   2.920   0.913   6.484 -0.9252  1.4978 -0.6532
  185POPC   H8Y21253   3.095   0.956   6.536 -0.1576  0.0165  1.5620
  185POPC   C3921254   2.972   1.121   6.466 -0.0388  1.0511  0.6108
  185POPC   H9X21255   3.053   1.186   6.507 -0.3512  1.7252  0.1746
  185POPC   H9Y21256   2.880   1.176   6.495 -1.4258  0.0160 -1.6032
  185POPC  C31021257   2.974   1.118   6.314 -0.5197 -0.7524 -0.1238
  185POPC  H10X21258   2.976   1.226   6.286 -3.2294 -0.4751  0.4927
  185POPC  H10Y21259   2.888   1.071   6.262 -0.0788  0.6635 -2.2540
  185POPC  C31121260   3.101   1.056   6.253 -0.3832  0.5294  0.6552
  185POPC  H11X21261   3.110   0.954   6.295  0.4683  0.7635  1.0673
  185POPC  H11Y21262   3.186   1.118   6.289  2.8346 -2.9381 -0.3850
  185POPC  C31221263   3.104   1.036   6.104  0.4201 -0.7701  0.7593
  185POPC  H12X21264   3.059   1.119   6.046  1.2730 -0.7850  0.0427
  185POPC  H12Y21265   3.040   0.949   6.078 -1.5142  0.7968  0.0588
  185POPC  C31321266   3.245   1.019   6.051 -0.8000  0.5132 -0.6171
  185POPC  H13X21267   3.263   0.913   6.081  2.2759  1.4188  1.1441
  185POPC  H13Y21268   3.320   1.080   6.105 -0.4600  0.7864 -1.3884
  185POPC  C31421269   3.257   1.033   5.902 -0.3341  0.3772  0.4088
  185POPC  H14X21270   3.253   1.142   5.881 -1.5294  1.2171  4.1789
  185POPC  H14Y21271   3.176   0.983   5.845  0.7711  0.5934 -1.4220
  185POPC  C31521272   3.397   0.983   5.849  0.2111  0.8605  0.3723
  185POPC  H15X21273   3.399   0.876   5.881  0.1428  1.2876  1.8658
  185POPC  H15Y21274   3.475   1.018   5.920  1.4769 -0.0586 -0.5134
  185POPC  C31621275   3.424   1.001   5.702 -0.3718 -0.1048  0.2222
  185POPC  H16X21276   3.432   1.109   5.680  0.9228 -0.2714 -0.2099
  185POPC  H16Y21277   3.343   0.957   5.639 -1.3103  0.5216  0.9845
  185POPC  H16Z21278   3.525   0.961   5.676 -0.3455 -0.1170  0.3425
  186POPC     N21279   5.134   2.418   8.280  0.1348 -0.3166 -0.1080
  186POPC   C1221280   5.106   2.342   8.154 -0.4649  1.3025  0.2089
  186POPC  H12A21281   5.020   2.278   8.167  0.8639 -0.5209  0.3278
  186POPC  H12B21282   5.183   2.269   8.134 -0.3975  1.6919 -1.0235
  186POPC   C1321283   5.105   2.330   8.402  0.3786 -0.0899  0.0449
  186POPC  H13A21284   5.173   2.247   8.391  0.1951 -0.2374  0.0217
  186POPC  H13B21285   5.131   2.375   8.497  1.0703 -1.7808  0.6937
  186POPC  H13C21286   5.007   2.286   8.409  0.0898  0.5531  0.1151
  186POPC   C1421287   5.268   2.478   8.286 -1.4491  0.2130  0.2807
  186POPC  H14A21288   5.342   2.402   8.265 -2.4704 -0.8459  0.4370
  186POPC  H14B21289   5.282   2.544   8.202  0.7172  1.5544  1.5862
  186POPC  H14C21290   5.305   2.533   8.372 -0.3574  0.0588 -0.0761
  186POPC   C1521291   5.042   2.542   8.294 -0.3836  0.6652 -0.4111
  186POPC  H15A21292   5.045   2.593   8.199 -2.7201  0.7195 -0.5229
  186POPC  H15B21293   5.076   2.606   8.374  0.7265  0.5558 -0.7761
  186POPC  H15C21294   4.940   2.510   8.313 -0.4928  1.2710  0.0726
  186POPC   C1121295   5.103   2.429   8.018 -0.2892  0.7672 -0.2430
  186POPC  H11A21296   5.107   2.358   7.933  1.1725 -0.4345  0.7758
  186POPC  H11B21297   5.201   2.481   8.012  0.9461 -1.3844  0.4787
  186POPC     P21298   4.842   2.442   7.994 -0.0933  0.2193 -0.2459
  186POPC   O1321299   4.739   2.549   8.009  0.1159  0.1113 -0.2119
  186POPC   O1421300   4.828   2.320   8.076 -0.4036  0.4763  0.3285
  186POPC   O1221301   4.986   2.509   8.008 -0.2804  0.0685  0.3652
  186POPC   O1121302   4.848   2.394   7.837 -0.2468 -0.4732 -0.9170
  186POPC    C121303   4.893   2.496   7.749 -0.4261 -0.0920 -0.2034
  186POPC    HA21304   5.004   2.493   7.761 -0.6884 -0.3439  3.1503
  186POPC    HB21305   4.865   2.601   7.771 -1.1487 -0.7522  2.3899
  186POPC    C221306   4.849   2.454   7.611 -0.4005 -0.2137  0.6429
  186POPC    HS21307   4.915   2.523   7.554  2.1477 -1.6413  1.7328
  186POPC   O2121308   4.706   2.478   7.589 -0.2058  0.0961  0.3628
  186POPC   C2121309   4.680   2.599   7.535  0.2504  0.1067 -0.2615
  186POPC   O2221310   4.762   2.676   7.489  0.3211 -0.4726  0.2786
  186POPC   C2221311   4.530   2.608   7.511  0.5977  0.7384 -0.6777
  186POPC   H2R21312   4.503   2.716   7.521 -1.4489  0.4310 -2.1109
  186POPC   H2S21313   4.478   2.548   7.588  1.8716  0.3209 -0.1242
  186POPC    C321314   4.884   2.310   7.565 -0.3364 -0.6335  0.1334
  186POPC    HX21315   4.821   2.250   7.634  1.6167 -1.0234  1.6849
  186POPC    HY21316   4.990   2.298   7.595  1.8957  5.9923 -3.0279
  186POPC   O3121317   4.858   2.283   7.428 -0.4845 -0.2420  0.6179
  186POPC   C3121318   4.868   2.154   7.394  0.6932  1.1447 -0.3168
  186POPC   O3221319   4.904   2.059   7.462 -0.0538 -0.0982 -0.2644
  186POPC   C3221320   4.823   2.135   7.250 -0.0125  0.0619  0.4413
  186POPC   H2X21321   4.819   2.238   7.209 -0.1040 -0.5814 -1.2301
  186POPC   H2Y21322   4.720   2.095   7.251  0.6954 -1.8984 -0.2698
  186POPC   C2321323   4.478   2.581   7.375 -0.5275  0.2859  0.6480
  186POPC   H3R21324   4.541   2.636   7.302 -0.2395 -0.5255  0.2767
  186POPC   H3S21325   4.375   2.618   7.356 -0.7836 -0.0142  1.4268
  186POPC   C2421326   4.458   2.436   7.348 -0.7238  0.4826 -0.0813
  186POPC   H4R21327   4.396   2.388   7.427  0.6536  0.9173  1.3185
  186POPC   H4S21328   4.556   2.383   7.339  0.0066  2.0267 -1.7381
  186POPC   C2521329   4.380   2.417   7.223 -0.6767  0.3214 -0.6217
  186POPC   H5R21330   4.315   2.504   7.200 -0.6850  1.1151  2.0830
  186POPC   H5S21331   4.308   2.333   7.230  0.1447 -0.4756 -1.4729
  186POPC   C2621332   4.464   2.387   7.101 -0.0655  0.7824  0.3512
  186POPC   H6R21333   4.493   2.281   7.115 -0.1460  1.0401  2.8354
  186POPC   H6S21334   4.555   2.450   7.104  1.2257 -0.9789 -0.3598
  186POPC   C2721335   4.387   2.408   6.971  0.1969  0.3563 -0.3263
  186POPC   H7R21336   4.358   2.515   6.970 -0.6245  0.1757  1.4271
  186POPC   H7S21337   4.296   2.346   6.984 -0.0892 -0.1348 -3.7525
  186POPC   C2821338   4.475   2.356   6.859  0.3623  0.0087 -0.3373
  186POPC   H8R21339   4.476   2.246   6.843  1.7157 -0.0734  0.1843
  186POPC   H8S21340   4.580   2.380   6.887  1.0357 -0.1222 -2.5312
  186POPC   C2921341   4.449   2.435   6.735 -0.6303 -0.1963 -0.1638
  186POPC   H9121342   4.478   2.541   6.740  0.7897 -0.5991  1.5617
  186POPC  C21021343   4.387   2.387   6.627  0.0859 -0.0885  0.0295
  186POPC  H10121344   4.354   2.457   6.548 -0.9680  0.8542  1.2667
  186POPC  C21121345   4.338   2.245   6.610  0.6176  0.5932 -0.1317
  186POPC  H11R21346   4.328   2.187   6.704 -4.6332 -1.3558 -1.5285
  186POPC  H11S21347   4.416   2.201   6.544 -0.3049  0.0051 -0.8620
  186POPC  C21221348   4.193   2.239   6.550 -0.0192 -0.3733  0.6207
  186POPC  H12R21349   4.126   2.303   6.611  1.9000  0.3991  2.0115
  186POPC  H12S21350   4.162   2.133   6.563  1.6483 -1.2484 -1.8743
  186POPC  C21321351   4.169   2.287   6.401 -0.3464 -0.1906 -0.0524
  186POPC  H13R21352   4.237   2.232   6.333  0.9489  0.4993  0.6522
  186POPC  H13S21353   4.194   2.395   6.399  1.8767 -0.5414  2.7961
  186POPC  C21421354   4.021   2.269   6.359 -0.3044  0.9330 -0.0952
  186POPC  H14R21355   4.003   2.334   6.270 -1.7744  1.8353  0.8291
  186POPC  H14S21356   3.956   2.311   6.438  1.3197  1.7222  0.8808
  186POPC  C21521357   3.992   2.126   6.318  0.1922 -0.2263  0.1893
  186POPC  H15R21358   3.882   2.115   6.311  0.3491 -1.2764 -0.8135
  186POPC  H15S21359   4.026   2.063   6.402  2.3844  2.8020  1.7568
  186POPC  C21621360   4.054   2.089   6.180 -0.4634  0.1611 -0.2967
  186POPC  H16R21361   4.061   1.979   6.172 -1.5236  0.1755 -1.9445
  186POPC  H16S21362   4.158   2.130   6.176 -0.9017  1.4292  0.8107
  186POPC  C21721363   3.982   2.136   6.053  0.1540 -0.7076  0.4267
  186POPC  H17R21364   4.056   2.153   5.972 -0.2298 -0.7628  0.0607
  186POPC  H17S21365   3.940   2.236   6.077  0.5558 -0.0395 -1.5012
  186POPC  C21821366   3.879   2.041   5.992  0.3420 -0.4004 -0.3271
  186POPC  H18R21367   3.802   2.001   6.062 -0.2318 -1.1786 -1.3835
  186POPC  H18S21368   3.935   1.955   5.951  1.7268 -0.5121  1.6942
  186POPC  H18T21369   3.819   2.097   5.917  1.1244  1.7169  0.5594
  186POPC   C3321370   4.915   2.041   7.176  0.5764  0.4486 -0.2463
  186POPC   H3X21371   4.899   1.944   7.227  1.5778 -0.9507 -2.4264
  186POPC   H3Y21372   5.017   2.079   7.194  0.2384  2.0577 -1.4499
  186POPC   C3421373   4.893   2.047   7.032 -1.0466  0.3019 -0.1149
  186POPC   H4X21374   4.872   2.149   6.994 -3.6636  0.5594  1.7510
  186POPC   H4Y21375   4.806   1.982   7.009 -1.2898 -0.0271  1.6358
  186POPC   C3521376   5.022   1.989   6.963  0.1061 -0.5908 -0.2550
  186POPC   H5X21377   5.034   1.894   7.020 -0.2551 -0.3021  0.3109
  186POPC   H5Y21378   5.109   2.057   6.977 -1.2784  1.2912 -0.5289
  186POPC   C3621379   4.990   1.945   6.821 -0.1247  0.5553  0.0997
  186POPC   H6X21380   4.938   2.029   6.769 -1.8341 -1.0780 -0.9572
  186POPC   H6Y21381   4.919   1.860   6.819  0.6092 -0.0928  1.0964
  186POPC   C3721382   5.113   1.909   6.753 -0.8665  0.1742 -0.2172
  186POPC   H7X21383   5.147   1.816   6.803 -1.8957  0.7764  1.7236
  186POPC   H7Y21384   5.186   1.991   6.743 -1.1229  0.2428 -1.7470
  186POPC   C3821385   5.086   1.875   6.608 -0.5819 -0.3825  0.5712
  186POPC   H8X21386   4.991   1.818   6.604  0.3337 -1.9765  0.6117
  186POPC   H8Y21387   5.167   1.809   6.568  1.1269  2.7484 -1.6642
  186POPC   C3921388   5.090   1.993   6.506  0.6764  0.9113  0.2678
  186POPC   H9X21389   5.186   2.049   6.516  0.6453  1.7526 -3.0333
  186POPC   H9Y21390   5.021   2.069   6.549  0.8873  1.8959 -1.0776
  186POPC  C31021391   5.074   1.950   6.360 -0.0546 -0.3573  0.2891
  186POPC  H10X21392   4.991   1.877   6.346  0.0048 -0.2026 -1.0511
  186POPC  H10Y21393   5.166   1.894   6.331  0.5880  0.7474  0.1263
  186POPC  C31121394   5.058   2.069   6.265 -0.0492  0.0821  0.0600
  186POPC  H11X21395   5.135   2.145   6.291 -0.2917  0.2710  0.2330
  186POPC  H11Y21396   4.955   2.101   6.292 -0.9543 -3.4044  1.3149
  186POPC  C31221397   5.078   2.038   6.116 -0.3580 -0.0576  1.0370
  186POPC  H12X21398   5.177   1.989   6.106 -0.9657 -1.2094  0.4472
  186POPC  H12Y21399   5.084   2.134   6.060 -1.1508  0.3389  1.6121
  186POPC  C31321400   4.975   1.946   6.055 -0.0060 -0.0654 -0.3176
  186POPC  H13X21401   4.877   1.992   6.081  0.2747 -0.1934  1.0318
  186POPC  H13Y21402   4.976   1.846   6.104 -0.1594  0.6429  1.1780
  186POPC  C31421403   4.986   1.943   5.904 -0.9729  0.7630 -0.4185
  186POPC  H14X21404   4.918   1.865   5.865 -0.2480  0.5052 -1.2026
  186POPC  H14Y21405   5.081   1.891   5.880 -2.0716 -0.6056 -2.0785
  186POPC  C31521406   4.981   2.070   5.824 -0.2307  0.2426 -0.3506
  186POPC  H15X21407   4.915   2.144   5.875 -0.4879  1.7095 -2.6646
  186POPC  H15Y21408   4.918   2.050   5.734 -0.2618 -1.1155 -0.0470
  186POPC  C31621409   5.114   2.129   5.788 -0.0530  0.2157 -0.0496
  186POPC  H16X21410   5.102   2.213   5.717  0.4961 -0.4110 -0.9182
  186POPC  H16Y21411   5.180   2.054   5.739 -1.2541 -0.6015 -0.4576
  186POPC  H16Z21412   5.171   2.159   5.879  1.5711 -1.0748 -0.5881
  187POPC     N21413   0.075   0.876   2.581  0.1674 -0.4798 -1.1382
  187POPC   C1221414   0.138   0.915   2.722  0.3166  0.0127  0.6149
  187POPC  H12A21415   0.115   1.017   2.746  1.3406  0.2830  0.5085
  187POPC  H12B21416   0.246   0.920   2.714  0.1874  0.3950 -1.8700
  187POPC   C1321417   0.119   0.982   2.480  0.2055 -0.4349  0.4121
  187POPC  H13A21418   0.090   0.959   2.379  0.6630  0.1510  0.1359
  187POPC  H13B21419   0.084   1.082   2.502  1.7655 -0.1091  1.6921
  187POPC  H13C21420   0.227   0.986   2.476  0.1707 -0.1600 -1.0025
  187POPC   C1421421   0.134   0.757   2.524 -0.6605 -1.0312 -0.6797
  187POPC  H14A21422   0.134   0.680   2.600  0.0301 -0.5616 -0.1845
  187POPC  H14B21423   0.102   0.718   2.429  0.8210 -0.6941 -1.3428
  187POPC  H14C21424   0.238   0.778   2.501 -1.2054  2.8198 -0.3808
  187POPC   C1521425  -0.071   0.857   2.584  0.3553 -0.1616 -0.0022
  187POPC  H15A21426  -0.114   0.794   2.661 -2.3851 -0.6709 -1.8080
  187POPC  H15B21427  -0.098   0.802   2.495  0.7752 -2.7742  1.3892
  187POPC  H15C21428  -0.125   0.951   2.583  1.3604  0.4231 -0.1318
  187POPC   C1121429   0.099   0.828   2.845  0.0978 -0.3729 -0.0097
  187POPC  H11A21430  -0.009   0.851   2.856 -0.2638 -1.9710  0.0659
  187POPC  H11B21431   0.141   0.871   2.939  1.5073  0.3593 -0.9389
  187POPC     P21432   0.258   0.637   2.866 -0.1060 -0.1480  0.5575
  187POPC   O1321433   0.365   0.734   2.818  0.4704 -0.2455 -0.1706
  187POPC   O1421434   0.276   0.499   2.820 -0.2763 -0.0591 -0.3670
  187POPC   O1221435   0.116   0.690   2.821 -0.0264  0.0459  0.0331
  187POPC   O1121436   0.250   0.637   3.024  1.3104 -0.1872  0.7401
  187POPC    C121437   0.157   0.546   3.096  0.3257  0.1256 -0.5229
  187POPC    HA21438   0.194   0.442   3.094  1.1357  0.4176 -1.7503
  187POPC    HB21439   0.055   0.537   3.051  0.5945  2.5499 -1.8183
  187POPC    C221440   0.143   0.596   3.240 -0.4342  0.3031  0.0323
  187POPC    HS21441   0.243   0.613   3.285 -1.5143 -0.6241  3.0400
  187POPC   O2121442   0.067   0.496   3.301 -0.0456  0.6096  0.4044
  187POPC   C2121443   0.118   0.438   3.404 -0.0545 -0.4874  0.2916
  187POPC   O2221444   0.225   0.454   3.452 -0.2516  0.7439 -0.6120
  187POPC   C2221445   0.032   0.315   3.447 -0.5368  0.4231 -0.0446
  187POPC   H2R21446   0.090   0.224   3.424 -1.7936 -0.5632  0.5729
  187POPC   H2S21447  -0.056   0.313   3.379  0.5371  0.3594 -1.4652
  187POPC    C321448   0.067   0.728   3.257 -0.1642 -0.0463  0.4901
  187POPC    HX21449  -0.032   0.739   3.209  0.3085 -1.0342 -0.7416
  187POPC    HY21450   0.115   0.804   3.192 -0.4968  1.0308  1.4614
  187POPC   O3121451   0.060   0.781   3.391  0.4813  0.1666 -0.8347
  187POPC   C3121452   0.085   0.905   3.412 -0.0892  0.3456  0.8517
  187POPC   O3221453   0.116   0.989   3.326 -0.3703 -0.1629 -0.4316
  187POPC   C3221454   0.073   0.935   3.563  0.2160 -0.0671  0.3534
  187POPC   H2X21455   0.143   0.862   3.609 -1.5033 -1.3244  1.0547
  187POPC   H2Y21456  -0.027   0.898   3.593 -0.1795 -1.2996 -2.2191
  187POPC   C2321457  -0.020   0.312   3.594  0.4957  0.6905  0.3215
  187POPC   H3R21458  -0.104   0.239   3.597  1.6876 -0.7758 -0.4375
  187POPC   H3S21459  -0.063   0.408   3.630 -0.5279 -0.1274  1.3268
  187POPC   C2421460   0.081   0.261   3.689 -0.6125  0.0671  0.0022
  187POPC   H4R21461   0.169   0.329   3.684 -0.5218 -0.1290 -1.6335
  187POPC   H4S21462   0.109   0.155   3.671 -1.1421  0.1136 -1.2031
  187POPC   C2521463   0.017   0.250   3.829 -0.8880 -0.2539  0.1299
  187POPC   H5R21464  -0.038   0.344   3.846 -0.8592 -0.1862 -0.1528
  187POPC   H5S21465   0.100   0.243   3.903 -0.9420 -0.3142  0.1858
  187POPC   C2621466  -0.083   0.129   3.846 -0.5727  0.1867 -0.9060
  187POPC   H6R21467  -0.025   0.036   3.860  0.3431  0.6346 -1.6148
  187POPC   H6S21468  -0.140   0.127   3.751 -2.2314 -0.0728  0.0505
  187POPC   C2721469  -0.181   0.142   3.960  0.0099 -0.4162 -0.1917
  187POPC   H7R21470  -0.237   0.047   3.973  0.0997 -0.5373 -0.6887
  187POPC   H7S21471  -0.259   0.215   3.930  0.1071 -1.2604 -2.7000
  187POPC   C2821472  -0.122   0.167   4.100 -0.0202 -0.4121  0.3782
  187POPC   H8R21473  -0.082   0.270   4.084 -1.0991 -0.1280 -0.5498
  187POPC   H8S21474  -0.042   0.093   4.123  0.0877 -0.3137  0.3190
  187POPC   C2921475  -0.226   0.163   4.216 -0.2286 -0.6291  0.6540
  187POPC   H9121476  -0.322   0.111   4.200  0.7443 -2.4170  0.3175
  187POPC  C21021477  -0.217   0.214   4.335 -0.5308 -0.4492  0.1003
  187POPC  H10121478  -0.303   0.209   4.403 -1.2319 -0.3649 -0.7610
  187POPC  C21121479  -0.108   0.288   4.395  0.0298 -0.0714  0.2864
  187POPC  H11R21480  -0.132   0.395   4.377 -0.2326 -0.2281 -0.3228
  187POPC  H11S21481  -0.011   0.249   4.357  2.4186  1.3343  4.3209
  187POPC  C21221482  -0.096   0.268   4.551 -0.3198 -0.0494 -0.5054
  187POPC  H12R21483  -0.187   0.302   4.606  0.0459 -1.0677  0.7738
  187POPC  H12S21484  -0.017   0.336   4.588 -0.7168 -1.2009  2.7899
  187POPC  C21321485  -0.079   0.120   4.585  0.5884 -0.0957 -0.5571
  187POPC  H13R21486   0.003   0.070   4.529  0.3651 -2.6870  1.2484
  187POPC  H13S21487  -0.172   0.074   4.546 -0.8642  0.1690  2.3615
  187POPC  C21421488  -0.074   0.099   4.734  0.6299 -0.2689 -0.7478
  187POPC  H14R21489  -0.054  -0.009   4.748 -1.1426 -0.4709  0.5745
  187POPC  H14S21490  -0.176   0.119   4.773  0.6048  2.7685 -2.0395
  187POPC  C21521491   0.033   0.181   4.800 -0.0741  0.2418  0.5618
  187POPC  H15R21492  -0.005   0.286   4.796 -2.5298 -0.6101 -0.2371
  187POPC  H15S21493   0.126   0.175   4.739 -0.7730  2.4573 -0.8793
  187POPC  C21621494   0.080   0.151   4.943  1.0304  0.3046  0.0746
  187POPC  H16R21495   0.172   0.208   4.971  1.7515 -0.9055  0.2033
  187POPC  H16S21496   0.109   0.045   4.954  0.7257  0.4180  2.6157
  187POPC  C21721497  -0.033   0.181   5.045  0.1547  0.1548 -0.2720
  187POPC  H17R21498  -0.119   0.112   5.036  0.5992 -0.5391  0.5949
  187POPC  H17S21499  -0.059   0.289   5.038  0.0507  0.1537  0.0888
  187POPC  C21821500   0.019   0.162   5.189 -0.4106  0.5432  0.0058
  187POPC  H18R21501  -0.046   0.211   5.264  0.5104 -0.0662  1.2466
  187POPC  H18S21502   0.123   0.201   5.198  0.7164 -1.2840 -3.3149
  187POPC  H18T21503   0.023   0.055   5.220 -0.8406 -0.6634 -3.6286
  187POPC   C3321504   0.109   1.081   3.601 -0.2777 -0.2467 -0.9045
  187POPC   H3X21505   0.017   1.142   3.586 -0.3478 -0.0882  0.1333
  187POPC   H3Y21506   0.190   1.127   3.540  1.0529 -0.4461  0.6316
  187POPC   C3421507   0.169   1.095   3.744  0.1696 -0.7242  0.2826
  187POPC   H4X21508   0.212   1.195   3.767 -1.5005 -0.3759  2.2256
  187POPC   H4Y21509   0.248   1.018   3.736 -1.0681 -2.0382  0.2200
  187POPC   C3521510   0.075   1.059   3.858  0.1773 -0.0726 -0.0829
  187POPC   H5X21511   0.024   0.962   3.848  0.4664 -0.1126 -1.2398
  187POPC   H5Y21512  -0.005   1.136   3.867  0.3482  0.4843 -2.6121
  187POPC   C3621513   0.156   1.051   3.996 -0.4224  0.0590  0.1644
  187POPC   H6X21514   0.239   1.123   4.016  0.0684 -0.3052 -0.5084
  187POPC   H6Y21515   0.218   0.961   3.977  0.1172  0.1833  1.2730
  187POPC   C3721516   0.069   1.044   4.115 -0.0140  0.5248 -0.0341
  187POPC   H7X21517  -0.000   0.958   4.130  1.3471 -0.4151  1.1950
  187POPC   H7Y21518   0.008   1.136   4.108  2.2720  2.2432  1.3604
  187POPC   C3821519   0.151   1.062   4.243 -0.2487  0.2203 -0.7454
  187POPC   H8X21520   0.204   1.159   4.255 -0.0281 -0.0399  0.5072
  187POPC   H8Y21521   0.227   0.983   4.253 -1.0754 -0.3973  1.1558
  187POPC   C3921522   0.057   1.054   4.359 -0.1928  0.3392  0.1360
  187POPC   H9X21523   0.021   0.948   4.360  0.7470  0.0064 -0.2485
  187POPC   H9Y21524  -0.028   1.125   4.358  0.1829  0.8049  0.7710
  187POPC  C31021525   0.133   1.083   4.492 -0.2169 -0.4305  0.0251
  187POPC  H10X21526   0.161   1.190   4.499 -0.4892 -0.2036 -1.9904
  187POPC  H10Y21527   0.228   1.027   4.484 -0.8252 -2.1261  2.9196
  187POPC  C31121528   0.060   1.044   4.622  0.2628 -0.3890 -0.0837
  187POPC  H11X21529   0.041   0.936   4.610 -2.3004  0.1106 -1.1124
  187POPC  H11Y21530  -0.042   1.086   4.612  0.6188  1.7142  3.3967
  187POPC  C31221531   0.127   1.091   4.755 -0.3751 -0.7098  0.3237
  187POPC  H12X21532   0.048   1.108   4.831 -1.2703  3.1830 -1.2721
  187POPC  H12Y21533   0.177   1.184   4.722 -0.2820 -0.5279  0.9668
  187POPC  C31321534   0.241   0.993   4.795  0.7191  0.1830  0.0350
  187POPC  H13X21535   0.319   0.981   4.717 -0.9181  0.3968 -1.7185
  187POPC  H13Y21536   0.199   0.891   4.806  1.3386  0.0489  1.3322
  187POPC  C31421537   0.304   1.022   4.933 -0.2777 -0.0653 -0.8451
  187POPC  H14X21538   0.393   0.959   4.958  2.0730  3.8228  1.5601
  187POPC  H14Y21539   0.225   0.998   5.007 -0.1446  3.6613  0.6868
  187POPC  C31521540   0.365   1.163   4.959  0.3304 -0.8252  0.3232
  187POPC  H15X21541   0.398   1.163   5.065  2.5254  2.0064 -0.2144
  187POPC  H15Y21542   0.281   1.233   4.943  0.3515 -1.1205 -1.2123
  187POPC  C31621543   0.474   1.210   4.860  0.5756  0.8717 -0.2083
  187POPC  H16X21544   0.432   1.204   4.758 -2.8074 -0.0902  1.1150
  187POPC  H16Y21545   0.562   1.141   4.867 -0.0153  0.1443  0.2593
  187POPC  H16Z21546   0.502   1.315   4.883 -0.0082  0.3099  3.8681
  188POPC     N21547   6.741   0.200   2.725  0.0557 -0.2184  0.0185
  188POPC   C1221548   6.614   0.259   2.768  0.2515 -1.0358 -0.4713
  188POPC  H12A21549   6.623   0.366   2.779  0.2020 -0.7402 -2.7803
  188POPC  H12B21550   6.587   0.225   2.867  0.1516 -0.1583 -0.1888
  188POPC   C1321551   6.746   0.057   2.733 -0.5230 -0.1820 -0.4854
  188POPC  H13A21552   6.837   0.013   2.695 -1.0194 -1.2751 -0.4560
  188POPC  H13B21553   6.734   0.024   2.835 -1.0015  1.4920  0.0206
  188POPC  H13C21554   6.668   0.004   2.682 -0.2301 -1.0739 -0.0384
  188POPC   C1421555   6.785   0.244   2.588 -0.0677 -0.4924 -0.1512
  188POPC  H14A21556   6.892   0.233   2.576  0.0647  0.4412  0.0573
  188POPC  H14B21557   6.732   0.200   2.505  1.8321 -2.2578 -0.5177
  188POPC  H14C21558   6.766   0.349   2.574  3.0895  0.6687  2.8002
  188POPC   C1521559   6.844   0.245   2.834 -0.4845 -0.3766 -0.0844
  188POPC  H15A21560   6.937   0.194   2.813  0.3428  1.2170 -0.4581
  188POPC  H15B21561   6.810   0.213   2.931  2.4373 -2.6898  0.3263
  188POPC  H15C21562   6.864   0.351   2.828  0.8943 -0.6043 -0.0084
  188POPC   C1121563   6.489   0.230   2.690 -0.5444  0.0218  0.8092
  188POPC  H11A21564   6.501   0.254   2.582  1.1475 -0.6589  0.8149
  188POPC  H11B21565   6.415   0.306   2.721 -0.7103  0.4510 -0.5733
  188POPC     P21566   6.365   0.037   2.825 -0.2846  0.1157 -0.0627
  188POPC   O1321567   6.320  -0.096   2.785  0.2449 -0.2064 -0.1580
  188POPC   O1421568   6.273   0.145   2.861  0.4288  0.3591 -0.1410
  188POPC   O1221569   6.441   0.091   2.703  0.5747 -0.3433  0.3515
  188POPC   O1121570   6.493   0.025   2.930  0.3785  0.2433  0.2734
  188POPC    C121571   6.556  -0.109   2.971  0.6168 -0.3722 -0.1797
  188POPC    HA21572   6.667  -0.106   2.976  0.7177 -1.5630 -1.1527
  188POPC    HB21573   6.535  -0.186   2.894 -1.9268 -0.2248  0.2782
  188POPC    C221574   6.496  -0.155   3.110  0.7597 -0.6866  0.3625
  188POPC    HS21575   6.393  -0.186   3.084  0.5748 -2.8444  3.1934
  188POPC   O2121576   6.512  -0.055   3.205 -0.2495 -0.2009  0.0763
  188POPC   C2121577   6.407   0.029   3.219 -0.1501 -0.1424 -0.1833
  188POPC   O2221578   6.300   0.014   3.162 -0.4011  0.1147 -0.8418
  188POPC   C2221579   6.438   0.138   3.321 -0.0891  0.2142  0.9818
  188POPC   H2R21580   6.449   0.234   3.266  4.1275  0.4868  1.9560
  188POPC   H2S21581   6.524   0.106   3.385  1.2452 -3.5632 -2.2659
  188POPC    C321582   6.539  -0.290   3.167 -0.4466  0.4923 -0.2036
  188POPC    HX21583   6.649  -0.287   3.180 -0.5472 -1.1178  1.4981
  188POPC    HY21584   6.516  -0.362   3.085 -0.5801  2.1996 -1.7262
  188POPC   O3121585   6.473  -0.325   3.290 -0.4132 -0.5708 -0.6147
  188POPC   C3121586   6.522  -0.447   3.334 -0.6049  0.9927  0.0571
  188POPC   O3221587   6.610  -0.506   3.282 -0.3056  0.1618  0.1091
  188POPC   C3221588   6.442  -0.505   3.456  0.0826  0.1511 -1.1029
  188POPC   H2X21589   6.370  -0.583   3.423 -0.0306  0.3220 -1.2629
  188POPC   H2Y21590   6.398  -0.419   3.510 -0.3289 -0.8392  0.1893
  188POPC   C2321591   6.326   0.149   3.420 -0.1214  0.5661 -0.3925
  188POPC   H3R21592   6.311   0.049   3.465  0.7495  0.4319 -0.3875
  188POPC   H3S21593   6.240   0.171   3.354  0.9730  0.9982 -1.7079
  188POPC   C2421594   6.359   0.244   3.529  0.4029  0.1336  0.3468
  188POPC   H4R21595   6.321   0.341   3.489  0.8020 -1.1843 -3.6754
  188POPC   H4S21596   6.467   0.242   3.556  0.4769  0.1564  0.0575
  188POPC   C2521597   6.275   0.220   3.661  0.8745  0.3232  0.4157
  188POPC   H5R21598   6.303   0.123   3.707 -2.9872 -0.8223  0.6930
  188POPC   H5S21599   6.169   0.217   3.628  0.7813 -2.2166  0.7153
  188POPC   C2621600   6.308   0.328   3.766 -0.0147 -0.4230  0.3067
  188POPC   H6R21601   6.295   0.426   3.716  1.7721 -0.9746 -1.3751
  188POPC   H6S21602   6.416   0.311   3.785 -0.4957 -2.8701  1.2476
  188POPC   C2721603   6.239   0.314   3.901 -0.0592  0.0346 -0.9169
  188POPC   H7R21604   6.252   0.212   3.941 -2.1636  0.0303 -0.1439
  188POPC   H7S21605   6.128   0.317   3.902 -0.0709  0.4361  1.1934
  188POPC   C2821606   6.295   0.405   4.011 -0.0076 -0.5176  0.3309
  188POPC   H8R21607   6.399   0.423   3.976 -0.7264 -0.4577 -1.8601
  188POPC   H8S21608   6.296   0.344   4.105 -0.2014 -0.7259  0.1981
  188POPC   C2921609   6.229   0.540   4.009  0.1391  0.7109  0.3674
  188POPC   H9121610   6.207   0.578   3.908  0.1767 -1.3490 -0.4711
  188POPC  C21021611   6.174   0.594   4.119  0.0666 -0.0181  0.3366
  188POPC  H10121612   6.139   0.698   4.110  0.8440  0.2002 -0.3743
  188POPC  C21121613   6.199   0.544   4.262  0.3315 -0.8558  0.2422
  188POPC  H11R21614   6.158   0.442   4.278 -1.0747 -0.3329  0.1502
  188POPC  H11S21615   6.137   0.606   4.330  0.2800 -0.2560 -0.3357
  188POPC  C21221616   6.339   0.550   4.331 -0.6422 -0.1891  1.1096
  188POPC  H12R21617   6.399   0.644   4.321 -2.0202  0.5803 -0.6423
  188POPC  H12S21618   6.394   0.476   4.269 -0.1506  0.1539  1.1245
  188POPC  C21321619   6.338   0.500   4.475  0.1273  0.4411  0.5636
  188POPC  H13R21620   6.438   0.463   4.506  0.8796  0.5618 -1.5678
  188POPC  H13S21621   6.268   0.414   4.477 -1.2283  1.5122  0.8764
  188POPC  C21421622   6.272   0.602   4.573 -0.2353 -0.5700 -0.1663
  188POPC  H14R21623   6.180   0.652   4.535 -0.0160  1.5749  1.9013
  188POPC  H14S21624   6.344   0.680   4.604 -2.7337  1.1290  1.8172
  188POPC  C21521625   6.227   0.532   4.709  0.1226 -0.2268  0.1993
  188POPC  H15R21626   6.303   0.467   4.757  2.1667  1.0686 -1.1215
  188POPC  H15S21627   6.134   0.475   4.687 -1.0988  1.5934  0.4159
  188POPC  C21621628   6.207   0.641   4.815  0.2563  0.0636  0.2560
  188POPC  H16R21629   6.149   0.718   4.760 -0.1251  0.1576  0.7855
  188POPC  H16S21630   6.303   0.688   4.848  1.8240 -3.7157  1.6586
  188POPC  C21721631   6.130   0.594   4.935  0.2561  0.3653 -0.8015
  188POPC  H17R21632   6.067   0.506   4.911 -0.6064  0.7836 -0.1214
  188POPC  H17S21633   6.057   0.673   4.963 -0.1225  0.0165 -0.7910
  188POPC  C21821634   6.221   0.562   5.061 -0.5833  1.1324 -0.0992
  188POPC  H18R21635   6.166   0.594   5.152 -1.4616  0.3441 -0.3419
  188POPC  H18S21636   6.322   0.607   5.052 -0.0333  0.0986  0.7750
  188POPC  H18T21637   6.234   0.452   5.064  1.1350  1.3149 -0.0562
  188POPC   C3321638   6.541  -0.563   3.560 -0.1516 -0.3753 -0.3972
  188POPC   H3X21639   6.604  -0.479   3.595  2.0319 -1.5726 -1.2917
  188POPC   H3Y21640   6.619  -0.628   3.517 -0.9819 -1.0916 -0.8559
  188POPC   C3421641   6.475  -0.647   3.677  0.0814  0.1827 -0.0351
  188POPC   H4X21642   6.507  -0.750   3.650  0.8410  0.0965  1.1241
  188POPC   H4Y21643   6.365  -0.637   3.686 -0.2004  2.3101 -3.9140
  188POPC   C3521644   6.521  -0.615   3.824 -0.2385 -0.3772 -0.2436
  188POPC   H5X21645   6.504  -0.507   3.845  1.6342 -0.2123  0.6151
  188POPC   H5Y21646   6.632  -0.612   3.830 -0.2874 -0.7386  0.9442
  188POPC   C3621647   6.443  -0.698   3.927  0.4427  0.1537  0.0455
  188POPC   H6X21648   6.473  -0.805   3.925  0.4462  0.1112  1.3516
  188POPC   H6Y21649   6.335  -0.710   3.901  0.1231 -1.2289  1.7685
  188POPC   C3721650   6.456  -0.644   4.071  0.8449 -0.6648  0.2839
  188POPC   H7X21651   6.382  -0.562   4.088 -0.2690 -1.7158  0.6280
  188POPC   H7Y21652   6.553  -0.589   4.066  0.5425 -0.2462 -1.2589
  188POPC   C3821653   6.452  -0.753   4.176  0.5128  0.4032 -0.2612
  188POPC   H8X21654   6.511  -0.841   4.144 -1.0400 -0.4576 -0.8932
  188POPC   H8Y21655   6.346  -0.786   4.186  0.2604  1.2981  0.0986
  188POPC   C3921656   6.500  -0.704   4.314  0.8537  0.6236  0.2524
  188POPC   H9X21657   6.592  -0.644   4.299 -0.5089  2.7106 -0.2458
  188POPC   H9Y21658   6.513  -0.787   4.387 -0.5915  0.5785  0.4869
  188POPC  C31021659   6.398  -0.610   4.381  0.2795  0.7129 -0.1592
  188POPC  H10X21660   6.296  -0.653   4.376  0.9601 -1.0177  0.4152
  188POPC  H10Y21661   6.395  -0.512   4.328  0.8640  1.6205  1.4010
  188POPC  C31121662   6.432  -0.588   4.525 -0.3040  0.3262 -0.2300
  188POPC  H11X21663   6.455  -0.686   4.572 -2.1998 -0.1881 -0.2938
  188POPC  H11Y21664   6.345  -0.551   4.583 -0.0475 -1.1295  1.1395
  188POPC  C31221665   6.549  -0.496   4.539 -0.4759  0.0456  0.1300
  188POPC  H12X21666   6.521  -0.391   4.516  1.5825  0.6681  0.2658
  188POPC  H12Y21667   6.642  -0.518   4.482 -0.2748  0.6206  0.2255
  188POPC  C31321668   6.589  -0.475   4.689 -0.1574  0.7453  0.6919
  188POPC  H13X21669   6.599  -0.578   4.731  0.5357  0.4145 -0.2457
  188POPC  H13Y21670   6.513  -0.427   4.755 -0.9263 -1.6464  1.6782
  188POPC  C31421671   6.728  -0.416   4.714  1.0697  0.1371  0.0940
  188POPC  H14X21672   6.716  -0.309   4.686 -0.1609  0.2868  1.0928
  188POPC  H14Y21673   6.806  -0.447   4.641 -0.6006  1.3438 -2.3441
  188POPC  C31521674   6.765  -0.430   4.862 -0.1617  0.1557  0.4357
  188POPC  H15X21675   6.823  -0.525   4.863 -0.0941  0.1389 -1.2848
  188POPC  H15Y21676   6.669  -0.453   4.913  0.2490 -1.2670  0.6100
  188POPC  C31621677   6.858  -0.332   4.924 -0.2441 -1.0792 -0.0956
  188POPC  H16X21678   6.944  -0.304   4.861  0.3608 -1.4537  0.5411
  188POPC  H16Y21679   6.887  -0.362   5.027  0.9143  0.7257  0.1431
  188POPC  H16Z21680   6.804  -0.237   4.943  3.1879  1.6224 -2.6077
  189SAPI   C1221681   3.459   2.229   7.843  0.0158  0.5912  0.1863
  189SAPI    H221682   3.488   2.238   7.737 -0.3583  1.0160  0.1193
  189SAPI    O221683   3.322   2.194   7.843  0.2930  0.7477 -0.2000
  189SAPI   HO221684   3.291   2.173   7.755  1.6720 -1.9553 -0.1602
  189SAPI   C1321685   3.541   2.120   7.907 -0.4854 -0.7541  0.5701
  189SAPI    H321686   3.648   2.148   7.892 -0.9064  0.2307 -0.7099
  189SAPI    O321687   3.531   1.996   7.835  0.5154  0.0849 -0.3290
  189SAPI   HO321688   3.554   2.014   7.744  2.0182  0.5040  0.1162
  189SAPI   C1421689   3.517   2.108   8.060 -0.6813 -0.4588  0.1055
  189SAPI    H421690   3.426   2.047   8.072 -1.7816  0.0059 -4.2670
  189SAPI    O421691   3.616   2.040   8.134  0.1748  0.5105 -0.3280
  189SAPI   HO421692   3.580   1.958   8.169  1.4704  1.0228  2.5274
  189SAPI   C1521693   3.471   2.242   8.129 -1.1588 -0.4563 -0.1920
  189SAPI    H521694   3.559   2.289   8.178 -0.2165  0.2125 -2.4069
  189SAPI    O521695   3.376   2.223   8.231 -0.0797 -0.2077 -0.4764
  189SAPI   HO521696   3.307   2.170   8.192  1.5969 -3.9961  1.1739
  189SAPI   C1621697   3.432   2.365   8.046 -0.4727 -0.3394  0.5427
  189SAPI    H621698   3.321   2.363   8.042 -0.4728 -0.5248  0.6129
  189SAPI    O621699   3.454   2.488   8.116  0.6557  0.5131 -0.1249
  189SAPI   HO621700   3.549   2.500   8.120  1.3768 -1.6478 -4.6295
  189SAPI   C1121701   3.487   2.367   7.906  0.1917  0.6619 -0.2927
  189SAPI    H121702   3.596   2.382   7.921  0.1960 -0.2174  0.6304
  189SAPI     P21703   3.460   2.523   7.689 -0.1475  0.2875 -0.3567
  189SAPI   O1321704   3.580   2.453   7.649 -0.1941 -0.0335  0.1907
  189SAPI   O1421705   3.461   2.672   7.675 -0.7020  0.2593 -0.3363
  189SAPI   O1221706   3.420   2.476   7.839 -0.7687 -0.4938  0.3920
  189SAPI   O1121707   3.342   2.463   7.602  0.1847  0.0366 -0.4443
  189SAPI    C121708   3.204   2.499   7.610 -0.4937  0.0845 -0.1450
  189SAPI    HA21709   3.169   2.498   7.715 -1.6879  0.0935 -0.5246
  189SAPI    HB21710   3.200   2.603   7.569 -0.6646  0.3657  0.5754
  189SAPI    C221711   3.115   2.402   7.530  0.2058  0.1758 -0.3881
  189SAPI    HS21712   3.115   2.305   7.584 -0.0407  2.4293  4.0515
  189SAPI   O2121713   3.161   2.389   7.395 -0.2771  0.3444 -0.2578
  189SAPI   C2121714   3.241   2.285   7.365 -0.0870  0.2036 -0.0225
  189SAPI   O2221715   3.272   2.196   7.441 -0.8575 -0.2018 -0.4873
  189SAPI   C2221716   3.272   2.278   7.216 -0.2321 -0.1370  0.3943
  189SAPI   H2R21717   3.234   2.179   7.181  1.6897  0.0728 -2.6370
  189SAPI   H2S21718   3.217   2.360   7.166  0.9352  0.2025 -0.3802
  189SAPI    C321719   2.967   2.457   7.527 -0.4904 -0.3511 -0.7121
  189SAPI    HX21720   2.940   2.471   7.633  0.9844 -2.5224  0.0271
  189SAPI    HY21721   2.896   2.379   7.492 -2.1604  0.4729  0.7302
  189SAPI   O3121722   2.957   2.580   7.452 -0.0668  0.3895  0.1867
  189SAPI   C3121723   2.926   2.560   7.325  0.0577  0.6049  0.1119
  189SAPI   O3221724   2.872   2.461   7.280 -0.3226  0.2787 -0.2340
  189SAPI   C3221725   2.960   2.688   7.245 -0.5183 -0.4053 -0.6936
  189SAPI   H2X21726   3.070   2.699   7.260 -0.6624 -0.0455  0.1520
  189SAPI   H2Y21727   2.906   2.775   7.289 -1.5097 -1.1782 -0.3627
  189SAPI   C2321728   3.421   2.304   7.183 -0.2040 -0.0466 -0.5421
  189SAPI   H3R21729   3.451   2.294   7.077 -0.6103  0.7523 -0.7400
  189SAPI   H3S21730   3.478   2.228   7.241 -0.6627  1.2145  1.6498
  189SAPI   C2421731   3.471   2.438   7.229  0.2003 -1.2384 -0.2036
  189SAPI   H4R21732   3.577   2.460   7.203 -0.5595  3.8388 -0.1097
  189SAPI   H4S21733   3.468   2.433   7.340 -0.0274  0.3863 -0.1060
  189SAPI   C2521734   3.396   2.566   7.181  0.7949 -0.0507  0.0705
  189SAPI   H5R21735   3.331   2.612   7.258  0.8802 -1.9258  1.3355
  189SAPI   C2621736   3.408   2.624   7.055  0.4154  0.8567  0.0089
  189SAPI   H6R21737   3.366   2.724   7.038 -0.4057  0.5841  0.3682
  189SAPI   C2721738   3.485   2.566   6.940 -0.1877  0.2100 -0.1665
  189SAPI   H7R21739   3.430   2.519   6.856 -0.5796  1.9122 -0.9028
  189SAPI   H7S21740   3.540   2.475   6.974  2.7265  2.0961  0.5527
  189SAPI   C2821741   3.571   2.672   6.876  0.9001  0.3749  0.5713
  189SAPI   H8R21742   3.671   2.682   6.923  1.6210  1.0485 -1.0235
  189SAPI   C2921743   3.540   2.764   6.784 -0.7841  0.7484  0.5294
  189SAPI   H9R21744   3.624   2.822   6.742 -1.0926  1.9356  1.4767
  189SAPI  C21021745   3.412   2.771   6.705 -0.0853  1.0322  0.9535
  189SAPI  H10R21746   3.334   2.719   6.765 -0.2849  0.1913 -0.0073
  189SAPI  H10S21747   3.438   2.695   6.628  1.0199  0.5483  1.7781
  189SAPI  C21121748   3.344   2.897   6.660  0.7981 -0.3712  0.3708
  189SAPI  H11R21749   3.282   2.952   6.732 -0.3728 -1.3360  0.1550
  189SAPI  C21221750   3.350   2.951   6.537  0.4877  0.1604 -0.3936
  189SAPI  H12R21751   3.287   3.041   6.536  0.5171  0.1953  0.1757
  189SAPI  C21321752   3.426   2.915   6.409  0.3240 -0.0055 -0.3645
  189SAPI  H13R21753   3.389   2.815   6.376  0.3084 -0.6669  1.5230
  189SAPI  H13S21754   3.529   2.885   6.435  0.5111 -0.2433 -1.3339
  189SAPI  C21421755   3.404   3.014   6.297  0.0380  0.0119  0.1377
  189SAPI  H14R21756   3.387   3.117   6.333  0.4626  0.3278 -0.5322
  189SAPI  C21521757   3.360   2.979   6.168  0.0951  0.2535 -0.2379
  189SAPI  H15R21758   3.342   3.056   6.092 -0.2103  1.5486  1.0897
  189SAPI  C21621759   3.346   2.838   6.111  0.0496  0.2839 -0.2857
  189SAPI  H16R21760   3.240   2.813   6.133  0.1764 -0.1071 -0.0857
  189SAPI  H16S21761   3.406   2.761   6.166 -1.7891 -1.0531 -0.0650
  189SAPI  C21721762   3.376   2.828   5.959 -0.4142  0.2707  0.2200
  189SAPI  H17R21763   3.363   2.727   5.913  0.4132 -0.6635  1.9413
  189SAPI  H17S21764   3.482   2.861   5.949 -0.1515 -0.8185 -0.9937
  189SAPI  C21821765   3.276   2.916   5.875  0.0831 -0.0597  0.1458
  189SAPI  H18R21766   3.233   3.000   5.934 -0.7305 -0.4927  0.1792
  189SAPI  H18S21767   3.189   2.852   5.852 -1.3068  0.7711  2.6698
  189SAPI  C21921768   3.339   2.971   5.751  0.2810  0.2399  0.2852
  189SAPI  H19R21769   3.429   3.026   5.785  0.1936  0.2280  0.5412
  189SAPI  H19S21770   3.277   3.046   5.697 -2.1347 -0.7873  1.4896
  189SAPI  C22021771   3.394   2.860   5.660  0.2018  0.4040 -0.1737
  189SAPI  H20R21772   3.459   2.895   5.577  0.3114  0.3817 -0.0965
  189SAPI  H20S21773   3.312   2.794   5.625 -1.1656  1.6387  0.6084
  189SAPI  H20T21774   3.469   2.805   5.720  0.2485 -0.5695 -1.0887
  189SAPI   C3321775   2.931   2.676   7.094  0.4478 -0.4236 -0.3490
  189SAPI   H3X21776   2.940   2.780   7.057  0.7209 -0.7663 -1.2874
  189SAPI   H3Y21777   2.831   2.629   7.081 -1.4608  3.3838 -0.8073
  189SAPI   C3421778   3.028   2.587   7.026  1.0262  0.2970  0.5209
  189SAPI   H4X21779   3.014   2.486   7.069  1.7764  0.1159  0.3466
  189SAPI   H4Y21780   3.132   2.621   7.042  0.7096  1.8813 -0.5057
  189SAPI   C3521781   2.995   2.572   6.876  0.3220  0.5165 -0.3330
  189SAPI   H5X21782   3.018   2.669   6.826 -0.2480  1.7489  1.6804
  189SAPI   H5Y21783   2.887   2.551   6.862  0.5783 -0.6115 -0.7368
  189SAPI   C3621784   3.073   2.453   6.822 -0.3162 -0.1312  0.5371
  189SAPI   H6X21785   3.046   2.363   6.881 -0.8276 -0.8375 -0.7315
  189SAPI   H6Y21786   3.181   2.476   6.838 -0.6124 -0.3030  3.0092
  189SAPI   C3721787   3.041   2.410   6.681 -0.0611  0.1427 -0.2015
  189SAPI   H7X21788   2.930   2.402   6.677 -0.2590  2.5138 -1.4512
  189SAPI   H7Y21789   3.081   2.312   6.648 -0.7852 -0.3725  0.4213
  189SAPI   C3821790   3.076   2.516   6.576  0.0850  0.2354  0.0020
  189SAPI   H8X21791   3.184   2.542   6.575  0.2202 -0.2926  0.4226
  189SAPI   H8Y21792   3.026   2.612   6.599  0.0806  0.5434 -1.2081
  189SAPI   C3921793   3.029   2.472   6.433 -0.1829 -0.1788 -0.9848
  189SAPI   H9X21794   3.065   2.555   6.368 -0.5530  0.9562  0.2227
  189SAPI   H9Y21795   2.919   2.458   6.430 -0.0927 -0.8279 -2.2291
  189SAPI  C31021796   3.101   2.340   6.378 -0.0888 -0.6713 -0.3353
  189SAPI  H10X21797   3.076   2.251   6.440 -2.5105 -0.4422 -0.8695
  189SAPI  H10Y21798   3.210   2.361   6.383  0.1595 -1.9733  0.1455
  189SAPI  C31121799   3.059   2.301   6.234  0.6659 -0.8634 -0.1794
  189SAPI  H11X21800   2.949   2.282   6.235  0.2347  1.2599  0.8098
  189SAPI  H11Y21801   3.119   2.225   6.180  1.4476 -0.5695  0.2608
  189SAPI  C31221802   3.071   2.429   6.145  0.1906 -1.0548  0.0368
  189SAPI  H12X21803   3.176   2.459   6.166 -0.1772  0.3218  0.0655
  189SAPI  H12Y21804   3.007   2.514   6.178 -0.3463 -1.1954 -0.6321
  189SAPI  C31321805   3.056   2.389   6.001 -0.5729 -0.1118  0.2671
  189SAPI  H13X21806   2.948   2.401   5.980 -0.4096  1.5719  0.2537
  189SAPI  H13Y21807   3.095   2.287   5.979  3.7681  1.1799  0.9305
  189SAPI  C31421808   3.127   2.475   5.903 -0.5479 -0.3458  0.3506
  189SAPI  H14X21809   3.238   2.474   5.912 -0.2959  0.7629 -1.9563
  189SAPI  H14Y21810   3.103   2.581   5.928  0.2992  0.2513 -1.1761
  189SAPI  C31521811   3.102   2.459   5.752 -0.0951  0.7235  0.1505
  189SAPI  H15X21812   2.997   2.487   5.731 -0.1293  1.9204  1.7084
  189SAPI  H15Y21813   3.116   2.355   5.716 -1.4362  0.3851  0.5920
  189SAPI  C31621814   3.192   2.544   5.657 -0.6036 -0.1754 -0.2475
  189SAPI  H16X21815   3.301   2.535   5.678 -0.3491  1.8286 -0.5307
  189SAPI  H16Y21816   3.150   2.647   5.664  1.8961  0.8827  0.5846
  189SAPI  C31721817   3.171   2.505   5.511  0.4591  0.3450  0.4708
  189SAPI  H17X21818   3.068   2.524   5.476  0.2123 -3.0698 -1.0524
  189SAPI  H17Y21819   3.198   2.397   5.507 -0.6279  0.0386  1.1762
  189SAPI  C31821820   3.268   2.577   5.420 -0.0840  0.3020 -0.1951
  189SAPI  H18X21821   3.276   2.680   5.459  1.3911  0.1514 -0.0445
  189SAPI  H18Y21822   3.225   2.584   5.318 -0.6843 -0.3788  0.0027
  189SAPI  H18Z21823   3.370   2.532   5.418 -1.0232 -2.0224 -0.0791
  190SAPI   C1221824   2.842   4.194   7.237 -0.5537 -0.1810  0.1779
  190SAPI    H221825   2.912   4.265   7.188 -3.7555  2.6025 -0.7493
  190SAPI    O221826   2.854   4.064   7.170  0.5400 -0.2893 -0.3427
  190SAPI   HO221827   2.829   4.090   7.081 -1.2485  1.2968  0.5410
  190SAPI   C1321828   2.891   4.172   7.382  0.8135  0.0830 -0.3785
  190SAPI    H321829   2.879   4.271   7.432 -0.6433  1.1926 -2.7549
  190SAPI    O321830   3.029   4.127   7.390 -0.4434 -0.8322  0.3956
  190SAPI   HO321831   3.059   4.076   7.314  1.0656 -0.6395  0.8335
  190SAPI   C1421832   2.797   4.078   7.454  0.1560  0.4464 -0.5921
  190SAPI    H421833   2.804   3.979   7.404  2.8631 -0.0825  0.6477
  190SAPI    O421834   2.828   4.053   7.594 -0.4112  0.3475  0.1793
  190SAPI   HO421835   2.859   4.140   7.620  0.3383 -0.1807  1.1288
  190SAPI   C1521836   2.657   4.134   7.451  0.3301  0.1796  0.3758
  190SAPI    H521837   2.677   4.231   7.502 -2.8484 -0.4724  3.2424
  190SAPI    O521838   2.563   4.068   7.531  0.7968 -0.1101  0.2145
  190SAPI   HO521839   2.557   3.976   7.504  0.1657 -0.2358  0.7726
  190SAPI   C1621840   2.598   4.168   7.309 -0.3321 -0.0253  0.1193
  190SAPI    H621841   2.569   4.079   7.249  4.3957 -0.2080 -2.3442
  190SAPI    O621842   2.483   4.249   7.324 -0.1581 -0.3932 -0.2314
  190SAPI   HO621843   2.477   4.284   7.234  0.9820  0.1657 -0.1111
  190SAPI   C1121844   2.697   4.239   7.229 -0.0135 -0.1673  0.7437
  190SAPI    H121845   2.700   4.339   7.278 -0.9368 -0.7673  2.0603
  190SAPI     P21846   2.728   4.337   6.974 -0.1153 -0.2606 -0.0453
  190SAPI   O1321847   2.817   4.438   7.040 -0.5289 -0.4957 -0.6193
  190SAPI   O1421848   2.633   4.389   6.875  0.6379 -0.1621  0.2766
  190SAPI   O1221849   2.645   4.258   7.095  0.1282  0.3734  0.7142
  190SAPI   O1121850   2.818   4.219   6.910 -0.2894 -0.1931 -0.2739
  190SAPI    C121851   2.961   4.222   6.899  0.1417 -0.6060  0.1686
  190SAPI    HA21852   3.006   4.311   6.948 -2.0500  2.0364 -2.2978
  190SAPI    HB21853   3.002   4.125   6.935  1.2680 -0.6338 -1.0924
  190SAPI    C221854   3.005   4.232   6.748 -0.1643  0.1702  0.0279
  190SAPI    HS21855   3.111   4.201   6.740 -0.0285  0.1306  1.7008
  190SAPI   O2121856   2.977   4.361   6.701  0.1783 -0.4732 -0.3912
  190SAPI   C2121857   3.082   4.438   6.687 -0.0769  0.6349 -0.2997
  190SAPI   O2221858   3.199   4.406   6.701  0.0569 -0.1125 -0.0169
  190SAPI   C2221859   3.043   4.576   6.629  0.0852 -0.4310 -0.3065
  190SAPI   H2R21860   2.940   4.599   6.665  0.7223  1.3920  0.4558
  190SAPI   H2S21861   3.113   4.649   6.675 -0.1136 -0.7387  0.5023
  190SAPI    C321862   2.923   4.130   6.663 -0.4248  0.3352 -0.2331
  190SAPI    HX21863   2.814   4.136   6.680 -0.2119 -1.3674  2.1184
  190SAPI    HY21864   2.945   4.038   6.722 -0.5146  1.3343  1.4100
  190SAPI   O3121865   2.971   4.115   6.530  1.0333 -0.2907  0.4175
  190SAPI   C3121866   2.908   4.193   6.440  0.3965 -0.0590 -0.0699
  190SAPI   O3221867   2.813   4.266   6.462  0.9263  0.4646 -0.1249
  190SAPI   C3221868   2.993   4.189   6.312  0.1523  0.3051  0.2392
  190SAPI   H2X21869   3.031   4.086   6.297  0.8717  0.8138 -1.8181
  190SAPI   H2Y21870   3.075   4.262   6.332  1.7098 -1.0495 -0.9190
  190SAPI   C2321871   3.050   4.578   6.472  0.7763  0.4874 -0.7880
  190SAPI   H3R21872   3.010   4.673   6.429  2.3632  1.3310 -0.4599
  190SAPI   H3S21873   2.986   4.499   6.428  0.8539  0.0185 -0.0651
  190SAPI   C2421874   3.187   4.542   6.412  0.6366 -0.3192  0.5257
  190SAPI   H4R21875   3.178   4.559   6.303  2.0649  1.2566  0.6164
  190SAPI   H4S21876   3.224   4.440   6.436  1.5169 -0.0754  0.2448
  190SAPI   C2521877   3.294   4.637   6.470  0.1502 -0.3743  0.3269
  190SAPI   H5R21878   3.285   4.657   6.578  0.9525  0.4279  0.2625
  190SAPI   C2621879   3.400   4.685   6.408 -0.3080  0.1624 -0.1943
  190SAPI   H6R21880   3.467   4.754   6.461 -0.7536  0.7911 -0.4396
  190SAPI   C2721881   3.444   4.669   6.262  0.7038  0.4274 -0.2041
  190SAPI   H7R21882   3.404   4.575   6.217  0.7807 -0.0963  0.7972
  190SAPI   H7S21883   3.554   4.651   6.261  0.4387 -1.3864 -0.2252
  190SAPI   C2821884   3.423   4.788   6.167 -0.5301 -0.5131  0.0471
  190SAPI   H8R21885   3.440   4.889   6.209 -0.3826  1.0858 -3.4707
  190SAPI   C2921886   3.401   4.790   6.033 -0.3454 -0.0008 -0.1009
  190SAPI   H9R21887   3.386   4.884   5.978 -1.3139 -1.2814 -2.1785
  190SAPI  C21021888   3.393   4.666   5.953 -0.6276  0.1080 -0.0608
  190SAPI  H10R21889   3.462   4.590   5.995 -0.6851 -0.7179 -1.3898
  190SAPI  H10S21890   3.452   4.680   5.860 -0.2587 -0.4415  0.0876
  190SAPI  C21121891   3.262   4.602   5.934  0.3346  0.6240  0.4778
  190SAPI  H11R21892   3.194   4.616   6.019  0.5052  1.6200  0.4642
  190SAPI  C21221893   3.212   4.531   5.829 -0.4378 -0.1253 -0.3753
  190SAPI  H12R21894   3.110   4.494   5.842 -0.9417  1.0656 -0.7621
  190SAPI  C21321895   3.280   4.501   5.701 -0.0929  0.6036 -0.5773
  190SAPI  H13R21896   3.388   4.523   5.705 -0.0292  0.1793  1.0661
  190SAPI  H13S21897   3.228   4.566   5.627  0.0359  2.5396  0.9523
  190SAPI  C21421898   3.279   4.357   5.656  0.0752 -0.5002 -0.2666
  190SAPI  H14R21899   3.206   4.345   5.575 -0.6977  1.4876  0.0751
  190SAPI  C21521900   3.327   4.250   5.720 -0.6180 -0.8976  0.4991
  190SAPI  H15R21901   3.334   4.156   5.663  0.0256 -0.9102  0.5851
  190SAPI  C21621902   3.420   4.266   5.836 -0.0387  0.4138 -0.6597
  190SAPI  H16R21903   3.468   4.365   5.840 -0.3940  0.5445  1.0796
  190SAPI  H16S21904   3.506   4.196   5.827  1.1456  1.6120  0.8615
  190SAPI  C21721905   3.352   4.246   5.967 -0.2024 -0.1979 -0.1716
  190SAPI  H17R21906   3.320   4.139   5.969  0.5108 -0.4130 -0.0601
  190SAPI  H17S21907   3.261   4.308   5.984  0.9925  2.0814 -1.7314
  190SAPI  C21821908   3.446   4.270   6.085 -0.0739  0.3907  0.4798
  190SAPI  H18R21909   3.485   4.374   6.082 -1.6387  0.9827 -0.1998
  190SAPI  H18S21910   3.531   4.198   6.080  1.0913  1.6850  1.0802
  190SAPI  C21921911   3.365   4.240   6.216  0.5336 -0.5390  0.0384
  190SAPI  H19R21912   3.313   4.142   6.203  0.9384 -0.5365 -2.0861
  190SAPI  H19S21913   3.294   4.325   6.226  4.1760  2.7991 -0.1671
  190SAPI  C22021914   3.450   4.241   6.341  0.3149 -0.4158 -0.2647
  190SAPI  H20R21915   3.381   4.236   6.428 -1.6194  0.5462 -1.6872
  190SAPI  H20S21916   3.503   4.338   6.350 -1.3069  0.5831 -0.9990
  190SAPI  H20T21917   3.514   4.150   6.337  1.0023  0.0771 -0.7117
  190SAPI   C3321918   2.911   4.229   6.186  0.1942 -0.6381 -0.3046
  190SAPI   H3X21919   2.892   4.338   6.178 -1.0253 -0.8512 -0.5908
  190SAPI   H3Y21920   2.807   4.188   6.183 -0.8616  1.8499 -0.3336
  190SAPI   C3421921   2.992   4.188   6.060  0.0462  0.0561 -0.8549
  190SAPI   H4X21922   3.062   4.106   6.086  0.7165  0.4877 -1.2708
  190SAPI   H4Y21923   3.060   4.270   6.029  1.3612 -0.3803  0.7311
  190SAPI   C3521924   2.898   4.146   5.943 -0.8191  0.2729 -0.5292
  190SAPI   H5X21925   2.838   4.237   5.920  1.3771  2.2774  1.2110
  190SAPI   H5Y21926   2.822   4.073   5.977 -2.5247  1.4096 -1.6896
  190SAPI   C3621927   2.956   4.079   5.820 -0.1030 -0.5749 -0.2222
  190SAPI   H6X21928   3.011   3.987   5.847  1.9019  0.9740  1.2840
  190SAPI   H6Y21929   3.028   4.152   5.778 -1.6720  1.3570  0.3064
  190SAPI   C3721930   2.855   4.043   5.713  1.0442  0.8316 -0.2003
  190SAPI   H7X21931   2.798   4.136   5.694 -0.2904 -0.4448 -3.0008
  190SAPI   H7Y21932   2.783   3.972   5.757 -0.2434  1.4667 -1.2214
  190SAPI   C3821933   2.900   3.975   5.579  0.1715 -0.2913 -0.0113
  190SAPI   H8X21934   2.814   3.966   5.509  0.8257  1.1195 -1.0487
  190SAPI   H8Y21935   2.936   3.872   5.602 -1.9975 -1.5018 -1.6728
  190SAPI   C3921936   3.015   4.055   5.510  0.2438  0.0057 -0.6105
  190SAPI   H9X21937   3.050   3.989   5.428  0.1425  0.6811 -1.2063
  190SAPI   H9Y21938   3.101   4.068   5.579 -1.1788  0.5919  1.1180
  190SAPI  C31021939   2.963   4.200   5.456 -0.3438  1.0900 -0.9862
  190SAPI  H10X21940   2.983   4.281   5.529 -0.1577 -0.5578  0.8723
  190SAPI  H10Y21941   2.852   4.190   5.450 -0.3119 -1.4842  0.8695
  190SAPI  C31121942   3.043   4.250   5.331  0.1494  0.3059  0.3431
  190SAPI  H11X21943   3.027   4.185   5.243  3.7142  0.2555 -0.3946
  190SAPI  H11Y21944   3.153   4.239   5.346  0.0137  0.3337  1.4815
  190SAPI  C31221945   3.014   4.399   5.298  0.2005  0.2844 -0.0237
  190SAPI  H12X21946   3.047   4.452   5.390  2.2069 -1.9212  0.6545
  190SAPI  H12Y21947   2.908   4.430   5.285  1.4164  4.8083 -0.7931
  190SAPI  C31321948   3.101   4.455   5.197 -0.2487 -0.5453  0.4838
  190SAPI  H13X21949   3.206   4.435   5.226 -0.2410 -1.9083 -0.3805
  190SAPI  H13Y21950   3.082   4.564   5.200 -3.3810 -0.9287 -1.0854
  190SAPI  C31421951   3.073   4.393   5.062 -0.4269  0.1079  0.1763
  190SAPI  H14X21952   2.965   4.407   5.038 -0.4156 -1.8654 -1.2873
  190SAPI  H14Y21953   3.098   4.285   5.059  3.3575  0.8635 -1.2730
  190SAPI  C31521954   3.156   4.466   4.957  0.0553  0.3480  0.4568
  190SAPI  H15X21955   3.266   4.459   4.965  0.9091  3.6557 -4.4226
  190SAPI  H15Y21956   3.140   4.575   4.968 -0.7065  0.2720  0.1924
  190SAPI  C31621957   3.127   4.433   4.813  0.0532  1.1519 -0.1056
  190SAPI  H16X21958   3.017   4.427   4.800 -0.0626  0.0244  1.2038
  190SAPI  H16Y21959   3.162   4.333   4.782  0.4795  1.5212 -0.8626
  190SAPI  C31721960   3.210   4.523   4.718  0.6080  0.0074 -0.2351
  190SAPI  H17X21961   3.318   4.509   4.740  0.2710 -1.4742  0.6562
  190SAPI  H17Y21962   3.179   4.626   4.743  1.9025 -0.0495  1.8220
  190SAPI  C31821963   3.191   4.492   4.566 -0.1004  0.2655 -0.2683
  190SAPI  H18X21964   3.087   4.488   4.529 -0.3649  2.2721  0.1437
  190SAPI  H18Y21965   3.238   4.394   4.544 -2.0377 -0.9279  0.7109
  190SAPI  H18Z21966   3.236   4.580   4.514 -0.2057 -0.2259 -1.2020
  191SAPI   C1221967   4.887   5.120   2.128  0.2367  0.3783  0.2195
  191SAPI    H221968   4.989   5.110   2.172  0.0369 -3.2559  0.1595
  191SAPI    O221969   4.857   5.254   2.154  0.2475 -0.3170  0.7353
  191SAPI   HO221970   4.812   5.259   2.238 -0.5299  0.1853  0.2983
  191SAPI   C1321971   4.888   5.084   1.984  0.5722  0.4636  0.2021
  191SAPI    H321972   4.901   4.975   1.973 -0.3431  0.2645  0.9923
  191SAPI    O321973   5.002   5.145   1.917  0.0178 -0.3273  0.0089
  191SAPI   HO321974   4.967   5.230   1.887 -2.2306 -1.0515  0.3698
  191SAPI   C1421975   4.756   5.121   1.921  0.0169 -0.3046  0.0331
  191SAPI    H421976   4.742   5.231   1.927  0.0667 -0.2565 -0.6422
  191SAPI    O421977   4.747   5.071   1.784 -0.3384  0.3799 -0.5792
  191SAPI   HO421978   4.829   5.078   1.735 -1.3713  1.0085 -2.3243
  191SAPI   C1521979   4.640   5.054   2.001 -0.3705 -0.3548 -0.8057
  191SAPI    H521980   4.645   4.948   1.967 -0.5153 -0.7474  0.3650
  191SAPI    O521981   4.512   5.100   1.962  0.1046  0.0604 -0.1723
  191SAPI   HO521982   4.463   5.018   1.952 -1.7556  0.9010  1.4148
  191SAPI   C1621983   4.647   5.050   2.153  0.2335 -0.2770 -0.5051
  191SAPI    H621984   4.622   5.150   2.195 -1.7264 -1.8546  2.3660
  191SAPI    O621985   4.553   4.959   2.209  0.4660 -0.2911  0.0382
  191SAPI   HO621986   4.537   4.997   2.295  1.7983  0.9263 -0.2231
  191SAPI   C1121987   4.785   5.021   2.203 -0.2016 -0.1366  0.1235
  191SAPI    H121988   4.809   4.917   2.171 -1.0050 -0.0163 -0.9088
  191SAPI     P21989   4.863   4.960   2.458 -0.1119 -0.4594 -0.1631
  191SAPI   O1321990   4.885   4.829   2.401  0.0413  0.0116 -0.2884
  191SAPI   O1421991   4.775   4.965   2.577 -1.2160 -0.3120  0.2567
  191SAPI   O1221992   4.790   5.052   2.340  0.3383  0.4445  0.2261
  191SAPI   O1121993   4.998   5.031   2.486 -0.2574 -0.5199  0.3298
  191SAPI    C121994   5.007   5.173   2.493 -0.1360  0.3947  0.0061
  191SAPI    HA21995   5.076   5.213   2.416  0.6202  2.2344  1.5228
  191SAPI    HB21996   4.913   5.229   2.474  0.3802  0.8692 -1.2531
  191SAPI    C221997   5.061   5.209   2.628 -0.7078  0.3873  0.7547
  191SAPI    HS21998   5.149   5.142   2.635  1.3068  2.6566 -0.9295
  191SAPI   O2121999   4.956   5.197   2.729 -0.0694  0.0963  0.5315
  191SAPI   C2122000   4.974   5.086   2.802 -0.0994 -0.0793 -0.2802
  191SAPI   O2222001   5.063   5.006   2.783  0.1504  0.1095 -0.1289
  191SAPI   C2222002   4.871   5.071   2.905 -0.4386  0.5100 -0.5442
  191SAPI   H2R22003   4.818   4.977   2.880  1.3721  0.1533 -3.4592
  191SAPI   H2S22004   4.920   5.049   3.002 -1.0729 -0.3201 -0.4003
  191SAPI    C322005   5.100   5.359   2.632 -1.0385  0.7857  0.2473
  191SAPI    HX22006   5.015   5.426   2.610  0.0414  1.9282 -0.5670
  191SAPI    HY22007   5.185   5.378   2.564  0.1433  0.5107  1.5957
  191SAPI   O3122008   5.138   5.398   2.766  0.2024  0.7458 -0.6088
  191SAPI   C3122009   5.260   5.367   2.800  0.1400 -0.4820  0.8235
  191SAPI   O3222010   5.343   5.307   2.735  0.1011 -0.3829 -0.1059
  191SAPI   C3222011   5.291   5.438   2.928 -0.1115  0.6770 -0.7770
  191SAPI   H2X22012   5.256   5.540   2.904  2.1063  1.3931 -1.2035
  191SAPI   H2Y22013   5.400   5.451   2.942  0.0775  1.2171 -2.4722
  191SAPI   C2322014   4.771   5.190   2.903  0.2173 -0.3959  0.5932
  191SAPI   H3R22015   4.719   5.184   2.805 -0.4566 -2.8400  1.0295
  191SAPI   H3S22016   4.827   5.285   2.917  1.2378 -0.8993  0.0408
  191SAPI   C2422017   4.668   5.180   3.017  0.0005  0.5168  0.0465
  191SAPI   H4R22018   4.609   5.273   3.009  0.9245  1.1806  0.7560
  191SAPI   H4S22019   4.723   5.165   3.112 -0.4416 -0.0788  0.2159
  191SAPI   C2522020   4.575   5.068   2.990  0.5277  0.4948  0.3153
  191SAPI   H5R22021   4.603   4.990   2.918 -0.0718 -0.5478  1.1807
  191SAPI   C2622022   4.449   5.057   3.049  0.1054  0.8204  0.2117
  191SAPI   H6R22023   4.398   4.963   3.022 -0.2780  1.0440  0.1563
  191SAPI   C2722024   4.396   5.149   3.157 -0.2578  0.0636 -0.7155
  191SAPI   H7R22025   4.448   5.245   3.139 -0.0192  0.3913  1.4251
  191SAPI   H7S22026   4.428   5.108   3.255 -3.6861 -5.3923 -1.4513
  191SAPI   C2822027   4.247   5.171   3.143  0.0595 -0.7491  0.4397
  191SAPI   H8R22028   4.219   5.156   3.037  0.8478  1.4392 -0.1200
  191SAPI   C2922029   4.157   5.197   3.242  0.6541 -0.5253  0.5582
  191SAPI   H9R22030   4.053   5.221   3.215  1.3607  2.6082  0.2494
  191SAPI  C21022031   4.194   5.215   3.385  0.0489 -0.2139  0.3884
  191SAPI  H10R22032   4.304   5.221   3.399  0.0740  3.1499 -0.5537
  191SAPI  H10S22033   4.164   5.126   3.444  2.0961 -0.1138  1.6605
  191SAPI  C21122034   4.146   5.348   3.443 -0.4159  0.3295  0.6484
  191SAPI  H11R22035   4.089   5.408   3.371 -0.9470  0.3053  1.0422
  191SAPI  C21222036   4.163   5.389   3.571 -0.2210 -0.5479 -0.3049
  191SAPI  H12R22037   4.124   5.485   3.608 -1.7179 -1.0026 -0.6123
  191SAPI  C21322038   4.228   5.308   3.679  0.3451  0.3953 -0.3993
  191SAPI  H13R22039   4.237   5.199   3.660 -2.8048 -0.2339  1.0351
  191SAPI  H13S22040   4.154   5.311   3.762  0.7196 -1.7665  0.0788
  191SAPI  C21422041   4.361   5.362   3.730  0.5675  0.4038  0.5184
  191SAPI  H14R22042   4.439   5.391   3.658  0.8506  0.5854  0.8914
  191SAPI  C21522043   4.402   5.395   3.850  0.2352 -0.0881 -0.8919
  191SAPI  H15R22044   4.496   5.444   3.879 -0.4028  0.2820  0.6537
  191SAPI  C21622045   4.316   5.354   3.971  0.2085  0.2066 -1.1539
  191SAPI  H16R22046   4.273   5.252   3.957  0.4749 -0.0640 -0.0890
  191SAPI  H16S22047   4.238   5.431   3.991  1.5158  1.1229  0.7063
  191SAPI  C21722048   4.392   5.353   4.114 -0.3096 -0.3983 -0.0385
  191SAPI  H17R22049   4.416   5.460   4.132  2.5848 -0.9155 -0.2489
  191SAPI  H17S22050   4.484   5.291   4.110 -0.2481 -0.4354  1.4390
  191SAPI  C21822051   4.305   5.295   4.218  0.4971 -0.1959  0.0716
  191SAPI  H18R22052   4.275   5.192   4.188 -1.2712  0.7531 -1.5804
  191SAPI  H18S22053   4.220   5.366   4.226  0.0043 -0.9631  4.3648
  191SAPI  C21922054   4.361   5.285   4.363 -0.4659 -0.1922  0.2266
  191SAPI  H19R22055   4.277   5.266   4.433 -1.1363 -0.1948 -0.5636
  191SAPI  H19S22056   4.414   5.381   4.379  1.5162 -0.8664 -1.7654
  191SAPI  C22022057   4.480   5.197   4.373  0.0440  0.1651 -0.2895
  191SAPI  H20R22058   4.567   5.237   4.316 -0.0762  2.8273  1.2336
  191SAPI  H20S22059   4.454   5.093   4.344 -0.3712  0.5053 -1.1870
  191SAPI  H20T22060   4.516   5.186   4.477 -0.3672 -1.8762 -0.3307
  191SAPI   C3322061   5.230   5.365   3.059 -0.2161 -0.0266 -0.0065
  191SAPI   H3X22062   5.123   5.345   3.035 -0.5062  1.4566 -0.0893
  191SAPI   H3Y22063   5.246   5.436   3.144 -1.4924  2.3658 -1.6542
  191SAPI   C3422064   5.292   5.229   3.087  0.1576  0.0388  0.1338
  191SAPI   H4X22065   5.397   5.249   3.116  0.3444  1.7152 -1.5134
  191SAPI   H4Y22066   5.290   5.157   3.002 -0.0732 -2.6003  2.2361
  191SAPI   C3522067   5.215   5.155   3.203 -0.5556 -0.1212  0.6386
  191SAPI   H5X22068   5.276   5.066   3.230 -0.4144 -0.2308 -0.0208
  191SAPI   H5Y22069   5.112   5.119   3.183 -0.7562  1.1943 -0.8618
  191SAPI   C3622070   5.230   5.226   3.332  0.2000  0.2979  0.0273
  191SAPI   H6X22071   5.142   5.293   3.332 -0.5782 -0.6900 -0.6323
  191SAPI   H6Y22072   5.330   5.274   3.332 -1.1557  3.3479  1.5880
  191SAPI   C3722073   5.206   5.151   3.463 -0.2324 -0.6953 -0.4876
  191SAPI   H7X22074   5.252   5.050   3.453  2.5278  0.5731 -1.4342
  191SAPI   H7Y22075   5.097   5.137   3.484 -0.5725  0.4346 -1.3964
  191SAPI   C3822076   5.259   5.219   3.586  0.3810  0.5012  0.1356
  191SAPI   H8X22077   5.208   5.316   3.570 -0.1347 -0.0026 -1.5581
  191SAPI   H8Y22078   5.367   5.234   3.571  0.6229 -1.0326  0.1142
  191SAPI   C3922079   5.225   5.161   3.723  0.0697  0.0190  0.1598
  191SAPI   H9X22080   5.305   5.090   3.753  0.2939 -0.4119 -1.3901
  191SAPI   H9Y22081   5.126   5.112   3.724  0.2780 -0.4199  1.0457
  191SAPI  C31022082   5.219   5.256   3.843  0.7345 -0.3263  0.5127
  191SAPI  H10X22083   5.144   5.335   3.823  1.2545 -0.0371 -0.3464
  191SAPI  H10Y22084   5.320   5.300   3.856  0.9497 -0.5435 -0.3871
  191SAPI  C31122085   5.179   5.187   3.973 -0.3039  1.1177 -0.1685
  191SAPI  H11X22086   5.078   5.144   3.954 -0.2417  0.7730  0.2495
  191SAPI  H11Y22087   5.175   5.262   4.055  1.5015 -0.1461  1.1681
  191SAPI  C31222088   5.284   5.083   4.019  0.6917 -0.1205 -0.4396
  191SAPI  H12X22089   5.370   5.145   4.053 -0.7249  0.7010  1.9241
  191SAPI  H12Y22090   5.314   5.017   3.935 -1.6258 -1.5081 -0.2668
  191SAPI  C31322091   5.213   5.005   4.133 -0.1578  0.4510 -0.8142
  191SAPI  H13X22092   5.120   4.951   4.107  0.4350 -0.8969 -0.2254
  191SAPI  H13Y22093   5.180   5.077   4.211 -0.4620  1.3396 -1.7355
  191SAPI  C31422094   5.297   4.913   4.215  0.1049 -0.8887 -0.4638
  191SAPI  H14X22095   5.377   4.974   4.263  0.1822 -0.6734 -0.8613
  191SAPI  H14Y22096   5.335   4.844   4.137 -0.8818 -0.6628 -1.1542
  191SAPI  C31522097   5.224   4.837   4.328  0.1874 -0.6083  0.2261
  191SAPI  H15X22098   5.289   4.755   4.367  1.9475  0.8366  0.4571
  191SAPI  H15Y22099   5.131   4.795   4.284 -2.3821  2.3878  2.3674
  191SAPI  C31622100   5.172   4.906   4.458 -0.3956  0.3620  0.0756
  191SAPI  H16X22101   5.086   4.851   4.502  0.4274 -1.1591 -0.1589
  191SAPI  H16Y22102   5.144   5.013   4.444 -1.1247  0.3421  1.2061
  191SAPI  C31722103   5.278   4.911   4.575 -0.7389  0.2201 -0.2573
  191SAPI  H17X22104   5.379   4.937   4.539  1.3342 -1.9163  3.4033
  191SAPI  H17Y22105   5.294   4.807   4.613  1.3069  0.0171 -1.5851
  191SAPI  C31822106   5.233   5.008   4.686 -0.1564  0.5307  1.0891
  191SAPI  H18X22107   5.123   4.997   4.701 -0.4891  2.0919  0.0178
  191SAPI  H18Y22108   5.247   5.114   4.656 -1.2989  0.2925 -0.4018
  191SAPI  H18Z22109   5.297   4.997   4.776  0.8313 -0.6630  0.2736
  192SAPI   C1222110   6.228   3.723   2.720  0.1789  0.1777 -0.4295
  192SAPI    H222111   6.189   3.625   2.688  0.1058  0.8371 -2.5349
  192SAPI    O222112   6.300   3.780   2.616 -0.3681  0.4875 -0.1671
  192SAPI   HO222113   6.311   3.704   2.558  1.1310  0.4617  0.1082
  192SAPI   C1322114   6.111   3.805   2.765  0.2720 -0.4961 -0.6055
  192SAPI    H322115   6.073   3.760   2.859  1.3246 -0.4278 -0.1402
  192SAPI    O322116   6.010   3.799   2.664 -0.3683  0.4125 -0.0797
  192SAPI   HO322117   5.923   3.776   2.699 -1.0848  1.8830 -0.7959
  192SAPI   C1422118   6.155   3.945   2.798  0.5185 -0.2216 -0.0077
  192SAPI    H422119   6.177   3.997   2.702 -1.6837  1.2647  0.2257
  192SAPI    O422120   6.045   4.018   2.852 -0.2360  0.2865  0.5164
  192SAPI   HO422121   5.975   4.042   2.791 -1.6828  0.3573  2.1479
  192SAPI   C1522122   6.280   3.961   2.887 -0.2494 -0.1937 -0.2096
  192SAPI    H522123   6.244   3.966   2.992  1.4774  0.5925  0.3808
  192SAPI    O522124   6.346   4.084   2.874 -0.0119  0.0057  0.2855
  192SAPI   HO522125   6.390   4.099   2.958 -3.1409  1.2019  1.8866
  192SAPI   C1622126   6.379   3.840   2.879  0.3864  0.4698 -0.4225
  192SAPI    H622127   6.450   3.871   2.799  0.4390 -0.4460 -0.7444
  192SAPI    O622128   6.450   3.836   3.007  0.0397 -0.7728  0.6483
  192SAPI   HO622129   6.538   3.799   2.998 -0.1180 -1.1657  0.7158
  192SAPI   C1122130   6.317   3.704   2.843 -0.0796 -0.5715 -0.1664
  192SAPI    H122131   6.256   3.684   2.934  0.3939  1.9258  0.8094
  192SAPI     P22132   6.389   3.449   2.841  0.6290 -0.0434 -0.3888
  192SAPI   O1322133   6.463   3.377   2.737 -0.0757 -0.1064 -0.0250
  192SAPI   O1422134   6.246   3.434   2.845 -0.1749  0.3095 -0.1652
  192SAPI   O1222135   6.427   3.614   2.826 -0.4275  0.1706  0.2635
  192SAPI   O1122136   6.441   3.404   2.986 -0.5481 -0.1502  0.1581
  192SAPI    C122137   6.577   3.439   3.007  0.1886  0.6268 -0.6153
  192SAPI    HA22138   6.643   3.352   2.988  1.4466  1.2620  0.6352
  192SAPI    HB22139   6.617   3.532   2.962 -1.7165  0.6935 -2.2967
  192SAPI    C222140   6.600   3.461   3.161  0.2857 -0.6266  0.7632
  192SAPI    HS22141   6.697   3.513   3.175  0.0229 -0.4329  1.9472
  192SAPI   O2122142   6.616   3.346   3.241 -0.1166 -0.4626  0.0910
  192SAPI   C2122143   6.703   3.247   3.219  0.3379 -0.1196 -0.4115
  192SAPI   O2222144   6.794   3.247   3.139  0.0865 -0.6570 -0.0527
  192SAPI   C2222145   6.657   3.127   3.294 -0.3232  0.1811 -0.6766
  192SAPI   H2R22146   6.548   3.142   3.305 -0.1313  2.7115 -1.6976
  192SAPI   H2S22147   6.666   3.038   3.228 -1.0565 -0.3262 -0.1163
  192SAPI    C322148   6.488   3.556   3.220 -0.0588  0.1034 -0.0030
  192SAPI    HX22149   6.390   3.521   3.180 -0.0357  2.2000 -2.1103
  192SAPI    HY22150   6.513   3.650   3.168  2.5155 -0.2196  0.5407
  192SAPI   O3122151   6.495   3.568   3.362 -0.4659 -0.1473 -0.4894
  192SAPI   C3122152   6.415   3.497   3.444  0.1858 -0.0660  0.1555
  192SAPI   O3222153   6.337   3.406   3.408 -0.1900  0.1178  0.3290
  192SAPI   C3222154   6.447   3.535   3.591 -0.4045  0.0908 -0.4928
  192SAPI   H2X22155   6.462   3.645   3.594  1.8326 -0.1931  0.6255
  192SAPI   H2Y22156   6.542   3.486   3.620 -1.0298 -0.6194  0.3905
  192SAPI   C2322157   6.732   3.104   3.428  0.1977  0.7835  0.2608
  192SAPI   H3R22158   6.719   3.200   3.482 -0.2604  1.1769 -0.5264
  192SAPI   H3S22159   6.840   3.090   3.403 -0.0927 -0.1014 -0.5672
  192SAPI   C2422160   6.673   3.007   3.536 -0.5508 -0.0769  0.2703
  192SAPI   H4R22161   6.745   2.990   3.619 -1.0721  1.3514  1.0355
  192SAPI   H4S22162   6.681   2.912   3.479 -0.0816 -0.4501  0.9440
  192SAPI   C2522163   6.537   3.030   3.589  0.7820  0.3690  0.5148
  192SAPI   H5R22164   6.461   3.014   3.511 -1.5165 -0.0103  2.6875
  192SAPI   C2622165   6.495   3.057   3.711 -0.0010 -0.0525 -0.0675
  192SAPI   H6R22166   6.388   3.072   3.731 -0.3465 -2.0139 -0.2438
  192SAPI   C2722167   6.578   3.074   3.841 -0.2229  0.4456 -0.2865
  192SAPI   H7R22168   6.581   3.184   3.856  0.9174  0.1783  1.8611
  192SAPI   H7S22169   6.685   3.046   3.832 -0.5763 -1.7823  1.5564
  192SAPI   C2822170   6.519   2.990   3.955 -0.1099 -0.4203  0.1112
  192SAPI   H8R22171   6.524   2.884   3.926 -0.8312 -0.2986 -0.5071
  192SAPI   C2922172   6.507   3.006   4.087  0.3234 -0.3844  0.0396
  192SAPI   H9R22173   6.451   2.928   4.141  2.5127 -1.2913  1.1277
  192SAPI  C21022174   6.518   3.129   4.166  1.0073 -0.2901  0.1960
  192SAPI  H10R22175   6.566   3.203   4.098 -0.8504 -0.7420 -1.7223
  192SAPI  H10S22176   6.582   3.112   4.255 -1.6696 -2.2225  1.8786
  192SAPI  C21122177   6.379   3.179   4.200 -0.0645 -0.4035 -0.5209
  192SAPI  H11R22178   6.307   3.198   4.119  0.5288  1.9883 -0.5528
  192SAPI  C21222179   6.327   3.212   4.322  0.6435 -0.3771  0.2172
  192SAPI  H12R22180   6.223   3.246   4.318  0.5570 -0.6117  0.4781
  192SAPI  C21322181   6.397   3.222   4.453 -0.4558  0.0139 -0.1102
  192SAPI  H13R22182   6.379   3.319   4.504  2.1633  0.2771  0.4215
  192SAPI  H13S22183   6.505   3.219   4.428 -0.3689  0.9122  0.1190
  192SAPI  C21422184   6.364   3.100   4.539  0.3218 -0.1725  0.1371
  192SAPI  H14R22185   6.430   3.013   4.545 -1.2154 -1.4631 -0.9134
  192SAPI  C21522186   6.244   3.087   4.604  0.2859  0.0732 -0.1503
  192SAPI  H15R22187   6.228   2.998   4.666  0.9773 -0.8303 -1.2269
  192SAPI  C21622188   6.128   3.181   4.605 -0.5438  0.1257  0.5143
  192SAPI  H16R22189   6.045   3.130   4.553  0.1001 -0.6056  0.1786
  192SAPI  H16S22190   6.164   3.269   4.547 -0.8133 -0.3211 -0.3358
  192SAPI  C21722191   6.078   3.230   4.739 -0.9578 -0.6722  0.3034
  192SAPI  H17R22192   6.055   3.143   4.804  0.7127 -1.7022 -0.4237
  192SAPI  H17S22193   5.984   3.289   4.730 -0.3028  0.3253 -0.1621
  192SAPI  C21822194   6.186   3.315   4.804 -0.1438  0.3522  0.7493
  192SAPI  H18R22195   6.211   3.392   4.729 -0.1883  0.5808  0.9659
  192SAPI  H18S22196   6.281   3.260   4.822 -1.3172 -1.8945  0.4053
  192SAPI  C21922197   6.145   3.394   4.934 -0.2661 -0.1772  0.3356
  192SAPI  H19R22198   6.121   3.317   5.011  1.4500 -0.0612  1.0398
  192SAPI  H19S22199   6.053   3.455   4.930 -0.8617 -1.0902 -0.3429
  192SAPI  C22022200   6.260   3.470   5.007 -0.2057 -0.1302 -0.0820
  192SAPI  H20R22201   6.218   3.514   5.100 -0.4961 -0.1080 -0.2247
  192SAPI  H20S22202   6.315   3.542   4.943 -0.1083  0.1262  0.2864
  192SAPI  H20T22203   6.342   3.403   5.042  0.2582 -0.2354 -1.3342
  192SAPI   C3322204   6.330   3.504   3.692  0.0346 -0.2510  0.0501
  192SAPI   H3X22205   6.294   3.400   3.682  0.0263 -0.1753 -0.7990
  192SAPI   H3Y22206   6.245   3.575   3.681 -0.8700 -1.0764  1.4045
  192SAPI   C3422207   6.396   3.525   3.831  0.3807  0.0801  0.0262
  192SAPI   H4X22208   6.435   3.629   3.843 -1.1623  0.5523  1.1677
  192SAPI   H4Y22209   6.485   3.461   3.846  1.6249  1.8006  0.3710
  192SAPI   C3522210   6.292   3.516   3.945 -0.1398 -0.4145 -0.0284
  192SAPI   H5X22211   6.243   3.416   3.945 -0.7428 -0.1365 -1.2915
  192SAPI   H5Y22212   6.226   3.592   3.899 -0.7250 -1.4310 -0.9018
  192SAPI   C3622213   6.330   3.558   4.087 -0.3161  0.3275  0.2387
  192SAPI   H6X22214   6.372   3.660   4.096  0.7981 -0.1662  0.7912
  192SAPI   H6Y22215   6.406   3.496   4.138  1.0644  1.4396 -0.3851
  192SAPI   C3722216   6.214   3.543   4.194 -0.2360 -0.3833 -0.3662
  192SAPI   H7X22217   6.177   3.438   4.188  1.1335 -0.9078 -0.0329
  192SAPI   H7Y22218   6.134   3.616   4.171 -0.5596 -0.0648  1.5893
  192SAPI   C3822219   6.262   3.588   4.329 -0.0708 -0.2513 -0.1540
  192SAPI   H8X22220   6.315   3.681   4.298 -2.1314  1.2146  0.4651
  192SAPI   H8Y22221   6.339   3.520   4.370 -0.6872  0.2333  1.9375
  192SAPI   C3922222   6.149   3.604   4.440 -0.4032 -0.3359  0.2786
  192SAPI   H9X22223   6.113   3.505   4.476  0.9052 -0.5662  1.0138
  192SAPI   H9Y22224   6.072   3.665   4.388  1.1188  1.6229  0.2019
  192SAPI  C31022225   6.216   3.687   4.553 -0.0356  0.3703  0.7368
  192SAPI  H10X22226   6.247   3.790   4.525 -0.7746 -0.0493 -1.9012
  192SAPI  H10Y22227   6.308   3.637   4.588 -0.3497  0.4481  1.7241
  192SAPI  C31122228   6.126   3.704   4.678  0.2620 -0.6568  0.8216
  192SAPI  H11X22229   6.089   3.613   4.730  0.1506 -0.5730  0.8911
  192SAPI  H11Y22230   6.034   3.762   4.656  0.9758  0.6015  1.0963
  192SAPI  C31222231   6.218   3.789   4.771  0.9223 -0.1796 -0.6592
  192SAPI  H12X22232   6.250   3.887   4.729  0.9051 -0.4444 -1.2998
  192SAPI  H12Y22233   6.306   3.727   4.797  1.0729  0.1774 -0.2954
  192SAPI  C31322234   6.149   3.808   4.904 -0.2670 -0.5657 -0.1734
  192SAPI  H13X22235   6.223   3.847   4.977 -1.5108  4.1458 -1.1365
  192SAPI  H13Y22236   6.108   3.708   4.931  2.2980 -1.0621  2.4115
  192SAPI  C31422237   6.041   3.913   4.906  0.4615  0.7442 -0.6061
  192SAPI  H14X22238   5.969   3.881   4.984 -0.2319  3.5226 -0.0054
  192SAPI  H14Y22239   5.976   3.904   4.816 -1.5135  1.2668  0.7193
  192SAPI  C31522240   6.079   4.056   4.946 -0.3059 -0.4430  0.6871
  192SAPI  H15X22241   6.183   4.075   4.913 -0.5092 -0.4899 -0.0025
  192SAPI  H15Y22242   6.072   4.069   5.056  2.0648 -1.2189  0.9840
  192SAPI  C31622243   5.981   4.154   4.883 -0.1519  0.0696 -0.1327
  192SAPI  H16X22244   5.876   4.126   4.905 -0.5692  1.7978  0.2395
  192SAPI  H16Y22245   5.984   4.162   4.772  2.3035  1.1176 -0.0566
  192SAPI  C31722246   5.985   4.302   4.926 -0.4433 -0.5185  0.0516
  192SAPI  H17X22247   6.094   4.322   4.926 -0.0568 -2.3089 -1.1209
  192SAPI  H17Y22248   5.955   4.316   5.032 -0.2147  0.3413  0.0014
  192SAPI  C31822249   5.905   4.388   4.830 -0.2106 -0.0242 -0.5955
  192SAPI  H18X22250   5.919   4.497   4.845  0.1806 -0.4191  2.4679
  192SAPI  H18Y22251   5.797   4.366   4.843 -0.2580  1.1095  1.3066
  192SAPI  H18Z22252   5.947   4.370   4.728  0.8894  0.9257 -0.3299
  193SOD    SOD22253   0.489   0.363   7.819  0.0445 -0.3673 -0.1605
  194SOD    SOD22254   4.645   1.669   8.945 -0.1658  0.6699  0.0073
  195SOD    SOD22255   3.712   1.607   0.476 -0.0310 -0.0092  0.0414
  196SOD    SOD22256   1.467   3.295   0.246  0.3354  0.3934 -0.5907
  197SOD    SOD22257   1.243   3.100   8.442 -0.3402  0.0413 -0.2138
  198SOD    SOD22258   3.011   5.016   7.368  0.0727 -0.3337  0.0357
  199SOD    SOD22259   2.773   5.067   8.857 -0.1298 -0.1474  0.7444
  200SOD    SOD22260   4.084   4.405   7.466  0.0595 -0.1290  0.6263
  201SOD    SOD22261   6.450   1.383   3.012 -0.1725  0.3640 -0.1307
  202SOD    SOD22262   4.287   0.421   3.003  0.0176  0.5059  0.1504
  203SOD    SOD22263   6.283   6.505   8.063  0.1945  0.0013  0.4437
  204SOD    SOD22264   6.259   0.882   8.023  0.6666 -0.3492 -0.1075
  205SOD    SOD22265   3.907   2.988   8.161  0.2172 -0.0143 -0.0687
  206SOD    SOD22266   6.092   4.763   8.455 -0.0707  0.6082  0.1431
  207SOD    SOD22267   0.248   3.139   2.125 -0.2516  0.1987  0.1169
  208SOD    SOD22268   2.487   5.753   2.385 -0.2310 -0.0709 -0.3423
  209SOD    SOD22269   1.286   2.477   8.437  0.1419  0.3702 -0.2111
  210SOD    SOD22270   3.220   1.875   7.618 -0.3976  0.3557 -0.1254
  211SOD    SOD22271   2.367   6.628   2.386 -0.2701 -0.1749  0.2114
  212SOD    SOD22272   0.170   4.526   7.562  0.1701 -1.1286  0.7656
  213SOD    SOD22273   2.856   4.720   2.707 -0.1303  0.0870  0.6112
  214SOD    SOD22274   0.091   1.193   8.095 -0.6919 -0.3659 -0.1105
  215SOD    SOD22275   0.454   1.271   0.540  0.0144  0.1879 -0.5467
  216SOD    SOD22276   3.284   5.224   0.611 -0.4650  0.6397 -0.2167
  217SOD    SOD22277   2.848   1.917   8.637  0.6805  0.0789  0.1018
  218SOD    SOD22278   2.115   1.998   2.887  0.0577 -0.0579 -0.0483
  219SOD    SOD22279   4.834   1.127   1.281  0.0202 -0.2696 -0.1354
  220SOD    SOD22280   0.930   2.523   2.709  0.6996  0.1100 -0.1200
  221SOD    SOD22281   3.491   0.532   3.238  0.0655 -0.2042 -0.8980
  222SOD    SOD22282   4.656   4.831   0.056 -0.3536  0.1987  0.5151
  223SOD    SOD22283   4.526   3.202   1.677 -0.4034  0.1081  0.0183
  224SOD    SOD22284   3.678   4.857   1.271  0.2249  0.1517 -0.4861
  225SOD    SOD22285   2.543   0.257   7.562 -0.0623 -0.2278  0.4124
  226SOD    SOD22286   4.730   3.308   0.625 -0.2590 -0.2516  0.2557
  227SOD    SOD22287   0.460   4.330   2.426  0.0863  0.2535 -0.1341
  228SOD    SOD22288   3.706   3.138   2.609  0.0273  0.2239  0.1922
  229SOD    SOD22289   5.108   6.524   2.771 -0.5046 -0.2178 -0.2457
  230SOD    SOD22290   5.564   6.181   8.883  0.1429 -0.2246  0.3900
  231SOD    SOD22291   0.238   6.681   8.794 -0.0001 -0.2211 -0.3894
  232SOD    SOD22292   3.283   2.971   1.918 -0.5708  0.1270  0.1386
  233SOD    SOD22293   3.615   6.317   0.757  0.0317  0.4404  0.2397
  234CLA    CLA22294   3.293   2.488   1.263 -0.0706 -0.3341  0.0961
  235CLA    CLA22295   3.716   3.573   1.780  0.1073 -0.5928  0.0904
  236CLA    CLA22296   0.492   0.313   1.241 -0.0359  0.2636 -0.2706
  237CLA    CLA22297   4.873   1.490   2.348  0.1721  0.4740 -0.2025
  238CLA    CLA22298   6.083   0.492   8.483 -0.3834 -0.0676  0.3603
  239CLA    CLA22299   2.834   1.224   0.313 -0.0820 -0.2492 -0.1639
  240CLA    CLA22300   5.175   1.318   1.545 -0.5227 -0.4193 -0.1370
  241CLA    CLA22301   4.717   6.733   8.460 -0.3417 -0.2753  0.3138
  242CLA    CLA22302   4.395   4.792   7.666 -0.3133 -0.1950 -0.1573
  243CLA    CLA22303   3.369   4.443   8.766  0.0216  0.5990  0.0740
  244CLA    CLA22304   2.116   2.811   0.017  0.0554 -0.2636  0.2544
  245CLA    CLA22305   2.827   4.204   1.483 -0.0198 -0.1708 -0.0602
  246CLA    CLA22306   6.677   0.050   1.946  0.1253  0.0115  0.2604
  247CLA    CLA22307   2.873   4.969   7.610  0.0208 -0.0445  0.2547
  248CLA    CLA22308   1.243   3.129   0.643 -0.0657  0.0732  0.2465
  249CLA    CLA22309   4.044   3.117   1.845  0.4014 -0.0566  0.0997
  250CLA    CLA22310   1.093   2.119   1.651 -0.2560  0.3556 -0.0681
  251TIP3   OH222311   0.726   2.338   7.615 -0.0270  0.3421 -0.2994
  251TIP3    H122312   0.795   2.315   7.552  0.3398  0.5864  0.0013
  251TIP3    H222313   0.660   2.270   7.606  0.5400 -0.2299 -0.1718
  252TIP3   OH222314   3.146   5.105   7.674 -0.0275  0.3122 -0.2988
  252TIP3    H122315   3.104   5.191   7.672 -0.9077 -0.1032 -2.4722
  252TIP3    H222316   3.085   5.048   7.627  1.4231 -1.0778 -0.5731
  253TIP3   OH222317   5.165   5.535   0.198 -0.3138 -0.3817  0.1119
  253TIP3    H122318   5.236   5.544   0.261 -0.9404 -0.5344  0.8562
  253TIP3    H222319   5.208   5.518   0.114  0.4809 -2.4427  0.8806
  254TIP3   OH222320   2.109   2.897   1.022  0.5083  0.0241  0.0793
  254TIP3    H122321   2.120   2.917   1.115 -1.2068 -1.8681  0.7758
  254TIP3    H222322   2.051   2.966   0.989 -0.0129 -0.0724  0.7818
  255TIP3   OH222323   4.060   6.620   0.126 -0.2987 -0.0131 -0.5619
  255TIP3    H122324   3.977   6.633   0.081 -0.8978 -0.7586  0.2677
  255TIP3    H222325   4.077   6.704   0.169  0.7342  0.9957 -2.8172
  256TIP3   OH222326   1.482   0.195   1.402 -0.9927 -0.4437  0.4562
  256TIP3    H122327   1.559   0.209   1.348 -0.2990 -1.0983  1.2483
  256TIP3    H222328   1.408   0.200   1.341 -0.2789 -0.5489 -0.4324
  257TIP3   OH222329   6.248   2.719   2.790 -0.5029 -0.6122  0.5129
  257TIP3    H122330   6.331   2.749   2.827 -1.3898  3.8278 -0.5328
  257TIP3    H222331   6.227   2.640   2.839  3.3674 -0.8540  2.1220
  258TIP3   OH222332   4.551   1.069   2.837 -0.2241 -0.4089  0.1605
  258TIP3    H122333   4.643   1.087   2.818 -0.0238 -0.1601  1.2536
  258TIP3    H222334   4.529   1.132   2.907 -0.1251 -2.9166  2.6088
  259TIP3   OH222335   4.342   3.048   1.483  0.1870  0.5884  0.6128
  259TIP3    H122336   4.313   3.080   1.568 -0.5577  2.0392 -0.1305
  259TIP3    H222337   4.308   3.113   1.421 -0.1474 -0.9425 -0.8767
  260TIP3   OH222338   5.543   0.090   3.057  0.1245  0.4536  0.0973
  260TIP3    H122339   5.566   0.144   2.982  0.6984 -1.7647 -1.3939
  260TIP3    H222340   5.606   0.018   3.056 -1.2510 -0.8474  1.3554
  261TIP3   OH222341   4.990   4.856   1.758 -0.1652 -1.1096 -0.0747
  261TIP3    H122342   5.012   4.787   1.695 -0.3524 -0.2376 -1.1264
  261TIP3    H222343   4.983   4.935   1.705  0.3668 -0.2075  1.1476
  262TIP3   OH222344   5.952   2.497   1.601  0.1021  0.5474  0.0589
  262TIP3    H122345   5.933   2.581   1.642  0.3406  0.3773  0.5260
  262TIP3    H222346   6.026   2.462   1.651 -1.8040 -1.2733  1.8025
  263TIP3   OH222347   3.438   1.066   1.522 -0.4641  0.0115  0.3252
  263TIP3    H122348   3.439   1.162   1.525  1.7092  0.0694 -0.6159
  263TIP3    H222349   3.406   1.046   1.433 -3.6788 -0.2893  1.4026
  264TIP3   OH222350   6.115   5.310   0.850  0.0000 -0.7457  0.2862
  264TIP3    H122351   6.204   5.337   0.825  0.0985 -1.3409 -0.0212
  264TIP3    H222352   6.127   5.223   0.887 -0.2204 -0.1291  1.8932
  265TIP3   OH222353   1.306   2.424   2.379  0.3822 -0.2789 -0.3358
  265TIP3    H122354   1.285   2.449   2.469  1.0819 -0.4577 -0.1216
  265TIP3    H222355   1.373   2.357   2.387 -0.2176 -0.9708 -0.9636
  266TIP3   OH222356   0.570   5.484   8.650  0.3224  0.3141  0.2154
  266TIP3    H122357   0.569   5.489   8.745  3.2931 -1.1774  0.4550
  266TIP3    H222358   0.624   5.558   8.623 -0.8062  0.9437 -0.3792
  267TIP3   OH222359   3.400   2.884   0.356 -0.4280 -0.1425 -0.4467
  267TIP3    H122360   3.394   2.913   0.265  2.0382  1.1702 -0.2858
  267TIP3    H222361   3.372   2.960   0.408 -1.4568 -0.7578 -0.0606
  268TIP3   OH222362   1.815   6.581   3.134  0.8986  0.7534  0.0910
  268TIP3    H122363   1.846   6.641   3.201 -0.2991  0.9286  0.4955
  268TIP3    H222364   1.784   6.504   3.183  1.7869  0.0767 -0.3792
  269TIP3   OH222365   6.159   2.604   3.099  0.1599  0.4688  0.0929
  269TIP3    H122366   6.229   2.598   3.035  1.1860  0.0943  1.2283
  269TIP3    H222367   6.082   2.568   3.054  1.3296 -1.7593 -0.2561
  270TIP3   OH222368   4.018   4.193   7.055  0.7071  0.8324 -0.1208
  270TIP3    H122369   4.042   4.243   7.134 -0.0308 -1.0163  1.3354
  270TIP3    H222370   3.967   4.119   7.088  1.0507 -0.4377 -2.2874
  271TIP3   OH222371   3.117   3.251   1.395  0.3249 -0.5397 -0.2417
  271TIP3    H122372   3.192   3.294   1.436  0.9018 -1.4381 -0.3268
  271TIP3    H222373   3.123   3.275   1.303 -0.0522  0.1726 -0.0869
  272TIP3   OH222374   4.608   5.668   1.570  1.0087  0.4951 -0.1345
  272TIP3    H122375   4.638   5.731   1.636  0.2403  1.3484 -0.5705
  272TIP3    H222376   4.547   5.611   1.617  1.3927  0.3347  0.1706
  273TIP3   OH222377   4.438   4.775   8.678  0.0818 -0.2253  0.6668
  273TIP3    H122378   4.422   4.700   8.735  0.6708 -0.4937  0.4861
  273TIP3    H222379   4.357   4.786   8.629 -0.8268  0.6621  2.2743
  274TIP3   OH222380   6.096   1.539   7.573 -0.1272  0.1390  0.3979
  274TIP3    H122381   6.115   1.470   7.510 -0.5194  0.3817  0.0028
  274TIP3    H222382   6.129   1.619   7.531 -0.6681  0.3475  0.3473
  275TIP3   OH222383   4.845   4.358   0.939  0.3270 -0.0993 -0.0285
  275TIP3    H122384   4.814   4.357   1.030  1.6077  3.1057  0.5786
  275TIP3    H222385   4.852   4.266   0.915  0.3482 -1.0801  3.2848
  276TIP3   OH222386   1.295   5.001   8.662 -0.0521 -0.0085  0.2753
  276TIP3    H122387   1.334   5.056   8.595 -0.3198 -0.3739 -0.1847
  276TIP3    H222388   1.241   4.938   8.614  0.8963 -1.2081  0.7388
  277TIP3   OH222389   1.007   0.714   0.969 -0.0300 -0.5519 -0.1632
  277TIP3    H122390   1.055   0.773   1.027 -1.2695  1.7760 -1.4122
  277TIP3    H222391   1.062   0.706   0.891 -0.2866 -0.3115 -0.3687
  278TIP3   OH222392   4.219   4.284   7.251 -0.5690 -0.5075 -0.0299
  278TIP3    H122393   4.311   4.308   7.240 -0.8552  0.4660 -0.4731
  278TIP3    H222394   4.220   4.194   7.282  0.5398 -0.4205  0.2031
  279TIP3   OH222395   5.377   5.412   7.973  0.1178 -0.0597 -0.1603
  279TIP3    H122396   5.374   5.508   7.971 -0.7939  0.0473  2.5177
  279TIP3    H222397   5.355   5.385   7.884  0.1393  2.2076 -0.9109
  280TIP3   OH222398   2.669   4.194   8.516  0.6066 -0.2378 -0.3852
  280TIP3    H122399   2.712   4.204   8.601  0.4032 -0.3564 -0.2683
  280TIP3    H222400   2.695   4.273   8.468  0.0756  0.2253  0.0716
  281TIP3   OH222401   0.767   4.807   8.311  0.0777 -0.2362 -0.0962
  281TIP3    H122402   0.673   4.799   8.293  0.6887 -1.6715 -3.4283
  281TIP3    H222403   0.788   4.729   8.362 -0.3462 -0.5488 -0.3918
  282TIP3   OH222404   0.755   6.540   8.120 -0.0151  0.2674  0.0979
  282TIP3    H122405   0.690   6.573   8.058  0.1798 -0.7244 -0.6510
  282TIP3    H222406   0.799   6.469   8.074  0.1387 -0.4934  1.3705
  283TIP3   OH222407   2.583   6.076   0.915 -0.4639  0.0640  0.4269
  283TIP3    H122408   2.591   6.171   0.902 -3.2870  0.2442 -0.6539
  283TIP3    H222409   2.515   6.049   0.854  0.0538 -2.6495  0.9271
  284TIP3   OH222410   3.044   5.494   6.901 -0.5924 -0.5167 -0.0439
  284TIP3    H122411   2.955   5.493   6.863 -0.6747  0.9388  0.0484
  284TIP3    H222412   3.055   5.406   6.937 -1.0032 -1.5876 -2.2977
  285TIP3   OH222413   4.617   2.691   2.085  0.4306  0.2239  0.0095
  285TIP3    H122414   4.689   2.731   2.133 -0.7721 -0.3107  2.3842
  285TIP3    H222415   4.539   2.740   2.113 -0.5824 -1.4336  0.1848
  286TIP3   OH222416   4.613   6.567   8.719 -0.3220 -0.0647 -0.1299
  286TIP3    H122417   4.640   6.628   8.650  0.0550  0.3476  0.3782
  286TIP3    H222418   4.566   6.498   8.672  0.8693 -0.3621 -0.9385
  287TIP3   OH222419   3.743   3.820   8.206 -0.2534 -0.2409  0.9686
  287TIP3    H122420   3.818   3.773   8.244  1.1880  0.1116 -1.2608
  287TIP3    H222421   3.683   3.751   8.177  0.1431 -0.5983  0.9951
  288TIP3   OH222422   5.468   6.582   1.680  0.2447  0.4329  0.1702
  288TIP3    H122423   5.396   6.611   1.736 -0.7745 -1.5046 -0.0564
  288TIP3    H222424   5.537   6.647   1.694 -0.0721  0.2287  3.4366
  289TIP3   OH222425   6.013   2.741   0.648  0.1111 -0.3693 -0.7163
  289TIP3    H122426   5.922   2.767   0.632  0.6276  0.8288 -1.8338
  289TIP3    H222427   6.059   2.823   0.664  0.8693 -1.0244  0.7144
  290TIP3   OH222428   4.091   4.112   7.874 -0.1138  0.5235  0.0279
  290TIP3    H122429   3.996   4.107   7.866  0.0929 -0.4761 -3.2435
  290TIP3    H222430   4.117   4.028   7.912 -0.4166 -0.4897 -1.8826
  291TIP3   OH222431   6.423   1.794   1.390  0.7203 -0.2573  0.2365
  291TIP3    H122432   6.343   1.744   1.403 -1.0545  2.4602  0.4134
  291TIP3    H222433   6.491   1.741   1.433 -0.9522 -2.5340  0.2708
  292TIP3   OH222434   1.966   0.710   3.575 -0.6469  0.1504 -0.0710
  292TIP3    H122435   1.945   0.639   3.513  3.0326  0.0343 -1.4057
  292TIP3    H222436   2.000   0.664   3.652 -0.1210  0.4177 -0.1447
  293TIP3   OH222437   6.008   6.063   1.498  0.3234 -0.5634  0.3771
  293TIP3    H122438   6.020   5.986   1.555 -1.0892 -0.2764  1.1159
  293TIP3    H222439   5.958   6.125   1.552  0.9921  0.6807 -0.3863
  294TIP3   OH222440   2.942   3.551   0.275 -0.3769 -0.3346  1.2989
  294TIP3    H122441   3.030   3.525   0.302  0.1498  0.6399  0.5733
  294TIP3    H222442   2.891   3.550   0.356  0.4138 -0.4979  1.8018
  295TIP3   OH222443   5.988   3.483   0.880  0.0718  1.1885 -0.4979
  295TIP3    H122444   5.970   3.572   0.910  1.3355  0.8439  1.4284
  295TIP3    H222445   6.081   3.469   0.898 -0.4123 -1.0196  0.6665
  296TIP3   OH222446   0.058   1.601   8.297 -0.6097  0.1110  0.2465
  296TIP3    H122447   0.091   1.690   8.308  0.9965 -0.6550  2.2552
  296TIP3    H222448  -0.032   1.605   8.329 -0.7830  1.1362 -0.3221
  297TIP3   OH222449   3.570   5.711   7.369  0.6940 -0.3521 -0.2067
  297TIP3    H122450   3.519   5.791   7.385  1.9869  0.2138  1.4681
  297TIP3    H222451   3.526   5.643   7.419  1.1258 -0.0385  0.6149
  298TIP3   OH222452   5.343   3.607   7.523  0.5157 -0.3443 -0.7402
  298TIP3    H122453   5.367   3.593   7.432 -0.4008  0.5156 -1.1393
  298TIP3    H222454   5.249   3.587   7.526  0.3599  0.4207 -0.1697
  299TIP3   OH222455   0.445   6.076   7.877 -0.7524  0.3829  0.1162
  299TIP3    H122456   0.402   6.120   7.804 -1.4931 -1.8438 -0.8761
  299TIP3    H222457   0.538   6.093   7.865 -0.9726  1.2971 -0.4395
  300TIP3   OH222458   0.174   5.599   7.214  0.3003  0.3189  0.1723
  300TIP3    H122459   0.143   5.619   7.126  1.9880  1.7701 -0.1422
  300TIP3    H222460   0.099   5.558   7.257 -0.0816 -1.9895 -2.4064
  301TIP3   OH222461   3.783   1.387   7.406  0.7050  0.2000  0.3584
  301TIP3    H122462   3.711   1.378   7.469  0.7672  2.0314  0.7368
  301TIP3    H222463   3.765   1.321   7.339  0.1645 -1.2113  1.8287
  302TIP3   OH222464   0.530   4.911   8.384 -0.2705 -0.4625 -0.2402
  302TIP3    H122465   0.546   4.883   8.474  0.5973  0.8379  0.0309
  302TIP3    H222466   0.437   4.893   8.370 -0.8391  0.8394  1.4991
  303TIP3   OH222467   0.512   4.320   2.663 -0.1872  0.3940  0.1623
  303TIP3    H122468   0.549   4.372   2.734  0.9733 -0.4315  0.1888
  303TIP3    H222469   0.438   4.274   2.703  0.1497  0.3146  0.7035
  304TIP3   OH222470   4.572   2.940   8.201  0.3337  0.1130 -0.0962
  304TIP3    H122471   4.569   3.024   8.155  0.5696 -0.4407 -1.1442
  304TIP3    H222472   4.655   2.901   8.175  0.4052 -0.2863  0.6959
  305TIP3   OH222473   5.130   4.397   2.234 -0.6484  0.3918  0.2735
  305TIP3    H122474   5.055   4.405   2.175 -1.5577 -0.9364  1.1740
  305TIP3    H222475   5.180   4.477   2.221 -1.0521  0.3519 -1.9385
  306TIP3   OH222476   5.624   6.430   8.852  0.6875 -0.1036  0.0696
  306TIP3    H122477   5.709   6.454   8.815  0.9681 -0.1063  0.7021
  306TIP3    H222478   5.563   6.495   8.817 -0.2558 -3.1655 -5.0050
  307TIP3   OH222479   1.762   5.775   0.789 -0.5552 -0.1464  0.2968
  307TIP3    H122480   1.828   5.840   0.763  0.3569 -0.0877  2.5275
  307TIP3    H222481   1.679   5.815   0.764  0.1623  0.3862 -1.3639
  308TIP3   OH222482   6.293   3.083   8.052  0.1587  0.1988 -0.5216
  308TIP3    H122483   6.341   3.011   8.092 -0.1093  0.8562  1.0622
  308TIP3    H222484   6.356   3.123   7.991  0.4288 -1.0966 -1.1233
  309TIP3   OH222485   0.393   3.297   8.404 -0.3602 -0.5242 -0.0715
  309TIP3    H122486   0.488   3.309   8.411 -0.3968 -0.7788  0.9991
  309TIP3    H222487   0.356   3.382   8.428 -0.4306 -0.7685  0.7011
  310TIP3   OH222488   2.683   1.947   8.890 -0.1336 -0.2482  0.4119
  310TIP3    H122489   2.727   2.027   8.918 -0.3773 -0.0185  0.1410
  310TIP3    H222490   2.593   1.973   8.873 -0.1596 -0.5322  0.0969
  311TIP3   OH222491   4.131   0.396   8.498  0.3511 -0.0387 -0.2166
  311TIP3    H122492   4.144   0.369   8.407  0.4038 -0.0095 -0.2179
  311TIP3    H222493   4.180   0.478   8.505 -0.6790  0.6115 -0.5078
  312TIP3   OH222494   5.551   2.919   8.179  0.2594 -1.1120  0.6934
  312TIP3    H122495   5.550   2.974   8.100  1.8607 -1.9055  0.0542
  312TIP3    H222496   5.591   2.974   8.246 -0.7664 -0.5559  0.8597
  313TIP3   OH222497   1.909   5.330   8.736 -0.3361 -0.4252  0.1454
  313TIP3    H122498   1.964   5.407   8.727 -1.3656  0.1759 -1.3635
  313TIP3    H222499   1.837   5.343   8.674 -0.5416 -2.6049 -0.1773
  314TIP3   OH222500   1.026   4.495   0.076  0.0190 -0.0946 -0.4373
  314TIP3    H122501   1.030   4.431   0.147 -0.9329  2.0666  1.7240
  314TIP3    H222502   1.101   4.553   0.091 -0.6158  0.8280 -0.7208
  315TIP3   OH222503   3.902   4.471   6.793 -0.1341 -0.1474  0.1055
  315TIP3    H122504   3.976   4.523   6.824  0.0264  0.6397 -1.5037
  315TIP3    H222505   3.942   4.405   6.737 -0.6422  0.3351 -0.8439
  316TIP3   OH222506   3.483   6.587   8.110  0.2799 -0.6448  0.0657
  316TIP3    H122507   3.457   6.657   8.171 -0.8762  0.4668 -1.6036
  316TIP3    H222508   3.435   6.607   8.030  3.0633 -1.0406 -1.8096
  317TIP3   OH222509   5.678   6.014   8.783  0.2704  0.7905 -0.0079
  317TIP3    H122510   5.719   5.929   8.796  1.3135  1.0818 -1.1948
  317TIP3    H222511   5.612   5.999   8.716 -1.1617  0.4686  1.4133
  318TIP3   OH222512   3.466   3.144   0.399 -0.3884 -0.1309 -0.2068
  318TIP3    H122513   3.560   3.129   0.407 -0.5601 -0.3305  2.2547
  318TIP3    H222514   3.445   3.122   0.308  1.6279 -1.8534 -0.3162
  319TIP3   OH222515   2.765   2.330   3.462  0.1835 -0.3789 -0.3058
  319TIP3    H122516   2.718   2.371   3.389 -0.9137 -0.5786  0.2629
  319TIP3    H222517   2.780   2.402   3.524  0.1285 -0.4241 -0.2398
  320TIP3   OH222518   2.093   5.316   7.279  0.2738 -0.3837  0.5956
  320TIP3    H122519   2.102   5.405   7.246 -0.3660 -1.0975 -1.6450
  320TIP3    H222520   2.171   5.270   7.249 -0.5315 -1.1609 -0.3850
  321TIP3   OH222521   0.135   4.068   8.454 -0.0447  0.3747  0.1167
  321TIP3    H122522   0.116   4.160   8.435 -1.7197  0.1764  0.6261
  321TIP3    H222523   0.049   4.025   8.449  0.5647 -0.9788  0.8804
  322TIP3   OH222524   0.059   6.670   8.612  0.0747  0.2041  0.3849
  322TIP3    H122525  -0.010   6.605   8.623  1.5171 -1.5204 -0.1422
  322TIP3    H222526   0.014   6.751   8.588 -1.6963 -1.0640 -0.7784
  323TIP3   OH222527   1.203   3.589   2.038  0.0952  0.3975  0.1402
  323TIP3    H122528   1.109   3.583   2.059 -0.7588  0.7200 -3.0588
  323TIP3    H222529   1.212   3.541   1.956  2.7734  0.4836  0.3029
  324TIP3   OH222530   2.150   4.989   8.850 -0.4787  0.3083  0.0145
  324TIP3    H122531   2.068   5.031   8.826 -0.8653 -1.3481 -1.8155
  324TIP3    H222532   2.196   4.978   8.767  0.7054 -0.5857  0.7640
  325TIP3   OH222533   2.171   3.336   0.555  0.3718 -0.4714  0.0647
  325TIP3    H122534   2.123   3.373   0.629 -0.8965 -0.6724 -0.6277
  325TIP3    H222535   2.222   3.264   0.592  0.2907 -0.1230  0.8561
  326TIP3   OH222536   3.888   6.633   8.512  0.5206 -0.1697  0.0157
  326TIP3    H122537   3.963   6.598   8.464  0.6046 -0.6547  0.4865
  326TIP3    H222538   3.917   6.721   8.540  1.9911 -1.3316  2.4938
  327TIP3   OH222539   6.152   5.388   8.827 -0.5381  0.3464 -0.3669
  327TIP3    H122540   6.062   5.363   8.804 -0.4482 -1.3524  0.9087
  327TIP3    H222541   6.155   5.380   8.922  0.8189  0.9257 -0.3456
  328TIP3   OH222542   2.147   6.620   1.441 -0.0773  0.6841 -0.4503
  328TIP3    H122543   2.094   6.694   1.410 -0.8973  0.6208  0.7260
  328TIP3    H222544   2.096   6.543   1.416  0.4437  0.5309 -1.0656
  329TIP3   OH222545   3.342   2.773   8.199 -0.5484 -0.7704  0.1863
  329TIP3    H122546   3.334   2.678   8.207  2.7689 -1.1766  0.0715
  329TIP3    H222547   3.274   2.798   8.137 -1.7438 -2.9968  0.5188
  330TIP3   OH222548   0.347   2.354   8.862  0.1552  0.3276 -0.1347
  330TIP3    H122549   0.330   2.374   8.953 -1.2498  3.0234 -0.8884
  330TIP3    H222550   0.283   2.287   8.839  1.5342 -1.5273  1.1678
  331TIP3   OH222551   6.659   2.425   7.659 -0.5692 -0.0022 -0.0505
  331TIP3    H122552   6.611   2.353   7.700 -0.1869  0.2370  0.8419
  331TIP3    H222553   6.734   2.384   7.617 -0.6026 -0.1673  0.0532
  332TIP3   OH222554   3.425   0.873   1.705  0.1311  0.2871  0.2893
  332TIP3    H122555   3.337   0.874   1.742 -0.1620 -1.5590 -0.2599
  332TIP3    H222556   3.418   0.926   1.625 -0.3042  0.6621  0.5699
  333TIP3   OH222557   3.781   1.576   3.486 -0.0975  0.1131 -0.4869
  333TIP3    H122558   3.745   1.501   3.534 -1.5382 -0.3624 -2.1944
  333TIP3    H222559   3.804   1.541   3.400  2.5063  0.9207 -0.1943
  334TIP3   OH222560   0.145   4.909   8.788  0.3996 -0.2985  0.0663
  334TIP3    H122561   0.220   4.873   8.834  0.3271  0.3543  0.7155
  334TIP3    H222562   0.182   4.978   8.732  0.1721  0.7813  1.2118
  335TIP3   OH222563   2.486   4.567   1.202  0.2333  0.2299 -0.9408
  335TIP3    H122564   2.405   4.617   1.209  0.6461  1.0479 -1.8546
  335TIP3    H222565   2.554   4.627   1.231  0.4658 -0.6998  0.5710
  336TIP3   OH222566   2.267   0.852   2.384 -0.0107 -0.7840 -0.0166
  336TIP3    H122567   2.352   0.892   2.363  0.1314 -1.0915 -0.0376
  336TIP3    H222568   2.271   0.835   2.478 -0.6273  0.5471  0.2631
  337TIP3   OH222569   4.879   1.732   8.606  0.3529  0.0154  0.1721
  337TIP3    H122570   4.901   1.761   8.517  1.9366 -0.1235  0.4937
  337TIP3    H222571   4.812   1.665   8.593 -0.2720  0.8040 -0.8400
  338TIP3   OH222572   1.619   4.777   1.505 -0.5043  0.8972  0.2654
  338TIP3    H122573   1.678   4.713   1.466 -0.0704  0.7484  1.1487
  338TIP3    H222574   1.641   4.778   1.598 -1.0220  1.7744  0.3992
  339TIP3   OH222575   5.064   3.884   0.610  0.4249  0.2016  0.5277
  339TIP3    H122576   4.985   3.898   0.558 -0.0144 -1.8112  0.5767
  339TIP3    H222577   5.107   3.970   0.612 -0.6851  0.8503 -1.2472
  340TIP3   OH222578   5.633   2.137   1.607 -0.8162  0.0768  0.1385
  340TIP3    H122579   5.561   2.175   1.557 -0.3188 -0.5911 -1.1213
  340TIP3    H222580   5.590   2.080   1.671 -1.4695  1.1825  0.7145
  341TIP3   OH222581   6.036   5.672   0.953  0.1486 -0.4165  0.0238
  341TIP3    H122582   5.961   5.702   1.004 -1.1166 -4.2282  0.6977
  341TIP3    H222583   6.000   5.656   0.866  0.3245 -1.5430  0.1463
  342TIP3   OH222584   4.443   5.403   7.918  0.1435 -0.0907  0.1828
  342TIP3    H122585   4.361   5.379   7.875 -0.1660 -1.6642  1.5461
  342TIP3    H222586   4.511   5.372   7.858 -0.2034  1.2233 -0.9573
  343TIP3   OH222587   5.561   1.660   8.131  0.6609  0.1446 -0.1055
  343TIP3    H122588   5.575   1.566   8.145  0.3546  0.4078  2.2840
  343TIP3    H222589   5.643   1.701   8.159  0.6966  0.6216 -0.8872
  344TIP3   OH222590   5.583   5.023   0.243  0.3704  0.3071  1.0953
  344TIP3    H122591   5.548   5.079   0.174  1.0340 -1.1017 -0.4464
  344TIP3    H222592   5.678   5.027   0.232  0.4150 -1.9691  0.1999
  345TIP3   OH222593   5.028   6.500   8.277 -0.1690 -0.1272 -0.4887
  345TIP3    H122594   4.968   6.554   8.227 -0.3864 -0.6559 -0.8109
  345TIP3    H222595   5.065   6.559   8.343  0.5091  0.6951 -1.5871
  346TIP3   OH222596   3.701   0.203   8.820  0.5470  0.1305  0.4942
  346TIP3    H122597   3.752   0.251   8.755  1.4195 -0.3118  0.8409
  346TIP3    H222598   3.717   0.111   8.800 -2.1985 -0.1359 -1.0437
  347TIP3   OH222599   1.928   5.406   0.992 -0.0500 -0.6532 -0.0852
  347TIP3    H122600   2.009   5.451   1.017  0.0055 -1.8729  2.1433
  347TIP3    H222601   1.956   5.318   0.969 -0.6565 -0.8463 -0.1014
  348TIP3   OH222602   5.861   5.343   2.108 -0.3107  0.0672  0.0557
  348TIP3    H122603   5.914   5.411   2.148 -0.2952  0.8796 -1.3184
  348TIP3    H222604   5.799   5.389   2.052 -2.0168 -0.8909  1.0218
  349TIP3   OH222605   3.575   3.466   0.184  0.0694 -0.1772  0.0722
  349TIP3    H122606   3.560   3.551   0.143 -0.8419 -1.0690 -1.5208
  349TIP3    H222607   3.628   3.418   0.122  0.4177 -0.8584  0.8760
  350TIP3   OH222608   5.503   1.495   0.243  0.6482  0.3184 -0.2750
  350TIP3    H122609   5.466   1.447   0.169 -0.5704  1.3391 -0.3593
  350TIP3    H222610   5.428   1.538   0.284  1.5242  1.0830  0.5813
  351TIP3   OH222611   3.060   4.507   7.545 -0.0735 -0.7893 -0.3216
  351TIP3    H122612   3.112   4.522   7.466 -2.2260 -0.6465 -1.7676
  351TIP3    H222613   3.051   4.594   7.584  0.9155 -0.8470  0.0648
  352TIP3   OH222614   0.002   3.901   8.155  0.0724  0.7124  0.2003
  352TIP3    H122615   0.074   3.862   8.204  0.7518  2.5608  0.7509
  352TIP3    H222616   0.044   3.962   8.094 -0.9890  1.3364  0.0728
  353TIP3   OH222617   3.491   3.281   1.461  0.4196  0.2681 -0.2781
  353TIP3    H122618   3.462   3.301   1.373  2.4421  2.6039 -0.5202
  353TIP3    H222619   3.422   3.314   1.518 -0.5524 -0.5915 -0.9331
  354TIP3   OH222620   0.289   2.363   1.271 -0.1549 -0.0251 -0.0459
  354TIP3    H122621   0.217   2.399   1.219 -1.0863 -1.1366  0.4161
  354TIP3    H222622   0.250   2.288   1.316  0.4904  1.0954  2.5585
  355TIP3   OH222623   0.872   5.746   7.949  0.1448 -0.4776 -0.2756
  355TIP3    H122624   0.912   5.670   7.906 -0.8321 -0.1385 -1.8669
  355TIP3    H222625   0.929   5.819   7.926  1.2886 -0.7226  1.5570
  356TIP3   OH222626   6.411   6.340   2.454 -0.3081 -0.2986  0.6120
  356TIP3    H122627   6.330   6.367   2.498 -0.8335 -1.3737  0.3300
  356TIP3    H222628   6.417   6.246   2.470 -0.0149 -0.5408 -0.7842
  357TIP3   OH222629   6.044   3.854   7.832  0.2138 -0.1381 -0.2777
  357TIP3    H122630   6.027   3.769   7.791  0.7159  0.0160 -0.8106
  357TIP3    H222631   6.087   3.905   7.764 -0.7756  0.8076 -0.2125
  358TIP3   OH222632   0.356   6.298   7.693  0.2071 -0.4600  0.2684
  358TIP3    H122633   0.403   6.235   7.638 -0.9073 -0.1974 -1.0255
  358TIP3    H222634   0.298   6.344   7.633  0.1397  1.0053  1.3929
  359TIP3   OH222635   4.739   5.210   8.755 -0.7522 -0.0407 -0.1758
  359TIP3    H122636   4.706   5.300   8.757  0.0899  0.3797 -2.3242
  359TIP3    H222637   4.703   5.173   8.675 -0.7571 -1.4967  0.4775
  360TIP3   OH222638   3.693   3.741   0.409  0.7054 -0.0918  0.3810
  360TIP3    H122639   3.749   3.694   0.346  1.3690 -0.2992  1.1105
  360TIP3    H222640   3.691   3.684   0.486  0.8524  0.7026  0.9776
  361TIP3   OH222641   2.291   4.991   8.611 -0.2622 -0.1749 -0.2514
  361TIP3    H122642   2.230   5.020   8.542  1.1304  0.0193 -1.4506
  361TIP3    H222643   2.372   5.037   8.591  0.3430 -0.5669  1.2124
  362TIP3   OH222644   2.639   1.424   7.973 -0.4035  0.5301 -0.6360
  362TIP3    H122645   2.544   1.423   7.960 -0.2293  0.3964 -2.0026
  362TIP3    H222646   2.661   1.334   7.995 -0.4114  0.2346 -1.8010
  363TIP3   OH222647   1.061   5.223   2.255  0.5571 -0.1180 -0.9257
  363TIP3    H122648   1.050   5.242   2.348  1.5132  0.6333 -0.9501
  363TIP3    H222649   1.129   5.155   2.252  0.8969  0.2224 -1.0882
  364TIP3   OH222650   0.540   2.536   7.105  0.6312 -0.0765  0.5862
  364TIP3    H122651   0.624   2.570   7.075 -0.0121  1.1277  0.0841
  364TIP3    H222652   0.475   2.583   7.052 -0.4186  0.0760  1.9636
  365TIP3   OH222653   5.750   0.319   2.224  0.4998  0.2629 -0.3554
  365TIP3    H122654   5.843   0.296   2.222  0.5491  0.2702  0.9371
  365TIP3    H222655   5.738   0.361   2.310 -1.4943 -3.2342  1.2899
  366TIP3   OH222656   2.726   0.047   2.904 -0.1995  0.0160 -0.1385
  366TIP3    H122657   2.794  -0.018   2.926 -1.2401 -0.6534  1.2274
  366TIP3    H222658   2.645  -0.003   2.903 -0.9551  1.2013  0.3456
  367TIP3   OH222659   3.999   3.326   0.342 -0.1786 -0.0574  0.2789
  367TIP3    H122660   3.996   3.419   0.364  2.7397  0.0977  0.5236
  367TIP3    H222661   4.045   3.285   0.416 -0.1941 -1.4421 -0.4336
  368TIP3   OH222662   3.136   5.909   8.521 -0.3310 -0.0699  0.5530
  368TIP3    H122663   3.051   5.951   8.532 -1.2687 -1.6281 -0.4924
  368TIP3    H222664   3.141   5.845   8.592  0.5212  0.8123  1.3289
  369TIP3   OH222665   4.156   0.322   2.534 -0.0093  0.3601  0.1285
  369TIP3    H122666   4.094   0.290   2.600 -0.8367  0.0262 -0.7822
  369TIP3    H222667   4.103   0.333   2.455  1.1511 -0.2502 -0.7712
  370TIP3   OH222668   0.248   1.853   0.102 -0.4037 -0.2035  0.3246
  370TIP3    H122669   0.298   1.818   0.176 -1.0489  0.3110  1.0197
  370TIP3    H222670   0.247   1.947   0.116  0.1230 -0.0215 -0.7772
  371TIP3   OH222671   0.001   5.280   1.731  0.3828  0.1949 -0.2220
  371TIP3    H122672  -0.066   5.338   1.697  0.7544  0.9604  0.3080
  371TIP3    H222673  -0.047   5.209   1.772 -0.0891  0.3289 -0.5361
  372TIP3   OH222674   1.587   5.368   1.946  0.1538  0.0444  0.1428
  372TIP3    H122675   1.509   5.331   1.988 -1.0792  0.8835 -1.3088
  372TIP3    H222676   1.636   5.293   1.915  0.3062 -0.5242  1.6542
  373TIP3   OH222677   6.187   2.198   2.612  0.0510  0.4751  0.0079
  373TIP3    H122678   6.269   2.246   2.602 -1.0611  2.5534  0.4672
  373TIP3    H222679   6.180   2.146   2.532  2.1937 -0.3934  0.3316
  374TIP3   OH222680   6.343   5.684   7.646 -0.2385  0.2729 -0.0999
  374TIP3    H122681   6.279   5.677   7.576 -0.5826 -0.6321  0.2969
  374TIP3    H222682   6.322   5.767   7.690  0.8014  1.5306 -1.8425
  375TIP3   OH222683   6.635   1.452   2.903  0.1185 -0.2612  0.0670
  375TIP3    H122684   6.702   1.427   2.966  0.8024  1.6035  0.1531
  375TIP3    H222685   6.684   1.485   2.828 -0.6726  1.1600  0.1453
  376TIP3   OH222686   3.985   4.606   0.831  0.3220  0.0488 -0.2136
  376TIP3    H122687   4.079   4.590   0.827  0.3387  0.4413 -1.6688
  376TIP3    H222688   3.951   4.575   0.747 -0.4327  2.4194 -0.8729
  377TIP3   OH222689   1.024   2.608   8.773 -0.3724  0.1408 -0.0183
  377TIP3    H122690   0.988   2.521   8.757  2.5341 -0.9044 -1.5164
  377TIP3    H222691   1.002   2.658   8.694  1.7764 -0.6761 -1.2003
  378TIP3   OH222692   1.887   0.792   1.286  0.1108  0.0732 -0.2371
  378TIP3    H122693   1.807   0.842   1.302 -0.1198 -0.0384 -0.9823
  378TIP3    H222694   1.919   0.824   1.201  0.4869 -0.3540 -0.2607
  379TIP3   OH222695   5.378   6.596   2.142  0.1211  0.2693  0.2608
  379TIP3    H122696   5.473   6.594   2.156  0.2674 -0.1017 -0.7354
  379TIP3    H222697   5.361   6.684   2.109 -0.0560  0.7202  1.4750
  380TIP3   OH222698   0.190   0.797   8.531 -0.0523 -0.1532  0.2589
  380TIP3    H122699   0.166   0.761   8.445 -1.8891  0.1480  0.6043
  380TIP3    H222700   0.282   0.772   8.542  0.0851 -0.6373 -1.5682
  381TIP3   OH222701   2.881   1.464   7.804  0.1392 -0.0015 -0.3402
  381TIP3    H122702   2.819   1.415   7.858  1.9794  0.7785  2.7719
  381TIP3    H222703   2.827   1.504   7.735 -2.6484 -0.1321  1.5929
  382TIP3   OH222704   4.012   2.056   1.419 -0.0102  0.2430 -0.0164
  382TIP3    H122705   3.929   2.041   1.463  0.9352  0.4927  1.9730
  382TIP3    H222706   4.012   2.150   1.400 -0.8972 -0.0490 -1.6804
  383TIP3   OH222707   6.226   5.100   7.466 -0.1864 -0.0940 -0.8958
  383TIP3    H122708   6.233   5.054   7.382 -3.6756  0.9382 -1.9140
  383TIP3    H222709   6.134   5.123   7.473  0.0286  0.1652  3.1470
  384TIP3   OH222710   0.047   4.359   7.442  0.2038 -0.7215 -0.1044
  384TIP3    H122711   0.071   4.326   7.355  2.4765  1.0959 -0.2676
  384TIP3    H222712  -0.047   4.373   7.437  0.3046 -0.4120 -2.4151
  385TIP3   OH222713   6.517   4.474   3.372  0.3245  0.7024 -0.1153
  385TIP3    H122714   6.454   4.427   3.319  0.3381 -0.7773  1.1277
  385TIP3    H222715   6.602   4.435   3.349  0.9017  2.8200 -1.9399
  386TIP3   OH222716   4.806   2.732   0.076 -0.1864 -0.1202  0.4366
  386TIP3    H122717   4.836   2.707  -0.012 -3.5681  0.2219 -0.9744
  386TIP3    H222718   4.723   2.685   0.087 -0.9842  1.6240  2.5074
  387TIP3   OH222719   3.140   4.165   2.022 -0.0723 -0.1793  0.5382
  387TIP3    H122720   3.150   4.121   1.938 -1.9460  0.9823 -0.3458
  387TIP3    H222721   3.124   4.094   2.084 -2.4451 -0.8768 -0.7566
  388TIP3   OH222722   5.257   2.684   0.918  0.5345 -0.4816  0.1693
  388TIP3    H122723   5.230   2.602   0.877  0.4830 -1.1284  1.4474
  388TIP3    H222724   5.264   2.663   1.011  2.1252  0.5600  0.3120
  389TIP3   OH222725   1.519   5.097   2.366  0.1173  0.1859  0.3279
  389TIP3    H122726   1.482   5.088   2.454 -1.4253 -0.8497 -0.3939
  389TIP3    H222727   1.502   5.188   2.342 -1.9309 -0.2220  0.0730
  390TIP3   OH222728   3.133   4.209   8.505 -0.6645  1.1379 -0.1166
  390TIP3    H122729   3.202   4.249   8.452  0.8705  0.6601  1.4362
  390TIP3    H222730   3.176   4.183   8.586 -2.0661 -1.6797 -0.1426
  391TIP3   OH222731   6.698   0.722   2.270  0.8829 -0.0158  0.3227
  391TIP3    H122732   6.669   0.665   2.342  1.4780  0.0966  0.6611
  391TIP3    H222733   6.658   0.685   2.192 -0.5924  0.4296  0.8296
  392TIP3   OH222734   2.654   5.263   1.641 -0.3436 -0.1530 -0.3720
  392TIP3    H122735   2.609   5.286   1.722 -0.2908 -0.8561 -0.1369
  392TIP3    H222736   2.742   5.301   1.651 -0.5530  0.3599 -0.4097
  393TIP3   OH222737   6.289   4.417   7.659 -0.1244 -0.6434  0.1103
  393TIP3    H122738   6.257   4.467   7.583  1.1313 -0.6751 -0.4635
  393TIP3    H222739   6.302   4.329   7.625  1.1135 -0.4951  0.1527
  394TIP3   OH222740   5.039   6.378   8.915 -0.2768 -0.2919  0.1096
  394TIP3    H122741   4.997   6.456   8.877 -0.0139  0.4899  1.3500
  394TIP3    H222742   4.979   6.352   8.985 -0.1029 -0.9024  0.0288
  395TIP3   OH222743   2.516   1.054   8.761 -0.7163 -0.0124  0.2561
  395TIP3    H122744   2.524   1.059   8.665  0.0968 -0.3542  0.2969
  395TIP3    H222745   2.594   1.006   8.789 -0.4455  0.9381  1.1798
  396TIP3   OH222746   5.586   5.440   1.875  0.1215 -0.5057 -0.0530
  396TIP3    H122747   5.641   5.380   1.825 -1.1018 -2.2088  0.5765
  396TIP3    H222748   5.497   5.409   1.860 -0.3938 -0.0509  1.8546
  397TIP3   OH222749   4.916   3.723   7.841  0.0549  0.6198  0.5551
  397TIP3    H122750   4.922   3.756   7.931  1.6023  0.9480  0.3629
  397TIP3    H222751   4.995   3.671   7.829 -1.3175 -1.4757  0.1387
  398TIP3   OH222752   6.605   1.817   7.762  0.3593  0.3348  0.3592
  398TIP3    H122753   6.690   1.774   7.761 -0.3444 -1.1794  1.2247
  398TIP3    H222754   6.548   1.759   7.712 -0.8621 -0.3773  2.4201
  399TIP3   OH222755   3.989   0.941   7.371  0.1293  0.3195  0.4948
  399TIP3    H122756   4.081   0.919   7.384  0.7255  2.1884 -0.2102
  399TIP3    H222757   3.942   0.862   7.398  1.9340 -0.8237  0.5200
  400TIP3   OH222758   5.082   3.690   2.559 -0.1524  0.1957  0.2459
  400TIP3    H122759   5.081   3.655   2.648  1.0905 -1.8340 -0.4556
  400TIP3    H222760   5.169   3.728   2.549 -0.6083  1.2401  0.1722
  401TIP3   OH222761   5.885   0.954   8.577  0.2821 -0.0301  0.1119
  401TIP3    H122762   5.876   1.024   8.511 -0.1200  0.8116  1.0326
  401TIP3    H222763   5.915   0.878   8.527 -1.3787  0.1688 -1.3102
  402TIP3   OH222764   3.831   6.197   1.514  0.5060 -0.1999  0.1952
  402TIP3    H122765   3.758   6.217   1.574 -0.7380  0.4685 -1.4736
  402TIP3    H222766   3.908   6.233   1.558 -0.2000 -0.5375  1.8141
  403TIP3   OH222767   3.809   0.054   0.954 -0.6145 -0.0788  0.2025
  403TIP3    H122768   3.838   0.010   1.034 -0.8795 -0.6332 -0.0025
  403TIP3    H222769   3.890   0.084   0.912 -0.5473  1.8837  1.6041
  404TIP3   OH222770   1.610   2.691   2.459  0.0018 -0.5855  0.4167
  404TIP3    H122771   1.573   2.778   2.466 -0.6619 -0.9544  1.8236
  404TIP3    H222772   1.571   2.654   2.380 -1.8174 -0.5544  1.2536
  405TIP3   OH222773   5.244   1.751   1.175  0.0844  0.1043  0.4853
  405TIP3    H122774   5.190   1.718   1.247 -0.4142  1.3400  0.7046
  405TIP3    H222775   5.330   1.766   1.215  0.3424 -0.9920  0.3586
  406TIP3   OH222776   2.260   5.826   0.096  0.1998 -0.2318 -0.0382
  406TIP3    H122777   2.271   5.852   0.187 -0.2952 -1.8921  0.5178
  406TIP3    H222778   2.166   5.812   0.086  0.1886  0.4108 -0.9496
  407TIP3   OH222779   5.537   0.804   7.986 -0.1814 -0.2096 -0.3143
  407TIP3    H122780   5.493   0.862   7.924 -1.2224  0.7547  1.2440
  407TIP3    H222781   5.474   0.733   8.001 -0.2745 -0.0157  0.2298
  408TIP3   OH222782   2.742   3.522   0.475 -0.0906 -0.1173 -0.4674
  408TIP3    H122783   2.748   3.533   0.570 -0.5514  0.4312 -0.4965
  408TIP3    H222784   2.657   3.482   0.460  0.0644 -0.3892 -0.6408
  409TIP3   OH222785   3.596   3.887   1.821  0.1142 -0.8788 -0.0134
  409TIP3    H122786   3.601   3.792   1.830  1.4935 -0.8981 -0.6981
  409TIP3    H222787   3.663   3.920   1.882 -1.6102 -0.2281  1.6045
  410TIP3   OH222788   6.115   1.179   7.845  0.1530 -0.4083 -0.7231
  410TIP3    H122789   6.111   1.085   7.830  0.9859 -1.0255  2.2989
  410TIP3    H222790   6.207   1.197   7.862 -0.1727  0.7223 -0.0679
  411TIP3   OH222791   2.761   0.926   0.172 -0.2998 -0.6846  0.1087
  411TIP3    H122792   2.774   0.871   0.250  0.4229  0.3880  0.7724
  411TIP3    H222793   2.776   1.015   0.203  2.0266 -0.3658 -1.6601
  412TIP3   OH222794   6.391   0.380   0.617 -0.4035  0.1096 -0.0221
  412TIP3    H122795   6.339   0.303   0.640 -0.6983 -0.2266 -1.6355
  412TIP3    H222796   6.337   0.455   0.644 -0.6894 -0.2473  0.4041
  413TIP3   OH222797   1.788   5.954   1.666 -0.1286 -0.6192 -0.4461
  413TIP3    H122798   1.828   6.000   1.592  0.0016 -0.2994 -0.1779
  413TIP3    H222799   1.839   5.982   1.742 -1.4104  0.4779  0.0423
  414TIP3   OH222800   3.705   3.109   0.989  0.2230 -0.7798 -0.0619
  414TIP3    H122801   3.739   3.190   1.028 -1.0793 -1.0335  1.6857
  414TIP3    H222802   3.780   3.051   0.985  1.1956  0.4859 -1.3752
  415TIP3   OH222803   0.751   4.068   7.741  0.0886  0.2325 -0.3539
  415TIP3    H122804   0.802   4.058   7.661 -0.5396 -0.1958 -0.7093
  415TIP3    H222805   0.815   4.065   7.812  0.9552  2.8428 -0.9055
  416TIP3   OH222806   0.740   3.593   8.390  0.0975 -0.4944  0.4703
  416TIP3    H122807   0.827   3.595   8.430 -0.0770  0.4171  0.8329
  416TIP3    H222808   0.719   3.500   8.382  1.2093 -0.7260  0.1332
  417TIP3   OH222809   1.854   3.868   8.648  0.1806  0.0675 -0.0554
  417TIP3    H122810   1.786   3.822   8.698  0.9476 -0.7542  0.2508
  417TIP3    H222811   1.812   3.949   8.620 -0.7223 -0.1230  0.6979
  418TIP3   OH222812   1.824   6.577   0.499 -0.2145 -0.1916  0.3312
  418TIP3    H122813   1.743   6.600   0.453 -0.7830 -0.1053  1.3529
  418TIP3    H222814   1.852   6.495   0.458  0.4950  0.9625 -1.6523
  419TIP3   OH222815   0.971   1.480   2.139 -0.1106  0.5281 -0.5362
  419TIP3    H122816   1.037   1.478   2.208  1.4707  1.0456 -1.9677
  419TIP3    H222817   0.960   1.389   2.113 -1.1486  0.2568  0.7356
  420TIP3   OH222818   0.909   2.102   7.709 -0.0808 -0.3251  0.2071
  420TIP3    H122819   1.001   2.092   7.733  0.2125  0.3494 -0.6014
  420TIP3    H222820   0.906   2.080   7.616 -0.2955  1.9421 -0.3848
  421TIP3   OH222821   1.103   6.534   1.177 -0.3006 -0.2566 -0.0974
  421TIP3    H122822   1.085   6.456   1.228  0.8431  0.2647  1.1706
  421TIP3    H222823   1.182   6.513   1.127 -0.1719 -0.0115  0.0034
  422TIP3   OH222824   2.160   0.762   0.635 -0.4449  0.3168  0.1455
  422TIP3    H122825   2.222   0.729   0.570  0.2148  0.1543  0.8604
  422TIP3    H222826   2.110   0.685   0.662 -1.4758  0.5633 -0.9585
  423TIP3   OH222827   4.557   1.046   3.529 -0.2323  0.2621 -0.5029
  423TIP3    H122828   4.566   1.033   3.435 -0.6332  1.3823 -0.7022
  423TIP3    H222829   4.573   0.959   3.566 -1.0872 -0.4101 -1.6556
  424TIP3   OH222830   3.498   5.706   1.158  0.5174  0.1788 -0.0882
  424TIP3    H122831   3.520   5.634   1.216 -2.3285 -0.9296 -0.2395
  424TIP3    H222832   3.566   5.704   1.090  1.6296 -1.0187  0.9974
  425TIP3   OH222833   5.895   3.636   1.751 -0.2629 -0.2606 -0.1877
  425TIP3    H122834   5.959   3.579   1.792 -0.1157  0.5067  0.7074
  425TIP3    H222835   5.936   3.665   1.670  1.6586  2.1693  1.4999
  426TIP3   OH222836   1.909   3.600   1.659  0.0701 -0.2432 -0.2045
  426TIP3    H122837   1.863   3.680   1.635 -1.2291 -1.1889 -0.9876
  426TIP3    H222838   1.845   3.530   1.647 -0.6936 -1.0309  5.6217
  427TIP3   OH222839   4.707   0.074   2.149 -0.5111 -0.2128 -0.1371
  427TIP3    H122840   4.656   0.142   2.105 -1.3168 -1.0597 -0.5571
  427TIP3    H222841   4.781   0.059   2.091  1.1423  2.1175  1.2246
  428TIP3   OH222842   4.419   0.768   0.306 -0.2692  0.1472 -0.6682
  428TIP3    H122843   4.491   0.748   0.245 -0.9577 -1.5900 -0.9793
  428TIP3    H222844   4.458   0.754   0.392 -0.4557 -1.9057 -0.8503
  429TIP3   OH222845   3.115   0.985   0.444 -0.4920  0.2481 -0.4169
  429TIP3    H122846   3.151   0.909   0.398 -0.3053 -0.3257  0.6380
  429TIP3    H222847   3.021   0.980   0.428 -0.4232  0.1228 -0.8163
  430TIP3   OH222848   5.501   6.397   0.237  0.7592 -0.8276  0.6541
  430TIP3    H122849   5.423   6.416   0.184  1.4368 -0.4098 -0.2171
  430TIP3    H222850   5.512   6.303   0.231 -0.1906 -1.0045  1.5159
  431TIP3   OH222851   3.292   6.571   3.025  0.0384  0.1946  0.4439
  431TIP3    H122852   3.377   6.614   3.024 -0.4308  1.2024  1.4193
  431TIP3    H222853   3.275   6.553   3.117 -0.0382 -1.6236  0.1135
  432TIP3   OH222854   4.649   6.021   2.600  0.6109 -0.0269  0.5768
  432TIP3    H122855   4.593   5.945   2.612  2.0375 -1.0511  0.9613
  432TIP3    H222856   4.612   6.088   2.658 -0.4312 -0.5273  0.5148
  433TIP3   OH222857   5.315   3.979   2.062 -0.0721  0.3207 -0.0205
  433TIP3    H122858   5.375   3.996   2.134  0.4012  0.2733 -0.3934
  433TIP3    H222859   5.258   3.909   2.094  0.6074 -0.2148  0.0553
  434TIP3   OH222860   3.050   3.826   8.187 -0.4608  0.2554 -0.0918
  434TIP3    H122861   3.077   3.870   8.106 -1.1372 -1.9277 -1.6118
  434TIP3    H222862   3.015   3.896   8.242 -1.6471  1.6130 -2.4108
  435TIP3   OH222863   2.135   3.044   8.027 -0.0722  0.0239  0.0246
  435TIP3    H122864   2.083   2.965   8.011  0.0855  0.1084 -0.9988
  435TIP3    H222865   2.077   3.116   8.004 -0.3311  0.2440  1.2818
  436TIP3   OH222866   2.781   0.853   7.766  0.1152  0.1083  0.3352
  436TIP3    H122867   2.772   0.777   7.709 -1.0433 -0.1619  0.8576
  436TIP3    H222868   2.875   0.869   7.769  0.2994 -0.7036 -0.5585
  437TIP3   OH222869   4.203   6.687   2.315  0.2400 -0.4152  0.3590
  437TIP3    H122870   4.280   6.733   2.347 -0.4641  0.2559  1.1478
  437TIP3    H222871   4.204   6.604   2.362  1.0728 -0.8829 -0.4613
  438TIP3   OH222872   5.085   5.523   8.701  0.5159 -0.3351 -0.6076
  438TIP3    H122873   5.036   5.466   8.760  1.5553 -0.2804  0.3490
  438TIP3    H222874   5.064   5.490   8.613 -0.7944 -0.6289 -0.2049
  439TIP3   OH222875   4.379   1.653   8.112  0.2584 -0.0433 -0.1232
  439TIP3    H122876   4.300   1.697   8.141  0.4248  0.2539 -0.1150
  439TIP3    H222877   4.415   1.710   8.044 -0.0472 -0.6564 -0.8058
  440TIP3   OH222878   2.630   3.407   2.932  0.3348  0.5154  0.1065
  440TIP3    H122879   2.699   3.465   2.899  1.4621 -1.5568 -1.3967
  440TIP3    H222880   2.673   3.354   3.000  0.1522 -0.5117 -0.5573
  441TIP3   OH222881   6.552   0.697   0.907 -0.3108  0.1573 -0.6886
  441TIP3    H122882   6.466   0.673   0.940  1.3717 -1.5571  2.9167
  441TIP3    H222883   6.587   0.616   0.869  0.1787  0.5227 -1.0355
  442TIP3   OH222884   3.201   3.681   2.527 -0.1482  0.1363  0.0977
  442TIP3    H122885   3.112   3.694   2.494 -0.1238 -0.0264 -0.0329
  442TIP3    H222886   3.190   3.631   2.608 -0.0859 -1.1071 -0.6525
  443TIP3   OH222887   3.294   0.465   1.199  0.2258  0.2527  0.9027
  443TIP3    H122888   3.362   0.524   1.233  0.9334 -0.4148  0.6859
  443TIP3    H222889   3.252   0.430   1.278  1.4519 -0.8167  1.1184
  444TIP3   OH222890   4.615   4.485   7.204 -0.5113  0.4427  0.2147
  444TIP3    H122891   4.605   4.548   7.275  0.6824  0.5326  0.3254
  444TIP3    H222892   4.634   4.538   7.127 -1.7642  0.3434 -0.1947
  445TIP3   OH222893   6.417   0.811   2.571 -0.2908 -0.3479 -0.1993
  445TIP3    H122894   6.386   0.736   2.623  0.3377 -1.9919 -2.0434
  445TIP3    H222895   6.339   0.842   2.526 -0.4728 -0.2061  0.2144
  446TIP3   OH222896   0.300   0.140   8.782 -0.0508 -0.1699  0.9539
  446TIP3    H122897   0.337   0.201   8.717 -0.9963 -0.3288  0.2501
  446TIP3    H222898   0.295   0.191   8.863  1.1237  0.0398  0.9122
  447TIP3   OH222899   4.173   5.887   2.037  0.2707 -0.3170 -0.0042
  447TIP3    H122900   4.247   5.837   2.073  0.5640 -0.1862 -0.4253
  447TIP3    H222901   4.138   5.934   2.113 -0.0103 -1.1514  0.4003
  448TIP3   OH222902   2.404   2.770   1.520 -0.2058  0.2600 -0.4199
  448TIP3    H122903   2.380   2.753   1.611 -0.1017  2.4695  0.0856
  448TIP3    H222904   2.326   2.745   1.470 -0.5432 -0.2677  0.3478
  449TIP3   OH222905   1.674   3.526   3.201  0.2629 -0.2397  0.1691
  449TIP3    H122906   1.707   3.555   3.286 -0.8384 -1.7279  1.1552
  449TIP3    H222907   1.716   3.441   3.187  1.3124  0.4791 -1.3612
  450TIP3   OH222908   5.275   4.968   8.580 -0.1565 -0.1409  0.4280
  450TIP3    H122909   5.199   4.985   8.635 -0.4204  0.1220 -0.0082
  450TIP3    H222910   5.242   4.972   8.490  0.0359 -1.6865  0.2547
  451TIP3   OH222911   4.336   0.320   8.747 -0.3393 -0.5638 -0.8224
  451TIP3    H122912   4.420   0.302   8.705  1.4347  3.3254  0.6085
  451TIP3    H222913   4.294   0.384   8.690 -0.7980 -0.0182  0.1076
  452TIP3   OH222914   1.947   1.302   1.468 -0.7102 -0.4899  0.3334
  452TIP3    H122915   2.000   1.339   1.539  0.3852  1.1745 -1.2488
  452TIP3    H222916   1.916   1.218   1.502 -0.0313  0.1242  2.6650
  453TIP3   OH222917   1.741   0.875   0.672 -0.6922 -0.1135 -0.2821
  453TIP3    H122918   1.713   0.898   0.760 -1.2216 -0.6957 -0.2920
  453TIP3    H222919   1.718   0.952   0.619  1.4793  1.0900  0.4140
  454TIP3   OH222920   0.127   0.682   8.288 -0.5035 -0.6130  0.8483
  454TIP3    H122921   0.179   0.730   8.225 -0.0035 -2.3330 -0.1188
  454TIP3    H222922   0.108   0.598   8.245 -1.0689 -1.4119  2.5495
  455TIP3   OH222923   5.649   4.289   8.610  0.0794  0.7851  0.7199
  455TIP3    H122924   5.626   4.356   8.546  1.0198 -0.2986 -0.8319
  455TIP3    H222925   5.570   4.277   8.662 -1.5676  0.0733 -1.7733
  456TIP3   OH222926   2.112   5.369   0.382 -0.6394  0.3142 -0.2732
  456TIP3    H122927   2.070   5.381   0.297 -1.2278  1.0756  0.1009
  456TIP3    H222928   2.050   5.408   0.444  0.1236  0.4432  0.4223
  457TIP3   OH222929   4.369   0.285   1.694 -0.2603  0.5110  0.4002
  457TIP3    H122930   4.441   0.264   1.634  1.2753  0.3206  2.2248
  457TIP3    H222931   4.293   0.241   1.657  1.1973 -1.7785 -0.0550
  458TIP3   OH222932   3.989   2.092   0.727  0.5143  0.5082  0.1158
  458TIP3    H122933   3.985   2.003   0.760 -1.0160 -0.5960 -2.7476
  458TIP3    H222934   4.081   2.117   0.738  1.0479 -1.5222  0.6553
  459TIP3   OH222935   4.069   1.992   8.476  0.0531 -0.1360 -0.1314
  459TIP3    H122936   4.154   2.025   8.447  0.9900 -0.5531  1.9243
  459TIP3    H222937   4.039   2.056   8.540 -0.8066 -0.4163 -0.2395
  460TIP3   OH222938   6.487   1.480   2.348  0.6060 -0.2783  0.1726
  460TIP3    H122939   6.482   1.575   2.349 -3.1174 -0.3272 -0.3420
  460TIP3    H222940   6.477   1.454   2.439  0.8452 -0.2196  0.2176
  461TIP3   OH222941   0.053   5.881   0.915  0.6926  0.2825  0.0714
  461TIP3    H122942   0.014   5.967   0.901  1.0175  0.7250  1.6164
  461TIP3    H222943   0.035   5.862   1.008 -0.3107 -1.7939 -0.4812
  462TIP3   OH222944   4.371   0.180   0.349 -0.0521  0.1850 -0.0046
  462TIP3    H122945   4.432   0.254   0.346 -0.1215  0.2088 -1.3696
  462TIP3    H222946   4.422   0.106   0.315 -0.2208 -0.2297  0.6274
  463TIP3   OH222947   5.113   3.688   0.081 -0.4927  0.3134 -0.0365
  463TIP3    H122948   5.099   3.737  -0.000 -2.2939 -0.3526 -0.1643
  463TIP3    H222949   5.201   3.652   0.072 -1.0530 -0.7219 -2.2672
  464TIP3   OH222950   6.219   3.957   0.337 -0.1746  0.1361  0.1239
  464TIP3    H122951   6.230   3.922   0.426 -0.3491  2.1208  0.9769
  464TIP3    H222952   6.219   3.880   0.281 -0.8026 -1.2302  1.9152
  465TIP3   OH222953   0.358   1.987   7.313 -0.5133 -0.1834 -0.4880
  465TIP3    H122954   0.311   2.069   7.334  0.2109  0.9989 -3.1250
  465TIP3    H222955   0.289   1.920   7.315 -1.3293  0.6240  0.6429
  466TIP3   OH222956   4.375   3.897   1.563  0.1953  0.0786 -0.2191
  466TIP3    H122957   4.442   3.906   1.631 -1.2854  0.5525  1.2404
  466TIP3    H222958   4.378   3.981   1.516  1.5383 -0.4208 -1.1019
  467TIP3   OH222959   6.369   6.119   1.307 -0.1911  0.2007 -0.0866
  467TIP3    H122960   6.335   6.150   1.391  0.1285 -0.7443  0.4019
  467TIP3    H222961   6.349   6.026   1.306  0.6638  0.0186 -0.6426
  468TIP3   OH222962   4.141   5.783   0.447 -0.0875  0.6769 -0.1906
  468TIP3    H122963   4.202   5.827   0.387 -1.1368 -0.0489 -1.8879
  468TIP3    H222964   4.176   5.694   0.455  0.0852  0.7910  0.3495
  469TIP3   OH222965   3.822   2.685   8.891 -0.6131  0.2018 -0.0434
  469TIP3    H122966   3.823   2.619   8.960 -0.8395 -0.3119 -0.5224
  469TIP3    H222967   3.818   2.635   8.809  2.3385  0.6926 -0.6014
  470TIP3   OH222968   1.763   1.571   8.041  0.1896  0.2878  0.0840
  470TIP3    H122969   1.845   1.608   8.073 -0.0486 -1.4065  3.0010
  470TIP3    H222970   1.780   1.478   8.032 -1.3470 -0.0814  0.6295
  471TIP3   OH222971   6.484   4.622   1.399  0.0224  0.2873  0.1925
  471TIP3    H122972   6.401   4.582   1.424 -0.4660  0.8777 -0.4378
  471TIP3    H222973   6.460   4.690   1.335  1.1383 -0.5499 -1.1750
  472TIP3   OH222974   1.403   1.006   2.928  0.0609  0.1078  0.0108
  472TIP3    H122975   1.404   0.950   3.006  1.0906  0.5224  0.3181
  472TIP3    H222976   1.448   0.956   2.861  2.3291  1.0904  0.7094
  473TIP3   OH222977   4.896   5.630   1.919  0.4913 -0.0295 -0.5223
  473TIP3    H122978   4.935   5.677   1.992  0.4501  1.6270 -1.5248
  473TIP3    H222979   4.881   5.697   1.852 -0.6556 -1.2679 -1.5647
  474TIP3   OH222980   0.131   6.535   1.267 -0.3650  0.0085 -0.1248
  474TIP3    H122981   0.141   6.576   1.181 -0.3365  1.0373  0.3627
  474TIP3    H222982   0.207   6.477   1.274 -0.2759  0.0420 -0.7155
  475TIP3   OH222983   3.364   6.224   7.557  0.2278  0.0771 -0.3736
  475TIP3    H122984   3.312   6.150   7.589  0.8460  0.1619  0.9086
  475TIP3    H222985   3.437   6.184   7.510  0.0774 -0.0992 -0.4563
  476TIP3   OH222986   5.407   1.156   0.645 -0.1710 -0.5826 -0.1862
  476TIP3    H122987   5.359   1.093   0.698 -0.4481 -0.6334 -0.4951
  476TIP3    H222988   5.381   1.242   0.679  0.6969 -0.6392  0.6616
  477TIP3   OH222989   4.804   3.921   6.837 -0.0329  0.2050 -0.5840
  477TIP3    H122990   4.717   3.914   6.875 -1.7965  1.0868 -4.0740
  477TIP3    H222991   4.836   3.831   6.834 -1.3175 -0.2855 -0.2356
  478TIP3   OH222992   1.254   5.369   8.445 -0.1124 -0.0243  0.2421
  478TIP3    H122993   1.323   5.329   8.393 -1.3648 -2.5114  0.3342
  478TIP3    H222994   1.182   5.305   8.444 -2.2595  2.2062  0.5541
  479TIP3   OH222995   2.344   1.401   3.604 -0.6946 -0.0856 -0.3698
  479TIP3    H122996   2.296   1.452   3.539 -2.1501 -0.8844  0.0234
  479TIP3    H222997   2.362   1.317   3.560  0.3831  0.2046 -0.5131
  480TIP3   OH222998   0.568   5.055   2.224 -0.4078 -0.1381 -0.2700
  480TIP3    H122999   0.506   4.996   2.266 -0.7208  1.1167  1.0911
  480TIP3    H223000   0.548   5.047   2.131 -0.4985 -2.0803 -0.1332
  481TIP3   OH223001   2.305   6.050   8.100  0.3273 -0.4229 -0.5180
  481TIP3    H123002   2.287   6.028   8.008 -1.4827  0.3150 -0.3892
  481TIP3    H223003   2.228   6.017   8.148  0.0181  1.4631  0.3554
  482TIP3   OH223004   6.551   0.773   2.968 -0.9408  0.7231  0.3839
  482TIP3    H123005   6.515   0.786   3.056  0.1527 -1.6195  1.2613
  482TIP3    H223006   6.521   0.686   2.942  1.9980 -0.3516  0.1953
  483TIP3   OH223007   6.050   5.025   0.592  0.0680  0.1254 -0.8788
  483TIP3    H123008   6.072   4.942   0.549  0.8985 -0.5076  0.6765
  483TIP3    H223009   5.981   5.062   0.538  0.3935 -1.0797 -2.1943
  484TIP3   OH223010   1.345   4.433   0.756  0.2010 -0.0229  0.8857
  484TIP3    H123011   1.384   4.507   0.802 -0.8828  1.6108 -0.6527
  484TIP3    H223012   1.256   4.426   0.791 -0.2597  0.5288 -0.1021
  485TIP3   OH223013   1.892   3.566   0.579  0.2457 -0.7064 -0.3515
  485TIP3    H123014   1.909   3.564   0.485 -0.7178  0.1894 -0.5590
  485TIP3    H223015   1.806   3.607   0.588  1.0206  0.7324  1.0085
  486TIP3   OH223016   4.498   4.839   6.991  0.6421 -0.2550 -0.2078
  486TIP3    H123017   4.433   4.876   6.931  0.1229  0.0686  0.5326
  486TIP3    H223018   4.447   4.785   7.051  1.3612 -2.0180 -1.1125
  487TIP3   OH223019   1.670   4.762   1.785 -0.2713  0.1517 -0.2081
  487TIP3    H123020   1.615   4.806   1.851 -0.4243 -1.1667  0.5789
  487TIP3    H223021   1.756   4.758   1.826  0.0682  0.8886 -0.8307
  488TIP3   OH223022   6.182   5.419   7.589  0.1758 -0.1551 -0.0323
  488TIP3    H123023   6.205   5.481   7.658  1.2879 -1.4414  0.7813
  488TIP3    H223024   6.161   5.338   7.634 -0.0802 -0.7362 -1.1508
  489TIP3   OH223025   2.934   2.936   7.503  0.2573 -0.0126 -0.4029
  489TIP3    H123026   2.866   2.920   7.437  1.0501 -1.1042 -0.9729
  489TIP3    H223027   2.921   3.027   7.528 -1.2194 -0.0961 -0.7297
  490TIP3   OH223028   1.765   0.911   8.198  0.3775 -0.2324 -0.1696
  490TIP3    H123029   1.838   0.867   8.241  0.5518  1.1393  1.0115
  490TIP3    H223030   1.728   0.969   8.265 -2.5274 -1.6779 -0.3632
  491TIP3   OH223031   4.272   6.472   7.087  0.1709 -0.0763  0.2963
  491TIP3    H123032   4.261   6.377   7.076 -0.0823 -0.3946  2.8093
  491TIP3    H223033   4.366   6.486   7.080  0.1378 -0.3435 -0.9929
  492TIP3   OH223034   5.117   3.615   1.186 -0.2667 -0.3019  0.4317
  492TIP3    H123035   5.101   3.522   1.202 -0.1047 -0.7177 -1.5437
  492TIP3    H223036   5.195   3.616   1.130  0.8161  1.1425  1.8695
  493TIP3   OH223037   4.288   0.787   8.742 -0.2809  0.0239  0.0131
  493TIP3    H123038   4.228   0.733   8.794 -0.9719 -1.2200 -1.9788
  493TIP3    H223039   4.247   0.874   8.742 -0.1157  0.1393  1.7189
  494TIP3   OH223040   3.916   2.737   1.854  0.3289  0.1378  0.1768
  494TIP3    H123041   3.886   2.671   1.917  0.4469  0.7781  0.9190
  494TIP3    H223042   3.984   2.785   1.900  2.1919 -0.9357 -1.2901
  495TIP3   OH223043   5.905   0.547   8.077 -0.4390 -0.1173 -0.0891
  495TIP3    H123044   5.842   0.544   8.004 -0.1903 -2.0398 -0.2957
  495TIP3    H223045   5.853   0.522   8.154 -0.5451  1.2202  0.3016
  496TIP3   OH223046   1.517   5.800   7.905 -0.3241  0.5274 -0.1454
  496TIP3    H123047   1.535   5.715   7.944  0.9490  1.4163  1.3486
  496TIP3    H223048   1.426   5.795   7.876 -0.2413 -1.3547 -0.1933
  497TIP3   OH223049   6.589   2.305   0.869  0.0337 -0.3831  0.2720
  497TIP3    H123050   6.644   2.291   0.946  0.6415 -1.9956 -0.4271
  497TIP3    H223051   6.580   2.219   0.829  1.0834  0.6209 -2.3854
  498TIP3   OH223052   3.734   4.732   7.885  0.2098  0.0928 -0.2679
  498TIP3    H123053   3.693   4.818   7.894 -0.8122 -0.0167 -2.8937
  498TIP3    H223054   3.781   4.736   7.802 -0.4001 -2.0402 -0.8071
  499TIP3   OH223055   3.205   0.254   2.701  0.8851 -0.3341 -0.3226
  499TIP3    H123056   3.158   0.236   2.782 -0.0422 -0.0932 -0.7904
  499TIP3    H223057   3.264   0.180   2.690  1.0364 -0.3557  0.5826
  500TIP3   OH223058   5.032   3.557   8.764 -0.2687 -0.1694 -0.1867
  500TIP3    H123059   5.052   3.637   8.715 -1.0289  0.7622  0.9764
  500TIP3    H223060   5.016   3.491   8.696  0.5900  0.5862 -1.1616
  501TIP3   OH223061   4.784   1.576   3.077 -0.6743  0.7116 -0.4365
  501TIP3    H123062   4.780   1.672   3.078 -1.1384  0.6897 -0.1146
  501TIP3    H223063   4.699   1.548   3.043 -0.2971  0.4259 -1.1581
  502TIP3   OH223064   4.345   6.518   2.523 -0.1422 -0.1416  0.0987
  502TIP3    H123065   4.423   6.485   2.568 -0.8316 -0.2220  1.2614
  502TIP3    H223066   4.346   6.475   2.438  0.9074 -0.3862  0.2225
  503TIP3   OH223067   3.809   5.876   0.207  0.2640 -0.0418  0.2706
  503TIP3    H123068   3.868   5.821   0.155  0.1623 -0.8828  1.0296
  503TIP3    H223069   3.722   5.854   0.176  0.2681  0.2664  0.0358
  504TIP3   OH223070   0.035   2.804   0.787  0.4662  0.0418 -0.1232
  504TIP3    H123071  -0.055   2.787   0.814  0.8502  0.3079  1.4414
  504TIP3    H223072   0.072   2.718   0.768 -0.2280 -0.0314 -1.1975
  505TIP3   OH223073   4.390   6.279   0.930 -0.0731 -0.2844 -0.0691
  505TIP3    H123074   4.331   6.231   0.989  0.1974 -0.0864  0.3602
  505TIP3    H223075   4.343   6.281   0.847 -0.8028  0.1275  0.3499
  506TIP3   OH223076   0.678   5.186   8.908  0.3823  0.1136  0.5212
  506TIP3    H123077   0.628   5.125   8.963  1.0015 -1.4704 -0.5941
  506TIP3    H223078   0.625   5.196   8.829  0.8620  0.0203  0.1819
  507TIP3   OH223079   0.731   1.030   2.584  0.0556 -0.4323  0.1994
  507TIP3    H123080   0.701   1.072   2.504  0.7384 -0.6464 -0.1705
  507TIP3    H223081   0.776   1.099   2.632  0.8108 -0.6320 -0.2156
  508TIP3   OH223082   0.734   1.356   2.506  0.3999 -0.7312  0.3161
  508TIP3    H123083   0.760   1.367   2.597 -1.4289 -0.6136  0.8535
  508TIP3    H223084   0.802   1.299   2.469  1.6990  0.0053  1.4644
  509TIP3   OH223085   0.098   2.984   2.056  0.5999  0.1361  0.4038
  509TIP3    H123086   0.057   3.031   1.983 -0.6245  4.1672  3.3469
  509TIP3    H223087   0.049   2.902   2.062 -0.7407  0.6827 -1.8585
  510TIP3   OH223088   4.259   5.105   1.832 -0.1833  0.5790  0.0130
  510TIP3    H123089   4.239   5.013   1.820  0.8564  0.3947 -0.4400
  510TIP3    H223090   4.239   5.123   1.924 -2.2757  0.4138 -0.3555
  511TIP3   OH223091   5.938   4.801   7.154 -0.4542  0.0809 -0.5021
  511TIP3    H123092   5.920   4.756   7.236 -0.2025 -0.3665 -0.6876
  511TIP3    H223093   5.851   4.820   7.118 -0.5649 -0.2634 -0.4234
  512TIP3   OH223094   5.394   4.432   1.905 -0.3689  0.0208 -0.3001
  512TIP3    H123095   5.347   4.482   1.972 -0.4484  0.7200 -0.8610
  512TIP3    H223096   5.340   4.354   1.892 -1.7037  1.0525 -1.3035
  513TIP3   OH223097   0.170   0.518   7.681  0.0567 -0.1792 -0.0619
  513TIP3    H123098   0.084   0.476   7.681  0.1065 -0.3953 -2.1087
  513TIP3    H223099   0.229   0.452   7.715 -0.3971 -0.5243  0.0648
  514TIP3   OH223100   3.804   0.626   2.213  0.1000  0.5469 -0.3327
  514TIP3    H123101   3.795   0.645   2.306  0.3308  1.8714 -0.5544
  514TIP3    H223102   3.758   0.543   2.200 -0.4509  0.6503  0.8457
  515TIP3   OH223103   2.559   0.744   1.646  0.2617  0.1609  0.1446
  515TIP3    H123104   2.609   0.823   1.622  0.1348  0.8401  1.9704
  515TIP3    H223105   2.470   0.777   1.663 -0.7703 -0.9582 -2.5830
  516TIP3   OH223106   4.598   5.656   1.926 -0.0534  0.1968 -0.2818
  516TIP3    H123107   4.546   5.576   1.934  1.1353 -0.6731 -1.0133
  516TIP3    H223108   4.687   5.630   1.949  0.1857  1.5459  0.4298
  517TIP3   OH223109   4.695   3.954   8.847 -0.4595  0.2914 -0.7001
  517TIP3    H123110   4.782   3.978   8.815 -0.1866  0.1456 -0.0871
  517TIP3    H223111   4.675   3.873   8.801  0.7214 -0.9183  0.8022
  518TIP3   OH223112   4.453   5.958   7.898  0.6705  0.1170 -0.1708
  518TIP3    H123113   4.466   5.864   7.886  1.3472 -0.1600  2.1474
  518TIP3    H223114   4.359   5.966   7.917  0.6576 -0.1177 -0.1317
  519TIP3   OH223115   2.287   0.613   0.866  0.2759 -0.1610 -0.2964
  519TIP3    H123116   2.230   0.561   0.809 -0.2975 -0.1192  0.2164
  519TIP3    H223117   2.320   0.683   0.811  0.9066 -0.9640 -0.9511
  520TIP3   OH223118   2.519   0.008   1.679  0.2035  0.3354  0.5225
  520TIP3    H123119   2.427   0.014   1.650  0.0818  3.5721  1.2066
  520TIP3    H223120   2.519  -0.062   1.744 -2.0033  0.8173  1.1381
  521TIP3   OH223121   4.506   4.748   2.389 -0.1405  0.8247 -0.3577
  521TIP3    H123122   4.576   4.683   2.393 -1.8558 -1.0943 -0.0719
  521TIP3    H223123   4.525   4.799   2.310 -0.2690 -1.9183 -2.2921
  522TIP3   OH223124   5.161   4.772   8.853  0.7328 -0.0774 -0.1700
  522TIP3    H123125   5.153   4.867   8.842 -0.5464 -0.2121 -0.5815
  522TIP3    H223126   5.249   4.752   8.821  0.5698  0.8120 -1.2446
  523TIP3   OH223127   0.953   2.974   0.640  0.3360  0.1311 -0.4076
  523TIP3    H123128   0.985   2.918   0.711 -0.4847 -1.1831 -1.0380
  523TIP3    H223129   1.022   3.039   0.629  0.3847  0.5140  1.7250
  524TIP3   OH223130   1.952   4.093   0.488 -0.2317  0.3027  0.0493
  524TIP3    H123131   1.987   4.131   0.569  0.8265 -0.6244  0.0610
  524TIP3    H223132   1.864   4.128   0.481 -0.0552  1.0373  1.1803
  525TIP3   OH223133   1.821   0.842   8.566 -0.8552  0.0883  0.3261
  525TIP3    H123134   1.884   0.884   8.625 -1.0824  1.3322 -0.2844
  525TIP3    H223135   1.754   0.909   8.550 -1.1513 -0.4485 -0.7950
  526TIP3   OH223136   0.605   5.757   1.147  0.0576 -0.3866  0.0369
  526TIP3    H123137   0.670   5.822   1.120 -1.2939  1.8315  1.7765
  526TIP3    H223138   0.636   5.726   1.232 -1.0622  0.6280  0.8444
  527TIP3   OH223139   6.127   2.384   3.449 -0.0572 -0.2440  0.2489
  527TIP3    H123140   6.157   2.319   3.386 -0.9875  0.1001 -0.5920
  527TIP3    H223141   6.100   2.333   3.525 -0.5650 -0.8356 -0.3105
  528TIP3   OH223142   1.174   4.014   7.690 -0.3063 -0.2694 -0.3844
  528TIP3    H123143   1.252   4.036   7.742 -0.0076 -1.4103 -0.3244
  528TIP3    H223144   1.100   4.032   7.748 -0.0081 -0.8269  0.1665
  529TIP3   OH223145   0.918   6.208   0.247  0.1867  0.0164  0.2950
  529TIP3    H123146   0.965   6.282   0.208 -1.3287  0.8325 -0.0397
  529TIP3    H223147   0.834   6.244   0.274 -0.5210 -1.5488  0.2931
  530TIP3   OH223148   5.285   3.746   8.183  0.3137 -0.2565  0.1934
  530TIP3    H123149   5.236   3.677   8.138  1.3297  0.0513 -1.4552
  530TIP3    H223150   5.221   3.788   8.240 -0.6490 -1.6606  0.1952
  531TIP3   OH223151   3.823   1.085   8.361  0.4625 -0.2894 -0.1051
  531TIP3    H123152   3.781   1.121   8.439 -1.2292  0.0510 -1.0997
  531TIP3    H223153   3.827   1.159   8.300 -0.0513 -0.9830 -1.0121
  532TIP3   OH223154   5.694   4.690   7.767  0.6432  0.1057 -0.5403
  532TIP3    H123155   5.679   4.674   7.673  1.8350  0.5073 -0.8236
  532TIP3    H223156   5.779   4.648   7.784  1.2696  1.5309 -0.0629
  533TIP3   OH223157   4.369   6.212   8.251 -0.1360 -0.0837 -0.0548
  533TIP3    H123158   4.422   6.233   8.173 -1.2565  0.0400 -0.8034
  533TIP3    H223159   4.369   6.117   8.255  2.3914 -0.1148  1.5616
  534TIP3   OH223160   4.316   2.009   3.542  0.0748 -0.4511 -0.0719
  534TIP3    H123161   4.319   2.079   3.608 -1.0040  0.6013 -1.0801
  534TIP3    H223162   4.257   1.944   3.579 -1.1898  0.5182 -0.3003
  535TIP3   OH223163   3.784   5.862   7.473 -0.0563  0.2796 -0.1608
  535TIP3    H123164   3.743   5.783   7.438  1.6377  0.2237 -2.1877
  535TIP3    H223165   3.790   5.921   7.398  1.3439  1.2034  0.6300
  536TIP3   OH223166   2.870   0.429   1.656  0.4031  0.2229  0.0705
  536TIP3    H123167   2.842   0.440   1.565  1.2235 -0.1508 -0.2427
  536TIP3    H223168   2.802   0.374   1.696  0.1291  0.2385 -0.3706
  537TIP3   OH223169   2.700   1.698   7.929  0.3334 -0.2334  0.1540
  537TIP3    H123170   2.669   1.609   7.914  0.1755 -0.0349 -0.7425
  537TIP3    H223171   2.746   1.694   8.013  0.0316 -1.0792  0.2825
  538TIP3   OH223172   3.130   6.267   0.735 -0.8826  0.3300  0.1030
  538TIP3    H123173   3.090   6.180   0.740 -0.9866  0.4384  1.9230
  538TIP3    H223174   3.058   6.326   0.715 -1.3541  0.3163  1.6674
  539TIP3   OH223175   4.025   6.269   0.084 -0.1670  0.9007  0.6697
  539TIP3    H123176   3.959   6.331   0.052  0.1508  1.1655  0.5273
  539TIP3    H223177   4.108   6.306   0.056 -0.0587 -0.6723 -1.3193
  540TIP3   OH223178   0.144   4.761   1.784 -0.2601  0.7399 -0.7787
  540TIP3    H123179   0.076   4.779   1.849 -1.1000  0.5634 -1.5943
  540TIP3    H223180   0.103   4.701   1.722  0.8310  0.1590 -0.9734
  541TIP3   OH223181   0.518   0.495   3.816 -0.3312  0.2022 -0.1486
  541TIP3    H123182   0.435   0.517   3.775  0.5095  1.8492 -1.0512
  541TIP3    H223183   0.561   0.436   3.754 -0.4102  0.1349 -0.1396
  542TIP3   OH223184   5.502   4.159   0.840 -0.1959  0.5304  0.2518
  542TIP3    H123185   5.575   4.146   0.778 -0.2911 -0.0241  0.2531
  542TIP3    H223186   5.526   4.238   0.888  0.4404  0.3157  0.2980
  543TIP3   OH223187   3.711   1.074   2.623 -0.6003 -0.2207 -0.0628
  543TIP3    H123188   3.682   0.987   2.594 -1.5338  0.2908 -0.7097
  543TIP3    H223189   3.745   1.116   2.544 -1.4231  0.5009 -0.0418
  544TIP3   OH223190   3.480   0.820   2.346 -0.4080  0.9571 -0.9101
  544TIP3    H123191   3.529   0.764   2.286 -1.5868 -0.2889 -0.7536
  544TIP3    H223192   3.530   0.902   2.349  1.0933  0.0928 -1.5097
  545TIP3   OH223193   2.339   6.551   8.507  0.8428  0.5907 -0.6261
  545TIP3    H123194   2.252   6.585   8.530  0.5606 -1.0512  0.9211
  545TIP3    H223195   2.380   6.623   8.458 -1.4193  1.3512 -1.5560
  546TIP3   OH223196   0.760   6.652   0.561 -0.3319 -0.4457 -0.3229
  546TIP3    H123197   0.726   6.635   0.473  1.4343  1.5047 -1.4505
  546TIP3    H223198   0.682   6.675   0.612 -1.1033  1.3844 -2.1725
  547TIP3   OH223199   5.690   6.507   1.128  0.1470  0.4254  0.2431
  547TIP3    H123200   5.693   6.487   1.221  3.1398 -1.7177 -0.1680
  547TIP3    H223201   5.662   6.425   1.086 -0.1449  1.0451 -0.8356
  548TIP3   OH223202   5.034   4.589   0.495 -0.0528 -0.1163  0.4766
  548TIP3    H123203   5.114   4.638   0.474  1.1349 -2.5986 -1.4091
  548TIP3    H223204   5.040   4.572   0.588  0.4895  1.5526  0.7830
  549TIP3   OH223205   1.099   2.888   1.166 -0.2569 -0.1268  0.3338
  549TIP3    H123206   1.021   2.837   1.142 -0.5076  0.0483  0.7550
  549TIP3    H223207   1.088   2.905   1.260 -0.2018  0.7448  0.1929
  550TIP3   OH223208   4.643   1.522   8.731  0.3640  0.0335 -0.0218
  550TIP3    H123209   4.586   1.459   8.686  0.1883 -0.7775  1.2724
  550TIP3    H223210   4.724   1.474   8.747  0.2907  0.1771  0.8320
  551TIP3   OH223211   5.047   1.465   0.832  0.1216  0.3505 -0.8300
  551TIP3    H123212   5.039   1.414   0.751 -1.1466 -1.2879  0.2563
  551TIP3    H223213   4.990   1.420   0.894 -0.1217  2.4534  0.5626
  552TIP3   OH223214   0.951   4.682   1.838  0.0035 -0.4736 -0.6137
  552TIP3    H123215   0.921   4.762   1.882 -0.0073 -0.2463 -1.0329
  552TIP3    H223216   0.984   4.627   1.909  1.7289  0.6444 -0.4964
  553TIP3   OH223217   0.027   5.256   8.107 -0.1301 -0.2155 -0.2876
  553TIP3    H123218   0.050   5.260   8.014 -1.3521  1.1077 -0.5623
  553TIP3    H223219  -0.039   5.186   8.112  0.0203 -0.3669 -0.3912
  554TIP3   OH223220   0.265   5.813   0.773  0.6229 -0.3607 -0.4027
  554TIP3    H123221   0.238   5.744   0.712  0.7964  0.1348 -1.0567
  554TIP3    H223222   0.183   5.842   0.814  0.6398 -1.4805  0.4649
  555TIP3   OH223223   1.904   6.499   0.154 -0.3844 -0.1354  0.0296
  555TIP3    H123224   1.945   6.490   0.068 -0.3793 -1.0757  0.1227
  555TIP3    H223225   1.861   6.415   0.170  3.1345 -1.7299  2.7568
  556TIP3   OH223226   3.966   5.502   2.103 -0.2396 -0.0302  0.1065
  556TIP3    H123227   3.943   5.595   2.098  1.4556  0.4635  0.7850
  556TIP3    H223228   4.055   5.502   2.139  1.0248 -1.7490 -2.6793
  557TIP3   OH223229   3.963   4.925   8.141  0.0640 -0.5127  0.7216
  557TIP3    H123230   4.009   4.862   8.085 -1.0880  1.0362 -2.1990
  557TIP3    H223231   3.996   5.010   8.113 -2.6250  0.4941  0.3500
  558TIP3   OH223232   0.065   1.023   1.514  0.1204  0.3520  0.3487
  558TIP3    H123233   0.093   1.089   1.450 -0.4509  2.0135  1.7103
  558TIP3    H223234  -0.001   1.069   1.567 -0.6748 -1.5053  1.0369
  559TIP3   OH223235   1.520   1.591   1.735 -0.1182  0.1048  0.1394
  559TIP3    H123236   1.604   1.594   1.691  0.3374  0.9025  1.0255
  559TIP3    H223237   1.471   1.523   1.689  1.3853 -1.1246  0.2772
  560TIP3   OH223238   4.164   1.035   8.695 -0.0195  0.4012  0.9112
  560TIP3    H123239   4.220   1.061   8.622  1.0492 -1.4672  1.0134
  560TIP3    H223240   4.166   1.110   8.754  0.2248  1.3976 -0.3067
  561TIP3   OH223241   6.001   0.366   1.308  0.5121  0.0717  0.1657
  561TIP3    H123242   6.000   0.288   1.252 -0.0960 -0.0724  0.3738
  561TIP3    H223243   5.993   0.332   1.397  2.3384  0.2383  0.4364
  562TIP3   OH223244   4.833   1.817   7.770  0.4413 -0.0640  0.0632
  562TIP3    H123245   4.925   1.837   7.751  0.3793 -0.2134 -0.3919
  562TIP3    H223246   4.790   1.903   7.771  0.9670  0.2486  2.4415
  563TIP3   OH223247   3.888   3.240   2.983  0.2830 -0.3217  0.3369
  563TIP3    H123248   3.939   3.314   3.014  1.1228 -0.6282 -0.2678
  563TIP3    H223249   3.857   3.197   3.063  0.4627  0.2148  0.7009
  564TIP3   OH223250   4.626   5.846   2.209  0.0458 -0.2364 -0.1437
  564TIP3    H123251   4.531   5.834   2.204  0.2743 -2.0112 -1.2681
  564TIP3    H223252   4.662   5.760   2.187  1.9262 -0.0546  1.9386
  565TIP3   OH223253   3.962   2.754   2.344  0.3901 -0.1705 -0.1423
  565TIP3    H123254   3.927   2.787   2.426 -0.7126 -1.9332  0.1640
  565TIP3    H223255   4.044   2.712   2.368  0.8160  0.6076 -0.2101
  566TIP3   OH223256   4.616   2.632   1.371  0.3111  0.2248  1.1954
  566TIP3    H123257   4.646   2.615   1.460 -0.0957  1.8515  1.6793
  566TIP3    H223258   4.573   2.551   1.344 -1.0162  0.2189  3.1173
  567TIP3   OH223259   6.189   5.127   8.702  0.0269  0.9346 -0.0457
  567TIP3    H123260   6.163   5.076   8.779  0.5364 -0.2338 -0.6220
  567TIP3    H223261   6.197   5.217   8.735  0.5466  0.4177  1.3481
  568TIP3   OH223262   0.618   3.435   1.831  0.0952 -0.0117  0.0665
  568TIP3    H123263   0.623   3.428   1.927 -0.5138 -0.4893  0.0694
  568TIP3    H223264   0.626   3.344   1.800  2.9482  0.3324 -0.4969
  569TIP3   OH223265   1.158   2.910   2.704 -0.9484  0.2139  0.0854
  569TIP3    H123266   1.141   3.003   2.695 -0.7836  0.5434  2.4573
  569TIP3    H223267   1.182   2.881   2.616 -0.4282  2.5085 -0.5982
  570TIP3   OH223268   3.909   0.450   1.040  0.0577  0.1593  0.0723
  570TIP3    H123269   3.910   0.443   0.944  0.7171 -0.5879  0.1172
  570TIP3    H223270   3.821   0.422   1.065 -0.5946  1.6783 -0.3756
  571TIP3   OH223271   4.611   6.405   1.119  0.4870 -0.3821 -0.1996
  571TIP3    H123272   4.595   6.342   1.048  2.3549 -1.1586  0.0002
  571TIP3    H223273   4.646   6.482   1.074 -1.7687  0.5465 -0.4410
  572TIP3   OH223274   4.319   4.551   8.962 -0.4958  0.1793  0.6095
  572TIP3    H123275   4.252   4.514   9.020 -0.6975  0.3951  0.5151
  572TIP3    H223276   4.359   4.621   9.014  1.5352 -1.6676  1.7166
  573TIP3   OH223277   4.236   3.797   2.604  0.1219 -0.7752 -0.5007
  573TIP3    H123278   4.239   3.892   2.590 -0.2813 -0.6486  0.1762
  573TIP3    H223279   4.310   3.763   2.554  0.2945 -0.0982 -0.7262
  574TIP3   OH223280   6.633   6.464   8.681 -0.3032 -0.2810  0.4019
  574TIP3    H123281   6.585   6.416   8.613  1.1733  1.7159 -2.2479
  574TIP3    H223282   6.692   6.399   8.719  1.4828 -0.8594 -2.9147
  575TIP3   OH223283   5.360   2.061   2.442  0.3008 -0.3421  0.7014
  575TIP3    H123284   5.438   2.115   2.457  0.8949 -0.6024 -1.2373
  575TIP3    H223285   5.288   2.124   2.436  0.8379  0.1783 -0.5311
  576TIP3   OH223286   1.378   0.761   3.075 -0.3049  0.8974  0.0231
  576TIP3    H123287   1.389   0.691   3.011 -0.5678  1.4609 -0.6519
  576TIP3    H223288   1.385   0.717   3.160  0.8812  0.2684 -0.3814
  577TIP3   OH223289   5.254   2.077   0.192 -0.1253  0.2525  0.7273
  577TIP3    H123290   5.310   2.102   0.119  0.0035 -0.8745  0.4320
  577TIP3    H223291   5.287   2.128   0.266  1.5272 -0.6517  0.6484
  578TIP3   OH223292   3.158   3.905   7.958  0.1364  0.0645  0.0562
  578TIP3    H123293   3.153   3.953   7.876 -0.6614  1.6789  1.0009
  578TIP3    H223294   3.200   3.822   7.935  1.4837  1.1631 -1.6442
  579TIP3   OH223295   0.563   0.774   7.607  0.2705 -0.0612 -0.2182
  579TIP3    H123296   0.562   0.842   7.674 -1.1400 -0.3867  0.1363
  579TIP3    H223297   0.618   0.809   7.537 -0.0969  1.2670  0.1410
  580TIP3   OH223298   2.129   4.863   7.795 -0.0809 -0.1580 -0.0183
  580TIP3    H123299   2.216   4.860   7.835 -0.7851 -0.3767  1.5661
  580TIP3    H223300   2.118   4.778   7.754 -0.0819 -0.6662  1.0050
  581TIP3   OH223301   3.058   2.000   7.528  0.1653  0.7423  0.3116
  581TIP3    H123302   3.003   2.042   7.594 -1.1482  1.9818 -1.4774
  581TIP3    H223303   3.047   2.054   7.450  2.4122 -0.1220 -0.6788
  582TIP3   OH223304   6.174   2.179   2.337 -0.1321  0.3747 -0.1062
  582TIP3    H123305   6.264   2.163   2.307 -0.7992 -2.5803 -0.8587
  582TIP3    H223306   6.121   2.167   2.258 -1.7261 -5.0775  1.3532
  583TIP3   OH223307   3.549   0.877   7.898  0.0797 -0.2983  0.4779
  583TIP3    H123308   3.544   0.786   7.928 -3.3052 -0.6249 -0.7446
  583TIP3    H223309   3.601   0.873   7.818  0.4096 -1.0532  0.7214
  584TIP3   OH223310   5.421   2.286   0.327 -0.1042  0.6611 -0.1922
  584TIP3    H123311   5.476   2.283   0.405 -1.3249 -1.8915  0.7083
  584TIP3    H223312   5.462   2.225   0.266 -0.4635  0.8145 -0.5960
  585TIP3   OH223313   6.603   1.264   2.128 -0.1228 -0.1622 -0.1133
  585TIP3    H123314   6.659   1.226   2.196  1.1764  3.0707  0.8362
  585TIP3    H223315   6.523   1.290   2.175  0.6168  1.7187  0.2164
  586TIP3   OH223316   0.513   6.597   1.821 -0.4752  0.2204 -0.0493
  586TIP3    H123317   0.457   6.608   1.744 -0.3016 -2.7028 -0.7247
  586TIP3    H223318   0.602   6.604   1.787 -0.3979  1.2763  0.3500
  587TIP3   OH223319   2.052   0.971   8.321 -0.2346  0.0698 -0.0839
  587TIP3    H123320   2.029   1.036   8.389  0.3648 -1.0682  1.2519
  587TIP3    H223321   2.086   1.024   8.249 -0.7130  1.3183  0.5607
  588TIP3   OH223322   4.723   4.188   0.038 -0.0287 -0.4490  0.0465
  588TIP3    H123323   4.768   4.232  -0.034  1.2030 -0.8884  0.5317
  588TIP3    H223324   4.683   4.111  -0.002  0.9106 -0.8610 -0.1126
  589TIP3   OH223325   0.342   1.726   1.823  0.0900 -0.2104 -0.1994
  589TIP3    H123326   0.343   1.814   1.861 -0.5086 -0.2531 -0.0808
  589TIP3    H223327   0.412   1.680   1.869  0.6983  0.3307 -0.5742
  590TIP3   OH223328   0.938   0.313   7.972  0.1280 -0.1350 -0.9666
  590TIP3    H123329   1.016   0.311   7.916  1.2131 -1.7178  0.4719
  590TIP3    H223330   0.911   0.221   7.977 -1.5298  0.3286 -1.0124
  591TIP3   OH223331   4.900   3.158   0.961  0.0500  0.1522  0.0230
  591TIP3    H123332   4.938   3.079   0.998  0.6160  0.9899  1.3092
  591TIP3    H223333   4.831   3.184   1.023  0.7740  1.3847  0.3490
  592TIP3   OH223334   6.543   6.357   8.459 -0.6249  0.1797  0.6421
  592TIP3    H123335   6.588   6.409   8.393 -2.3904  2.3137  1.0058
  592TIP3    H223336   6.511   6.280   8.412 -0.6449  0.9675 -0.6690
  593TIP3   OH223337   5.184   2.833   2.104 -0.4367  0.3844 -0.2968
  593TIP3    H123338   5.155   2.908   2.054  1.4491  1.4174  0.0551
  593TIP3    H223339   5.211   2.869   2.189  0.8000 -0.5988 -0.2290
  594TIP3   OH223340   5.539   2.895   8.718  0.0622  0.1433  0.0349
  594TIP3    H123341   5.460   2.873   8.768  0.6956 -0.6079  0.7512
  594TIP3    H223342   5.549   2.822   8.656  0.8836 -0.4378  0.8225
  595TIP3   OH223343   4.852   0.680   7.507  0.0043 -0.8619 -0.0983
  595TIP3    H123344   4.834   0.767   7.471  2.4110 -0.9410 -1.7103
  595TIP3    H223345   4.880   0.696   7.597  0.0808  0.0146 -0.2709
  596TIP3   OH223346   1.244   0.369   0.809  0.3141  0.5690  0.1657
  596TIP3    H123347   1.246   0.329   0.895  0.1136 -1.2581 -0.6393
  596TIP3    H223348   1.257   0.463   0.826 -1.3549  0.4870  2.2820
  597TIP3   OH223349   1.606   1.016   0.188  0.5186  0.2053 -0.3633
  597TIP3    H123350   1.515   0.987   0.179  0.7654 -1.2219  1.1674
  597TIP3    H223351   1.603   1.082   0.258  0.9041 -1.5082  1.3581
  598TIP3   OH223352   0.325   6.652   0.271  0.4255  0.3441 -0.0124
  598TIP3    H123353   0.382   6.602   0.330 -1.2979 -0.4831  1.0515
  598TIP3    H223354   0.333   6.743   0.301  0.1176  0.0332  1.0581
  599TIP3   OH223355   1.761   5.962   8.851 -0.0898 -0.2153  0.6242
  599TIP3    H123356   1.777   5.876   8.891 -0.8506 -0.6356  0.0374
  599TIP3    H223357   1.670   5.960   8.824 -0.0859  0.7485  0.4984
  600TIP3   OH223358   1.998   3.260   2.844 -0.2447 -0.3044 -0.1299
  600TIP3    H123359   2.053   3.323   2.890  1.3246 -1.5395 -0.2183
  600TIP3    H223360   1.975   3.303   2.762  0.0042  0.5058  0.2168
  601TIP3   OH223361   1.576   5.077   1.162 -0.2659 -0.0286 -0.0260
  601TIP3    H123362   1.554   4.986   1.183  0.0595 -0.0121  0.4043
  601TIP3    H223363   1.506   5.129   1.201 -0.7172 -0.1168 -0.6930
  602TIP3   OH223364   1.003   0.466   8.177  0.6327  0.1742 -0.7142
  602TIP3    H123365   0.983   0.394   8.116  0.6924  0.9215 -1.6485
  602TIP3    H223366   0.972   0.545   8.132  2.0251  0.9181 -0.4365
  603TIP3   OH223367   4.852   3.684   7.052 -0.1815 -0.3149 -0.0816
  603TIP3    H123368   4.905   3.635   6.988  0.6873  1.2495 -0.6283
  603TIP3    H223369   4.763   3.680   7.017  0.2143  0.1698 -1.2202
  604TIP3   OH223370   5.441   3.125   1.111 -0.4543 -0.0399  0.3112
  604TIP3    H123371   5.400   3.079   1.184  1.1506 -1.3423  0.4562
  604TIP3    H223372   5.464   3.055   1.049  1.5281  0.5953  0.2753
  605TIP3   OH223373   5.692   5.911   7.626  0.5851  0.0087 -0.9385
  605TIP3    H123374   5.733   5.926   7.541 -0.4976 -1.8585 -1.8525
  605TIP3    H223375   5.627   5.981   7.634  0.9032  0.3725 -1.5077
  606TIP3   OH223376   6.292   5.009   1.491  0.3740 -0.3966  0.2546
  606TIP3    H123377   6.253   4.960   1.563  0.7782  0.7452  1.2873
  606TIP3    H223378   6.373   5.046   1.528  0.1034  0.9995 -0.4797
  607TIP3   OH223379   2.536   4.944   8.176 -0.3964  0.3802  0.0383
  607TIP3    H123380   2.630   4.966   8.172 -0.5980  1.1611 -0.8738
  607TIP3    H223381   2.532   4.851   8.154  0.2381  0.1061  1.0178
  608TIP3   OH223382   3.687   6.285   8.718 -0.2756 -0.1943  0.5954
  608TIP3    H123383   3.775   6.323   8.711 -0.1458 -0.4841  0.6271
  608TIP3    H223384   3.675   6.273   8.812 -0.8247  0.9434  0.6779
  609TIP3   OH223385   6.101   5.464   2.968 -0.5262  0.4024  0.1499
  609TIP3    H123386   6.067   5.375   2.975 -1.3431  0.3523 -3.0592
  609TIP3    H223387   6.033   5.512   2.922  1.7466  1.4688 -2.3487
  610TIP3   OH223388   5.316   6.731   0.096  0.4989  0.2238  0.1513
  610TIP3    H123389   5.305   6.637   0.110  1.0040 -0.5255 -3.4331
  610TIP3    H223390   5.392   6.754   0.149 -0.1554 -1.1616  1.7857
  611TIP3   OH223391   1.213   1.186   0.406  0.0574  0.0018 -0.1427
  611TIP3    H123392   1.177   1.270   0.432 -2.1563 -0.5717 -1.1230
  611TIP3    H223393   1.196   1.129   0.481  1.2158  0.3139  0.3721
  612TIP3   OH223394   1.142   2.952   2.067  0.4125  0.7386 -0.1294
  612TIP3    H123395   1.180   3.017   2.126  3.1479 -1.5166  0.7980
  612TIP3    H223396   1.194   2.959   1.987 -0.3691  0.7769 -0.6445
  613TIP3   OH223397   5.550   2.896   1.377  0.3094 -0.1548  0.4454
  613TIP3    H123398   5.583   2.864   1.293 -0.1994 -3.7654  1.4397
  613TIP3    H223399   5.623   2.944   1.415  1.0082  0.3478 -1.4416
  614TIP3   OH223400   0.937   5.790   2.222 -0.5972  0.4199 -0.4473
  614TIP3    H123401   0.937   5.699   2.191  2.5518  0.2036 -0.1231
  614TIP3    H223402   0.950   5.783   2.316  0.4980  1.1706 -0.5248
  615TIP3   OH223403   0.527   2.353   0.247 -0.4452 -0.4123 -0.6624
  615TIP3    H123404   0.439   2.388   0.257 -0.7036 -1.0750 -0.5742
  615TIP3    H223405   0.585   2.428   0.264 -0.9943  0.3650 -2.0539
  616TIP3   OH223406   0.199   4.662   7.744  0.0810  0.3468 -0.2659
  616TIP3    H123407   0.293   4.682   7.750  0.3795 -1.1183  0.5075
  616TIP3    H223408   0.188   4.586   7.801 -1.0634 -1.1917 -2.4345
  617TIP3   OH223409   4.513   2.985   1.276 -0.3251 -0.7688  0.3914
  617TIP3    H123410   4.431   3.002   1.321 -0.1400 -3.1192  1.7971
  617TIP3    H223411   4.581   2.995   1.343  0.5217  0.6344 -0.6264
  618TIP3   OH223412   5.026   0.767   1.347 -0.0070  0.5465 -0.4218
  618TIP3    H123413   4.939   0.739   1.375 -0.4341  0.6638 -1.5897
  618TIP3    H223414   5.066   0.689   1.309  0.8261  0.2165  1.0406
  619TIP3   OH223415   4.364   5.292   2.236  0.0349 -0.0821 -0.0400
  619TIP3    H123416   4.363   5.219   2.298  1.5516 -1.5802 -1.6678
  619TIP3    H223417   4.354   5.370   2.291  0.9966 -1.3415  2.0512
  620TIP3   OH223418   4.084   3.411   2.408 -0.3508 -0.0128  0.4503
  620TIP3    H123419   4.175   3.426   2.431 -0.3547  1.5786 -0.4223
  620TIP3    H223420   4.078   3.317   2.393  1.6627  0.0822 -1.4766
  621TIP3   OH223421   3.021   1.460   0.473  0.4482  0.3978 -0.4208
  621TIP3    H123422   2.984   1.391   0.417 -0.5143 -0.3235  1.0588
  621TIP3    H223423   2.976   1.540   0.444  0.9163  0.2871 -1.5335
  622TIP3   OH223424   2.366   2.931   8.802 -0.0819  0.5146  0.1044
  622TIP3    H123425   2.287   2.881   8.825 -1.1667  1.6361 -0.9872
  622TIP3    H223426   2.349   3.018   8.839 -0.0827  1.2086 -1.4784
  623TIP3   OH223427   0.219   6.510   2.099  0.1688 -0.1021 -0.0502
  623TIP3    H123428   0.244   6.469   2.017 -2.8131 -1.0145 -0.6008
  623TIP3    H223429   0.162   6.446   2.142 -2.3495  2.2315  0.3816
  624TIP3   OH223430   1.246   0.245   1.215  0.2002 -0.0167  0.6217
  624TIP3    H123431   1.171   0.189   1.237  0.4952  0.3945  2.8865
  624TIP3    H223432   1.300   0.190   1.159 -2.0482 -0.1079 -1.6652
  625TIP3   OH223433   4.970   0.351   8.284  0.5552  0.2872  0.7205
  625TIP3    H123434   5.065   0.355   8.274  0.5638 -2.2969 -1.4390
  625TIP3    H223435   4.935   0.401   8.210  0.1754  1.5842  1.7380
  626TIP3   OH223436   5.257   4.869   7.346  0.1569  0.7215  0.2425
  626TIP3    H123437   5.251   4.891   7.253  0.9474  1.7543  0.4168
  626TIP3    H223438   5.348   4.886   7.369 -0.3538  1.8999  1.5371
  627TIP3   OH223439   2.105   3.679   8.793 -0.2713  0.7481 -0.4621
  627TIP3    H123440   2.171   3.709   8.731  0.0908  0.8947 -0.0187
  627TIP3    H223441   2.096   3.752   8.855 -0.0909  0.3293  0.0722
  628TIP3   OH223442   6.291   2.554   1.118  0.4342 -0.3467  0.3369
  628TIP3    H123443   6.349   2.560   1.041 -0.8216  0.6628 -0.5644
  628TIP3    H223444   6.263   2.462   1.119  1.0907 -0.5568  0.0659
  629TIP3   OH223445   4.918   2.472   2.156 -0.2788 -0.0317  0.2491
  629TIP3    H123446   4.884   2.561   2.167 -2.3134 -0.5246 -1.3735
  629TIP3    H223447   4.864   2.419   2.216 -0.8201 -0.4961 -0.6268
  630TIP3   OH223448   2.527   0.659   8.266 -0.9219  0.0630  0.5551
  630TIP3    H123449   2.461   0.727   8.280 -0.6119  0.1314  1.8356
  630TIP3    H223450   2.513   0.598   8.338  0.6199  0.2470  1.0403
  631TIP3   OH223451   1.801   2.771   0.572 -0.2172  0.1621 -0.1427
  631TIP3    H123452   1.836   2.749   0.658  1.3457  2.2804 -0.1762
  631TIP3    H223453   1.863   2.834   0.535 -0.0763 -1.6516 -3.4311
  632TIP3   OH223454   0.614   1.627   1.914  0.0838  0.7793 -0.5724
  632TIP3    H123455   0.618   1.562   1.843 -1.0294  0.7359 -0.6106
  632TIP3    H223456   0.635   1.577   1.993 -1.4018  0.2045 -0.5145
  633TIP3   OH223457   5.162   0.352   1.905  0.5992 -0.5968  0.2512
  633TIP3    H123458   5.085   0.406   1.920 -0.3381 -2.0985  1.0171
  633TIP3    H223459   5.236   0.413   1.914 -0.4678  0.8528 -0.4832
  634TIP3   OH223460   5.835   4.661   1.620 -0.2315  0.3532  1.0396
  634TIP3    H123461   5.883   4.683   1.541 -0.1154  0.6547  1.1926
  634TIP3    H223462   5.762   4.607   1.590 -1.0704  1.7049  0.5325
  635TIP3   OH223463   4.138   6.314   8.399  0.1275 -0.2002  0.6185
  635TIP3    H123464   4.210   6.266   8.356  1.9614  0.9151  2.2756
  635TIP3    H223465   4.095   6.249   8.454  1.2123 -0.4588  1.1936
  636TIP3   OH223466   0.060   2.329   8.041 -0.2616 -0.3155 -0.4819
  636TIP3    H123467   0.014   2.246   8.029 -1.4325  0.3244 -0.5140
  636TIP3    H223468   0.099   2.322   8.128  1.2772 -1.6452 -1.2140
  637TIP3   OH223469   6.062   5.941   0.314  0.4272 -0.6590 -0.1853
  637TIP3    H123470   6.144   5.904   0.282  0.5026 -0.7258  0.0779
  637TIP3    H223471   6.088   6.004   0.381  0.3125  0.1258 -0.8598
  638TIP3   OH223472   2.375   0.602   0.124 -0.3802 -0.3539  0.1259
  638TIP3    H123473   2.288   0.610   0.084  0.1753  0.3995 -0.9884
  638TIP3    H223474   2.403   0.513   0.103 -0.6717 -0.4260  0.0351
  639TIP3   OH223475   5.887   1.997   1.623 -0.4298 -0.3153  0.2832
  639TIP3    H123476   5.889   1.913   1.668 -1.8687 -1.9011 -2.3758
  639TIP3    H223477   5.796   2.025   1.626  0.1182  1.5231  1.6312
  640TIP3   OH223478   5.654   1.365   1.114  0.7183  0.2161  0.1119
  640TIP3    H123479   5.618   1.408   1.192  1.8191  0.8539  0.2970
  640TIP3    H223480   5.675   1.438   1.055  0.2502 -0.2403 -0.6287
  641TIP3   OH223481   5.310   6.043   7.472  0.3217 -0.4842 -0.2550
  641TIP3    H123482   5.252   6.099   7.419  0.1762 -0.6735 -0.2956
  641TIP3    H223483   5.395   6.049   7.428  0.0425 -1.1656 -0.8961
  642TIP3   OH223484   1.163   4.689   0.580  0.3932  0.3167  0.0566
  642TIP3    H123485   1.167   4.710   0.487 -0.1892 -2.3666 -0.6557
  642TIP3    H223486   1.254   4.669   0.605  0.2107 -1.7637 -0.7383
  643TIP3   OH223487   3.739   4.231   8.377 -0.2664 -0.4450  0.3657
  643TIP3    H123488   3.677   4.238   8.449  0.7119 -1.0634  1.3117
  643TIP3    H223489   3.694   4.180   8.311 -0.9894 -0.3307  0.7614
  644TIP3   OH223490   5.168   1.652   2.309  0.0844  0.1292 -0.7811
  644TIP3    H123491   5.146   1.745   2.315 -0.2148 -0.0146  2.4775
  644TIP3    H223492   5.084   1.608   2.306  0.0792 -0.0853  1.2251
  645TIP3   OH223493   0.477   3.682   8.546  0.2280 -0.0334  0.6650
  645TIP3    H123494   0.514   3.655   8.630 -1.5832 -1.1218  1.1487
  645TIP3    H223495   0.544   3.656   8.482  1.3674  0.2608  1.6812
  646TIP3   OH223496   0.058   6.272   1.060 -0.2285  0.5177 -0.3016
  646TIP3    H123497   0.013   6.233   0.985 -0.3311  1.0862 -0.5367
  646TIP3    H223498  -0.012   6.292   1.122 -0.0122 -1.4861  0.6890
  647TIP3   OH223499   0.046   3.749   0.047 -0.3444 -0.0761  0.0873
  647TIP3    H123500   0.128   3.714   0.083 -0.6276 -1.0843 -0.2156
  647TIP3    H223501   0.074   3.814  -0.017  0.2148 -0.3229  0.0715
  648TIP3   OH223502   0.496   4.931   0.411  0.2253  0.0664 -0.4287
  648TIP3    H123503   0.407   4.899   0.425  0.1827  0.4564  0.2559
  648TIP3    H223504   0.502   5.008   0.467  0.4222  1.0883 -1.7936
  649TIP3   OH223505   4.788   3.099   7.912 -0.4811 -0.0145 -0.5825
  649TIP3    H123506   4.778   3.174   7.854  1.5826  0.3147 -0.5601
  649TIP3    H223507   4.772   3.023   7.856 -1.0209  0.3752 -0.9695
  650TIP3   OH223508   4.906   5.739   0.789 -0.1555 -0.0730 -0.0248
  650TIP3    H123509   4.896   5.703   0.877 -2.4178  0.9709  0.2045
  650TIP3    H223510   4.961   5.675   0.744  1.8704 -0.1815  2.3640
  651TIP3   OH223511   4.394   1.158   1.832  0.8339 -0.6323  0.0910
  651TIP3    H123512   4.316   1.128   1.879 -0.0769  0.2106 -0.8590
  651TIP3    H223513   4.363   1.228   1.775  2.6935  1.4519  1.4605
  652TIP3   OH223514   0.159   3.437   8.819 -0.2344 -0.0796 -0.5010
  652TIP3    H123515   0.245   3.452   8.858 -0.6661  0.5197  0.2492
  652TIP3    H223516   0.147   3.510   8.758  1.2026 -1.9566 -3.2104
  653TIP3   OH223517   1.727   3.544   7.889  0.3167 -0.7109 -0.0395
  653TIP3    H123518   1.704   3.503   7.806 -0.1909 -0.3810 -0.0648
  653TIP3    H223519   1.817   3.514   7.906 -0.3636 -2.6268  0.4373
  654TIP3   OH223520   1.954   6.105   1.512  0.0460  0.2033 -0.0043
  654TIP3    H123521   1.911   6.080   1.430  1.7313 -1.3018 -0.4666
  654TIP3    H223522   2.035   6.148   1.485  0.0040  0.8810  0.8858
  655TIP3   OH223523   0.130   2.946   1.023  0.2481 -0.2537  0.3533
  655TIP3    H123524   0.154   2.921   0.933  1.2472  0.1073  0.5013
  655TIP3    H223525   0.123   2.864   1.070  2.6070 -0.3767  0.6226
  656TIP3   OH223526   1.970   0.779   2.902  0.2563 -0.1131  0.0040
  656TIP3    H123527   2.038   0.836   2.938 -0.7118  1.0395  0.0698
  656TIP3    H223528   1.972   0.796   2.808 -3.0462  3.6642  0.3529
  657TIP3   OH223529   4.294   3.486   0.107  0.9253 -0.4016  0.1489
  657TIP3    H123530   4.360   3.419   0.126  0.8190 -0.5131  0.1218
  657TIP3    H223531   4.211   3.440   0.110  0.6751  0.0772  1.9775
  658TIP3   OH223532   5.280   2.582   0.391  0.3615  0.2787 -0.1350
  658TIP3    H123533   5.371   2.607   0.402  0.9408 -1.4350 -0.6442
  658TIP3    H223534   5.231   2.664   0.396  1.6966  1.0336  2.2905
  659TIP3   OH223535   2.251   5.042   6.901  0.1234 -0.4053 -0.1072
  659TIP3    H123536   2.320   5.057   6.836 -1.0731 -0.5429 -1.4353
  659TIP3    H223537   2.248   4.947   6.912  0.4465 -0.3742  0.3250
  660TIP3   OH223538   6.675   5.832   8.893  0.0251 -0.4939  0.4882
  660TIP3    H123539   6.756   5.795   8.857 -1.1832 -1.2583 -1.6199
  660TIP3    H223540   6.606   5.801   8.835 -1.4355  2.9141  0.1644
  661TIP3   OH223541   6.350   1.160   1.072  0.2421  0.1240 -0.4655
  661TIP3    H123542   6.409   1.118   1.010  2.7047  2.2055  0.3398
  661TIP3    H223543   6.390   1.144   1.158  0.2723  2.4769  0.0109
  662TIP3   OH223544   0.808   0.149   1.284 -0.5184 -0.0964  0.2963
  662TIP3    H123545   0.791   0.084   1.352  0.3633 -1.7965 -1.0336
  662TIP3    H223546   0.735   0.139   1.222 -0.5484  0.4149  0.2415
  663TIP3   OH223547   4.911   1.974   0.818  0.5008 -0.3652  0.2849
  663TIP3    H123548   4.932   1.881   0.804  2.0396  0.2038 -1.4286
  663TIP3    H223549   4.942   1.992   0.907  1.2876 -1.2048  0.1938
  664TIP3   OH223550   6.354   0.248   2.352  0.3129 -0.1875  0.1472
  664TIP3    H123551   6.321   0.215   2.269 -0.7742  3.4232 -1.0607
  664TIP3    H223552   6.286   0.226   2.416 -1.8546  2.0229 -1.1955
  665TIP3   OH223553   3.515   1.607   8.519 -0.2651  0.6364 -0.3064
  665TIP3    H123554   3.565   1.688   8.507 -1.4875  1.6147  0.9437
  665TIP3    H223555   3.484   1.586   8.431  3.1697 -0.6350 -1.3627
  666TIP3   OH223556   2.554   3.249   0.988 -0.1406 -0.7331 -0.0368
  666TIP3    H123557   2.483   3.228   1.049 -0.5990  0.9258  0.0590
  666TIP3    H223558   2.620   3.292   1.042 -0.0976 -0.1691 -0.5345
  667TIP3   OH223559   3.195   0.658   2.769  0.8147  0.3739 -0.6160
  667TIP3    H123560   3.231   0.737   2.809  1.0184  0.1095 -0.2752
  667TIP3    H223561   3.259   0.590   2.789  0.1983 -0.0696 -0.1350
  668TIP3   OH223562   2.203   4.598   1.217  0.4792 -0.4151 -0.1988
  668TIP3    H123563   2.157   4.520   1.185  1.0181 -0.0595 -1.9243
  668TIP3    H223564   2.173   4.607   1.307 -2.0353 -0.8196 -0.8957
  669TIP3   OH223565   0.900   4.210   0.635  0.0795 -0.2992  0.1468
  669TIP3    H123566   0.854   4.157   0.700 -1.4321  1.3341  0.4959
  669TIP3    H223567   0.853   4.294   0.635 -0.2483 -0.3172 -3.2883
  670TIP3   OH223568   3.662   6.741   2.502 -0.2605 -0.1335 -0.1256
  670TIP3    H123569   3.752   6.745   2.471 -0.5664  0.9090 -0.9179
  670TIP3    H223570   3.613   6.700   2.431 -0.7142  0.9356 -0.4440
  671TIP3   OH223571   6.204   0.120   1.367 -0.1463 -0.1023  0.1200
  671TIP3    H123572   6.245   0.102   1.452 -0.6195 -1.6028  0.0656
  671TIP3    H223573   6.263   0.181   1.324  1.8936 -1.9008  0.1973
  672TIP3   OH223574   6.515   6.230   0.487  0.2033 -0.7402  0.0978
  672TIP3    H123575   6.570   6.303   0.514 -1.7004  1.9643 -2.6870
  672TIP3    H223576   6.450   6.221   0.556  0.1103  0.6627  0.2188
  673TIP3   OH223577   1.167   5.937   1.339  0.1431 -0.5427  0.5162
  673TIP3    H123578   1.168   5.849   1.302  0.0043 -1.9256  3.4991
  673TIP3    H223579   1.252   5.944   1.384 -0.3611  0.3314  1.3603
  674TIP3   OH223580   1.684   2.504   7.366  0.0149  0.0831  0.1768
  674TIP3    H123581   1.679   2.469   7.455  1.6794 -0.1260  0.2171
  674TIP3    H223582   1.663   2.597   7.376 -0.5712 -0.0931  0.6616
  675TIP3   OH223583   0.757   1.128   2.868  0.0484 -0.1074 -0.3155
  675TIP3    H123584   0.757   1.033   2.882 -1.9927  0.0605  1.3693
  675TIP3    H223585   0.843   1.156   2.900  0.8344 -1.3840 -1.1836
  676TIP3   OH223586   1.218   3.536   0.928 -0.2414 -0.1257 -0.1854
  676TIP3    H123587   1.239   3.628   0.915 -0.7076  0.0532  0.2753
  676TIP3    H223588   1.122   3.532   0.926 -0.2502 -0.4834  0.5245
  677TIP3   OH223589   2.844   1.545   0.791 -1.4520 -0.5082  0.1958
  677TIP3    H123590   2.785   1.618   0.808 -0.1644  0.3371  1.2341
  677TIP3    H223591   2.801   1.469   0.831 -1.5715  0.2190  1.5167
  678TIP3   OH223592   1.742   6.067   0.866 -0.2730 -0.1269  0.0107
  678TIP3    H123593   1.725   6.154   0.903  0.2611  0.4946 -1.1517
  678TIP3    H223594   1.725   6.007   0.938 -0.4460  0.9585  0.9063
  679TIP3   OH223595   0.236   3.824   1.072  0.1561 -0.1594  0.1024
  679TIP3    H123596   0.290   3.876   1.131  1.3010 -0.8581 -0.2905
  679TIP3    H223597   0.202   3.753   1.126 -0.8678  0.6055  0.4852
  680TIP3   OH223598   2.973   0.925   0.782  0.4331 -0.2152  0.0774
  680TIP3    H123599   2.925   0.968   0.711  0.0029 -0.0759  0.4457
  680TIP3    H223600   2.990   0.836   0.750  0.6539 -0.0094 -0.3836
  681TIP3   OH223601   5.335   2.871   0.133 -0.3762  0.2336  0.1859
  681TIP3    H123602   5.346   2.923   0.212 -0.9762  0.0634  0.3886
  681TIP3    H223603   5.403   2.803   0.139 -0.4386  0.2042  0.5647
  682TIP3   OH223604   4.331   5.727   2.225  0.1118 -0.9297 -0.2471
  682TIP3    H123605   4.329   5.633   2.208  0.4891 -1.2074  1.1030
  682TIP3    H223606   4.327   5.735   2.320  0.3462  0.4106 -0.3175
  683TIP3   OH223607   4.203   4.925   6.932 -0.6190  0.6208 -0.1241
  683TIP3    H123608   4.246   5.010   6.937  1.0571 -0.1983  0.4104
  683TIP3    H223609   4.134   4.936   6.867 -0.4658  2.3860 -0.0296
  684TIP3   OH223610   5.627   6.754   0.697  0.1580 -0.2070 -0.1966
  684TIP3    H123611   5.637   6.779   0.789  0.8030 -0.3318 -0.2328
  684TIP3    H223612   5.532   6.756   0.682  0.0678  0.0747  0.3965
  685TIP3   OH223613   2.698   2.416   8.216 -0.3347  0.3506  0.1836
  685TIP3    H123614   2.641   2.468   8.160  2.0544  1.8317 -1.0261
  685TIP3    H223615   2.675   2.326   8.196 -1.6862  0.8803 -0.8433
  686TIP3   OH223616   5.443   0.523   7.013 -0.3536  0.2734 -0.4358
  686TIP3    H123617   5.411   0.446   7.060 -0.2075  0.0093 -0.7630
  686TIP3    H223618   5.363   0.573   6.993 -0.7717 -1.1331 -2.5790
  687TIP3   OH223619   5.318   5.101   6.552 -0.7444  0.1177 -0.4647
  687TIP3    H123620   5.355   5.189   6.538 -1.8962  0.7600  0.3242
  687TIP3    H223621   5.273   5.108   6.635 -0.4244 -1.4030 -0.1434
  688TIP3   OH223622   0.477   1.351   8.556 -0.0569  0.1499 -0.0557
  688TIP3    H123623   0.490   1.432   8.605  0.7923 -0.0901  0.1263
  688TIP3    H223624   0.401   1.311   8.598  0.1404  0.3581  0.5250
  689TIP3   OH223625   0.393   6.612   8.634 -0.4229 -0.5527  0.2988
  689TIP3    H123626   0.445   6.690   8.654 -0.0482 -0.6402 -0.3143
  689TIP3    H223627   0.399   6.603   8.539 -0.9632 -0.9847  0.3013
  690TIP3   OH223628   4.802   5.828   8.229  0.2175  0.2913 -0.3381
  690TIP3    H123629   4.828   5.785   8.311 -1.3970 -0.8247 -0.3720
  690TIP3    H223630   4.884   5.864   8.194  0.7738  2.2143  2.5260
  691TIP3   OH223631   4.149   5.590   1.422 -0.0195  0.8240  0.0642
  691TIP3    H123632   4.239   5.563   1.442 -0.6649 -1.7396 -0.1090
  691TIP3    H223633   4.098   5.510   1.434 -2.1683  2.0339 -0.6460
  692TIP3   OH223634   3.594   4.251   8.643  0.2544  0.0785  0.1596
  692TIP3    H123635   3.516   4.300   8.669 -0.0338 -0.6584  0.7353
  692TIP3    H223636   3.661   4.278   8.706  1.0736  2.1984 -1.5068
  693TIP3   OH223637   1.029   2.851   0.885  0.1313 -0.1376 -0.7983
  693TIP3    H123638   0.981   2.832   0.966 -2.4210 -0.7091 -2.3309
  693TIP3    H223639   1.113   2.888   0.914 -0.2515 -1.3113  2.0891
  694TIP3   OH223640   2.462   1.699   8.641 -0.5237 -0.2120 -0.0431
  694TIP3    H123641   2.378   1.684   8.684 -0.1045  1.2608  1.4248
  694TIP3    H223642   2.472   1.626   8.581 -0.8591 -2.9126  2.9171
  695TIP3   OH223643   5.548   0.238   1.571  0.0266 -0.0156  0.0659
  695TIP3    H123644   5.512   0.217   1.485  1.7191 -1.7534 -0.2805
  695TIP3    H223645   5.567   0.332   1.566 -2.1584  0.4610 -0.5307
  696TIP3   OH223646   0.304   2.366   1.802 -0.0458 -0.0282 -0.0681
  696TIP3    H123647   0.365   2.378   1.874  0.5840 -0.5948 -0.4834
  696TIP3    H223648   0.218   2.385   1.839  0.0171 -2.2184  1.3768
  697TIP3   OH223649   0.164   2.066   1.034  0.2083 -0.1134 -0.1819
  697TIP3    H123650   0.235   2.014   0.998 -1.0210 -1.2761 -1.0655
  697TIP3    H223651   0.121   2.007   1.097 -0.5877  0.1680 -0.4435
  698TIP3   OH223652   2.052   4.315   2.842  0.3525  0.1878  0.1391
  698TIP3    H123653   1.996   4.393   2.832 -1.2867 -0.8117  1.0479
  698TIP3    H223654   2.082   4.318   2.932  1.3295  0.3975 -0.1773
  699TIP3   OH223655   2.152   2.829   0.694  0.2772 -0.1281 -0.1300
  699TIP3    H123656   2.128   2.910   0.740  0.8853  0.1347 -0.2661
  699TIP3    H223657   2.091   2.763   0.728 -1.3649  0.7379 -1.2200
  700TIP3   OH223658   3.452   1.660   8.813  0.1777 -0.1272  0.1557
  700TIP3    H123659   3.419   1.619   8.893 -0.0234 -0.5699 -0.1498
  700TIP3    H223660   3.463   1.587   8.752 -0.5997  0.3244 -0.5364
  701TIP3   OH223661   0.947   2.855   1.894  0.3800 -0.1982  0.1297
  701TIP3    H123662   1.011   2.912   1.937  2.0680 -1.3739 -0.6695
  701TIP3    H223663   0.883   2.834   1.962  0.0938  2.0389  0.6121
  702TIP3   OH223664   3.433   3.423   1.929  0.3403 -0.3470 -0.2297
  702TIP3    H123665   3.517   3.428   1.883 -0.0230  0.6507 -0.8033
  702TIP3    H223666   3.453   3.452   2.018  0.3440  1.3422 -0.7461
  703TIP3   OH223667   1.233   4.672   0.106  0.0514 -0.1742 -0.2585
  703TIP3    H123668   1.215   4.766   0.114  1.6065  0.3007 -1.8348
  703TIP3    H223669   1.313   4.658   0.158 -0.4932 -0.7675  0.4496
  704TIP3   OH223670   4.236   5.667   8.420  0.6270  0.0694  0.0555
  704TIP3    H123671   4.160   5.616   8.391 -0.0566  0.0573  1.7399
  704TIP3    H223672   4.289   5.604   8.469  0.1116  0.7686  1.5777
  705TIP3   OH223673   5.218   0.345   8.190  0.1537 -0.5299 -0.1598
  705TIP3    H123674   5.249   0.255   8.193 -1.7304 -1.2091  1.0603
  705TIP3    H223675   5.232   0.373   8.100 -0.7799 -2.6290 -1.0104
  706TIP3   OH223676   3.317   6.700   1.204  0.4515  0.2474 -0.7063
  706TIP3    H123677   3.348   6.659   1.123 -0.9140 -1.7720 -0.2855
  706TIP3    H223678   3.222   6.696   1.199  0.2981 -1.2062  1.5336
  707TIP3   OH223679   0.500   0.133   0.089  0.3505 -0.0377  0.2488
  707TIP3    H123680   0.440   0.139   0.163 -0.1411 -2.9176  0.2280
  707TIP3    H223681   0.460   0.069   0.031  2.2766 -0.2624 -0.9356
  708TIP3   OH223682   2.436   1.908   7.573  0.1338 -0.1222  0.2721
  708TIP3    H123683   2.486   1.982   7.607  1.3660  0.5793 -2.7282
  708TIP3    H223684   2.366   1.947   7.521 -0.6731 -1.1139  0.5651
  709TIP3   OH223685   0.365   5.493   2.515 -0.7248  0.2678  0.1993
  709TIP3    H123686   0.372   5.542   2.433 -0.3815 -1.1548 -0.6453
  709TIP3    H223687   0.397   5.554   2.582  0.4626  0.9245 -0.9196
  710TIP3   OH223688   2.905   4.321   7.684  0.2390  0.3073  0.2164
  710TIP3    H123689   2.944   4.398   7.644 -0.9200  0.8913  0.1728
  710TIP3    H223690   2.975   4.283   7.737  0.9797  1.0600 -0.2049
  711TIP3   OH223691   6.292   0.416   8.035 -0.2243  0.8511  0.1483
  711TIP3    H123692   6.354   0.369   8.091 -0.6647  1.9170  1.5842
  711TIP3    H223693   6.217   0.434   8.092 -0.5698  2.2113 -0.6912
  712TIP3   OH223694   3.793   0.700   7.461 -0.0205  0.4311 -0.8990
  712TIP3    H123695   3.842   0.642   7.401  1.9341 -1.4776  2.2453
  712TIP3    H223696   3.709   0.656   7.474 -0.1229  0.4199 -1.5703
  713TIP3   OH223697   5.318   1.164   2.197 -0.2535 -0.2633  0.2577
  713TIP3    H123698   5.378   1.233   2.225  1.0744  0.1755 -3.2140
  713TIP3    H223699   5.243   1.212   2.159 -0.8156 -0.7761  0.7036
  714TIP3   OH223700   0.146   0.064   8.273  0.1886  0.1467 -0.4891
  714TIP3    H123701   0.145   0.136   8.335 -2.6900  0.2600 -0.5397
  714TIP3    H223702   0.211   0.003   8.307  1.4149  1.9218  0.4970
  715TIP3   OH223703   4.533   5.842   8.650 -0.2798 -0.3870 -0.3773
  715TIP3    H123704   4.504   5.810   8.564  0.4663  0.6110 -1.0308
  715TIP3    H223705   4.593   5.914   8.629 -0.7776  0.4694  0.9958
  716TIP3   OH223706   5.528   4.884   7.892 -0.4396  0.3729  0.6373
  716TIP3    H123707   5.546   4.977   7.877 -1.2558  0.1856 -1.7958
  716TIP3    H223708   5.594   4.838   7.841 -2.2887 -0.3296 -1.2069
  717TIP3   OH223709   2.936   1.070   1.523  0.2235  0.8470  0.1200
  717TIP3    H123710   2.994   1.030   1.458 -0.1359  0.5765 -0.0308
  717TIP3    H223711   2.848   1.054   1.491  0.0592  1.2713  0.3474
  718TIP3   OH223712   0.575   1.201   7.979  0.4438 -0.0240 -0.0574
  718TIP3    H123713   0.518   1.245   8.042  0.5878 -0.3508  0.3073
  718TIP3    H223714   0.551   1.238   7.895 -0.1905 -0.0383  0.1139
  719TIP3   OH223715   4.724   6.064   8.560  0.3472  0.0580 -0.4317
  719TIP3    H123716   4.731   6.121   8.484 -2.0361 -1.5329 -1.9881
  719TIP3    H223717   4.665   6.111   8.619 -0.9315 -0.3573 -1.3372
  720TIP3   OH223718   5.366   3.623   0.103  0.4536  0.0374 -0.4075
  720TIP3    H123719   5.350   3.652   0.193 -0.9696 -0.4545 -0.4749
  720TIP3    H223720   5.454   3.655   0.083  2.0485 -2.2871  2.1541
  721TIP3   OH223721   4.267   2.091   0.370 -0.2912  0.0855 -0.3489
  721TIP3    H123722   4.344   2.076   0.426 -0.8538 -0.6068  0.2673
  721TIP3    H223723   4.236   2.177   0.395  0.5505  0.5794 -0.9424
  722TIP3   OH223724   3.117   0.395   1.385 -0.3635 -0.1351  0.3827
  722TIP3    H123725   3.187   0.335   1.410 -0.2716 -1.0736 -1.9013
  722TIP3    H223726   3.048   0.380   1.450  0.0793 -1.9699  0.4736
  723TIP3   OH223727   3.768   1.941   0.837  0.2008 -0.0468  0.4332
  723TIP3    H123728   3.764   1.952   0.742  0.1045 -1.3873  0.2592
  723TIP3    H223729   3.677   1.951   0.866  0.3349  1.0705  0.4783
  724TIP3   OH223730   4.313   2.778   1.390  0.0551 -0.0297  0.6936
  724TIP3    H123731   4.314   2.850   1.453 -0.0124  0.4785  0.1195
  724TIP3    H223732   4.404   2.772   1.359  0.4773 -1.3649  2.0346
  725TIP3   OH223733   6.064   3.503   8.139 -0.4512  0.3740 -1.0214
  725TIP3    H123734   5.975   3.538   8.148 -0.7065 -0.0075 -1.9488
  725TIP3    H223735   6.053   3.409   8.130  0.1201  0.2237 -0.2599
  726TIP3   OH223736   3.467   5.388   0.945  0.2709  0.1642  0.1555
  726TIP3    H123737   3.372   5.383   0.934  0.5169 -0.5980 -2.3493
  726TIP3    H223738   3.494   5.298   0.961  0.6203  0.2748  0.1964
  727TIP3   OH223739   1.077   1.627   1.939 -0.0567 -0.3551 -0.0735
  727TIP3    H123740   1.101   1.563   1.872 -1.7693 -0.0189 -1.0728
  727TIP3    H223741   1.036   1.575   2.008 -0.9564 -0.4273 -0.6405
  728TIP3   OH223742   5.344   5.684   7.927 -0.0988 -0.1498 -0.3263
  728TIP3    H123743   5.396   5.740   7.985  2.1518 -0.9183 -1.4713
  728TIP3    H223744   5.347   5.729   7.842  0.9682 -1.4905 -1.0391
  729TIP3   OH223745   0.634   0.702   1.968  0.2419 -0.2295 -0.0277
  729TIP3    H123746   0.692   0.628   1.989  1.4826  0.7672  0.1372
  729TIP3    H223747   0.558   0.689   2.024  0.1666 -1.7103 -0.4313
  730TIP3   OH223748   0.498   3.032   1.000  0.3993 -0.1895  0.1389
  730TIP3    H123749   0.515   2.944   1.033 -0.0501  0.1275  1.2553
  730TIP3    H223750   0.580   3.080   1.013  0.5645 -0.3666 -0.2358
  731TIP3   OH223751   0.838   5.038   8.749  0.2363  0.1907  0.3507
  731TIP3    H123752   0.913   5.022   8.805  0.9881  0.5865 -0.5193
  731TIP3    H223753   0.782   5.096   8.800  0.2950 -0.4589  1.1805
  732TIP3   OH223754   1.326   4.972   8.257  0.6250  0.0849 -0.0331
  732TIP3    H123755   1.271   4.943   8.329  0.1471  0.2751 -0.3221
  732TIP3    H223756   1.415   4.951   8.286  0.7396  2.7095  1.8292
  733TIP3   OH223757   0.230   3.569   0.383  0.0400  0.3950  0.2219
  733TIP3    H123758   0.261   3.633   0.319  0.8833 -0.5398 -0.3540
  733TIP3    H223759   0.280   3.490   0.363 -1.1708 -0.5291  0.7251
  734TIP3   OH223760   2.185   2.555   7.176 -0.1521 -0.2867  0.0367
  734TIP3    H123761   2.260   2.614   7.178 -0.2760  0.1613 -3.0534
  734TIP3    H223762   2.115   2.607   7.136 -1.1004 -1.6702 -0.1607
  735TIP3   OH223763   5.104   0.957   0.114  0.5299 -0.2732  0.1715
  735TIP3    H123764   5.133   0.880   0.163  4.8741 -0.6107 -2.4692
  735TIP3    H223765   5.179   1.017   0.117 -0.4957  1.3335 -2.7022
  736TIP3   OH223766   4.025   2.855   8.805 -0.3348 -0.3397 -0.4303
  736TIP3    H123767   3.960   2.800   8.848  2.1158 -0.7602  3.1508
  736TIP3    H223768   4.019   2.940   8.848  0.6888 -0.0400 -0.8327
  737TIP3   OH223769   4.924   3.843   1.469  0.2879  0.0915 -0.2716
  737TIP3    H123770   4.939   3.836   1.375  0.6328 -1.2974 -0.1301
  737TIP3    H223771   4.832   3.819   1.480  0.3990 -0.3218 -0.2083
  738TIP3   OH223772   4.671   5.874   0.808  0.9005  0.7153  0.2504
  738TIP3    H123773   4.757   5.836   0.791  0.6592  0.0306  0.5344
  738TIP3    H223774   4.685   5.934   0.881  0.9284 -0.2541  1.0694
  739TIP3   OH223775   3.611   4.243   2.036  0.3943 -0.2090 -0.4644
  739TIP3    H123776   3.594   4.324   2.083  1.3383  0.0206 -0.5057
  739TIP3    H223777   3.526   4.200   2.031 -0.2456  1.0768 -1.0141
  740TIP3   OH223778   3.412   0.510   1.911  0.3336  0.4582  0.5906
  740TIP3    H123779   3.405   0.522   1.816 -1.8056  0.2978  0.6612
  740TIP3    H223780   3.321   0.502   1.940  0.9835 -0.8376  2.4877
  741TIP3   OH223781   4.995   4.067   7.620 -0.1052  0.6928  0.2502
  741TIP3    H123782   4.959   4.026   7.699  0.1939  1.5175  0.8202
  741TIP3    H223783   4.989   4.161   7.637  1.0448  0.8601 -0.2307
  742TIP3   OH223784   5.705   5.068   8.130 -1.0623  0.4444 -0.1253
  742TIP3    H123785   5.639   5.094   8.065 -0.5955  1.2545 -0.2958
  742TIP3    H223786   5.787   5.102   8.096 -0.2416 -1.9636 -0.7280
  743TIP3   OH223787   2.599   3.952   0.325 -0.0400  0.1923 -0.1915
  743TIP3    H123788   2.574   3.889   0.393  0.1707 -0.0882 -0.3711
  743TIP3    H223789   2.524   3.953   0.265 -0.0509  0.1251 -0.1793
  744TIP3   OH223790   6.273   4.609   8.396 -0.5022 -0.2901  0.2205
  744TIP3    H123791   6.264   4.532   8.340  0.5325 -0.2408 -0.0438
  744TIP3    H223792   6.366   4.632   8.390 -1.2538  3.0302 -2.5093
  745TIP3   OH223793   4.404   5.688   8.157  0.5294 -0.2963 -0.1235
  745TIP3    H123794   4.353   5.759   8.120  0.9925  0.2106  0.2010
  745TIP3    H223795   4.482   5.683   8.100 -0.1295 -1.4485 -0.9786
  746TIP3   OH223796   4.378   4.899   7.256  0.3026 -0.2730 -0.0277
  746TIP3    H123797   4.326   4.819   7.259  0.9699 -0.6765  1.5805
  746TIP3    H223798   4.315   4.970   7.270  0.0249 -0.6855  0.8538
  747TIP3   OH223799   3.953   1.715   0.863 -0.3578 -0.1435  0.4032
  747TIP3    H123800   3.884   1.781   0.856 -0.1170  0.0226 -0.5931
  747TIP3    H223801   3.906   1.631   0.861 -0.5537 -0.0267  0.0335
  748TIP3   OH223802   4.927   6.105   1.001  0.5865  0.3942  0.1819
  748TIP3    H123803   4.882   6.107   0.917  0.7477 -0.6622  0.0648
  748TIP3    H223804   4.879   6.041   1.053  0.5361  0.9818  0.8728
  749TIP3   OH223805   5.691   0.794   8.324 -0.7905  0.5017  0.1778
  749TIP3    H123806   5.695   0.698   8.324 -0.3388  0.5218  0.0935
  749TIP3    H223807   5.719   0.818   8.236 -1.0223  0.7101  0.1591
  750TIP3   OH223808   1.955   6.441   7.810  0.0546 -0.0852  0.2388
  750TIP3    H123809   1.928   6.350   7.799 -0.3339 -0.0232  0.6455
  750TIP3    H223810   1.972   6.472   7.722  1.1013 -0.8290  0.1596
  751TIP3   OH223811   2.499   1.101   1.008  0.0810  0.1744  0.4032
  751TIP3    H123812   2.573   1.155   0.978 -0.6578  1.8604  1.4751
  751TIP3    H223813   2.540   1.020   1.040  1.1271 -0.4105 -2.2240
  752TIP3   OH223814   4.946   3.161   1.548  0.1959 -0.5547  1.0533
  752TIP3    H123815   4.934   3.093   1.614  2.7242 -0.8759  1.2709
  752TIP3    H223816   5.015   3.217   1.584  0.0949  0.5296 -0.3504
  753TIP3   OH223817   3.441   5.653   8.414  0.6619 -0.1694 -0.0222
  753TIP3    H123818   3.519   5.597   8.417  0.6497 -0.2334 -0.7184
  753TIP3    H223819   3.467   5.726   8.358  0.3791  0.0580  0.1456
  754TIP3   OH223820   0.668   1.363   0.595 -0.3451  0.3527 -0.0080
  754TIP3    H123821   0.684   1.433   0.658 -0.3780  0.1513  0.2262
  754TIP3    H223822   0.755   1.332   0.570 -0.2688  1.4172 -1.1908
  755TIP3   OH223823   2.015   6.397   1.356 -0.5154 -0.7107 -0.1786
  755TIP3    H123824   2.097   6.349   1.370 -0.0089 -0.0230 -0.7373
  755TIP3    H223825   2.015   6.419   1.263  0.3051  2.2060  0.4090
  756TIP3   OH223826   6.232   4.448   8.130 -0.1473 -0.2880 -0.0131
  756TIP3    H123827   6.245   4.532   8.086 -0.9640  0.3274  0.8932
  756TIP3    H223828   6.196   4.390   8.062  0.0921  0.1830 -0.5461
  757TIP3   OH223829   5.968   3.248   1.407  0.0450 -0.4482 -0.5461
  757TIP3    H123830   6.050   3.291   1.432 -0.4883  0.1811  0.1775
  757TIP3    H223831   5.936   3.210   1.489  0.2247 -1.7797 -1.0612
  758TIP3   OH223832   3.471   3.618   1.580  0.2560  0.1610  0.1385
  758TIP3    H123833   3.433   3.674   1.648  1.6766  2.1638 -0.6250
  758TIP3    H223834   3.552   3.585   1.620 -0.6575 -1.5469  0.6426
  759TIP3   OH223835   4.340   4.188   0.438 -0.4370 -0.1678 -0.2996
  759TIP3    H123836   4.413   4.143   0.481 -0.2660  1.4258  1.1818
  759TIP3    H223837   4.360   4.182   0.345  0.9442 -0.8380  0.0121
  760TIP3   OH223838   2.909   4.585   8.008  0.8213 -0.0878 -0.4870
  760TIP3    H123839   2.855   4.565   7.931 -1.0139  1.7331  0.2483
  760TIP3    H223840   2.884   4.519   8.073  1.4156 -0.8273 -0.9949
  761TIP3   OH223841   1.214   4.800   2.417 -0.2337 -0.2170  0.2097
  761TIP3    H123842   1.252   4.741   2.352 -2.4367 -1.7618  0.2413
  761TIP3    H223843   1.271   4.790   2.494  0.6711 -0.6303 -0.4874
  762TIP3   OH223844   5.324   0.084   8.649  0.1588  0.0471  0.1536
  762TIP3    H123845   5.318   0.047   8.561  1.3919 -0.8773  0.4347
  762TIP3    H223846   5.252   0.147   8.653  0.6925  0.8651 -1.8725
  763TIP3   OH223847   0.383   0.857   8.864 -0.0302 -0.3799 -0.4236
  763TIP3    H123848   0.410   0.793   8.798 -0.5579  0.7970 -1.8100
  763TIP3    H223849   0.288   0.863   8.855  0.0545  0.8719 -0.5742
  764TIP3   OH223850   5.632   4.694   1.918 -0.1417  0.1167 -0.0265
  764TIP3    H123851   5.586   4.702   2.001 -0.9745  0.5180 -0.5193
  764TIP3    H223852   5.650   4.600   1.910  0.0258  0.0873  0.6405
  765TIP3   OH223853   0.349   5.858   8.457  0.3592 -0.4130  0.2912
  765TIP3    H123854   0.409   5.845   8.530 -0.9673 -0.8034  1.3502
  765TIP3    H223855   0.355   5.778   8.406  0.5892 -0.5325  0.5058
  766TIP3   OH223856   0.830   3.782   1.044 -0.3421  0.1984 -0.0212
  766TIP3    H123857   0.905   3.740   1.086  1.3673  1.2328 -1.8937
  766TIP3    H223858   0.764   3.787   1.114  0.7557 -2.0275  1.3059
  767TIP3   OH223859   1.118   2.218   8.106  0.3790  0.6718 -0.1376
  767TIP3    H123860   1.041   2.275   8.100 -0.4345 -0.1730  1.5814
  767TIP3    H223861   1.104   2.152   8.039 -0.6822  0.2412  0.4720
  768TIP3   OH223862   0.755   3.655   2.545  0.3929 -0.2251  0.7024
  768TIP3    H123863   0.708   3.718   2.491  0.8236  0.8335  1.5364
  768TIP3    H223864   0.689   3.624   2.608  0.1140 -0.8217  0.1293
  769TIP3   OH223865   0.565   4.682   0.045 -0.0409 -0.7627 -0.1579
  769TIP3    H123866   0.544   4.627   0.120 -0.4133  1.0360  1.1412
  769TIP3    H223867   0.660   4.682   0.040  0.4056  2.7963  3.4532
  770TIP3   OH223868   3.169   4.373   0.164 -0.1969 -0.6585  0.1971
  770TIP3    H123869   3.212   4.315   0.227 -0.9272 -0.7673  0.6045
  770TIP3    H223870   3.103   4.318   0.121 -0.8813 -0.1473  0.5706
  771TIP3   OH223871   4.699   1.623   1.751  0.2706 -0.1453 -0.0157
  771TIP3    H123872   4.768   1.557   1.755  1.6383  0.8681 -3.4952
  771TIP3    H223873   4.739   1.701   1.789 -0.9205 -0.8057  2.9030
  772TIP3   OH223874   0.180   3.314   1.303  0.3033 -0.1249  0.0210
  772TIP3    H123875   0.187   3.248   1.234  1.9332 -1.8680  1.7190
  772TIP3    H223876   0.184   3.264   1.384 -0.0144  1.9764  1.4134
  773TIP3   OH223877   5.374   6.051   2.236  0.0998  0.3617 -0.2129
  773TIP3    H123878   5.347   6.094   2.317 -0.7189  0.4673 -0.5267
  773TIP3    H223879   5.460   6.089   2.215  0.8864 -0.5415  1.2309
  774TIP3   OH223880   0.687   5.751   0.628  0.4737 -0.0197 -0.4430
  774TIP3    H123881   0.604   5.704   0.628  0.5248 -0.3146  2.5727
  774TIP3    H223882   0.662   5.843   0.627  0.1008 -0.1079  0.4157
  775TIP3   OH223883   4.234   0.596   0.691 -0.2509 -0.0376 -0.5123
  775TIP3    H123884   4.186   0.585   0.774 -0.8814  1.0104 -0.7226
  775TIP3    H223885   4.166   0.594   0.624  0.0413  1.0831 -0.8517
  776TIP3   OH223886   4.861   1.361   8.502  0.1359  0.5003 -0.1031
  776TIP3    H123887   4.883   1.373   8.594 -0.0055 -0.0672  0.0050
  776TIP3    H223888   4.829   1.271   8.496 -2.5899  1.3814 -0.1796
  777TIP3   OH223889   2.932   5.091   8.651 -0.0350 -0.4463  0.2714
  777TIP3    H123890   2.877   5.112   8.575  3.0934  1.1777 -1.7659
  777TIP3    H223891   2.954   4.999   8.639  0.8847 -0.0720 -1.2035
  778TIP3   OH223892   2.434   5.460   8.026  0.4873  0.2185 -0.4308
  778TIP3    H123893   2.403   5.373   8.002  1.9230 -0.2508 -0.6917
  778TIP3    H223894   2.370   5.520   7.988 -0.7738 -0.7158  0.1413
  779TIP3   OH223895   2.839   4.372   8.189  0.1419 -0.3783 -0.2581
  779TIP3    H123896   2.876   4.361   8.277  1.7270 -1.4662 -1.0142
  779TIP3    H223897   2.783   4.295   8.178 -1.3763  0.5812  0.3662
  780TIP3   OH223898   6.050   0.580   0.433 -0.3221 -0.9788  0.3072
  780TIP3    H123899   6.114   0.594   0.503 -1.1401 -0.1377  0.9138
  780TIP3    H223900   6.103   0.556   0.357  0.8620  0.9532  0.4444
  781TIP3   OH223901   2.455   6.034   8.353 -0.0389 -0.1710 -0.4639
  781TIP3    H123902   2.406   6.005   8.430  0.7296 -0.0843  0.0744
  781TIP3    H223903   2.392   6.031   8.281 -1.3496  1.6494  0.5181
  782TIP3   OH223904   6.664   2.857   2.632 -0.0936 -0.5718 -0.0058
  782TIP3    H123905   6.586   2.908   2.656 -0.9341 -0.1217 -3.1911
  782TIP3    H223906   6.737   2.918   2.645 -0.2316 -0.8308  2.5193
  783TIP3   OH223907   0.007   2.022   2.677 -0.4423  0.3465  0.3317
  783TIP3    H123908   0.084   2.055   2.724 -0.0522 -0.4760  0.2977
  783TIP3    H223909   0.001   2.076   2.598  0.5918 -0.0891 -0.0658
  784TIP3   OH223910   6.602   0.181   7.815  0.2944 -0.1819 -0.0650
  784TIP3    H123911   6.656   0.104   7.833 -0.6264 -1.1626 -1.3139
  784TIP3    H223912   6.610   0.195   7.721  1.7749  2.3364  0.3348
  785TIP3   OH223913   3.917   4.918   2.243  0.3202  0.5163 -0.7871
  785TIP3    H123914   3.826   4.926   2.215 -0.1641 -0.1795  0.5443
  785TIP3    H223915   3.942   5.007   2.269 -1.1464  0.1359  2.2518
  786TIP3   OH223916   4.571   1.358   8.501 -0.1820 -0.0891 -0.1633
  786TIP3    H123917   4.576   1.300   8.425  2.9689  0.1450 -0.2948
  786TIP3    H223918   4.623   1.435   8.475 -1.0813  1.0870  1.3662
  787TIP3   OH223919   3.369   5.119   7.835 -0.1596 -0.1299 -0.5623
  787TIP3    H123920   3.277   5.129   7.810 -0.8220  1.1774  1.9658
  787TIP3    H223921   3.418   5.148   7.759 -1.8371 -0.4589 -1.8316
  788TIP3   OH223922   2.808   0.452   7.845 -0.2458  0.1858 -0.0582
  788TIP3    H123923   2.781   0.362   7.862  2.2414 -0.6994 -0.3831
  788TIP3    H223924   2.767   0.474   7.762  1.8686 -1.9774 -1.7969
  789TIP3   OH223925   4.311   3.470   0.403 -0.3443  0.3614  0.7310
  789TIP3    H123926   4.379   3.437   0.344 -0.0672  0.4872  0.9767
  789TIP3    H223927   4.266   3.391   0.434 -2.8861  0.3881 -2.3959
  790TIP3   OH223928   3.946   3.415   8.293  0.0974  0.3323 -0.4013
  790TIP3    H123929   4.001   3.382   8.365  1.1579 -0.2752 -1.4632
  790TIP3    H223930   3.867   3.361   8.296  1.0019 -1.0698 -0.9314
  791TIP3   OH223931   1.869   6.159   0.045  0.0978 -0.2521  0.1825
  791TIP3    H123932   1.954   6.199   0.030  0.2510 -0.1387  1.2505
  791TIP3    H223933   1.854   6.103  -0.031  1.9255 -1.6550  0.8058
  792TIP3   OH223934   4.853   0.520   8.070  0.7276 -0.5224  0.1976
  792TIP3    H123935   4.831   0.575   8.145 -0.7452 -2.2517  1.1125
  792TIP3    H223936   4.866   0.582   7.998 -2.1145  1.0187  0.8442
  793TIP3   OH223937   4.959   4.749   6.875 -0.1446 -0.3055 -0.4999
  793TIP3    H123938   4.955   4.840   6.847 -0.8084 -0.3181 -0.4537
  793TIP3    H223939   5.031   4.711   6.823  1.2253  0.6192  0.6337
  794TIP3   OH223940   4.428   3.255   8.814  0.0996 -0.1263  0.1735
  794TIP3    H123941   4.458   3.344   8.795 -1.2377  0.4985  0.8477
  794TIP3    H223942   4.505   3.200   8.799  1.0098  1.1619 -0.0539
  795TIP3   OH223943   3.375   1.773   7.766  0.1509  0.1884 -0.4209
  795TIP3    H123944   3.368   1.718   7.843  0.1024  1.0970  0.2343
  795TIP3    H223945   3.420   1.852   7.796  1.4462 -0.0379 -1.6337
  796TIP3   OH223946   1.283   3.873   2.426  0.3098  0.0361  0.8569
  796TIP3    H123947   1.339   3.801   2.455  0.1170  0.0047  1.1557
  796TIP3    H223948   1.219   3.884   2.497  0.0150  0.1529  0.5737
  797TIP3   OH223949   2.857   5.037   8.095  0.1028  0.4719 -0.1386
  797TIP3    H123950   2.949   5.054   8.074  0.4459  1.3324  1.8825
  797TIP3    H223951   2.820   5.124   8.112 -0.9011  0.0627 -0.1362
  798TIP3   OH223952   6.466   5.774   2.440  0.6071 -0.3228  0.0135
  798TIP3    H123953   6.517   5.711   2.490  1.1721  0.3038  0.2386
  798TIP3    H223954   6.378   5.770   2.479  1.2407  0.7898  1.7001
  799TIP3   OH223955   4.562   2.651   8.956 -0.3708 -0.1438 -0.4335
  799TIP3    H123956   4.538   2.695   8.875  0.2653  2.5915  0.7320
  799TIP3    H223957   4.523   2.564   8.949 -0.9540  0.2486 -3.3084
  800TIP3   OH223958   6.423   2.855   3.221 -0.8732  0.3621 -0.3233
  800TIP3    H123959   6.374   2.901   3.153 -2.1640  0.2398  0.4634
  800TIP3    H223960   6.358   2.796   3.260  0.2004 -0.5725  0.0820
  801TIP3   OH223961   6.201   3.541   7.901  0.0474 -0.8170 -0.7528
  801TIP3    H123962   6.131   3.573   7.845 -1.3186 -0.4904  1.0432
  801TIP3    H223963   6.163   3.540   7.989  2.4018 -0.2856  0.3543
  802TIP3   OH223964   1.861   0.145   8.006  0.2432 -0.1760  0.2456
  802TIP3    H123965   1.913   0.115   7.931  0.2976 -2.5957  1.1486
  802TIP3    H223966   1.770   0.134   7.978  0.2213  1.0820 -0.2304
  803TIP3   OH223967   5.367   2.986   3.318 -0.1872 -0.3424  0.2009
  803TIP3    H123968   5.433   3.053   3.303 -1.1735  0.7985  0.8366
  803TIP3    H223969   5.412   2.920   3.372  0.2485  0.7297  1.1823
  804TIP3   OH223970   2.781   3.116   8.092  0.2351  0.2265 -0.7286
  804TIP3    H123971   2.787   3.211   8.098 -0.8822  0.3309 -1.1119
  804TIP3    H223972   2.807   3.084   8.178 -1.1451  0.9651 -0.0092
  805TIP3   OH223973   2.939   4.929   0.056 -0.1623 -0.7157  0.4280
  805TIP3    H123974   2.882   4.859   0.087 -1.0729  0.4679  1.5803
  805TIP3    H223975   2.956   4.981   0.135 -1.1789  1.4904 -0.7199
  806TIP3   OH223976   5.663   2.455   8.669 -0.3244  0.4945 -0.4059
  806TIP3    H123977   5.631   2.490   8.752  1.6367  0.4053  0.4235
  806TIP3    H223978   5.755   2.481   8.665  0.2777 -1.5655 -1.4072
  807TIP3   OH223979   4.934   5.214   7.101 -0.2220  0.4628  0.1574
  807TIP3    H123980   4.855   5.214   7.047  0.3442 -0.4532 -0.7095
  807TIP3    H223981   5.002   5.247   7.044  0.3431 -0.2981  0.3784
  808TIP3   OH223982   6.375   2.498   0.880  0.6779  0.7770  0.1111
  808TIP3    H123983   6.310   2.484   0.810  0.8334 -0.8338  0.2437
  808TIP3    H223984   6.433   2.422   0.874 -0.2770 -0.3182  3.0477
  809TIP3   OH223985   3.130   1.839   0.968  0.0765 -0.8328 -0.0173
  809TIP3    H123986   3.208   1.871   1.013 -1.3400  0.9246  1.3367
  809TIP3    H223987   3.092   1.916   0.926 -0.3721 -1.8542 -1.5980
  810TIP3   OH223988   1.378   1.760   6.823 -0.2680 -0.4722 -1.1063
  810TIP3    H123989   1.384   1.853   6.845  1.0092 -0.2876 -2.1792
  810TIP3    H223990   1.304   1.755   6.762 -0.1412 -0.1159 -1.2912
  811TIP3   OH223991   4.304   4.095   6.984 -0.0430 -0.0472  0.2054
  811TIP3    H123992   4.215   4.080   7.015  0.5053 -0.1158  1.8885
  811TIP3    H223993   4.359   4.059   7.054  1.3043 -0.3428 -0.9738
  812TIP3   OH223994   1.519   3.563   0.967  0.4874  0.4229 -0.4286
  812TIP3    H123995   1.433   3.564   0.926  0.6792  0.6268 -0.8399
  812TIP3    H223996   1.535   3.470   0.988  0.3231  0.3361 -0.6842
  813TIP3   OH223997   5.480   4.060   1.423 -0.0652  0.5295  0.2677
  813TIP3    H123998   5.537   4.110   1.365 -1.0511  0.7253 -0.5687
  813TIP3    H223999   5.428   4.005   1.364  0.0898 -0.5429  1.0872
  814TIP3   OH224000   4.503   5.064   6.804  0.0773 -0.2763  0.1640
  814TIP3    H124001   4.435   5.101   6.861 -1.1079 -1.0046 -0.7242
  814TIP3    H224002   4.539   5.139   6.758  0.3000  0.1911  1.0697
  815TIP3   OH224003   5.564   5.617   0.026 -0.3758  0.0621 -0.2550
  815TIP3    H124004   5.624   5.675  -0.021 -2.2636  0.0298 -2.9102
  815TIP3    H224005   5.620   5.549   0.064  1.6646  2.3975  1.1949
  816TIP3   OH224006   4.564   4.084   7.523  0.2775 -0.2979  0.1718
  816TIP3    H124007   4.550   4.053   7.613 -0.2253 -0.2164  0.1251
  816TIP3    H224008   4.513   4.165   7.518 -0.5321 -0.8202 -0.4877
  817TIP3   OH224009   5.315   0.957   8.198 -0.8883  0.1807  0.1679
  817TIP3    H124010   5.358   0.910   8.269  0.1574  0.2462 -0.4020
  817TIP3    H224011   5.279   0.889   8.142 -0.6310  0.0956  0.1059
  818TIP3   OH224012   3.358   1.906   1.117  0.1979 -0.2291 -0.2805
  818TIP3    H124013   3.397   1.985   1.156  2.0006 -0.5532 -1.3426
  818TIP3    H224014   3.409   1.834   1.153  0.3406 -0.6970 -1.3768
  819TIP3   OH224015   6.235   0.904   8.475 -0.1402 -0.2978  0.3697
  819TIP3    H124016   6.277   0.828   8.516 -0.5991 -1.0013 -0.4205
  819TIP3    H224017   6.153   0.869   8.438 -0.9967  0.8612  1.1141
  820TIP3   OH224018   4.811   5.579   1.411 -1.1223  0.2314  0.5514
  820TIP3    H124019   4.735   5.614   1.457 -2.8524  0.1317 -2.0262
  820TIP3    H224020   4.775   5.514   1.351  1.2185 -0.9845  0.3660
  821TIP3   OH224021   4.952   6.241   1.366  0.4155  0.1156  0.5368
  821TIP3    H124022   4.884   6.234   1.300  0.8426  0.4062  0.0600
  821TIP3    H224023   4.957   6.335   1.385  0.5899  0.0810  0.6672
  822TIP3   OH224024   6.340   4.074   2.181 -0.7030  0.4398  0.1548
  822TIP3    H124025   6.333   4.006   2.114 -1.2609  0.4771  0.1732
  822TIP3    H224026   6.285   4.042   2.253  2.3109 -1.2224  2.0006
  823TIP3   OH224027   3.705   3.026   8.953  0.9057  0.3310 -0.2199
  823TIP3    H124028   3.766   2.953   8.939  0.4565 -0.2050  0.5831
  823TIP3    H224029   3.656   3.033   8.871  0.4676 -0.7310 -0.0569
  824TIP3   OH224030   6.655   3.699   2.647  0.0274  0.1328 -0.2350
  824TIP3    H124031   6.646   3.615   2.604 -0.2592  1.1133 -2.1721
  824TIP3    H224032   6.591   3.697   2.718 -0.1086 -1.1868 -0.3729
  825TIP3   OH224033   3.842   3.028   2.453  0.4844 -0.4528 -0.2007
  825TIP3    H124034   3.914   3.090   2.445 -0.2874  0.3499 -1.0746
  825TIP3    H224035   3.822   3.002   2.363 -0.6487 -0.2741 -0.0174
  826TIP3   OH224036   5.459   4.554   1.334  0.6085 -0.6164  0.6992
  826TIP3    H124037   5.485   4.581   1.246  0.8304 -2.2516  0.2292
  826TIP3    H224038   5.363   4.555   1.332  0.6145  0.2838  0.7497
  827TIP3   OH224039   3.238   4.042   8.684 -0.3898 -0.8391  0.1092
  827TIP3    H124040   3.268   4.070   8.771  1.0382  0.4142 -0.7444
  827TIP3    H224041   3.278   3.957   8.671  1.0380 -0.1597 -0.0994
  828TIP3   OH224042   3.985   5.912   6.986 -0.4592  0.2468  0.2200
  828TIP3    H124043   3.980   5.933   7.079  0.5958 -0.4565  0.4484
  828TIP3    H224044   3.953   5.991   6.942 -1.1420  0.5180  1.1721
  829TIP3   OH224045   4.997   1.534   1.753  0.4268  0.4371 -0.4657
  829TIP3    H124046   4.994   1.533   1.657  1.1881  0.4906 -0.4975
  829TIP3    H224047   4.944   1.459   1.779 -0.8718  1.1647 -0.8827
  830TIP3   OH224048   5.151   0.658   2.036 -0.0843 -0.0539  0.7840
  830TIP3    H124049   5.141   0.753   2.041  1.2484  0.1135  0.4277
  830TIP3    H224050   5.113   0.634   1.952  1.9030  0.5147 -0.3284
  831TIP3   OH224051   2.428   3.177   1.669 -0.3465  0.1530  0.3538
  831TIP3    H124052   2.512   3.157   1.628 -0.4120 -1.6102  0.9907
  831TIP3    H224053   2.429   3.272   1.681  1.4964  0.1764  0.2463
  832TIP3   OH224054   6.419   0.826   0.558 -0.2717 -0.2035  0.3562
  832TIP3    H124055   6.496   0.770   0.571  1.0334  0.1547 -3.9657
  832TIP3    H224056   6.422   0.889   0.629  4.3237  0.5838 -0.2067
  833TIP3   OH224057   5.172   2.973   8.921 -0.6108  0.1195 -0.1156
  833TIP3    H124058   5.226   2.926   8.984 -0.0367 -0.0873 -0.7436
  833TIP3    H224059   5.086   2.977   8.962 -0.0775  0.6578  1.0017
  834TIP3   OH224060   0.959   6.458   7.959  0.1726  0.7486 -0.4823
  834TIP3    H124061   1.001   6.373   7.958  1.0386  1.1629 -1.6663
  834TIP3    H224062   0.912   6.463   7.875 -0.9431  0.9405  0.1232
  835TIP3   OH224063   2.662   6.609   7.956 -0.2725  0.2454 -0.2445
  835TIP3    H124064   2.686   6.541   8.018  0.6252  0.8731  0.1173
  835TIP3    H224065   2.570   6.593   7.936 -0.1963 -0.7746  0.1999
  836TIP3   OH224066   1.541   4.171   8.137 -0.2033  0.1442 -0.8118
  836TIP3    H124067   1.551   4.096   8.078 -1.0992 -1.1781  0.6314
  836TIP3    H224068   1.610   4.232   8.111  2.1636 -2.2321 -0.5176
  837TIP3   OH224069   4.843   1.887   1.178  1.0531  0.2462 -0.4358
  837TIP3    H124070   4.902   1.841   1.120  0.8604  0.9544 -1.2166
  837TIP3    H224071   4.771   1.915   1.121  1.0146  1.2194  0.0753
  838TIP3   OH224072   1.508   1.588   2.047  0.4694  1.0778 -0.0815
  838TIP3    H124073   1.505   1.617   1.955 -0.1301 -0.6293 -0.6429
  838TIP3    H224074   1.600   1.568   2.063  0.5705  1.3425 -0.3218
  839TIP3   OH224075   6.069   5.882   2.822  0.1882  0.1367  0.1691
  839TIP3    H124076   6.113   5.801   2.850 -1.9366 -0.9997  0.4557
  839TIP3    H224077   6.128   5.952   2.848  2.0522 -1.3067  0.0233
  840TIP3   OH224078   5.299   2.442   8.675 -0.3416  0.5409  0.5517
  840TIP3    H124079   5.356   2.486   8.612 -0.5294  0.7568  0.5315
  840TIP3    H224080   5.259   2.513   8.725  2.0096  0.3620  2.9079
  841TIP3   OH224081   1.504   3.033   8.109  0.0619  0.3644  0.3333
  841TIP3    H124082   1.484   2.985   8.029  0.2328  0.7799  0.0415
  841TIP3    H224083   1.516   3.124   8.081  0.6815  0.4167  0.7495
  842TIP3   OH224084   0.885   2.308   0.317 -0.5024  0.2085 -0.9320
  842TIP3    H124085   0.950   2.378   0.323 -0.2595 -0.1294  0.8138
  842TIP3    H224086   0.835   2.314   0.398  0.6721 -2.7005  0.1398
  843TIP3   OH224087   2.681   2.890   1.239 -0.1005  0.3532 -0.7038
  843TIP3    H124088   2.661   2.903   1.146  0.2526  0.0972 -0.8148
  843TIP3    H224089   2.739   2.962   1.262  0.7719 -0.2533 -0.9820
  844TIP3   OH224090   4.771   2.935   0.331 -0.1765 -0.0671 -0.0742
  844TIP3    H124091   4.858   2.923   0.292 -0.6768 -0.2418 -1.1815
  844TIP3    H224092   4.712   2.891   0.270 -0.8952 -1.2516  1.4183
  845TIP3   OH224093   2.312   0.647   8.546  0.3612 -0.2494  0.1139
  845TIP3    H124094   2.375   0.578   8.522  1.6350  1.4069 -1.5930
  845TIP3    H224095   2.227   0.606   8.534  0.9487 -0.6822 -4.2667
  846TIP3   OH224096   1.268   1.062   3.617  0.3234  0.1147  0.1227
  846TIP3    H124097   1.186   1.105   3.640  0.1503 -0.5297  0.7200
  846TIP3    H224098   1.243   0.992   3.557  0.3283 -0.6443  0.9959
  847TIP3   OH224099   5.223   5.275   8.365  0.0328  0.1962  0.2641
  847TIP3    H124100   5.170   5.354   8.382  0.8188  0.6611  0.6090
  847TIP3    H224101   5.305   5.309   8.330  0.3107 -0.4889  0.2504
  848TIP3   OH224102   0.078   4.988   2.212 -0.7601 -0.2789  0.4650
  848TIP3    H124103   0.084   5.081   2.190 -1.1279  0.0629  1.6769
  848TIP3    H224104  -0.012   4.964   2.191  0.0593 -1.1523 -2.5191
  849TIP3   OH224105   1.095   2.631   2.305 -0.3427 -0.1201  0.1776
  849TIP3    H124106   1.018   2.637   2.361 -0.6833 -1.5809 -0.0744
  849TIP3    H224107   1.122   2.539   2.311  0.5886  0.0635 -0.7634
  850TIP3   OH224108   6.770   5.556   7.800  0.9651 -0.1330 -0.4763
  850TIP3    H124109   6.706   5.627   7.787 -0.3403 -0.7679  1.7432
  850TIP3    H224110   6.776   5.513   7.715 -2.3098 -0.5682 -0.6326
  851TIP3   OH224111   6.357   3.315   1.879 -0.5089  0.6109  0.2677
  851TIP3    H124112   6.280   3.261   1.858 -0.9802  1.1550  0.5825
  851TIP3    H224113   6.405   3.320   1.796 -1.1840  0.8570 -0.1221
  852TIP3   OH224114   0.451   2.816   8.505  1.2609 -0.0451 -0.1506
  852TIP3    H124115   0.376   2.844   8.453  0.1251  0.6236  1.7317
  852TIP3    H224116   0.482   2.737   8.461 -1.8189 -1.5386  0.0789
  853TIP3   OH224117   3.867   5.716   8.300 -0.2303  0.0490  0.3160
  853TIP3    H124118   3.807   5.763   8.357 -0.2178  0.4062  0.0436
  853TIP3    H224119   3.939   5.778   8.286  0.4794 -0.5788  1.0928
  854TIP3   OH224120   4.002   1.078   7.958  0.2945  0.1494  0.2553
  854TIP3    H124121   3.941   1.029   8.014  0.8379 -0.3330  0.4403
  854TIP3    H224122   4.058   1.011   7.920 -0.9273  0.2991 -1.9980
  855TIP3   OH224123   4.587   5.013   7.959  0.2591 -0.1912 -0.6995
  855TIP3    H124124   4.578   5.094   7.909 -1.7025 -0.2315 -0.4953
  855TIP3    H224125   4.670   5.022   8.005  0.7956  1.0326 -1.8527
  856TIP3   OH224126   4.932   3.824   1.173 -0.3153 -0.2586 -0.1446
  856TIP3    H124127   4.996   3.753   1.162 -1.6589 -1.3356 -1.3388
  856TIP3    H224128   4.958   3.890   1.109 -0.4599 -0.7450 -0.7105
  857TIP3   OH224129   1.984   2.847   3.182  0.2532  0.3610 -0.2791
  857TIP3    H124130   2.004   2.911   3.114  0.3708  1.0955  0.4213
  857TIP3    H224131   1.888   2.846   3.186  0.1972 -0.9498 -1.6049
  858TIP3   OH224132   6.679   5.947   1.980 -0.5018 -0.1106  0.0273
  858TIP3    H124133   6.713   6.032   1.951  2.2852 -1.6982 -1.9318
  858TIP3    H224134   6.657   5.960   2.072  0.7231  2.5005  0.0617
  859TIP3   OH224135   0.417   3.709   0.880 -0.3983 -0.1465  0.4605
  859TIP3    H124136   0.356   3.664   0.821 -0.7734  0.9700 -0.0399
  859TIP3    H224137   0.361   3.754   0.943 -0.0880  0.4787  0.3021
  860TIP3   OH224138   3.417   5.336   6.939 -0.1467 -0.1262 -0.1454
  860TIP3    H124139   3.360   5.310   7.011  0.9373  0.4692  0.9610
  860TIP3    H224140   3.380   5.419   6.909 -0.4856 -0.2761 -0.1491
  861TIP3   OH224141   3.490   2.743   8.909  0.5433 -0.0706 -0.0044
  861TIP3    H124142   3.550   2.704   8.973  0.0729 -1.3863 -0.3337
  861TIP3    H224143   3.548   2.776   8.840  0.9137 -2.2344 -0.8176
  862TIP3   OH224144   2.506   5.476   8.318 -0.1996  0.4298 -0.0044
  862TIP3    H124145   2.452   5.408   8.358  0.8576 -0.1969  0.4119
  862TIP3    H224146   2.471   5.486   8.230 -1.3872  0.5007  0.4507
  863TIP3   OH224147   5.747   2.645   7.685 -0.3211  0.0440  0.2217
  863TIP3    H124148   5.663   2.604   7.664  0.1560 -0.9700  0.2412
  863TIP3    H224149   5.811   2.598   7.631  0.1189  1.5139 -0.6237
  864TIP3   OH224150   4.931   5.361   8.866  0.0864  0.8187  0.2724
  864TIP3    H124151   4.866   5.301   8.829 -0.8064  1.8312  0.1475
  864TIP3    H224152   4.907   5.369   8.958 -0.1180  1.3550  0.1819
  865TIP3   OH224153   0.908   1.397   8.908 -0.1770  0.1644 -0.3478
  865TIP3    H124154   0.897   1.327   8.973 -0.5431  0.3754 -0.1744
  865TIP3    H224155   0.902   1.353   8.824  1.3750 -0.2805 -0.2583
  866TIP3   OH224156   5.931   5.373   0.675  0.2511  0.2443 -0.0313
  866TIP3    H124157   5.980   5.357   0.594 -0.4352 -0.1133 -0.3920
  866TIP3    H224158   5.996   5.365   0.745  1.0362  1.4348 -0.5933
  867TIP3   OH224159   5.924   5.798   7.739 -0.3963 -0.0170 -0.2176
  867TIP3    H124160   5.978   5.795   7.660 -0.2566 -0.4004 -0.1092
  867TIP3    H224161   5.838   5.826   7.708 -0.5653 -0.9704 -0.6352
  868TIP3   OH224162   1.783   2.266   2.940  0.2934  0.8477 -0.1540
  868TIP3    H124163   1.718   2.269   3.010  1.1464 -0.2969  0.7137
  868TIP3    H224164   1.786   2.174   2.913  1.1518  0.9815 -0.5577
  869TIP3   OH224165   1.708   5.470   0.797  0.1885  0.1565 -0.2357
  869TIP3    H124166   1.738   5.558   0.818 -1.3187  0.8423 -0.8296
  869TIP3    H224167   1.657   5.443   0.873  2.1528 -1.0128  0.7764
  870TIP3   OH224168   6.389   1.453   8.821  0.2790  0.1177  0.4805
  870TIP3    H124169   6.329   1.518   8.785  1.4012  0.4882 -0.8115
  870TIP3    H224170   6.335   1.374   8.830 -0.8761  0.9578  1.2324
  871TIP3   OH224171   0.542   3.183   8.608  0.1811  0.4167  0.2084
  871TIP3    H124172   0.570   3.091   8.617  0.3060  0.4835  0.5175
  871TIP3    H224173   0.447   3.180   8.615  0.2490  0.4417  1.4544
  872TIP3   OH224174   0.356   3.291   8.093 -0.5321  0.2277  0.1181
  872TIP3    H124175   0.385   3.286   8.184  0.3425 -2.4416 -0.2197
  872TIP3    H224176   0.368   3.383   8.069  0.4529  0.7296  2.2981
  873TIP3   OH224177   2.185   5.387   1.320  0.1645  0.6708 -0.0315
  873TIP3    H124178   2.253   5.453   1.330  1.3400 -0.5519  0.3226
  873TIP3    H224179   2.103   5.434   1.335  0.9718  2.0152  0.2908
  874TIP3   OH224180   6.218   2.107   0.608 -0.2176 -0.1584  0.4753
  874TIP3    H124181   6.159   2.063   0.671  0.7615 -2.9541 -0.3895
  874TIP3    H224182   6.279   2.038   0.582 -0.1215  1.0715 -2.9891
  875TIP3   OH224183   6.473   4.954   8.385 -0.3320  0.3259 -0.2558
  875TIP3    H124184   6.462   4.991   8.472 -2.7075 -1.2571  0.2098
  875TIP3    H224185   6.558   4.986   8.355 -0.2343  2.3029  1.9221
  876TIP3   OH224186   1.470   1.308   0.554  0.1762 -0.0431 -0.4301
  876TIP3    H124187   1.503   1.354   0.631 -0.5291 -1.1860  0.5955
  876TIP3    H224188   1.418   1.373   0.508 -0.8459  0.2194  1.0219
  877TIP3   OH224189   0.131   5.781   1.827  0.0723  0.0676  0.1981
  877TIP3    H124190   0.187   5.711   1.860 -0.2498  0.2209  1.1049
  877TIP3    H224191   0.058   5.785   1.889  1.3218  2.8414  1.7298
  878TIP3   OH224192   5.895   2.359   7.783 -0.0197  0.3581  0.1298
  878TIP3    H124193   5.943   2.277   7.791  0.0238  0.4562  0.9428
  878TIP3    H224194   5.917   2.391   7.695  1.5063  0.4742  0.5282
  879TIP3   OH224195   5.043   4.110   2.430  0.0489  0.2794  1.1090
  879TIP3    H124196   5.057   4.185   2.487 -0.0725 -0.4130  2.0662
  879TIP3    H224197   4.983   4.142   2.362  1.7676  1.6868  0.1634
  880TIP3   OH224198   3.364   2.442   1.555 -0.2159 -0.4275  0.2465
  880TIP3    H124199   3.379   2.459   1.461 -1.1645 -0.8349  0.0087
  880TIP3    H224200   3.372   2.528   1.596  0.5218 -0.2930 -0.1616
  881TIP3   OH224201   0.557   2.408   1.984  0.0145  0.3472 -0.2897
  881TIP3    H124202   0.596   2.483   1.940 -0.0871 -1.2594 -3.3810
  881TIP3    H224203   0.495   2.446   2.046  2.4540  2.8181  0.8227
  882TIP3   OH224204   4.195   1.884   1.292  0.7748 -0.0845  0.3056
  882TIP3    H124205   4.122   1.933   1.330  1.3643  2.2436 -1.3622
  882TIP3    H224206   4.270   1.907   1.347  1.2248  1.6878 -0.9708
  883TIP3   OH224207   0.816   5.080   0.810  0.2436 -0.2524  0.1214
  883TIP3    H124208   0.778   5.153   0.762  1.5086 -0.0853 -0.6918
  883TIP3    H224209   0.750   5.012   0.807 -1.6662  1.3457  2.3070
  884TIP3   OH224210   6.107   6.567   3.147 -0.5380 -0.6432 -0.0056
  884TIP3    H124211   6.119   6.578   3.052 -0.6474 -0.0184  0.0461
  884TIP3    H224212   6.162   6.636   3.185 -1.5595 -0.0040  0.3452
  885TIP3   OH224213   2.931   3.740   2.375  0.4957 -0.1644  0.2885
  885TIP3    H124214   2.905   3.676   2.309  1.2152  1.2799 -1.5029
  885TIP3    H224215   2.852   3.754   2.427 -0.2426 -1.0152 -0.5643
  886TIP3   OH224216   1.625   5.891   1.446 -0.3761  0.3628  0.2074
  886TIP3    H124217   1.678   5.897   1.526 -1.3069  0.2202  0.8608
  886TIP3    H224218   1.619   5.982   1.415  0.9108  0.2833 -0.3455
  887TIP3   OH224219   0.260   6.343   2.560  0.0313 -0.0775 -0.2449
  887TIP3    H124220   0.197   6.415   2.568  1.4405  1.1017  0.8456
  887TIP3    H224221   0.258   6.319   2.468 -2.5939 -0.6586 -0.1134
  888TIP3   OH224222   3.473   5.892   8.296 -0.0805 -0.3391 -0.2372
  888TIP3    H124223   3.519   5.965   8.255  1.8548 -1.2601  0.1880
  888TIP3    H224224   3.413   5.861   8.228  0.1581  0.6779 -0.9435
  889TIP3   OH224225   6.027   3.641   1.499  0.5509  0.2795  0.3592
  889TIP3    H124226   6.123   3.636   1.503  0.4753 -3.3973  0.9050
  889TIP3    H224227   6.008   3.668   1.409  2.1796 -2.4557 -0.9416
  890TIP3   OH224228   2.726   2.350   0.629  0.6961  0.5536  0.5300
  890TIP3    H124229   2.734   2.420   0.693 -2.0889 -0.5061  2.2227
  890TIP3    H224230   2.647   2.372   0.579  1.7915  0.4054 -1.3531
  891TIP3   OH224231   4.940   6.760   7.812  0.2603  0.2704 -0.0749
  891TIP3    H124232   4.943   6.846   7.769 -2.2586  0.7799  0.6152
  891TIP3    H224233   4.850   6.731   7.802  0.9764 -2.2025  0.0016
  892TIP3   OH224234   2.363   3.340   2.861 -0.3681  0.2366 -0.1979
  892TIP3    H124235   2.300   3.378   2.921 -0.7516 -0.2282 -0.3032
  892TIP3    H224236   2.449   3.360   2.900 -0.6039  0.1580  0.3622
  893TIP3   OH224237   1.197   3.535   0.121  0.4928  0.4960 -0.6102
  893TIP3    H124238   1.151   3.457   0.154  0.9173  0.6767  0.4239
  893TIP3    H224239   1.280   3.536   0.168  0.3981  1.7102 -0.4378
  894TIP3   OH224240   2.345   1.768   0.169 -0.3171  0.6132  0.0507
  894TIP3    H124241   2.274   1.709   0.143  0.6228 -1.0706  1.0788
  894TIP3    H224242   2.302   1.852   0.185 -1.4150  0.8898 -3.5081
  895TIP3   OH224243   5.423   4.262   8.800  0.1772  0.5772 -0.0994
  895TIP3    H124244   5.342   4.311   8.814 -0.4240  0.0883 -1.6790
  895TIP3    H224245   5.411   4.180   8.848 -0.4735  0.3065 -0.7151
  896TIP3   OH224246   5.281   1.985   8.842 -0.5873  0.2495  0.2606
  896TIP3    H124247   5.376   1.971   8.843 -0.3826  1.4387  1.6721
  896TIP3    H224248   5.248   1.926   8.774  1.0125 -1.0599  0.5726
  897TIP3   OH224249   3.375   0.585   7.873  0.1441  0.0141  0.2969
  897TIP3    H124250   3.429   0.510   7.848 -0.5151 -0.0352 -1.0317
  897TIP3    H224251   3.418   0.620   7.951  2.6982  0.5704 -1.2353
  898TIP3   OH224252   4.461   2.359   8.696  0.5654 -0.0782 -0.3154
  898TIP3    H124253   4.413   2.388   8.773 -0.1256  1.0118 -1.1297
  898TIP3    H224254   4.550   2.343   8.727  0.1932 -0.0865  0.7830
  899TIP3   OH224255   6.738   1.023   3.107 -0.2923 -0.8154 -0.5638
  899TIP3    H124256   6.675   0.952   3.105 -0.3763 -0.8268  0.9090
  899TIP3    H224257   6.792   1.005   3.184 -3.1079  2.9317  2.7019
  900TIP3   OH224258   4.311   1.429   0.519  0.2249  0.0351  0.3693
  900TIP3    H124259   4.263   1.489   0.462  1.3870  0.8326  0.1715
  900TIP3    H224260   4.327   1.352   0.465 -1.1332 -0.4015  0.5677
  901TIP3   OH224261   4.983   3.331   1.928  0.6152 -0.0460 -0.5527
  901TIP3    H124262   5.047   3.315   1.859 -0.5554  0.7048 -1.8651
  901TIP3    H224263   5.005   3.418   1.961  1.9312 -0.8951  0.9152
  902TIP3   OH224264   6.364   5.342   2.189 -0.3730 -0.4625 -0.0588
  902TIP3    H124265   6.342   5.273   2.251 -1.9932  1.0372  1.1646
  902TIP3    H224266   6.355   5.423   2.240 -1.3163  0.8109 -2.1383
  903TIP3   OH224267   6.450   2.003   1.206  0.7289  0.5912 -0.2305
  903TIP3    H124268   6.461   1.931   1.267 -0.3077 -0.6616 -1.4406
  903TIP3    H224269   6.389   2.063   1.250  1.6371  0.7725  0.8043
  904TIP3   OH224270   0.315   0.770   8.087 -0.1513  0.5142 -0.1871
  904TIP3    H124271   0.274   0.794   8.004  0.1699  0.6829 -0.2984
  904TIP3    H224272   0.409   0.782   8.072  0.1039 -1.4547 -0.4726
  905TIP3   OH224273   4.726   1.848   3.335 -0.2416  0.5081  0.3815
  905TIP3    H124274   4.658   1.796   3.379  0.1873 -0.1470  0.2788
  905TIP3    H224275   4.805   1.831   3.385  0.0014  0.7102  0.0689
  906TIP3   OH224276   2.875   6.414   1.808 -0.2309 -0.1746  0.7707
  906TIP3    H124277   2.836   6.427   1.722 -0.0361 -3.3803  0.0547
  906TIP3    H224278   2.952   6.471   1.810 -1.2110  1.2519 -0.4361
  907TIP3   OH224279   0.736   5.488   1.081  0.0883 -0.1589  0.1716
  907TIP3    H124280   0.676   5.474   1.008  1.1833 -0.6169 -0.6721
  907TIP3    H224281   0.751   5.583   1.081 -2.4486  0.3640  1.9304
  908TIP3   OH224282   3.259   4.630   7.087  0.4797 -0.1395 -0.0534
  908TIP3    H124283   3.184   4.585   7.046  1.4974 -0.7419 -1.3529
  908TIP3    H224284   3.332   4.569   7.076  1.5044  1.0753 -0.2168
  909TIP3   OH224285   5.157   4.391   8.801 -0.3783  0.5108 -0.1098
  909TIP3    H124286   5.155   4.337   8.722  0.0472  0.3267  0.0017
  909TIP3    H224287   5.158   4.481   8.769 -3.2495  0.5550 -0.2892
  910TIP3   OH224288   3.886   1.537   8.819 -0.6008 -0.5767 -0.8255
  910TIP3    H124289   3.922   1.537   8.730 -2.0752  0.8287 -1.4826
  910TIP3    H224290   3.831   1.615   8.823  0.6602  0.2974  1.8884
  911TIP3   OH224291   5.015   1.854   8.067 -0.1583  0.4141 -0.2272
  911TIP3    H124292   4.979   1.922   8.009 -0.6864 -0.0836 -0.4937
  911TIP3    H224293   4.986   1.772   8.028  1.2944 -0.0130 -0.4526
  912TIP3   OH224294   4.665   1.463   0.373  0.3142 -0.4280 -0.0278
  912TIP3    H124295   4.623   1.393   0.322  2.4944 -0.8614 -1.3391
  912TIP3    H224296   4.596   1.528   0.385 -1.6019 -2.4237  0.6022
  913TIP3   OH224297   4.249   4.522   7.624 -0.2351  0.7635 -0.0065
  913TIP3    H124298   4.295   4.604   7.641  1.2802 -0.2790  1.1529
  913TIP3    H224299   4.214   4.495   7.709  1.4289 -1.0016  0.1869
  914TIP3   OH224300   0.164   4.343   7.724 -0.4623  0.0312 -0.2593
  914TIP3    H124301   0.127   4.270   7.675 -1.6409  0.0874  0.5126
  914TIP3    H224302   0.212   4.303   7.796  2.3813 -0.1208 -2.0449
  915TIP3   OH224303   2.684   3.836   1.488  0.4023  0.6189 -0.0845
  915TIP3    H124304   2.618   3.783   1.444  1.3719 -1.4238  0.7772
  915TIP3    H224305   2.669   3.820   1.581  2.6913 -0.7128  0.1121
  916TIP3   OH224306   5.754   2.915   0.315  0.3662 -0.1770  0.1093
  916TIP3    H124307   5.778   2.904   0.406  0.3097 -0.1712  0.1251
  916TIP3    H224308   5.713   3.002   0.311  2.0288  0.6450 -0.2620
  917TIP3   OH224309   5.818   0.967   1.668 -0.2148 -0.4315  0.0210
  917TIP3    H124310   5.884   0.926   1.612 -2.1996 -3.1951 -0.4767
  917TIP3    H224311   5.864   0.983   1.751  1.1623 -2.1414 -0.3463
  918TIP3   OH224312   3.443   6.415   2.178  0.1185 -1.1770 -0.2098
  918TIP3    H124313   3.447   6.454   2.091  0.3539  1.1682  0.7788
  918TIP3    H224314   3.523   6.364   2.185  0.1414 -1.3206 -1.3298
  919TIP3   OH224315   1.244   6.329   0.840 -0.3707  0.1058  0.3828
  919TIP3    H124316   1.290   6.400   0.885  2.0098  0.4875 -2.3886
  919TIP3    H224317   1.314   6.271   0.808 -1.9610 -0.8723 -1.5712
  920TIP3   OH224318   3.056   3.569   0.608 -0.5444 -0.1037  0.1844
  920TIP3    H124319   3.013   3.535   0.687  1.8025 -2.5111  0.5429
  920TIP3    H224320   3.111   3.641   0.640  0.5952 -1.2342  0.8531
  921TIP3   OH224321   0.591   4.683   2.240  0.6047 -0.5564 -0.4931
  921TIP3    H124322   0.553   4.699   2.327  0.0211 -1.5963 -0.5423
  921TIP3    H224323   0.564   4.758   2.187  0.0052 -0.4813 -0.0821
  922TIP3   OH224324   2.496   4.359   7.596 -0.4615  0.2838  0.1031
  922TIP3    H124325   2.525   4.292   7.658 -0.8154  1.5382  1.6689
  922TIP3    H224326   2.491   4.313   7.512 -0.4116 -1.5712  1.0716
  923TIP3   OH224327   2.325   3.784   8.650 -0.1058 -0.5295  0.5276
  923TIP3    H124328   2.262   3.780   8.577 -0.7134  1.4015  0.8721
  923TIP3    H224329   2.348   3.877   8.655  0.6586 -0.7875  2.2011
  924TIP3   OH224330   6.683   2.636   1.460 -0.6998 -0.2176 -0.2384
  924TIP3    H124331   6.592   2.645   1.431 -1.2052 -1.2301  0.9518
  924TIP3    H224332   6.711   2.551   1.424 -0.2210  0.0686 -0.5643
  925TIP3   OH224333   3.014   6.175   7.856 -0.5167  0.0437  0.5310
  925TIP3    H124334   3.003   6.249   7.797 -0.5315  0.6081  1.2192
  925TIP3    H224335   3.079   6.120   7.814 -2.2863 -0.8456 -1.2228
  926TIP3   OH224336   3.717   4.812   1.643  0.0708  0.6479  0.1243
  926TIP3    H124337   3.653   4.860   1.697  0.7083  1.4832  0.1555
  926TIP3    H224338   3.802   4.840   1.676  0.4688  0.5203 -0.7681
  927TIP3   OH224339   1.708   1.092   8.396  0.5874  0.6472 -0.4303
  927TIP3    H124340   1.738   1.175   8.357 -1.4187  1.3390 -0.5914
  927TIP3    H224341   1.688   1.113   8.487 -2.7265  1.1794 -1.1505
  928TIP3   OH224342   5.340   4.213   1.608  0.4119  0.3519 -0.4276
  928TIP3    H124343   5.392   4.175   1.537  0.8586  1.4335 -0.6949
  928TIP3    H224344   5.267   4.151   1.619  0.7026 -0.1844 -1.3631
  929TIP3   OH224345   1.965   6.380   0.736 -0.3668  0.1271  0.2407
  929TIP3    H124346   1.963   6.475   0.751 -0.3582 -0.0385  1.4050
  929TIP3    H224347   2.057   6.358   0.726 -0.1842 -0.0313  2.0294
  930TIP3   OH224348   4.150   6.554   8.717 -0.4530  0.2060 -0.3846
  930TIP3    H124349   4.075   6.558   8.658 -1.5432 -3.5702  0.4897
  930TIP3    H224350   4.224   6.531   8.660 -0.2518  2.2011 -0.9942
  931TIP3   OH224351   4.478   4.113   2.545 -0.1500  0.9510 -0.2623
  931TIP3    H124352   4.501   4.066   2.465 -2.3258  1.2104 -1.1086
  931TIP3    H224353   4.546   4.089   2.607  0.7120 -0.5408 -1.7022
  932TIP3   OH224354   3.283   3.924   2.394 -0.2271 -0.5152  0.0331
  932TIP3    H124355   3.273   3.860   2.464 -1.3481  0.7878  1.1315
  932TIP3    H224356   3.370   3.962   2.409 -0.2886 -0.5394  0.4668
  933TIP3   OH224357   4.719   6.615   0.949 -0.3191  0.0515  0.3598
  933TIP3    H124358   4.655   6.600   0.880 -0.9005 -0.2368  0.9433
  933TIP3    H224359   4.797   6.566   0.921 -0.8611 -0.8200  0.3393
  934TIP3   OH224360   0.392   0.358   2.012 -0.4311 -0.1028  0.0297
  934TIP3    H124361   0.483   0.383   1.998 -1.1531  2.0226 -1.2348
  934TIP3    H224362   0.387   0.338   2.105  0.7300  2.5156  0.7350
  935TIP3   OH224363   6.722   5.263   0.107 -0.1758 -0.3045 -0.1267
  935TIP3    H124364   6.633   5.231   0.088 -0.4431  0.2187  0.2258
  935TIP3    H224365   6.740   5.324   0.036 -0.6812  0.6939  0.5705
  936TIP3   OH224366   6.071   0.663   1.775 -0.1302 -0.3468 -0.6129
  936TIP3    H124367   6.132   0.727   1.811 -0.6542  0.0049 -0.3328
  936TIP3    H224368   6.005   0.653   1.843  1.7206 -3.8112  0.9269
  937TIP3   OH224369   5.568   0.093   0.147  0.0945  0.4647 -0.6968
  937TIP3    H124370   5.590   0.097   0.053 -0.2644  1.6239 -0.7429
  937TIP3    H224371   5.542   0.182   0.169 -1.6858 -0.2179  0.0713
  938TIP3   OH224372   3.489   6.606   0.393  0.1889  0.3703 -0.0707
  938TIP3    H124373   3.395   6.627   0.401 -0.1980 -1.1325 -0.3893
  938TIP3    H224374   3.506   6.611   0.299 -0.5460 -3.0108 -0.5125
  939TIP3   OH224375   4.176   1.578   1.535 -0.7324  0.5782  0.9436
  939TIP3    H124376   4.160   1.660   1.582 -0.0134  0.9417  0.5916
  939TIP3    H224377   4.094   1.558   1.491 -0.8853  1.1776  0.9499
  940TIP3   OH224378   3.118   6.374   0.975 -0.2609 -0.5379 -0.0093
  940TIP3    H124379   3.118   6.291   0.926  0.6879 -0.8508  0.5011
  940TIP3    H224380   3.070   6.354   1.056 -1.5062 -0.1200 -0.6251
  941TIP3   OH224381   5.916   0.302   0.471 -0.0647 -0.2750  0.0200
  941TIP3    H124382   5.982   0.301   0.540  0.0632  1.2511 -0.0441
  941TIP3    H224383   5.884   0.212   0.467 -1.6678 -0.0491  3.5911
  942TIP3   OH224384   1.016   5.619   2.789  0.4229  0.2905  0.1799
  942TIP3    H124385   1.073   5.603   2.714 -2.8536 -0.4724 -2.3748
  942TIP3    H224386   1.007   5.534   2.831 -0.2886 -0.0002 -0.5508
  943TIP3   OH224387   3.119   3.449   7.251  0.1711 -0.1561 -0.5010
  943TIP3    H124388   3.058   3.397   7.302  1.4084 -1.9008 -0.7129
  943TIP3    H224389   3.204   3.408   7.266  1.1724  1.6835 -0.8712
  944TIP3   OH224390   5.177   4.861   0.588 -0.3584  0.1090  0.7567
  944TIP3    H124391   5.246   4.796   0.575 -0.0693  0.5872 -0.2082
  944TIP3    H224392   5.181   4.882   0.682  1.0016  0.3329  0.6672
  945TIP3   OH224393   1.894   1.012   7.991 -0.1911  0.3298 -0.4353
  945TIP3    H124394   1.827   0.993   8.057 -0.7508  0.5012 -0.9427
  945TIP3    H224395   1.904   0.930   7.943 -0.6239  0.5249 -0.8701
  946TIP3   OH224396   3.539   1.579   2.440  0.8351 -0.4518  0.1471
  946TIP3    H124397   3.523   1.604   2.531 -1.4976  1.3400 -0.6765
  946TIP3    H224398   3.615   1.630   2.413 -0.6386  1.8626  0.1014
  947TIP3   OH224399   0.187   0.898   1.976  0.3256 -0.5809 -0.0221
  947TIP3    H124400   0.266   0.903   1.922  0.6019  2.9672  0.4659
  947TIP3    H224401   0.122   0.949   1.927 -0.4867 -0.2851  1.3336
  948TIP3   OH224402   1.861   6.007   7.501 -0.5129  0.4584 -0.2751
  948TIP3    H124403   1.813   6.006   7.584 -1.0449 -0.9697 -0.5652
  948TIP3    H224404   1.950   5.980   7.524 -0.8323 -0.6108 -0.2443
  949TIP3   OH224405   0.256   3.169   1.060  0.2183 -0.0033 -0.3901
  949TIP3    H124406   0.234   3.076   1.062 -0.0467  0.0516 -0.6418
  949TIP3    H224407   0.352   3.170   1.061  0.2321 -0.2336  1.0384
  950TIP3   OH224408   5.618   2.013   2.989  0.3602  0.4097  0.6856
  950TIP3    H124409   5.684   1.964   3.038  2.4155  1.8899 -0.4270
  950TIP3    H224410   5.626   1.981   2.900 -0.0437  0.9807  0.4363
  951TIP3   OH224411   2.459   5.324   8.847 -0.2235  0.1709  0.5041
  951TIP3    H124412   2.434   5.259   8.913 -0.3262 -1.9542 -1.4869
  951TIP3    H224413   2.382   5.380   8.837  0.2831  1.4595  3.1196
  952TIP3   OH224414   1.671   1.319   8.646  0.1917  0.3740  0.1394
  952TIP3    H124415   1.678   1.265   8.724  0.3118  1.0025  0.5660
  952TIP3    H224416   1.648   1.406   8.678  1.9377  1.0769 -0.3483
  953TIP3   OH224417   4.313   3.046   0.776  0.0779  0.1621 -0.2510
  953TIP3    H124418   4.286   3.054   0.868  1.9287 -1.2303  0.4768
  953TIP3    H224419   4.232   3.025   0.729 -0.6308 -0.8437  1.3296
  954TIP3   OH224420   4.215   1.873   8.146 -0.5580 -1.2358 -0.4205
  954TIP3    H124421   4.250   1.906   8.229 -0.9797 -0.5392 -0.5066
  954TIP3    H224422   4.127   1.911   8.141  0.3712  0.8791 -2.3909
  955TIP3   OH224423   4.520   3.323   0.229  0.3423  0.1903  0.7029
  955TIP3    H124424   4.497   3.231   0.218 -0.9679  0.4697  0.9750
  955TIP3    H224425   4.611   3.329   0.199  0.3107 -1.1082  0.3123
  956TIP3   OH224426   0.328   2.740   1.287 -0.2968 -0.0250 -0.2953
  956TIP3    H124427   0.416   2.704   1.294 -0.6197 -0.6816  0.4261
  956TIP3    H224428   0.287   2.690   1.216 -0.2554 -0.0562 -0.2973
  957TIP3   OH224429   3.508   1.528   0.811 -0.0821 -0.2594 -0.1744
  957TIP3    H124430   3.475   1.441   0.834 -0.8021 -0.0812 -0.5045
  957TIP3    H224431   3.447   1.560   0.745  1.9637 -0.7754 -2.4309
  958TIP3   OH224432   1.199   1.571   8.696 -0.4575  0.2650 -0.3162
  958TIP3    H124433   1.253   1.636   8.740 -0.8831 -0.7061  1.7694
  958TIP3    H224434   1.109   1.599   8.712 -0.6197  0.0913 -0.8919
  959TIP3   OH224435   0.529   6.261   0.124 -0.1312 -0.4337  0.0185
  959TIP3    H124436   0.532   6.181   0.072 -2.2594 -1.0798  0.7673
  959TIP3    H224437   0.507   6.232   0.213 -0.4629  0.9347  0.4121
  960TIP3   OH224438   0.703   6.353   8.547  0.4467 -0.6750 -0.0188
  960TIP3    H124439   0.647   6.359   8.624  0.8148 -1.7845  0.3535
  960TIP3    H224440   0.792   6.361   8.581  0.5673 -0.0516 -0.4658
  961TIP3   OH224441   5.792   0.892   8.087  0.1347 -0.4895 -0.5458
  961TIP3    H124442   5.724   0.839   8.047  1.7918 -2.4862 -0.9088
  961TIP3    H224443   5.867   0.883   8.028  0.8273  1.3633 -0.0050
  962TIP3   OH224444   1.401   0.757   7.310 -0.5550  0.0740 -0.7612
  962TIP3    H124445   1.440   0.717   7.232 -0.8569 -0.7842 -0.4839
  962TIP3    H224446   1.475   0.792   7.359 -0.3205  0.2067 -1.2098
  963TIP3   OH224447   2.365   4.513   0.918 -0.1739  0.1648 -0.4829
  963TIP3    H124448   2.390   4.600   0.886 -0.5943  0.8914  1.0692
  963TIP3    H224449   2.425   4.496   0.990 -0.0601 -0.8784 -0.8101
  964TIP3   OH224450   5.359   6.082   0.430  0.0316  0.2856  0.4676
  964TIP3    H124451   5.443   6.037   0.421  0.7424  1.4203  1.1752
  964TIP3    H224452   5.378   6.156   0.488 -0.8188  2.1805 -1.5418
  965TIP3   OH224453   5.114   3.152   0.497  0.5853  0.1161  0.2174
  965TIP3    H124454   5.183   3.115   0.551  0.3676  0.8493  1.0264
  965TIP3    H224455   5.046   3.179   0.559  0.1692  0.6416 -0.4464
  966TIP3   OH224456   3.449   3.564   2.459  0.3232  0.4631  0.1054
  966TIP3    H124457   3.381   3.630   2.474  1.2126  1.2452  0.8707
  966TIP3    H224458   3.517   3.585   2.524  1.7778  0.3703 -1.3289
  967TIP3   OH224459   0.230   2.107   0.198 -0.6220 -0.2264 -0.3931
  967TIP3    H124460   0.219   2.189   0.150 -0.4355  0.7147  1.0965
  967TIP3    H224461   0.171   2.115   0.273  1.1798 -0.3481  1.1235
  968TIP3   OH224462   5.478   3.730   1.514 -0.1242 -0.2227 -0.1600
  968TIP3    H124463   5.544   3.703   1.450 -0.3247  0.2315 -0.5616
  968TIP3    H224464   5.398   3.743   1.463 -0.5748 -0.9276  0.3449
  969TIP3   OH224465   6.039   5.407   1.459  0.2316 -0.1054  0.1841
  969TIP3    H124466   6.098   5.478   1.437 -1.3059  1.2302  0.1840
  969TIP3    H224467   5.984   5.395   1.382 -0.4485 -0.3249  0.6855
  970TIP3   OH224468   4.621   1.530   8.153 -0.4905  0.0352  0.8645
  970TIP3    H124469   4.598   1.489   8.069 -0.3107  1.1998  0.2208
  970TIP3    H224470   4.561   1.605   8.160  0.4812  0.8156  1.0524
  971TIP3   OH224471   5.928   2.476   7.530  0.5023  0.3897  0.0819
  971TIP3    H124472   5.860   2.439   7.473 -0.0575  1.7207 -0.1514
  971TIP3    H224473   5.971   2.543   7.477  0.6747  0.9204  0.8690
  972TIP3   OH224474   5.116   4.684   7.481  0.4678  0.2586 -0.5124
  972TIP3    H124475   5.174   4.714   7.411  1.0946 -1.7268 -0.9281
  972TIP3    H224476   5.171   4.687   7.559  1.0861 -1.2519 -0.8395
  973TIP3   OH224477   6.078   0.609   2.261 -0.5439 -1.1049 -0.7348
  973TIP3    H124478   6.067   0.515   2.245  1.7509 -1.2901 -1.6552
  973TIP3    H224479   6.044   0.650   2.181 -1.5164 -1.1379 -0.3470
  974TIP3   OH224480   5.637   4.023   8.582  0.1951  0.3713  0.3445
  974TIP3    H124481   5.672   4.004   8.495  0.6662 -2.2729  1.0330
  974TIP3    H224482   5.667   4.113   8.601  0.7119  0.7228 -1.8722
  975TIP3   OH224483   3.422   4.041   2.122  0.1883  0.2164 -0.4844
  975TIP3    H124484   3.454   3.951   2.128 -2.8633 -1.0091 -0.6972
  975TIP3    H224485   3.386   4.048   2.033 -1.5525  0.8764  0.2318
  976TIP3   OH224486   0.387   0.081   1.445 -0.4138  0.4647 -0.1477
  976TIP3    H124487   0.418   0.152   1.389 -0.2757  1.1757  0.8171
  976TIP3    H224488   0.399   0.113   1.534 -0.8502 -0.5614  0.2972
  977TIP3   OH224489   2.649   2.906   0.940  0.0600  0.1756  0.5391
  977TIP3    H124490   2.559   2.889   0.967  0.0608 -0.3815  0.1937
  977TIP3    H224491   2.651   2.886   0.847 -0.1844  3.0111 -0.1679
  978TIP3   OH224492   5.754   5.568   0.709  0.7636  0.3082 -0.3969
  978TIP3    H124493   5.817   5.498   0.692  1.0545 -0.0312  1.7382
  978TIP3    H224494   5.767   5.590   0.801 -1.2341  1.2795 -0.2864
  979TIP3   OH224495   2.242   6.761   8.155 -0.6683  0.4836  0.4107
  979TIP3    H124496   2.184   6.715   8.093  0.9802 -1.2243  0.0539
  979TIP3    H224497   2.317   6.703   8.165  0.5926  2.2218  1.5531
  980TIP3   OH224498   4.305   5.128   8.221  0.4334 -0.5562 -0.6090
  980TIP3    H124499   4.333   5.217   8.242  3.3130 -1.5902  0.3677
  980TIP3    H224500   4.338   5.113   8.132  1.5973 -1.2492 -0.0684
  981TIP3   OH224501   4.035   4.663   8.711 -0.0898 -0.0971  0.3238
  981TIP3    H124502   4.080   4.706   8.639 -2.6475  0.4236 -1.1011
  981TIP3    H224503   3.971   4.727   8.742 -1.0091 -1.3207  1.0901
  982TIP3   OH224504   1.825   5.510   3.031 -0.5378 -0.2206  0.4011
  982TIP3    H124505   1.802   5.602   3.040 -1.4328 -0.3960  0.0124
  982TIP3    H224506   1.909   5.511   2.984 -0.8247  0.3821 -0.1113
  983TIP3   OH224507   4.116   4.878   7.537 -0.0902  0.0187 -0.2956
  983TIP3    H124508   4.209   4.889   7.559 -0.1964  1.5996 -0.5225
  983TIP3    H224509   4.105   4.927   7.455 -1.4930  1.4345  0.6863
  984TIP3   OH224510   1.531   3.778   1.725 -0.0455 -0.2398 -0.1807
  984TIP3    H124511   1.517   3.683   1.722  1.6756 -0.5489  0.6303
  984TIP3    H224512   1.586   3.797   1.649  1.2258 -0.2233  0.7120
  985TIP3   OH224513   6.378   0.176   0.249  0.1107 -0.1382 -0.0048
  985TIP3    H124514   6.317   0.213   0.185  0.4178  0.4104  0.0070
  985TIP3    H224515   6.439   0.248   0.267 -0.3245 -0.0697  1.3635
  986TIP3   OH224516   5.753   4.825   6.977  0.6555 -0.2130 -0.5013
  986TIP3    H124517   5.702   4.850   6.900 -0.0876 -0.4509 -0.0956
  986TIP3    H224518   5.825   4.772   6.942  0.7453  0.3026 -1.0996
  987TIP3   OH224519   5.439   4.614   7.561 -0.4175 -0.0645 -0.1030
  987TIP3    H124520   5.390   4.549   7.511  1.4898 -2.2323  0.6811
  987TIP3    H224521   5.393   4.620   7.645  0.0989 -1.4535  0.3124
  988TIP3   OH224522   5.889   5.607   7.490 -0.2812  0.1354  0.0101
  988TIP3    H124523   5.844   5.539   7.439 -1.0861  0.6422  0.0306
  988TIP3    H224524   5.836   5.617   7.569 -0.6732  1.3958 -0.3892
  989TIP3   OH224525   5.544   2.784   7.803  0.7229  0.1677 -0.1797
  989TIP3    H124526   5.628   2.747   7.774  0.2325 -0.1208 -1.2696
  989TIP3    H224527   5.490   2.786   7.725 -0.0982  0.9272  0.3856
  990TIP3   OH224528   1.887   0.488   8.779  0.0675 -0.4659  0.0385
  990TIP3    H124529   1.907   0.582   8.781  2.7508 -0.9646 -0.0948
  990TIP3    H224530   1.851   0.470   8.866  0.4771  0.5175  0.4368
  991TIP3   OH224531   1.944   0.715   8.289 -0.4155 -0.0586 -0.8184
  991TIP3    H124532   1.976   0.789   8.341  1.0531  0.0149 -1.7598
  991TIP3    H224533   1.864   0.687   8.333 -1.2099  2.3182 -0.6610
  992TIP3   OH224534   2.934   6.468   0.092  0.2023 -0.5997 -0.2190
  992TIP3    H124535   2.984   6.442   0.169 -2.1318 -2.1518  0.8972
  992TIP3    H224536   2.930   6.389   0.037  1.0256  0.2111 -1.5061
  993TIP3   OH224537   5.568   5.923   0.412  0.5143 -0.2940 -0.0396
  993TIP3    H124538   5.661   5.934   0.433  0.8361 -0.2817 -1.3714
  993TIP3    H224539   5.568   5.887   0.323 -0.7842  1.4240 -0.7869
  994TIP3   OH224540   6.086   3.864   1.876 -0.0975  0.0556 -0.1180
  994TIP3    H124541   6.089   3.842   1.969  1.0915  1.1762  0.1421
  994TIP3    H224542   6.127   3.790   1.832 -1.0619 -0.6793  0.1981
  995TIP3   OH224543   2.417   2.073   1.189  0.5130 -0.1907 -0.7544
  995TIP3    H124544   2.452   1.998   1.141 -0.3916 -0.0075 -1.7369
  995TIP3    H224545   2.369   2.123   1.123 -1.0426 -0.1012  0.3897
  996TIP3   OH224546   2.301   1.301   0.899  0.4357 -0.2680  0.0501
  996TIP3    H124547   2.369   1.363   0.874 -1.0967  0.5611 -2.4700
  996TIP3    H224548   2.347   1.218   0.913  2.2109  0.8194  0.9015
  997TIP3   OH224549   0.630   5.135   8.288  0.1248  0.1307 -0.1730
  997TIP3    H124550   0.605   5.149   8.197  0.1151 -1.0547 -0.3682
  997TIP3    H224551   0.588   5.052   8.312  1.7119 -0.5740  0.2913
  998TIP3   OH224552   5.446   4.757   0.262  0.2139  0.6810  0.5772
  998TIP3    H124553   5.470   4.845   0.289  0.4098  0.4174  1.2859
  998TIP3    H224554   5.528   4.708   0.263  0.4347  0.9296 -1.6243
  999TIP3   OH224555   3.907   4.734   2.437  0.1287 -0.2414 -0.3917
  999TIP3    H124556   3.816   4.704   2.446 -0.3259  1.3396  0.7828
  999TIP3    H224557   3.905   4.796   2.365  0.1385  0.2308  0.0082
 1000TIP3   OH224558   4.280   4.088   2.105  0.2693  0.3603  0.1388
 1000TIP3    H124559   4.355   4.132   2.146 -0.3992  1.8450 -0.1507
 1000TIP3    H224560   4.319   4.028   2.042  1.2695 -0.7525  1.7563
 1001TIP3   OH224561   4.481   0.447   0.427  0.3632  0.1118  0.9421
 1001TIP3    H124562   4.410   0.482   0.374 -0.3897  0.1167  1.9317
 1001TIP3    H224563   4.559   0.495   0.398 -0.2224  0.8659  0.5973
 1002TIP3   OH224564   3.375   5.166   1.975 -0.5560  0.3132  0.4079
 1002TIP3    H124565   3.388   5.075   2.003 -0.2482  0.7231  1.6493
 1002TIP3    H224566   3.390   5.164   1.880  0.5844 -0.7133  0.5896
 1003TIP3   OH224567   0.404   0.435   1.522 -0.2551  0.2689  0.6616
 1003TIP3    H124568   0.434   0.386   1.598  1.7785  1.0539  0.4105
 1003TIP3    H224569   0.445   0.391   1.447  1.4913  2.1434  0.4163
 1004TIP3   OH224570   3.018   3.054   2.177 -0.1213 -0.0452 -0.2881
 1004TIP3    H124571   3.082   2.987   2.153 -1.3109 -1.7347  1.0250
 1004TIP3    H224572   3.049   3.088   2.261 -1.8487 -2.3067  1.4050
 1005TIP3   OH224573   2.086   0.521   0.710  0.2261  0.4855 -0.3031
 1005TIP3    H124574   1.998   0.556   0.719  0.3033  0.4105  0.8480
 1005TIP3    H224575   2.074   0.429   0.685  0.0165  0.9686 -2.1543
 1006TIP3   OH224576   5.299   4.804   1.550 -0.0551 -0.0527  0.4023
 1006TIP3    H124577   5.387   4.771   1.571  0.4776 -0.1612 -1.7173
 1006TIP3    H224578   5.244   4.726   1.551  0.1074 -0.1650  0.6536
 1007TIP3   OH224579   5.745   0.066   0.405 -0.1249  0.3605  0.6019
 1007TIP3    H124580   5.741  -0.016   0.455 -0.1961  0.1699  0.2832
 1007TIP3    H224581   5.721   0.041   0.316 -0.8843  0.8665  0.6608
 1008TIP3   OH224582   2.123   1.010   0.489  0.1616 -0.4768 -0.1868
 1008TIP3    H124583   2.152   1.004   0.398  0.4670 -0.3922 -0.0962
 1008TIP3    H224584   2.146   0.925   0.527  0.9679 -0.1495  0.0781
 1009TIP3   OH224585   1.713   6.313   3.027 -0.0810 -0.1933  0.3170
 1009TIP3    H124586   1.698   6.407   3.034 -1.5340 -0.1087 -2.3815
 1009TIP3    H224587   1.626   6.275   3.018  0.5688 -1.4826 -1.0832
 1010TIP3   OH224588   6.644   0.425   0.887 -0.2776 -0.1720 -0.6854
 1010TIP3    H124589   6.698   0.371   0.945  0.4770  1.0778 -0.2037
 1010TIP3    H224590   6.682   0.412   0.800  0.2607  0.0353 -0.4800
 1011TIP3   OH224591   3.067   0.703   2.545 -0.6693  0.0302 -0.1491
 1011TIP3    H124592   3.107   0.708   2.632 -0.8047 -0.6630 -0.0456
 1011TIP3    H224593   3.062   0.610   2.526  0.5256  0.1987 -1.4416
 1012TIP3   OH224594   5.942   2.915   8.203  0.0995 -0.5464 -0.4148
 1012TIP3    H124595   5.928   2.925   8.109 -0.8817  0.8782 -0.1490
 1012TIP3    H224596   5.978   2.827   8.212  0.2001 -0.7263 -2.1144
 1013TIP3   OH224597   6.657   0.658   1.667 -0.0127  0.2775  0.3423
 1013TIP3    H124598   6.710   0.583   1.695  0.8468  0.5993 -0.3563
 1013TIP3    H224599   6.692   0.681   1.581 -1.5269  0.3090 -0.2955
 1014TIP3   OH224600   4.517   3.742   8.101 -0.5783  0.6573  0.1277
 1014TIP3    H124601   4.570   3.678   8.053 -1.5057 -0.0143 -0.0215
 1014TIP3    H224602   4.558   3.826   8.081 -0.0632  0.2392 -0.6453
 1015TIP3   OH224603   3.319   0.659   8.585 -0.3759  0.0128  0.1833
 1015TIP3    H124604   3.297   0.684   8.495  0.6872 -1.2766 -0.4705
 1015TIP3    H224605   3.382   0.588   8.575  1.5947  1.3872  1.9482
 1016TIP3   OH224606   3.097   5.687   2.680 -0.5151 -0.3584  0.7398
 1016TIP3    H124607   3.057   5.684   2.766 -0.6972 -1.0696  0.6309
 1016TIP3    H224608   3.191   5.691   2.697 -0.5084 -1.2915  0.9662
 1017TIP3   OH224609   0.938   6.077   1.825  0.0239 -0.0544 -0.7866
 1017TIP3    H124610   1.031   6.100   1.827 -0.4002  1.7279  0.4373
 1017TIP3    H224611   0.915   6.078   1.732  1.4401 -1.6224 -1.2062
 1018TIP3   OH224612   3.840   6.136   6.892  0.0929 -0.1008 -0.1391
 1018TIP3    H124613   3.875   6.185   6.966 -0.2923  0.3201 -0.2301
 1018TIP3    H224614   3.746   6.156   6.892  0.4284  1.8885 -2.1767
 1019TIP3   OH224615   0.490   6.148   2.395  0.6788  0.0848 -0.3409
 1019TIP3    H124616   0.414   6.201   2.373 -0.3922 -0.5960  1.4330
 1019TIP3    H224617   0.454   6.060   2.407  1.9080 -0.4299 -0.3024
 1020TIP3   OH224618   6.269   5.714   1.086 -0.4817  0.4996 -0.2821
 1020TIP3    H124619   6.280   5.809   1.097 -1.4586  0.3686  3.2712
 1020TIP3    H224620   6.189   5.706   1.034 -0.3501  1.6204 -0.6964
 1021TIP3   OH224621   5.926   4.148   0.763  0.3446  0.3177  0.2574
 1021TIP3    H124622   5.990   4.090   0.805  1.1677  1.4916  0.6889
 1021TIP3    H224623   5.958   4.236   0.783 -1.2569  0.9342  0.2236
 1022TIP3   OH224624   4.302   5.708   0.111  0.1112 -0.4649 -0.2850
 1022TIP3    H124625   4.292   5.797   0.146 -2.8491  0.2887 -2.6473
 1022TIP3    H224626   4.321   5.721   0.018  0.5065 -2.3416 -0.4979
 1023TIP3   OH224627   0.943   4.917   2.181 -0.3670 -0.0745 -0.7362
 1023TIP3    H124628   0.919   4.860   2.253  1.3274  0.3203  0.2004
 1023TIP3    H224629   1.037   4.932   2.192 -0.5264  1.9376 -1.6149
 1024TIP3   OH224630   3.970   5.469   2.399  0.0390  0.0573  0.5285
 1024TIP3    H124631   3.904   5.492   2.334 -0.9273 -0.2543  1.3671
 1024TIP3    H224632   3.921   5.464   2.482  0.8887 -1.3289  0.9767
 1025TIP3   OH224633   1.405   5.988   8.223 -0.3376  0.0285  0.4133
 1025TIP3    H124634   1.317   6.008   8.190  0.2671  1.3079 -0.5361
 1025TIP3    H224635   1.398   5.995   8.318 -0.9173  1.6982  0.2714
 1026TIP3   OH224636   3.372   3.938   7.392 -0.0768 -0.0533 -0.3744
 1026TIP3    H124637   3.295   3.963   7.340  0.3202  0.1030 -0.9058
 1026TIP3    H224638   3.425   3.886   7.332  0.6599  0.5986 -0.3124
 1027TIP3   OH224639   5.270   5.936   1.814  0.2976  0.0932 -0.3573
 1027TIP3    H124640   5.294   6.019   1.773  0.0626 -0.1106 -0.9266
 1027TIP3    H224641   5.201   5.901   1.758 -0.0077 -0.2153  0.2002
 1028TIP3   OH224642   4.604   0.188   1.547  0.4174 -0.4982  0.0247
 1028TIP3    H124643   4.634   0.147   1.628  1.8471 -2.3021 -1.3130
 1028TIP3    H224644   4.682   0.230   1.511 -0.1497  0.1245 -0.4960
 1029TIP3   OH224645   2.454   1.273   1.242 -0.8138  0.0064 -0.8291
 1029TIP3    H124646   2.362   1.288   1.220 -0.6637 -1.7050 -3.0055
 1029TIP3    H224647   2.490   1.228   1.166  1.3384 -1.2214  0.7838
 1030TIP3   OH224648   0.687   3.870   8.393 -0.0651 -0.1619 -0.4657
 1030TIP3    H124649   0.718   3.781   8.409 -1.7706 -0.8759 -0.8480
 1030TIP3    H224650   0.749   3.906   8.329 -0.5511 -1.8769 -1.9964
 1031TIP3   OH224651   1.619   5.089   0.889 -0.4809 -0.6835 -0.1511
 1031TIP3    H124652   1.620   5.108   0.983 -0.3417  0.7395 -0.4248
 1031TIP3    H224653   1.561   5.013   0.881 -0.5868 -0.7524  1.0722
 1032TIP3   OH224654   2.302   2.372   7.366  0.1479  0.0676 -0.5064
 1032TIP3    H124655   2.252   2.298   7.332 -0.1201 -0.2634  0.5727
 1032TIP3    H224656   2.304   2.435   7.294 -0.8734 -0.3757 -0.9372
 1033TIP3   OH224657   1.040   1.195   0.736 -0.0504  0.3397  0.2397
 1033TIP3    H124658   1.123   1.147   0.728 -0.3325 -0.1364  0.1123
 1033TIP3    H224659   0.991   1.147   0.803 -0.1691  0.6953  0.4069
 1034TIP3   OH224660   0.682   2.973   0.603 -0.0955 -0.1687  0.1957
 1034TIP3    H124661   0.652   2.911   0.669 -0.0392 -1.2901 -0.8159
 1034TIP3    H224662   0.777   2.976   0.614  0.0047 -1.0267 -0.4084
 1035TIP3   OH224663   1.352   4.105   7.882 -0.3321  0.0920  0.3418
 1035TIP3    H124664   1.427   4.164   7.885  0.6065 -1.0998  1.7048
 1035TIP3    H224665   1.335   4.082   7.974 -2.0724 -0.0545  0.0326
 1036TIP3   OH224666   2.278   2.158   2.451 -0.0395  0.2228  0.2383
 1036TIP3    H124667   2.210   2.223   2.434  0.3258  0.2359 -1.3769
 1036TIP3    H224668   2.347   2.178   2.387  1.5141  0.2149  1.8195
 1037TIP3   OH224669   4.881   5.573   1.023 -0.3138  0.6284 -0.2480
 1037TIP3    H124670   4.935   5.650   1.040 -2.3441  2.7296 -2.5473
 1037TIP3    H224671   4.853   5.545   1.111  1.8193  1.4069  0.7605
 1038TIP3   OH224672   5.457   0.383   8.536  0.1740  0.2385 -0.6092
 1038TIP3    H124673   5.425   0.415   8.621  1.2495  0.9291 -0.4400
 1038TIP3    H224674   5.551   0.369   8.550  0.1169 -0.9410 -1.3125
 1039TIP3   OH224675   1.413   0.635   1.722  0.1359 -0.1464  0.4772
 1039TIP3    H124676   1.370   0.612   1.804  0.7142 -0.8175  0.5987
 1039TIP3    H224677   1.389   0.564   1.662 -0.1081  0.2284  0.1188
 1040TIP3   OH224678   2.975   1.982   8.825  0.0138  0.2430 -0.5913
 1040TIP3    H124679   3.055   2.022   8.792  1.3464 -1.1383  0.7449
 1040TIP3    H224680   2.943   2.043   8.892  0.3089  0.5102 -0.6929
 1041TIP3   OH224681   4.478   5.156   1.664 -0.4503  0.0858 -0.2968
 1041TIP3    H124682   4.572   5.153   1.681 -0.0710  0.6367 -2.0984
 1041TIP3    H224683   4.438   5.132   1.748  1.1886  3.0277  1.5311
 1042TIP3   OH224684   5.807   2.308   1.727 -0.2679  0.0344  0.3162
 1042TIP3    H124685   5.850   2.344   1.649 -2.6563  1.9289 -0.2643
 1042TIP3    H224686   5.762   2.230   1.695  0.3920 -0.3450  0.2914
 1043TIP3   OH224687   3.176   1.384   2.577  0.2094  0.4096  0.0293
 1043TIP3    H124688   3.212   1.372   2.489 -1.4811 -0.2189 -0.6067
 1043TIP3    H224689   3.120   1.461   2.570 -1.3043 -0.6520  0.0775
 1044TIP3   OH224690   6.548   2.214   1.420 -0.8151 -0.6289 -0.0454
 1044TIP3    H124691   6.456   2.226   1.399 -1.5682 -0.6961  2.8238
 1044TIP3    H224692   6.548   2.167   1.503  1.7650  0.9045  0.9340
 1045TIP3   OH224693   2.308   4.031   7.808  0.0495 -0.2652 -0.0639
 1045TIP3    H124694   2.358   4.091   7.863  0.4542  0.3294 -1.0594
 1045TIP3    H224695   2.345   3.945   7.826 -1.6147 -0.5296  2.6216
 1046TIP3   OH224696   6.135   1.090   7.566  0.1670  0.1843  0.1483
 1046TIP3    H124697   6.224   1.054   7.568 -1.0776 -3.5580  5.0100
 1046TIP3    H224698   6.133   1.152   7.639 -1.2069  0.3717 -0.0235
 1047TIP3   OH224699   5.351   4.126   0.613 -0.5201  0.0828  0.2265
 1047TIP3    H124700   5.257   4.123   0.632 -0.7450 -2.5157 -0.9016
 1047TIP3    H224701   5.390   4.160   0.693 -2.4198  1.5110  0.6209
 1048TIP3   OH224702   1.141   3.861   2.681  0.3742  0.6029 -0.2703
 1048TIP3    H124703   1.051   3.892   2.690  0.2232  0.6009 -1.5988
 1048TIP3    H224704   1.136   3.767   2.701  0.0225  0.5503 -0.5828
 1049TIP3   OH224705   3.793   5.773   0.470  0.0668  0.1222 -0.1586
 1049TIP3    H124706   3.772   5.805   0.383  0.7371 -0.7181 -0.6478
 1049TIP3    H224707   3.889   5.777   0.476 -0.0080  0.8774  0.8255
 1050TIP3   OH224708   2.422   4.216   8.427  0.1156 -0.4673  1.0163
 1050TIP3    H124709   2.507   4.203   8.469  0.2276 -0.5789  0.7539
 1050TIP3    H224710   2.415   4.311   8.416  0.2739 -0.4719  0.8910
 1051TIP3   OH224711   0.836   2.180   2.231  0.1009  0.5690  0.3906
 1051TIP3    H124712   0.918   2.200   2.276  0.0202 -0.8956  1.2642
 1051TIP3    H224713   0.825   2.085   2.243 -1.4873  0.6635 -0.0881
 1052TIP3   OH224714   3.386   0.436   2.761  0.9007 -0.0054 -0.0903
 1052TIP3    H124715   3.447   0.437   2.687  0.4793 -0.9149 -0.4696
 1052TIP3    H224716   3.323   0.367   2.739  0.7197 -0.2335  1.0783
 1053TIP3   OH224717   4.299   3.192   1.711 -0.8376 -0.0237  0.0852
 1053TIP3    H124718   4.222   3.174   1.763  0.7384 -1.9373  1.9263
 1053TIP3    H224719   4.315   3.286   1.724 -1.8117  0.0147  1.1502
 1054TIP3   OH224720   6.642   5.913   0.440 -0.2716 -0.4276  0.1893
 1054TIP3    H124721   6.646   5.847   0.509  0.2198  0.2399  0.8135
 1054TIP3    H224722   6.723   5.964   0.450 -0.7081  0.3618 -0.1811
 1055TIP3   OH224723   5.518   2.721   0.424  0.1383  0.1696  0.0741
 1055TIP3    H124724   5.473   2.804   0.405 -0.2808  0.0075  0.3440
 1055TIP3    H224725   5.611   2.740   0.407 -0.1087  0.2972 -1.1991
 1056TIP3   OH224726   5.318   5.441   1.926  0.1649  0.3576 -0.2600
 1056TIP3    H124727   5.346   5.533   1.933 -0.6449  0.6513 -0.7740
 1056TIP3    H224728   5.224   5.446   1.913  0.2215 -0.5134 -1.1253
 1057TIP3   OH224729   3.465   2.329   0.578 -0.6465 -0.1971 -0.0134
 1057TIP3    H124730   3.456   2.424   0.584 -1.3919 -0.1939 -0.9876
 1057TIP3    H224731   3.378   2.295   0.599 -0.5888 -0.6256 -0.4567
 1058TIP3   OH224732   3.988   1.935   1.993 -0.0168  0.2569 -0.2531
 1058TIP3    H124733   3.964   1.996   2.063 -1.6998 -0.8058  0.1644
 1058TIP3    H224734   3.983   1.988   1.913  1.9761  1.5031  0.3733
 1059TIP3   OH224735   4.537   3.132   7.713 -0.5398  0.1810 -0.4299
 1059TIP3    H124736   4.474   3.202   7.701  0.1557  0.8067 -0.5365
 1059TIP3    H224737   4.622   3.173   7.698  0.1793  0.1484  2.8312
 1060TIP3   OH224738   5.210   2.040   8.472  0.1683  0.3001  0.4099
 1060TIP3    H124739   5.299   2.010   8.455  1.2363  1.8849  2.6204
 1060TIP3    H224740   5.213   2.074   8.562 -2.5661  0.8128  0.3987
 1061TIP3   OH224741   6.632   4.309   0.752 -0.4861 -0.2451 -0.7429
 1061TIP3    H124742   6.682   4.245   0.802 -0.6062  0.6545  0.5942
 1061TIP3    H224743   6.696   4.352   0.696  0.4380  1.2691  1.3366
 1062TIP3   OH224744   5.435   1.287   7.537 -0.2774  0.9887  0.9494
 1062TIP3    H124745   5.426   1.362   7.596 -1.0066  0.7712  1.1262
 1062TIP3    H224746   5.375   1.221   7.573 -0.6316  0.8047  0.0462
 1063TIP3   OH224747   4.506   4.060   7.833 -0.7137 -0.4955 -0.0879
 1063TIP3    H124748   4.544   3.974   7.814 -0.1142 -0.4388  0.7777
 1063TIP3    H224749   4.438   4.042   7.897 -0.6227 -0.3334  0.0543
 1064TIP3   OH224750   6.215   4.726   7.191 -0.5048  0.1707 -0.1839
 1064TIP3    H124751   6.260   4.800   7.232  0.7660  0.2649 -1.6639
 1064TIP3    H224752   6.134   4.764   7.156 -0.5143  0.5681  0.2650
 1065TIP3   OH224753   3.160   1.417   8.122 -0.2578  0.2500  0.3374
 1065TIP3    H124754   3.076   1.461   8.136 -0.4881 -0.3911  1.0150
 1065TIP3    H224755   3.218   1.453   8.190  0.2925  1.3411 -0.6669
 1066TIP3   OH224756   0.677   0.082   0.972 -0.8548  0.4583  0.3071
 1066TIP3    H124757   0.645   0.016   1.034 -1.4128  0.6636  0.2398
 1066TIP3    H224758   0.773   0.074   0.976 -0.9004  0.1326  0.8257
 1067TIP3   OH224759   2.423   3.511   2.314 -0.1718 -0.2115  0.6136
 1067TIP3    H124760   2.386   3.541   2.396  1.6512  1.8080  0.8091
 1067TIP3    H224761   2.397   3.578   2.250  0.0133 -0.7489 -0.0382
 1068TIP3   OH224762   0.575   3.763   8.785  0.3823 -0.2604 -0.1766
 1068TIP3    H124763   0.523   3.840   8.764 -1.2292 -1.6335 -1.4828
 1068TIP3    H224764   0.655   3.798   8.825  0.0193  2.1011 -1.3661
 1069TIP3   OH224765   0.093   2.593   1.890  0.2157 -0.2909 -0.0809
 1069TIP3    H124766   0.178   2.622   1.857  1.0167 -2.3971 -0.0154
 1069TIP3    H224767   0.029   2.628   1.828  1.3539 -0.7415 -1.5546
 1070TIP3   OH224768   5.654   4.004   8.322  0.5010  0.1947  0.0891
 1070TIP3    H124769   5.615   3.917   8.318  0.1148  0.4045 -0.8418
 1070TIP3    H224770   5.602   4.057   8.262  1.0765  0.9353  0.2297
 1071TIP3   OH224771   2.926   1.969   1.234 -0.2602 -0.3418  0.4780
 1071TIP3    H124772   2.972   2.042   1.276  1.0701  0.0629 -1.5628
 1071TIP3    H224773   2.887   2.007   1.156 -4.2083 -0.6815  2.0480
 1072TIP3   OH224774   0.630   6.529   0.052 -0.5329  0.5119 -0.3168
 1072TIP3    H124775   0.615   6.439   0.083 -3.1754  0.7951 -0.5585
 1072TIP3    H224776   0.679   6.518  -0.029 -1.4729 -0.7742 -0.7349
 1073TIP3   OH224777   5.270   0.443   7.914 -0.0698  0.3992  0.1272
 1073TIP3    H124778   5.240   0.477   7.830  0.0196 -0.6959 -0.3729
 1073TIP3    H224779   5.278   0.349   7.900 -1.6150 -0.0478  1.8384
 1074TIP3   OH224780   5.970   5.300   0.096 -0.3310 -0.0075  0.6149
 1074TIP3    H124781   5.874   5.308   0.098 -0.2856  0.8569 -0.0494
 1074TIP3    H224782   6.001   5.377   0.144  0.0372 -0.5554  1.2815
 1075TIP3   OH224783   1.888   1.152   1.130  0.4890  0.3334 -0.1199
 1075TIP3    H124784   1.935   1.069   1.129  1.9302  1.0769  1.4885
 1075TIP3    H224785   1.880   1.176   1.038  0.4568 -1.3506 -0.5808
 1076TIP3   OH224786   2.598   0.674   0.260  0.6413  0.1641 -0.6345
 1076TIP3    H124787   2.525   0.653   0.201 -0.4059  0.2383  0.5773
 1076TIP3    H224788   2.636   0.590   0.283 -2.7983 -0.6470  3.2753
 1077TIP3   OH224789   4.300   1.822   0.621  0.1615  0.4460  0.4233
 1077TIP3    H124790   4.339   1.908   0.603 -2.0724  1.9820  2.3067
 1077TIP3    H224791   4.353   1.786   0.693  1.5132 -0.1392 -0.8041
 1078TIP3   OH224792   1.767   3.943   2.268  0.5926 -0.1878  0.3189
 1078TIP3    H124793   1.677   3.910   2.274  0.1491  1.1655  3.0034
 1078TIP3    H224794   1.799   3.941   2.359  2.3318  1.7889 -0.1683
 1079TIP3   OH224795   0.685   0.149   2.020  0.2774 -0.0997 -0.8368
 1079TIP3    H124796   0.722   0.175   2.105  0.4988 -2.3566 -0.1715
 1079TIP3    H224797   0.711   0.058   2.010  1.2615  0.4186 -3.9468
 1080TIP3   OH224798   1.089   5.815   0.499 -0.0857 -0.1785  0.0187
 1080TIP3    H124799   1.064   5.802   0.408 -1.3125 -0.9300  0.4449
 1080TIP3    H224800   1.015   5.861   0.539  0.5311  0.3424  0.6012
 1081TIP3   OH224801   0.090   1.864   8.435 -0.3799 -0.0720 -0.5796
 1081TIP3    H124802   0.020   1.919   8.398  0.3277  2.4652  1.5391
 1081TIP3    H224803   0.055   1.833   8.518 -0.1943 -1.6904 -1.0682
 1082TIP3   OH224804   6.275   5.859   6.959  0.0191  0.3234  0.3815
 1082TIP3    H124805   6.319   5.804   6.894 -0.6175  0.7243 -0.4105
 1082TIP3    H224806   6.240   5.797   7.023  2.2002  0.0336  1.3551
 1083TIP3   OH224807   5.356   1.871   2.630  0.4816 -0.9055  0.0695
 1083TIP3    H124808   5.347   1.937   2.560  1.3072  0.4706  1.2044
 1083TIP3    H224809   5.436   1.823   2.607  1.8238  0.7889  0.9923
 1084TIP3   OH224810   3.676   2.961   0.609 -0.0614 -0.0315 -0.1098
 1084TIP3    H124811   3.592   2.916   0.601  0.4399 -1.0835  0.3263
 1084TIP3    H224812   3.654   3.054   0.608 -1.2620 -0.2944  0.3583
 1085TIP3   OH224813   0.512   5.821   8.696 -0.0839  0.2265  0.1149
 1085TIP3    H124814   0.559   5.742   8.723 -0.1729  0.4836  1.0310
 1085TIP3    H224815   0.573   5.892   8.713 -0.1312  0.3925 -0.3952
 1086TIP3   OH224816   3.027   5.470   8.196 -0.0812 -0.5278 -0.2570
 1086TIP3    H124817   3.008   5.564   8.194 -0.0835 -0.5253 -0.1394
 1086TIP3    H224818   3.092   5.457   8.127  0.6387 -0.2746  0.3538
 1087TIP3   OH224819   4.013   5.349   8.069  0.0053 -0.2493  0.0627
 1087TIP3    H124820   4.028   5.320   8.159 -0.6443 -0.2250  0.1778
 1087TIP3    H224821   4.078   5.299   8.017 -0.7253 -1.5183  0.3201
 1088TIP3   OH224822   1.383   0.372   1.592 -0.6298 -0.1865  0.9406
 1088TIP3    H124823   1.291   0.363   1.568 -0.8365  0.5383  1.4235
 1088TIP3    H224824   1.425   0.294   1.555 -0.9364  0.7736 -1.6559
 1089TIP3   OH224825   5.623   4.538   8.458 -0.2349  0.1354  0.2146
 1089TIP3    H124826   5.622   4.512   8.365 -2.1189 -0.8383  0.4498
 1089TIP3    H224827   5.559   4.608   8.464 -2.1795 -1.6241  1.1827
 1090TIP3   OH224828   3.391   0.523   2.460 -0.2763  0.1563  0.1596
 1090TIP3    H124829   3.480   0.490   2.471 -0.5622 -0.5485  0.3910
 1090TIP3    H224830   3.387   0.548   2.367  0.4141  0.9848  0.3375
 1091TIP3   OH224831   5.194   4.724   7.757 -0.1488  0.7939  0.0283
 1091TIP3    H124832   5.103   4.751   7.764 -0.2038  0.2763  1.6255
 1091TIP3    H224833   5.231   4.738   7.844  1.3384  1.0825 -0.6091
 1092TIP3   OH224834   5.345   1.751   0.574  0.3766 -0.5938 -0.5354
 1092TIP3    H124835   5.367   1.660   0.595 -0.5232 -0.8101 -0.4914
 1092TIP3    H224836   5.304   1.746   0.487 -2.9157 -0.7437  0.8820
 1093TIP3   OH224837   2.534   2.604   7.644 -1.1741  0.5551  0.3121
 1093TIP3    H124838   2.584   2.685   7.631 -2.1519  1.2173  0.5755
 1093TIP3    H224839   2.601   2.535   7.645 -0.2115  1.4579  1.1283
 1094TIP3   OH224840   2.657   5.195   8.703 -0.1815  0.0377 -0.0843
 1094TIP3    H124841   2.661   5.258   8.631 -0.6288  0.5595  0.3394
 1094TIP3    H224842   2.580   5.222   8.754  1.9022  1.7223  2.4384
 1095TIP3   OH224843   5.817   0.975   2.086 -0.2938 -0.1746 -0.0589
 1095TIP3    H124844   5.840   1.038   2.017 -0.5052  0.1139  0.1329
 1095TIP3    H224845   5.727   0.997   2.109  0.6305  1.6185  2.3129
 1096TIP3   OH224846   5.518   3.479   7.703 -0.0812 -0.1476  0.1923
 1096TIP3    H124847   5.601   3.496   7.659  1.5470 -0.8615  2.7365
 1096TIP3    H224848   5.452   3.483   7.634  1.9091  1.6111 -1.7343
 1097TIP3   OH224849   4.363   2.814   2.265  0.2156  0.1579  0.1734
 1097TIP3    H124850   4.327   2.726   2.267  0.6505 -0.0329 -0.2787
 1097TIP3    H224851   4.418   2.819   2.343  1.5490 -0.5661 -0.6892
 1098TIP3   OH224852   2.565   4.101   2.257 -0.1769 -0.1149 -0.0478
 1098TIP3    H124853   2.557   4.060   2.343 -0.4606  0.5189  0.2338
 1098TIP3    H224854   2.651   4.142   2.257 -0.1972 -0.0725 -0.0495
 1099TIP3   OH224855   1.246   3.369   2.790 -0.1589 -0.0250  0.1049
 1099TIP3    H124856   1.323   3.416   2.757  0.0588  1.0458  1.9912
 1099TIP3    H224857   1.280   3.284   2.817 -0.0459 -0.3064 -0.8603
 1100TIP3   OH224858   1.625   6.401   2.668  0.0455 -0.2367  0.8001
 1100TIP3    H124859   1.535   6.378   2.692 -0.0886  0.5987  1.1248
 1100TIP3    H224860   1.678   6.330   2.705 -0.1067  1.1239  4.0191
 1101TIP3   OH224861   4.820   6.101   0.493 -0.2275 -0.3676 -0.0705
 1101TIP3    H124862   4.818   6.132   0.584 -0.4114  1.5074 -0.6621
 1101TIP3    H224863   4.792   6.010   0.498  2.1783 -1.1283  2.0263
 1102TIP3   OH224864   4.008   4.141   8.466 -0.1848 -0.1193  0.4397
 1102TIP3    H124865   3.930   4.165   8.416  0.0869  1.2133  0.6125
 1102TIP3    H224866   3.973   4.106   8.548 -0.6273  0.6393  0.5914
 1103TIP3   OH224867   6.168   4.286   0.649  0.6568 -0.2135 -0.1965
 1103TIP3    H124868   6.181   4.282   0.554 -0.1373 -0.5611 -0.2965
 1103TIP3    H224869   6.256   4.273   0.686  0.8774 -0.7046 -0.8728
 1104TIP3   OH224870   3.221   5.521   8.006  0.4672 -0.1068  0.4510
 1104TIP3    H124871   3.287   5.476   8.059 -0.1414 -2.3864 -0.6092
 1104TIP3    H224872   3.190   5.455   7.944 -1.5710  1.3741 -0.2441
 1105TIP3   OH224873   4.857   5.969   1.977 -0.4174 -0.1222 -0.5179
 1105TIP3    H124874   4.861   6.053   2.024 -3.1707 -0.3311  0.2236
 1105TIP3    H224875   4.855   5.903   2.046  1.4977 -0.8409 -1.0988
 1106TIP3   OH224876   6.247   1.917   2.562  0.2488  0.2499  0.4972
 1106TIP3    H124877   6.330   1.882   2.533  0.2410  1.0345 -0.5189
 1106TIP3    H224878   6.267   1.962   2.644  0.0750 -2.8981  2.4208
 1107TIP3   OH224879   4.792   6.160   0.764  0.0699 -0.4521  0.0264
 1107TIP3    H124880   4.724   6.150   0.831 -0.2239  0.5724 -0.1021
 1107TIP3    H224881   4.816   6.253   0.768  1.2399 -0.7318 -0.1537
 1108TIP3   OH224882   1.462   4.650   0.256 -0.4228  0.0702  0.7572
 1108TIP3    H124883   1.536   4.619   0.309  0.1071  1.8076  1.1170
 1108TIP3    H224884   1.461   4.745   0.270 -2.3391  0.1674  0.2464
 1109TIP3   OH224885   3.240   2.218   2.510 -0.2105 -0.3357 -0.2089
 1109TIP3    H124886   3.201   2.180   2.432 -1.2165 -1.1006  0.6315
 1109TIP3    H224887   3.251   2.144   2.570 -0.4572  0.3907  0.7710
 1110TIP3   OH224888   5.782   2.949   1.531  0.4994  0.2336 -0.5516
 1110TIP3    H124889   5.811   3.016   1.593 -2.2599  1.6438 -0.6523
 1110TIP3    H224890   5.780   2.868   1.583  1.3438  0.7301  0.2893
 1111TIP3   OH224891   6.170   3.967   1.427 -0.0756 -0.3064 -0.0175
 1111TIP3    H124892   6.084   4.007   1.423  0.5040  0.9062 -0.6801
 1111TIP3    H224893   6.219   4.021   1.490  1.0985  0.8628 -1.8517
 1112TIP3   OH224894   0.834   2.422   8.689  0.6556  0.7527  0.4108
 1112TIP3    H124895   0.744   2.431   8.721  0.4882  0.8443 -0.0765
 1112TIP3    H224896   0.826   2.369   8.609  0.9517  1.3435 -0.0144
 1113TIP3   OH224897   2.345   1.261   8.359  0.0035 -0.1225 -0.2460
 1113TIP3    H124898   2.333   1.172   8.326  0.1823 -1.3049  2.6155
 1113TIP3    H224899   2.259   1.303   8.348  0.0796 -0.3617 -2.1754
 1114TIP3   OH224900   6.053   5.986   1.242 -0.2648 -0.2416 -0.1423
 1114TIP3    H124901   5.959   5.999   1.229 -0.1668  0.2912 -0.3247
 1114TIP3    H224902   6.065   5.992   1.337 -0.3536  0.1172 -0.1523
 1115TIP3   OH224903   2.233   2.643   2.416 -0.0175 -0.2904  0.1869
 1115TIP3    H124904   2.139   2.661   2.413  0.3659  2.0862  0.4856
 1115TIP3    H224905   2.258   2.631   2.324 -0.3773  0.6115 -0.0406
 1116TIP3   OH224906   5.716   5.663   1.972 -0.4164  0.3877  0.7462
 1116TIP3    H124907   5.656   5.737   1.985 -0.2169  0.6214  0.3479
 1116TIP3    H224908   5.660   5.591   1.945 -1.0177 -0.4054  3.6925
 1117TIP3   OH224909   0.453   3.520   1.373 -0.8397 -0.6305 -0.5455
 1117TIP3    H124910   0.364   3.500   1.343 -0.7776 -1.9705  0.1176
 1117TIP3    H224911   0.450   3.505   1.468 -0.3395  0.9842 -0.2364
 1118TIP3   OH224912   4.602   2.432   0.527 -0.1969  0.0619  0.5625
 1118TIP3    H124913   4.507   2.439   0.527 -0.1624  0.5987  0.1902
 1118TIP3    H224914   4.633   2.521   0.510  0.3078 -0.6205 -2.8217
 1119TIP3   OH224915   6.551   3.382   7.554  0.4569 -0.5945 -0.3427
 1119TIP3    H124916   6.546   3.286   7.551 -0.8265 -0.5462 -2.9036
 1119TIP3    H224917   6.596   3.406   7.473  0.2935  0.9977  0.0084
 1120TIP3   OH224918   6.071   2.400   8.911 -0.3104  0.2172 -0.6812
 1120TIP3    H124919   6.100   2.383   9.000  0.8669 -1.4681 -1.3270
 1120TIP3    H224920   6.024   2.483   8.916 -0.4016  0.0832  1.5125
 1121TIP3   OH224921   3.364   5.029   0.700 -0.4989  0.0426 -0.2382
 1121TIP3    H124922   3.321   4.959   0.748  0.4189 -1.9947 -2.1734
 1121TIP3    H224923   3.451   4.995   0.680  0.5495  2.3755  0.0301
 1122TIP3   OH224924   4.032   4.997   0.865 -0.5179  0.3415 -0.1034
 1122TIP3    H124925   3.970   4.946   0.916  0.8719 -1.2294  0.1431
 1122TIP3    H224926   4.117   4.955   0.882  0.1020  0.1144 -3.1862
 1123TIP3   OH224927   3.603   1.647   0.272 -0.0011 -0.6090  0.0067
 1123TIP3    H124928   3.509   1.648   0.286  0.1577  1.8348  1.5152
 1123TIP3    H224929   3.617   1.712   0.202  0.5636 -1.0175 -0.2651
 1124TIP3   OH224930   5.944   2.761   1.120  0.0761  0.4907  0.2313
 1124TIP3    H124931   5.972   2.760   1.212 -0.5420  1.2994  0.4368
 1124TIP3    H224932   6.001   2.825   1.078 -0.6685  1.2736  0.3967
 1125TIP3   OH224933   6.574   4.694   0.439  0.4396  0.1566 -0.4792
 1125TIP3    H124934   6.553   4.605   0.466 -0.6091 -0.3618 -2.7726
 1125TIP3    H224935   6.658   4.713   0.480  1.0885 -2.2030 -0.6079
 1126TIP3   OH224936   6.359   3.020   8.728 -0.3170 -0.9482  0.1456
 1126TIP3    H124937   6.360   3.076   8.805 -0.8884 -0.7681  0.0254
 1126TIP3    H224938   6.347   3.080   8.654 -0.8330 -1.2171  0.0075
 1127TIP3   OH224939   3.144   6.031   0.921  0.5081  0.4530  0.6494
 1127TIP3    H124940   3.202   5.994   0.989 -0.1930  1.4219  1.8167
 1127TIP3    H224941   3.061   5.985   0.934  0.7233 -0.2605 -0.4070
 1128TIP3   OH224942   5.488   3.516   7.969 -0.2131  0.4603 -0.7721
 1128TIP3    H124943   5.393   3.527   7.976 -0.0621  2.1753 -0.8346
 1128TIP3    H224944   5.503   3.500   7.875 -0.5615 -1.8346 -0.4918
 1129TIP3   OH224945   4.985   4.298   7.418  0.2493 -0.1792 -0.6549
 1129TIP3    H124946   4.894   4.268   7.425  0.4692 -1.1431 -1.6238
 1129TIP3    H224947   5.035   4.218   7.403  1.4766  0.1305  1.3983
 1130TIP3   OH224948   6.749   2.961   1.370  0.4151  0.2349 -0.3064
 1130TIP3    H124949   6.838   2.977   1.399 -0.6495  1.3409  2.7486
 1130TIP3    H224950   6.744   2.867   1.357  1.7522  0.0190  0.5815
 1131TIP3   OH224951   0.643   5.226   2.428  0.3501  0.0916 -0.1299
 1131TIP3    H124952   0.634   5.184   2.342  0.9690  2.2624 -1.3355
 1131TIP3    H224953   0.557   5.217   2.469  0.2850 -1.7219 -0.6008
 1132TIP3   OH224954   6.570   5.961   0.142  0.8687  0.0196 -0.2039
 1132TIP3    H124955   6.606   5.910   0.215  2.3496  2.0513  0.5736
 1132TIP3    H224956   6.607   5.921   0.064 -0.7597 -2.2113  0.0553
 1133TIP3   OH224957   4.837   6.558   8.861  0.2953 -0.1491 -0.4299
 1133TIP3    H124958   4.858   6.622   8.929 -0.7971 -0.0529 -0.1655
 1133TIP3    H224959   4.768   6.600   8.810  1.7542  0.1883 -2.2194
 1134TIP3   OH224960   2.546   4.686   7.795  0.0863  0.2090  0.3304
 1134TIP3    H124961   2.557   4.590   7.795  0.9770  0.2993 -0.4162
 1134TIP3    H224962   2.632   4.720   7.770  0.1281  1.2621  1.7822
 1135TIP3   OH224963   6.576   5.596   2.639  0.3917  0.7513  0.3669
 1135TIP3    H124964   6.639   5.642   2.694  0.3853  0.7958  0.3373
 1135TIP3    H224965   6.588   5.504   2.661  0.9194  0.6981 -0.1097
 1136TIP3   OH224966   6.020   0.128   2.070 -0.0697  0.2745 -0.0767
 1136TIP3    H124967   5.935   0.088   2.051  0.1219  0.6496 -1.8102
 1136TIP3    H224968   6.080   0.054   2.077 -0.7007 -0.1136  2.5037
 1137TIP3   OH224969   1.985   2.380   0.508 -0.1880  0.0794 -0.2681
 1137TIP3    H124970   1.902   2.420   0.483 -0.0487  0.6953  0.2053
 1137TIP3    H224971   1.988   2.389   0.603  0.9381  1.1525 -0.3732
 1138TIP3   OH224972   0.017   4.753   0.608 -0.3183  0.0444 -0.2448
 1138TIP3    H124973   0.056   4.760   0.695  0.0531 -1.9718 -0.1978
 1138TIP3    H224974   0.091   4.761   0.548 -0.0327 -1.8887 -0.2178
 1139TIP3   OH224975   2.494   2.198   2.292  0.2716  0.1120  0.1076
 1139TIP3    H124976   2.482   2.208   2.197 -1.7183  0.5355  0.3722
 1139TIP3    H224977   2.531   2.282   2.320 -2.4086  1.3462  0.1692
 1140TIP3   OH224978   1.553   3.638   1.290 -0.0754  0.0698  0.0094
 1140TIP3    H124979   1.489   3.590   1.237  1.0163 -2.6229  0.9565
 1140TIP3    H224980   1.628   3.648   1.233 -1.1938  3.2266 -1.0997
 1141TIP3   OH224981   3.456   0.305   8.919  0.8653 -0.1503  0.6356
 1141TIP3    H124982   3.551   0.303   8.910  0.6838  0.4739 -2.9388
 1141TIP3    H224983   3.434   0.398   8.924  0.3852 -0.2341  0.1667
 1142TIP3   OH224984   4.889   5.457   6.957  0.3592  0.6389  0.5463
 1142TIP3    H124985   4.973   5.412   6.947 -0.1163 -0.1913  0.1748
 1142TIP3    H224986   4.894   5.499   7.043  1.1755  0.6567  0.4952
 1143TIP3   OH224987   4.194   6.743   2.030 -0.4848  0.1932  0.1527
 1143TIP3    H124988   4.185   6.827   2.076  0.3065 -0.1665  1.0088
 1143TIP3    H224989   4.217   6.681   2.099  1.5534 -0.2240 -0.8128
 1144TIP3   OH224990   1.980   2.024   8.265  0.8410  0.0782 -0.1215
 1144TIP3    H124991   1.937   2.036   8.181 -0.2191  2.0611  0.6170
 1144TIP3    H224992   1.959   1.935   8.291 -1.4783  0.4368 -0.5629
 1145TIP3   OH224993   1.964   0.251   0.700  0.2735 -0.1463 -0.2354
 1145TIP3    H124994   1.982   0.160   0.675  1.0290  0.2922 -1.3550
 1145TIP3    H224995   2.005   0.260   0.786  3.3905  0.0886 -1.6208
 1146TIP3   OH224996   6.754   6.649   0.468  0.2521 -0.1142  0.2171
 1146TIP3    H124997   6.668   6.666   0.430 -0.6543 -0.9056  1.8103
 1146TIP3    H224998   6.785   6.569   0.425  0.1824  0.1593 -0.3390
 1147TIP3   OH224999   3.489   1.227   0.379  0.1072 -0.0129  0.6181
 1147TIP3    H125000   3.471   1.138   0.410 -0.7075 -0.1091 -0.1109
 1147TIP3    H225001   3.584   1.228   0.362  0.3618 -0.3318  1.8695
 1148TIP3   OH225002   4.550   6.474   2.038 -0.1442 -0.4923  0.2775
 1148TIP3    H125003   4.516   6.559   2.065 -0.4984 -0.5853  0.1320
 1148TIP3    H225004   4.645   6.484   2.042 -0.0834  0.6756 -1.9996
 1149TIP3   OH225005   3.392   4.395   1.489 -0.1835  0.2185 -0.1735
 1149TIP3    H125006   3.473   4.369   1.446  0.3579 -0.1565  1.0140
 1149TIP3    H225007   3.414   4.475   1.536  0.0512 -0.8088  1.5924
 1150TIP3   OH225008   4.370   5.482   8.558 -0.3864  0.5691  0.1733
 1150TIP3    H125009   4.354   5.389   8.545 -1.2766  0.9221 -1.4994
 1150TIP3    H225010   4.462   5.488   8.583 -0.2494 -0.7204  0.0042
 1151TIP3   OH225011   1.809   1.804   1.311  0.1437  0.5934  0.0066
 1151TIP3    H125012   1.774   1.887   1.278 -1.0093  1.6218  3.4113
 1151TIP3    H225013   1.733   1.746   1.318  0.8628 -0.6554 -1.8639
 1152TIP3   OH225014   5.514   3.771   8.346  0.0411 -0.0963  0.0073
 1152TIP3    H125015   5.480   3.745   8.431  0.2209  0.8935  0.3944
 1152TIP3    H225016   5.452   3.734   8.283  0.0547 -1.0600  0.5412
 1153TIP3   OH225017   3.365   0.043   1.920 -0.0577 -0.1400 -0.0804
 1153TIP3    H125018   3.380   0.134   1.947  0.1834  0.4527 -2.0415
 1153TIP3    H225019   3.300   0.010   1.982 -0.5880  1.5526  0.3279
 1154TIP3   OH225020   3.683   5.514   0.550 -0.1504  0.0901  0.1721
 1154TIP3    H125021   3.653   5.521   0.459  2.3097  0.1428 -0.7143
 1154TIP3    H225022   3.730   5.597   0.566  2.6164 -1.3428  0.1503
 1155TIP3   OH225023   3.908   3.533   1.469  0.1474 -0.2072  0.1041
 1155TIP3    H125024   3.945   3.448   1.494  1.5758  1.2250  3.5784
 1155TIP3    H225025   3.852   3.557   1.543 -1.8332  1.0514 -1.7044
 1156TIP3   OH225026   4.044   0.079   8.249  0.4489 -0.4612 -0.9434
 1156TIP3    H125027   3.980   0.043   8.310 -0.9772 -0.0224 -2.1219
 1156TIP3    H225028   4.073   0.005   8.197 -0.3559 -0.4000 -1.4929
 1157TIP3   OH225029   1.438   1.899   2.195  0.2543 -0.3220 -0.2732
 1157TIP3    H125030   1.362   1.873   2.143  0.0104 -2.2005  0.9504
 1157TIP3    H225031   1.403   1.962   2.258  0.0733  0.0755 -0.7547
 1158TIP3   OH225032   1.442   3.776   8.183  0.2038 -0.0615  0.3765
 1158TIP3    H125033   1.480   3.769   8.096  1.0798 -0.9262  0.8059
 1158TIP3    H225034   1.386   3.854   8.179 -0.2324 -0.4211 -1.1170
 1159TIP3   OH225035   5.905   1.253   1.138  0.1387 -0.0902  0.0769
 1159TIP3    H125036   5.942   1.241   1.050 -0.6413 -3.4300  0.0691
 1159TIP3    H225037   5.817   1.289   1.122 -0.7396 -2.4131 -0.7499
 1160TIP3   OH225038   6.519   2.571   2.132 -0.1422 -0.4297 -0.1651
 1160TIP3    H125039   6.500   2.638   2.066  0.7623  1.2627  1.2182
 1160TIP3    H225040   6.472   2.600   2.210 -0.8156 -2.1498  0.1241
 1161TIP3   OH225041   2.052   3.099   0.771  0.2646 -1.0068  0.8787
 1161TIP3    H125042   1.969   3.144   0.758  0.1207 -1.4479  0.2649
 1161TIP3    H225043   2.101   3.158   0.829 -0.5820 -0.8882  1.4993
 1162TIP3   OH225044   1.218   5.980   1.780  0.3942 -0.4602 -0.0039
 1162TIP3    H125045   1.255   5.920   1.845  2.7276  0.0991 -0.7213
 1162TIP3    H225046   1.259   6.064   1.799  0.1375  0.0086 -1.4028
 1163TIP3   OH225047   6.280   5.588   0.784 -0.0509  0.2098  0.0591
 1163TIP3    H125048   6.228   5.624   0.855 -2.3014  0.6803 -1.7056
 1163TIP3    H225049   6.291   5.496   0.806 -0.8145  0.3167  0.9252
 1164TIP3   OH225050   1.939   5.373   2.329  0.0164 -0.4146  0.4881
 1164TIP3    H125051   1.847   5.401   2.329  0.0862 -0.0489 -1.3627
 1164TIP3    H225052   1.948   5.321   2.409 -1.8929 -0.7610  0.5375
 1165TIP3   OH225053   5.035   3.410   0.952  0.3214 -0.8388  0.4434
 1165TIP3    H125054   5.128   3.408   0.974 -0.2994  1.4946  4.0494
 1165TIP3    H225055   5.002   3.324   0.980  0.6652 -0.0216  3.6852
 1166TIP3   OH225056   2.281   5.914   0.340  1.1510 -0.1076 -0.1095
 1166TIP3    H125057   2.323   5.834   0.369 -0.5471 -1.2346 -0.5766
 1166TIP3    H225058   2.260   5.962   0.420 -0.3973 -1.5443  0.3997
 1167TIP3   OH225059   1.334   3.983   8.796 -0.8041  0.1483 -0.3068
 1167TIP3    H125060   1.378   4.027   8.869 -2.4338  0.4870  0.5184
 1167TIP3    H225061   1.305   3.899   8.832  0.0073 -0.5061 -1.1287
 1168TIP3   OH225062   2.100   2.163   2.710  0.3384  0.1971  0.0436
 1168TIP3    H125063   2.017   2.131   2.673 -0.0584  1.6424 -0.3598
 1168TIP3    H225064   2.167   2.130   2.650  0.0630 -0.8429  0.2796
 1169TIP3   OH225065   2.654   1.561   2.158  0.3468 -0.2885  0.3243
 1169TIP3    H125066   2.727   1.548   2.097 -0.1251  1.3740 -0.6438
 1169TIP3    H225067   2.693   1.548   2.244  1.3387 -1.3578 -0.2598
 1170TIP3   OH225068   2.370   6.540   2.736 -0.5348  0.1047  0.3788
 1170TIP3    H125069   2.359   6.607   2.803 -2.2166  0.2095  0.0422
 1170TIP3    H225070   2.444   6.571   2.684 -0.5018  1.0710  0.9621
 1171TIP3   OH225071   3.825   0.799   2.470 -0.1943  0.3955 -0.2049
 1171TIP3    H125072   3.832   0.853   2.391  1.6950 -0.9172 -0.9944
 1171TIP3    H225073   3.915   0.778   2.493 -0.7830 -0.4264  1.5035
 1172TIP3   OH225074   4.030   6.393   1.675  0.1293 -0.1419  0.3435
 1172TIP3    H125075   4.071   6.452   1.739 -0.7725  1.2672 -0.3331
 1172TIP3    H225076   4.100   6.373   1.612  0.3298  0.5591  0.3369
 1173TIP3   OH225077   6.461   1.681   7.586  0.3038 -0.2732  0.1819
 1173TIP3    H125078   6.458   1.588   7.608  0.3874  0.0809  1.8004
 1173TIP3    H225079   6.440   1.684   7.493 -2.8672 -1.6659  0.7263
 1174TIP3   OH225080   3.515   6.630   8.471 -0.5141  0.2851  0.7753
 1174TIP3    H125081   3.459   6.663   8.401  0.4914 -1.3829 -0.8929
 1174TIP3    H225082   3.456   6.581   8.528 -1.1992  0.9378  0.6516
 1175TIP3   OH225083   1.362   1.996   1.611  0.3274 -0.0575  0.1399
 1175TIP3    H125084   1.278   2.031   1.639 -0.5706 -2.5235  0.7519
 1175TIP3    H225085   1.350   1.976   1.518  0.6632  0.7125 -0.0763
 1176TIP3   OH225086   2.030   1.683   8.241  0.1327 -0.2162  0.3561
 1176TIP3    H125087   1.990   1.746   8.182 -0.0505  0.5089  1.2189
 1176TIP3    H225088   2.105   1.730   8.278 -0.3231 -0.2944  1.4203
 1177TIP3   OH225089   2.907   4.028   8.352  0.1283 -0.2531 -0.3726
 1177TIP3    H125090   2.825   4.052   8.309  0.4741 -0.1637 -0.9964
 1177TIP3    H225091   2.944   4.112   8.380 -0.0859 -0.3095  0.0916
 1178TIP3   OH225092   3.687   3.503   8.448 -0.0066  0.6604  0.4171
 1178TIP3    H125093   3.646   3.589   8.439  0.5597  0.8223 -0.8758
 1178TIP3    H225094   3.622   3.442   8.413  0.7054  0.8918 -1.4038
 1179TIP3   OH225095   0.594   0.882   8.508 -0.5167 -0.2593  0.1955
 1179TIP3    H125096   0.592   0.797   8.551  0.6574  0.4669  1.8182
 1179TIP3    H225097   0.662   0.874   8.440 -0.5322 -0.6686  0.2297
 1180TIP3   OH225098   3.938   0.841   8.662  0.1300  0.0914  0.0458
 1180TIP3    H125099   3.975   0.929   8.653  1.8192 -0.6983 -1.2246
 1180TIP3    H225100   3.994   0.798   8.728  1.1498 -0.8968 -1.4002
 1181TIP3   OH225101   5.915   1.776   1.793  0.4542 -0.2668  0.5979
 1181TIP3    H125102   5.883   1.756   1.881  0.1316 -2.3189  0.0740
 1181TIP3    H225103   6.011   1.774   1.801  0.4255 -0.6545  0.8700
 1182TIP3   OH225104   2.797   4.137   3.305 -0.2899  0.1017  0.0116
 1182TIP3    H125105   2.751   4.057   3.330  0.8438 -0.7446 -0.5371
 1182TIP3    H225106   2.871   4.107   3.252 -0.4708  1.5913 -1.1487
 1183TIP3   OH225107   5.960   3.536   7.349 -0.1098 -0.0668 -0.1447
 1183TIP3    H125108   5.914   3.567   7.272  1.0590  0.0693 -0.8129
 1183TIP3    H225109   5.991   3.615   7.393  1.0667 -0.1839 -0.7173
 1184TIP3   OH225110   2.657   2.871   1.558  0.3420  0.1547  0.7156
 1184TIP3    H125111   2.679   2.934   1.489 -1.2043  2.5699  2.2708
 1184TIP3    H225112   2.578   2.827   1.526 -0.9926  2.0108  1.2819
 1185TIP3   OH225113   2.490   0.372   0.880  0.3140 -0.1715 -0.1300
 1185TIP3    H125114   2.553   0.421   0.828  2.0164 -0.9393  1.1213
 1185TIP3    H225115   2.533   0.288   0.898 -0.9388 -0.6059  1.0097
 1186TIP3   OH225116   3.673   5.031   8.943 -0.1468 -0.1409  0.3762
 1186TIP3    H125117   3.662   4.990   9.029  1.7917  0.0138  0.7485
 1186TIP3    H225118   3.631   4.970   8.882 -0.7050 -0.7324  1.3157
 1187TIP3   OH225119   6.374   5.346   0.774  0.3430 -0.3296  0.3883
 1187TIP3    H125120   6.375   5.378   0.683  2.0790  0.5334  0.6734
 1187TIP3    H225121   6.372   5.251   0.766 -1.7860 -0.2748 -0.5019
 1188TIP3   OH225122   3.501   2.289   2.190 -0.0140 -0.3553  0.2573
 1188TIP3    H125123   3.566   2.357   2.172 -1.0739  1.2631  2.1686
 1188TIP3    H225124   3.486   2.248   2.105  1.9326  0.6181 -0.6352
 1189TIP3   OH225125   6.357   0.223   0.882  0.5923 -0.7151 -0.0078
 1189TIP3    H125126   6.327   0.274   0.958 -3.4330 -0.6106 -1.4216
 1189TIP3    H225127   6.399   0.286   0.825  0.0034  0.0439  0.3808
 1190TIP3   OH225128   2.236   3.069   1.924 -0.6076 -0.1736  0.4254
 1190TIP3    H125129   2.325   3.059   1.890 -1.0683 -1.2770 -0.5176
 1190TIP3    H225130   2.248   3.095   2.015  0.6754  4.3462 -0.7923
 1191TIP3   OH225131   3.334   5.669   0.147  0.5195  0.2259  0.1656
 1191TIP3    H125132   3.351   5.585   0.104 -0.0733 -0.9743  2.1306
 1191TIP3    H225133   3.297   5.724   0.078  0.0316 -1.4383 -0.9732
 1192TIP3   OH225134   5.455   0.615   0.335  0.6290 -0.7034  0.0067
 1192TIP3    H125135   5.506   0.688   0.300  1.1468 -0.7469  0.6464
 1192TIP3    H225136   5.501   0.590   0.415 -0.9522 -0.0990  1.1658
 1193TIP3   OH225137   0.686   5.526   2.293 -0.4985 -0.5404 -0.4877
 1193TIP3    H125138   0.773   5.504   2.258 -1.3998 -0.2635 -3.1855
 1193TIP3    H225139   0.663   5.451   2.348  1.4691 -0.5620  0.4054
 1194TIP3   OH225140   2.877   6.065   8.642 -0.6210 -0.4368 -0.3889
 1194TIP3    H125141   2.797   6.118   8.643  0.9091  2.0888 -1.3883
 1194TIP3    H225142   2.923   6.090   8.722  0.0855 -0.2839 -0.8344
 1195TIP3   OH225143   0.349   1.974   1.333 -0.7928  0.1973 -0.2463
 1195TIP3    H125144   0.437   1.969   1.295  0.1523  1.6694  1.5878
 1195TIP3    H225145   0.363   1.971   1.428 -2.8024 -0.3893  0.0789
 1196TIP3   OH225146   6.754   1.890   1.531  0.1659 -0.0897  0.4448
 1196TIP3    H125147   6.672   1.937   1.545 -0.4335 -0.6811 -0.8990
 1196TIP3    H225148   6.789   1.876   1.619 -1.3543 -0.1308  1.0745
 1197TIP3   OH225149   1.614   0.491   8.664 -0.2089  0.5006 -0.4524
 1197TIP3    H125150   1.685   0.517   8.723 -1.3286  3.2851 -0.1851
 1197TIP3    H225151   1.540   0.474   8.721 -0.2903 -0.5300 -0.8481
 1198TIP3   OH225152   1.096   3.270   8.892 -0.2046 -0.1546  0.2555
 1198TIP3    H125153   1.068   3.180   8.906  0.7185 -0.2611  1.5266
 1198TIP3    H225154   1.030   3.323   8.938  0.9608 -0.3517  2.2352
 1199TIP3   OH225155   1.145   3.767   8.827  0.1430  0.0560  0.5190
 1199TIP3    H125156   1.078   3.728   8.884 -2.2112  1.3498 -1.1753
 1199TIP3    H225157   1.133   3.862   8.838 -0.8553  0.3677 -2.5025
 1200TIP3   OH225158   5.566   0.510   2.645  0.1843  0.2214  0.7570
 1200TIP3    H125159   5.591   0.602   2.646  1.4891 -0.1226  1.5085
 1200TIP3    H225160   5.557   0.487   2.738  1.8448 -0.9006  0.6675
 1201TIP3   OH225161   2.301   1.225   8.819 -0.0610  0.2040  0.0247
 1201TIP3    H125162   2.388   1.189   8.802  0.0427  0.3241  0.2979
 1201TIP3    H225163   2.314   1.284   8.893 -0.6612 -1.0018  1.1404
 1202TIP3   OH225164   4.490   0.906   1.850  0.2314  0.3043  0.3994
 1202TIP3    H125165   4.452   0.994   1.848  2.5742  1.3941 -1.4460
 1202TIP3    H225166   4.574   0.918   1.893  0.1446 -1.2732  1.0552
 1203TIP3   OH225167   3.696   1.192   8.591 -0.2257  0.1532  0.2169
 1203TIP3    H125168   3.631   1.261   8.578  0.5196  0.5815 -1.3983
 1203TIP3    H225169   3.742   1.217   8.671  0.9715  2.3297 -1.0738
 1204TIP3   OH225170   0.116   6.178   1.901 -0.3393 -0.0630 -0.1237
 1204TIP3    H125171   0.185   6.243   1.889 -0.0560 -0.4415 -0.5923
 1204TIP3    H225172   0.158   6.094   1.881 -0.2874 -0.5820  1.8808
 1205TIP3   OH225173   0.743   0.178   2.414  0.2039  0.1396  0.2328
 1205TIP3    H125174   0.758   0.205   2.505  0.8850  0.6995 -0.0368
 1205TIP3    H225175   0.658   0.134   2.416 -0.2513  1.0279  0.9548
 1206TIP3   OH225176   5.310   0.800   7.751 -0.4754 -0.1963  0.3962
 1206TIP3    H125177   5.219   0.771   7.754 -0.0149 -1.6311  1.4240
 1206TIP3    H225178   5.316   0.850   7.670 -1.6239 -1.9460 -0.8452
 1207TIP3   OH225179   6.553   5.482   1.642 -1.1179 -0.0308 -0.1401
 1207TIP3    H125180   6.590   5.507   1.558 -0.5996  0.6407  0.2772
 1207TIP3    H225181   6.474   5.434   1.620 -1.4250  0.8358 -0.9941
 1208TIP3   OH225182   5.155   2.916   7.233  0.2731 -0.4273  0.4525
 1208TIP3    H125183   5.093   2.965   7.179  0.5602 -0.3096  0.2309
 1208TIP3    H225184   5.116   2.829   7.241  0.4104 -0.5579 -0.2480
 1209TIP3   OH225185   2.091   0.774   0.085  0.3476  0.3467  0.1153
 1209TIP3    H125186   2.115   0.856   0.128  0.3796 -0.6324  2.0449
 1209TIP3    H225187   2.009   0.748   0.126 -0.2807 -0.0259 -1.3157
 1210TIP3   OH225188   1.953   1.579   8.775  0.0814  0.9798  0.2815
 1210TIP3    H125189   1.947   1.484   8.776  0.9817  0.9174  1.3010
 1210TIP3    H225190   2.001   1.600   8.695 -0.2577  0.5928 -0.0246
 1211TIP3   OH225191   6.097   5.250   8.300 -0.0169 -0.8302  0.4410
 1211TIP3    H125192   6.078   5.156   8.296  2.3245 -1.3348 -0.3689
 1211TIP3    H225193   6.065   5.284   8.215  0.0771 -1.0881  0.3026
 1212TIP3   OH225194   4.127   3.048   1.004 -0.5329  0.4320  0.6017
 1212TIP3    H125195   4.197   2.984   1.013 -0.7539  0.1656  0.4426
 1212TIP3    H225196   4.117   3.084   1.093 -0.1673  0.5051  0.6148
 1213TIP3   OH225197   2.772   1.570   1.190  0.6522  0.7950  0.3719
 1213TIP3    H125198   2.691   1.601   1.232  0.4942 -0.1306  0.7628
 1213TIP3    H225199   2.805   1.647   1.144  0.7559  1.8337  2.0735
 1214TIP3   OH225200   6.107   0.773   0.824 -0.2834  0.2855  0.7229
 1214TIP3    H125201   6.031   0.825   0.849 -1.0728 -0.5778  0.2084
 1214TIP3    H225202   6.150   0.750   0.907 -3.3845 -3.3629  1.5999
 1215TIP3   OH225203   0.396   0.839   3.498  0.0529 -0.1468 -0.0313
 1215TIP3    H125204   0.430   0.853   3.410  1.6497 -1.0201  0.3953
 1215TIP3    H225205   0.468   0.796   3.545 -0.4636  0.9877  1.9288
 1216TIP3   OH225206   2.434   4.735   0.234  0.4355 -0.4008 -0.8730
 1216TIP3    H125207   2.406   4.645   0.252  0.1559 -0.7017 -2.6014
 1216TIP3    H225208   2.366   4.770   0.176  0.2367  1.1454  0.2364
 1217TIP3   OH225209   1.673   5.802   2.460 -0.0971 -0.3808  0.1351
 1217TIP3    H125210   1.663   5.823   2.553  0.8832  0.6566  0.0299
 1217TIP3    H225211   1.591   5.757   2.436 -0.9344  0.5326  1.1756
 1218TIP3   OH225212   1.389   0.650   1.046 -0.2988  0.2119 -0.2461
 1218TIP3    H125213   1.417   0.734   1.083  0.8190  0.4278 -1.5347
 1218TIP3    H225214   1.345   0.607   1.119  0.7896  1.1111  1.0144
 1219TIP3   OH225215   0.950   4.011   8.582  1.3577 -0.3552 -0.0814
 1219TIP3    H125216   1.017   4.032   8.517  0.0400  0.5261 -1.2380
 1219TIP3    H225217   0.876   4.067   8.557  0.5854 -0.4838  1.8127
 1220TIP3   OH225218   5.267   0.917   7.508 -0.2691  0.0109 -0.3605
 1220TIP3    H125219   5.354   0.907   7.470 -0.0292 -0.6932  0.3553
 1220TIP3    H225220   5.218   0.842   7.474  0.5101 -1.7719  2.2149
 1221TIP3   OH225221   3.140   0.365   8.358  0.4873 -0.4523 -0.1740
 1221TIP3    H125222   3.105   0.422   8.289 -1.7286 -1.4354  0.0718
 1221TIP3    H225223   3.230   0.346   8.330 -0.3319 -0.8217 -2.8001
 1222TIP3   OH225224   6.350   1.566   8.512  0.1815 -0.0051  0.3828
 1222TIP3    H125225   6.348   1.494   8.449 -0.3636  1.0777 -0.8787
 1222TIP3    H225226   6.259   1.572   8.544 -0.1774  1.1982 -0.8035
 1223TIP3   OH225227   1.232   6.311   0.107  0.4194 -0.2809 -0.2088
 1223TIP3    H125228   1.326   6.314   0.088  0.3927  1.0862 -0.2103
 1223TIP3    H225229   1.201   6.399   0.085 -0.4826 -0.0693  1.7801
 1224TIP3   OH225230   6.249   3.438   0.878  0.0004  0.4495  0.3047
 1224TIP3    H125231   6.292   3.480   0.803 -0.0629 -0.9029 -0.5171
 1224TIP3    H225232   6.312   3.372   0.908 -0.3186  0.4270  0.9389
 1225TIP3   OH225233   4.000   0.583   2.605  0.1737  0.4501 -0.5316
 1225TIP3    H125234   4.085   0.539   2.594  0.0318  0.8136 -5.2658
 1225TIP3    H225235   3.941   0.513   2.633  1.6955 -0.0988  1.5263
 1226TIP3   OH225236   2.594   6.103   8.952 -0.0181 -0.6645 -0.0991
 1226TIP3    H125237   2.600   6.142   9.039  0.2674 -1.4475  0.2403
 1226TIP3    H225238   2.607   6.009   8.967 -0.7192 -0.8965 -0.8961
 1227TIP3   OH225239   4.042   2.560   7.943 -0.8966 -0.4001 -0.2205
 1227TIP3    H125240   4.114   2.499   7.959 -0.9143 -0.2871  0.3065
 1227TIP3    H225241   3.986   2.515   7.880 -0.2244 -0.3748 -0.8515
 1228TIP3   OH225242   3.442   6.278   8.588  0.7753  0.1183  0.3775
 1228TIP3    H125243   3.440   6.185   8.565  0.9729  0.3709 -0.6944
 1228TIP3    H225244   3.533   6.295   8.611  0.9473  0.2547 -0.3685
 1229TIP3   OH225245   1.624   6.342   0.896  0.2375 -0.2294 -0.1065
 1229TIP3    H125246   1.557   6.352   0.963 -0.2017  0.7165 -0.6673
 1229TIP3    H225247   1.588   6.277   0.835 -0.5584  0.8943 -0.8572
 1230TIP3   OH225248   3.841   0.956   1.772 -0.0460 -0.2071 -0.3914
 1230TIP3    H125249   3.796   0.873   1.788  0.2167 -0.2089  0.3799
 1230TIP3    H225250   3.774   1.023   1.789  0.2771 -0.2010  0.9925
 1231TIP3   OH225251   3.754   2.920   2.705  0.6077  0.0975  0.0773
 1231TIP3    H125252   3.800   2.839   2.683 -1.8149 -1.6141  0.9052
 1231TIP3    H225253   3.773   2.933   2.798  0.8327  0.3749 -0.0072
 1232TIP3   OH225254   4.162   1.579   0.347  0.1312  0.1525  0.4962
 1232TIP3    H125255   4.116   1.660   0.369  1.1406  0.6506  0.8066
 1232TIP3    H225256   4.145   1.566   0.253 -0.3743  0.4944  0.5393
 1233TIP3   OH225257   4.609   2.371   0.125 -0.1838  0.1977 -0.3964
 1233TIP3    H125258   4.552   2.409   0.191 -0.3831  2.0668 -1.5463
 1233TIP3    H225259   4.604   2.277   0.139  0.1687  0.5155  2.5252
 1234TIP3   OH225260   6.524   2.758   8.773 -0.2091 -0.4324  0.6885
 1234TIP3    H125261   6.477   2.811   8.708  1.1550 -2.7414 -2.4468
 1234TIP3    H225262   6.600   2.811   8.796  0.0122 -0.0746 -0.7335
 1235TIP3   OH225263   5.288   5.027   7.586  0.8029  0.2105  0.4616
 1235TIP3    H125264   5.373   5.029   7.543 -0.1812 -1.2298 -1.7096
 1235TIP3    H225265   5.229   4.989   7.521 -1.3499  0.4413  2.1733
 1236TIP3   OH225266   2.278   2.372   0.199 -0.2367  0.1669  0.0474
 1236TIP3    H125267   2.257   2.424   0.121  0.4539  0.9779  0.3977
 1236TIP3    H225268   2.337   2.427   0.250 -3.0123  0.9727  2.6767
 1237TIP3   OH225269   2.576   2.450   7.273 -0.1488  0.0773 -0.9123
 1237TIP3    H125270   2.559   2.361   7.243 -0.1974 -0.3958  0.4442
 1237TIP3    H225271   2.671   2.458   7.272  0.1316 -1.2831  2.2882
 1238TIP3   OH225272   5.819   2.757   8.509 -0.2709  0.1769  0.9550
 1238TIP3    H125273   5.832   2.851   8.517 -1.3788  0.3994  0.3782
 1238TIP3    H225274   5.773   2.746   8.426  0.4963 -0.9442  0.6511
 1239TIP3   OH225275   1.695   0.267   3.130 -0.1782  0.8706  0.2886
 1239TIP3    H125276   1.743   0.350   3.131  0.3978  0.5822 -0.8320
 1239TIP3    H225277   1.653   0.265   3.044  2.5158 -1.4370 -1.1360
 1240TIP3   OH225278   6.304   1.527   2.852 -0.2577  0.4600  0.0682
 1240TIP3    H125279   6.238   1.484   2.798 -0.1827  0.6509 -0.1767
 1240TIP3    H225280   6.255   1.564   2.925 -0.2261 -0.7281  0.7160
 1241TIP3   OH225281   2.839   4.586   1.743 -0.8039  0.4633 -0.1867
 1241TIP3    H125282   2.831   4.681   1.731 -2.1589  0.3710 -0.1634
 1241TIP3    H225283   2.785   4.567   1.820 -0.1691 -0.2738  0.0882
 1242TIP3   OH225284   2.172   1.617   8.967 -0.0266  0.5233 -0.2168
 1242TIP3    H125285   2.129   1.621   8.881 -1.6942  0.7123  0.5882
 1242TIP3    H225286   2.181   1.523   8.984 -3.0281  0.3150  0.9085
 1243TIP3   OH225287   2.725   5.788   8.613  0.2495 -0.4939  0.1515
 1243TIP3    H125288   2.719   5.882   8.598 -0.5601 -0.4417  0.7185
 1243TIP3    H225289   2.731   5.779   8.708 -0.7775 -1.0469  0.1773
 1244TIP3   OH225290   1.957   2.345   0.788  0.1024  0.5756  0.5172
 1244TIP3    H125291   1.890   2.278   0.776  0.7048 -0.0072  0.3529
 1244TIP3    H225292   2.005   2.318   0.867  1.3389 -0.0575 -0.4099
 1245TIP3   OH225293   0.265   3.024   1.327  0.2149 -0.2083 -0.2550
 1245TIP3    H125294   0.296   2.939   1.296  1.6399 -0.0658  0.6887
 1245TIP3    H225295   0.343   3.080   1.326 -0.3540  0.6316  0.6749
 1246TIP3   OH225296   3.052   2.575   3.633  0.1993 -0.0438 -0.2409
 1246TIP3    H125297   3.041   2.521   3.711  1.1306  0.9630  0.6256
 1246TIP3    H225298   3.030   2.664   3.661  0.4641  0.3225 -1.1400
 1247TIP3   OH225299   0.686   3.792   3.012  0.1214  0.1388  0.1566
 1247TIP3    H125300   0.772   3.753   2.994 -0.1732 -1.4572  1.8923
 1247TIP3    H225301   0.707   3.880   3.044  1.1476 -0.2567  0.6469
 1248TIP3   OH225302   2.502   0.331   8.805 -0.3627  0.0327 -0.1667
 1248TIP3    H125303   2.467   0.318   8.717  1.6156 -1.4449 -0.7872
 1248TIP3    H225304   2.439   0.391   8.847 -1.5269  0.4964 -2.4351
 1249TIP3   OH225305   4.172   0.283   3.164 -0.3004 -0.5463 -0.1558
 1249TIP3    H125306   4.093   0.229   3.176 -0.1856 -0.3933  1.5012
 1249TIP3    H225307   4.180   0.332   3.246  0.8630  0.3277 -0.7693
 1250TIP3   OH225308   1.231   5.335   8.890  0.0439 -0.5506 -0.5369
 1250TIP3    H125309   1.168   5.404   8.868  0.4009 -0.4503 -1.2645
 1250TIP3    H225310   1.257   5.354   8.980 -1.3211 -0.8673 -0.0444
 1251TIP3   OH225311   3.375   5.197   1.692 -0.6868 -0.0709 -0.9174
 1251TIP3    H125312   3.445   5.132   1.698 -1.7817 -1.2823 -0.9517
 1251TIP3    H225313   3.379   5.228   1.601  2.4653  3.0012  0.0563
 1252TIP3   OH225314   5.842   3.422   0.279 -0.9523  0.1826 -0.2916
 1252TIP3    H125315   5.767   3.473   0.249 -1.7075 -0.6663  0.1116
 1252TIP3    H225316   5.918   3.471   0.247 -1.6143  1.8429  0.5207
 1253TIP3   OH225317   5.461   5.625   8.372 -0.1940 -0.0925  0.5541
 1253TIP3    H125318   5.520   5.700   8.373 -0.4647  0.1184  0.6793
 1253TIP3    H225319   5.374   5.662   8.387 -0.1333 -0.6146  2.4433
 1254TIP3   OH225320   6.029   5.645   1.273  0.1277 -0.5757  0.0143
 1254TIP3    H125321   6.046   5.676   1.184  0.1785 -2.7954 -0.8036
 1254TIP3    H225322   6.097   5.687   1.326 -0.2037  1.1693 -0.8764
 1255TIP3   OH225323   2.789   3.923   2.159  0.2509  0.8858  0.3251
 1255TIP3    H125324   2.867   3.948   2.209 -0.4273  1.4041  1.1565
 1255TIP3    H225325   2.746   4.006   2.139 -0.8889  0.5323  1.2227
 1256TIP3   OH225326   0.412   1.995   1.920 -0.6965 -0.0259 -0.1976
 1256TIP3    H125327   0.505   2.019   1.923 -0.0265 -2.2273 -1.0472
 1256TIP3    H225328   0.366   2.078   1.915  1.1077  1.2280  1.9915
 1257TIP3   OH225329   1.097   1.383   2.408  0.6042 -0.0112  0.3910
 1257TIP3    H125330   1.084   1.413   2.498 -2.6308 -0.8789  0.3570
 1257TIP3    H225331   1.161   1.313   2.414 -0.5548 -0.9802  2.2672
 1258TIP3   OH225332   1.969   4.807   1.779  0.0155  0.3974 -0.7137
 1258TIP3    H125333   1.966   4.865   1.702 -0.8685  2.3420  0.6976
 1258TIP3    H225334   2.032   4.848   1.838 -0.6961 -0.0074  0.3610
 1259TIP3   OH225335   5.195   5.654   2.444  0.6753 -0.1222 -0.1045
 1259TIP3    H125336   5.105   5.631   2.422  1.1468 -1.8086 -0.4355
 1259TIP3    H225337   5.195   5.750   2.449 -1.3512 -0.1290  0.9528
 1260TIP3   OH225338   0.640   5.598   2.780  0.7902 -0.0224 -0.2900
 1260TIP3    H125339   0.676   5.537   2.715  1.9386  0.8566 -0.5014
 1260TIP3    H225340   0.698   5.674   2.777 -0.0934  0.7152  0.6157
 1261TIP3   OH225341   3.227   1.213   0.541 -0.3353  0.1695 -0.9170
 1261TIP3    H125342   3.264   1.241   0.458 -1.3602  2.3743 -0.6916
 1261TIP3    H225343   3.178   1.133   0.520 -0.5040  0.6414 -2.4187
 1262TIP3   OH225344   0.028   2.423   8.733  0.1907 -0.3847  0.2025
 1262TIP3    H125345   0.067   2.346   8.775  2.6305  0.8186  0.3179
 1262TIP3    H225346   0.002   2.479   8.806 -2.7740 -1.5467  0.1538
 1263TIP3   OH225347   5.765   3.439   1.654 -0.2765  0.2171 -0.2393
 1263TIP3    H125348   5.766   3.381   1.731  1.1061  0.6728  0.1060
 1263TIP3    H225349   5.769   3.528   1.691 -0.8257  0.4927 -0.8147
 1264TIP3   OH225350   0.280   2.345   8.553  0.2072 -0.2275 -0.2264
 1264TIP3    H125351   0.296   2.264   8.601 -0.2307  0.0387  0.3844
 1264TIP3    H225352   0.220   2.394   8.609  0.3143  0.4326 -0.6838
 1265TIP3   OH225353   0.588   0.309   8.711 -0.3168 -0.0604  0.7644
 1265TIP3    H125354   0.673   0.340   8.679 -0.9973  1.5721  0.4089
 1265TIP3    H225355   0.588   0.215   8.695  0.8714  0.1372 -0.5363
 1266TIP3   OH225356   0.249   6.413   1.840 -0.2102  0.2103 -0.2000
 1266TIP3    H125357   0.338   6.448   1.843  0.3222 -1.0940 -0.1688
 1266TIP3    H225358   0.203   6.470   1.779  0.5694  1.0601 -0.0128
 1267TIP3   OH225359   2.994   4.819   1.525 -0.0196  0.0969 -0.4381
 1267TIP3    H125360   3.064   4.866   1.570  0.4595 -1.1354  0.1521
 1267TIP3    H225361   2.915   4.842   1.574  0.0267  1.0887 -0.7977
 1268TIP3   OH225362   3.251   3.176   0.601 -0.0066 -0.1013  0.1647
 1268TIP3    H125363   3.173   3.152   0.551 -0.3201  0.4786  0.3690
 1268TIP3    H225364   3.320   3.186   0.535 -0.7543  2.1160 -0.3523
 1269TIP3   OH225365   3.647   2.665   0.835 -0.2288 -0.0611  0.0711
 1269TIP3    H125366   3.584   2.714   0.888 -0.0824  0.3457 -0.1285
 1269TIP3    H225367   3.723   2.654   0.893  0.0495  0.6484 -0.1506
 1270TIP3   OH225368   6.161   4.573   2.441 -0.1908 -0.2935  0.2530
 1270TIP3    H125369   6.120   4.560   2.527 -0.1510  2.3587  0.7354
 1270TIP3    H225370   6.089   4.601   2.385  0.3323  1.0362  0.2341
 1271TIP3   OH225371   0.703   2.538   0.723 -0.3301  0.0118  0.0595
 1271TIP3    H125372   0.749   2.480   0.662 -1.1862 -0.5792 -0.0374
 1271TIP3    H225373   0.611   2.528   0.701 -0.5678  0.6265  0.7361
 1272TIP3   OH225374   0.782   4.762   1.332 -0.5422  0.4769  0.3156
 1272TIP3    H125375   0.693   4.776   1.364 -1.2366 -0.9339 -0.8763
 1272TIP3    H225376   0.838   4.783   1.406 -1.9128  0.6764  1.3267
 1273TIP3   OH225377   3.480   6.178   1.250  0.4927 -0.5496  0.3650
 1273TIP3    H125378   3.502   6.135   1.333  1.5620 -0.4807  0.1366
 1273TIP3    H225379   3.386   6.195   1.255  0.6650  0.0852  1.8539
 1274TIP3   OH225380   4.101   6.226   1.037 -0.3465 -0.2148 -0.4844
 1274TIP3    H125381   4.153   6.150   1.009  2.4842  1.3807  0.0069
 1274TIP3    H225382   4.093   6.216   1.132  1.9947  1.0777 -0.0660
 1275TIP3   OH225383   2.511   4.628   7.481 -0.1935 -0.5177 -0.8756
 1275TIP3    H125384   2.508   4.583   7.566 -0.1122  1.6796  0.3479
 1275TIP3    H225385   2.425   4.613   7.444 -0.4415 -1.0113 -0.1370
 1276TIP3   OH225386   3.998   0.719   8.100 -0.2593 -0.5363  0.1304
 1276TIP3    H125387   4.015   0.784   8.169  0.1277 -1.1883  0.6663
 1276TIP3    H225388   4.083   0.706   8.058 -0.7504  0.8484 -1.3961
 1277TIP3   OH225389   0.101   4.288   8.249  0.2993  0.3455 -0.1122
 1277TIP3    H125390   0.190   4.254   8.251  0.1464 -0.0821 -0.3522
 1277TIP3    H225391   0.046   4.210   8.239 -0.0328  0.6980 -1.1691
 1278TIP3   OH225392   1.245   6.694   0.479 -0.1077  0.0347  0.2339
 1278TIP3    H125393   1.167   6.745   0.462 -0.5092 -0.6155  0.0911
 1278TIP3    H225394   1.226   6.645   0.559 -0.4532 -1.2632 -0.5980
 1279TIP3   OH225395   5.773   3.558   0.056 -0.1037 -1.0380  0.2933
 1279TIP3    H125396   5.824   3.544  -0.024  2.2595  0.1958  1.4921
 1279TIP3    H225397   5.732   3.644   0.043  1.6593 -0.0456  1.0385
 1280TIP3   OH225398   1.614   3.352   0.682  0.6233  0.0564 -0.1933
 1280TIP3    H125399   1.576   3.434   0.651  1.0299  0.0546 -0.7260
 1280TIP3    H225400   1.550   3.316   0.743  0.3491  0.6656 -0.1206
 1281TIP3   OH225401   6.626   5.123   0.958 -0.2519  0.1237 -0.1361
 1281TIP3    H125402   6.629   5.051   0.894 -0.9538  1.1257 -1.3338
 1281TIP3    H225403   6.704   5.175   0.938 -0.2040  0.1630  0.1571
 1282TIP3   OH225404   1.193   5.443   2.025 -0.4269 -0.2568  0.2379
 1282TIP3    H125405   1.248   5.515   2.056 -1.1613  0.5241 -0.2350
 1282TIP3    H225406   1.158   5.474   1.942 -0.5872 -1.2583 -0.0779
 1283TIP3   OH225407   6.121   4.936   1.717  0.5767 -0.0894 -0.2880
 1283TIP3    H125408   6.105   4.919   1.810  0.5317 -0.2385 -0.3229
 1283TIP3    H225409   6.121   5.031   1.710  0.1553 -0.0826 -0.2115
 1284TIP3   OH225410   0.962   5.415   8.758  0.0614  0.4108 -0.0155
 1284TIP3    H125411   0.978   5.327   8.723 -0.0443  0.4534 -0.1716
 1284TIP3    H225412   1.027   5.470   8.715  1.7824 -0.0013  1.8848
 1285TIP3   OH225413   2.583   1.983   1.960  0.2263 -0.3916 -0.3376
 1285TIP3    H125414   2.613   1.894   1.942 -1.4845 -0.8903 -0.9688
 1285TIP3    H225415   2.494   1.972   1.993  0.9353  0.9312  2.3425
 1286TIP3   OH225416   1.095   2.552   7.989  0.0814 -0.1295 -0.3113
 1286TIP3    H125417   1.075   2.479   7.931 -1.2071  0.8466 -1.1578
 1286TIP3    H225418   1.108   2.626   7.931 -1.6472  0.9711  0.6092
 1287TIP3   OH225419   4.366   4.120   1.392 -0.4762  0.0733 -0.4201
 1287TIP3    H125420   4.282   4.138   1.434 -0.3867  0.4755 -0.4133
 1287TIP3    H225421   4.346   4.117   1.299 -0.3683  0.9305 -0.4774
 1288TIP3   OH225422   0.200   2.274   0.803 -0.4914 -0.3624 -0.7336
 1288TIP3    H125423   0.200   2.241   0.713  0.1781 -1.4400 -0.3581
 1288TIP3    H225424   0.232   2.200   0.855  0.8796  0.8279  0.1672
 1289TIP3   OH225425   5.528   1.519   2.587  0.5762  0.0243  0.1780
 1289TIP3    H125426   5.539   1.425   2.603 -1.1946 -0.4535 -1.1780
 1289TIP3    H225427   5.493   1.553   2.669 -0.8794 -0.9250 -0.0203
 1290TIP3   OH225428   5.495   4.629   1.080  0.0821 -0.0831 -0.0007
 1290TIP3    H125429   5.456   4.702   1.033  0.8021 -0.1623 -0.7398
 1290TIP3    H225430   5.469   4.551   1.031  1.1409 -0.1359 -0.5029
 1291TIP3   OH225431   4.430   4.341   7.567  0.0059  0.1005  0.0292
 1291TIP3    H125432   4.351   4.387   7.593 -1.3145 -2.2383  0.4905
 1291TIP3    H225433   4.483   4.407   7.523 -2.4657  1.6379 -0.8835
 1292TIP3   OH225434   5.529   0.008   1.297 -0.5510 -0.7228 -0.3018
 1292TIP3    H125435   5.579   0.090   1.293 -1.4378  0.3542  4.4577
 1292TIP3    H225436   5.589  -0.054   1.339 -1.7932 -0.5871  1.7837
 1293TIP3   OH225437   3.164   6.362   2.254 -0.1103 -0.0500  0.0037
 1293TIP3    H125438   3.251   6.331   2.228  0.3634 -0.4099  1.9165
 1293TIP3    H225439   3.106   6.289   2.234  0.2806 -0.4121  0.1817
 1294TIP3   OH225440   3.855   0.950   0.902 -0.1819 -0.1164  0.4439
 1294TIP3    H125441   3.891   1.038   0.896 -0.2459 -0.1514 -3.6920
 1294TIP3    H225442   3.924   0.893   0.870 -0.4504 -1.5375  2.2229
 1295TIP3   OH225443   0.345   0.331   8.566 -0.1508 -0.8321 -0.8254
 1295TIP3    H125444   0.340   0.319   8.472  1.0126  1.7790 -1.3060
 1295TIP3    H225445   0.435   0.362   8.582 -1.0018  1.1088  0.7664
 1296TIP3   OH225446   2.878   5.463   1.807  0.2277  0.5592  0.5752
 1296TIP3    H125447   2.904   5.383   1.853 -1.2257 -0.1747  0.1754
 1296TIP3    H225448   2.915   5.453   1.719  1.3458  1.0618  0.9670
 1297TIP3   OH225449   3.364   0.256   1.405 -0.3735  0.1054 -0.1589
 1297TIP3    H125450   3.342   0.167   1.376 -1.1773 -0.6504  2.4556
 1297TIP3    H225451   3.459   0.255   1.415 -0.3209 -0.2826 -0.6508
 1298TIP3   OH225452   6.491   3.982   8.125  0.4367  0.4301 -0.3831
 1298TIP3    H125453   6.587   3.982   8.127  0.4336 -0.5222  0.4602
 1298TIP3    H225454   6.467   3.891   8.139 -0.6026  0.7262 -0.1580
 1299TIP3   OH225455   3.461   4.213   0.925 -0.0195  0.5998  0.2199
 1299TIP3    H125456   3.539   4.164   0.899 -1.3872 -1.5355 -0.0703
 1299TIP3    H225457   3.424   4.163   0.997 -1.5102  1.1536 -0.1215
 1300TIP3   OH225458   0.875   5.332   2.108 -0.5398 -0.5643 -0.6395
 1300TIP3    H125459   0.830   5.248   2.094  1.5360 -2.5119  2.9817
 1300TIP3    H225460   0.964   5.308   2.132  0.1945  2.7194  0.4149
 1301TIP3   OH225461   5.079   4.138   8.259 -0.6272  0.0484 -0.0142
 1301TIP3    H125462   5.004   4.190   8.290 -1.9074 -1.1393 -0.9917
 1301TIP3    H225463   5.110   4.186   8.182  0.7474  1.4472  1.3230
 1302TIP3   OH225464   0.986   0.331   7.629 -0.0651 -0.6863  0.0827
 1302TIP3    H125465   0.979   0.427   7.627  0.7166 -0.6246 -1.6333
 1302TIP3    H225466   0.899   0.300   7.603 -0.1379 -0.4208  0.0059
 1303TIP3   OH225467   4.486   3.601   8.344  0.4761  0.1798 -0.2148
 1303TIP3    H125468   4.485   3.657   8.267  2.0264  0.7318  0.1457
 1303TIP3    H225469   4.460   3.658   8.416 -1.0392 -0.3512 -0.3001
 1304TIP3   OH225470   3.138   2.656   0.240 -0.3451 -0.6512 -0.5710
 1304TIP3    H125471   3.150   2.585   0.177  2.3284 -0.0958 -0.8022
 1304TIP3    H225472   3.219   2.707   0.234 -0.1941 -0.2377  2.8655
 1305TIP3   OH225473   1.624   3.863   0.443 -0.1120  0.2002 -0.2008
 1305TIP3    H125474   1.709   3.855   0.487 -0.3169 -0.2124  0.1237
 1305TIP3    H225475   1.566   3.902   0.509 -0.3157 -0.0477 -0.2294
 1306TIP3   OH225476   0.193   5.971   2.178 -0.0969 -0.2978  0.5382
 1306TIP3    H125477   0.149   5.887   2.187 -2.1908  0.4604 -1.5122
 1306TIP3    H225478   0.213   5.978   2.084 -1.0229  1.9233  0.4276
 1307TIP3   OH225479   3.158   3.143   0.274 -0.4579  0.1934  0.2480
 1307TIP3    H125480   3.148   3.204   0.202  1.7493  2.0754  1.3988
 1307TIP3    H225481   3.095   3.172   0.340  0.2981  0.9989  0.6274
 1308TIP3   OH225482   3.599   6.074   0.344 -0.3044  0.4184  0.3735
 1308TIP3    H125483   3.563   5.989   0.320 -1.1486  1.3426 -2.0164
 1308TIP3    H225484   3.671   6.088   0.282 -0.0816  1.3760  0.8282
 1309TIP3   OH225485   4.936   6.100   8.882  0.0862 -0.7833  0.3761
 1309TIP3    H125486   4.853   6.147   8.892  0.2194 -0.4747  0.0551
 1309TIP3    H225487   4.999   6.152   8.932  0.2178 -0.6609  0.0831
 1310TIP3   OH225488   0.063   5.635   8.254 -0.0169 -0.1054 -0.1187
 1310TIP3    H125489   0.118   5.564   8.288  2.0022  2.4843  2.4949
 1310TIP3    H225490   0.118   5.676   8.187 -0.6388 -0.1470 -0.6653
 1311TIP3   OH225491   6.127   5.721   7.467  0.6214 -0.2336  0.4063
 1311TIP3    H125492   6.040   5.681   7.466  0.9219 -1.0572 -2.7975
 1311TIP3    H225493   6.112   5.811   7.438  0.8887 -0.6926 -1.2642
 1312TIP3   OH225494   6.744   6.668   2.297  0.1439  0.3195  0.5423
 1312TIP3    H125495   6.690   6.733   2.342 -0.7371 -0.4372  0.5924
 1312TIP3    H225496   6.762   6.708   2.211 -2.6686 -0.4458 -0.5118
 1313TIP3   OH225497   1.452   3.894   7.297  0.0660 -0.4953 -0.7683
 1313TIP3    H125498   1.537   3.877   7.337 -0.1609 -0.3825 -0.2331
 1313TIP3    H225499   1.473   3.940   7.215  0.5409 -0.9090 -0.8875
 1314TIP3   OH225500   4.994   6.606   7.381 -0.0423 -0.0280  0.6128
 1314TIP3    H125501   4.981   6.592   7.287  1.6727 -1.0570  0.4847
 1314TIP3    H225502   4.920   6.660   7.407 -1.4216 -0.9954 -1.0190
 1315TIP3   OH225503   3.308   2.062   3.072 -0.6667  0.4667  0.0673
 1315TIP3    H125504   3.379   2.040   3.133 -0.2432  4.3837  1.2218
 1315TIP3    H225505   3.228   2.054   3.124 -1.1004 -2.5698 -0.8541
 1316TIP3   OH225506   0.812   2.060   2.531 -0.2123 -0.3465 -0.0191
 1316TIP3    H125507   0.893   2.041   2.578 -0.1310  0.3050  0.1278
 1316TIP3    H225508   0.826   2.027   2.443 -0.1041 -0.9730  0.2259
 1317TIP3   OH225509   1.162   6.572   2.051  0.6485 -0.7373 -0.2103
 1317TIP3    H125510   1.252   6.546   2.030  1.6046  0.3891  2.1203
 1317TIP3    H225511   1.143   6.528   2.134  0.5774  2.0035  1.3767
 1318TIP3   OH225512   4.731   3.453   8.541  0.5329  0.9205 -0.6319
 1318TIP3    H125513   4.637   3.447   8.521 -0.1409 -0.4956  2.3825
 1318TIP3    H225514   4.740   3.535   8.589  0.4670  0.2248  0.6010
 1319TIP3   OH225515   3.172   5.989   7.351  0.0998  0.2707  0.2897
 1319TIP3    H125516   3.124   5.929   7.294  0.4883 -0.7028  0.9641
 1319TIP3    H225517   3.115   6.066   7.359 -0.7386 -0.3181  0.0187
 1320TIP3   OH225518   4.911   6.739   1.464  0.3849  0.2953  0.1144
 1320TIP3    H125519   4.815   6.740   1.459  0.4248  0.1366 -0.8130
 1320TIP3    H225520   4.931   6.669   1.525 -0.1051  0.9259  1.0339
 1321TIP3   OH225521   5.812   3.785   2.083  0.3207 -0.1293  0.0219
 1321TIP3    H125522   5.767   3.776   1.999 -1.5326 -1.3383  1.0773
 1321TIP3    H225523   5.743   3.778   2.148  2.0587 -2.4706  1.7735
 1322TIP3   OH225524   6.686   4.065   8.761  0.0716 -0.2693 -0.0616
 1322TIP3    H125525   6.768   4.017   8.769  2.3518  3.1371 -0.8911
 1322TIP3    H225526   6.678   4.112   8.844  0.6207  1.6226 -1.0027
 1323TIP3   OH225527   4.676   4.680   8.865  0.7190 -0.6204 -0.1490
 1323TIP3    H125528   4.639   4.625   8.796 -1.3604  1.0857 -0.5079
 1323TIP3    H225529   4.755   4.718   8.827  1.2622 -2.0052 -0.4659
 1324TIP3   OH225530   1.762   2.015   1.723 -0.2263 -0.2905 -0.0668
 1324TIP3    H125531   1.846   1.984   1.688  0.9196  2.7342 -0.3239
 1324TIP3    H225532   1.722   1.937   1.760  2.1173 -2.1182 -1.0518
 1325TIP3   OH225533   2.109   2.931   8.514  0.5607  0.0618  0.3966
 1325TIP3    H125534   2.084   2.905   8.425  1.6948 -0.8443  0.3231
 1325TIP3    H225535   2.157   2.856   8.548 -1.7826 -0.5928  2.6253
 1326TIP3   OH225536   2.994   2.579   1.270  0.6614  0.0024 -0.2578
 1326TIP3    H125537   2.989   2.664   1.225  0.3215 -0.5099 -1.2099
 1326TIP3    H225538   3.082   2.546   1.250  0.4960 -0.2431 -0.5995
 1327TIP3   OH225539   3.123   1.030   8.286 -0.3784  0.7020  0.3184
 1327TIP3    H125540   3.201   1.039   8.231  1.1681 -1.6323  1.9411
 1327TIP3    H225541   3.050   1.042   8.226  1.1837  2.4214 -1.3802
 1328TIP3   OH225542   1.650   1.326   2.476 -0.0196  0.4973 -0.2791
 1328TIP3    H125543   1.554   1.324   2.478 -0.0737 -1.4282 -1.3695
 1328TIP3    H225544   1.673   1.279   2.395  1.8488  0.3439  0.2811
 1329TIP3   OH225545   6.588   5.727   0.986 -0.4055  0.4443  0.3356
 1329TIP3    H125546   6.637   5.769   1.056 -2.1624  0.2469  1.7504
 1329TIP3    H225547   6.530   5.665   1.030 -1.7562  0.4760 -1.2729
 1330TIP3   OH225548   5.786   3.716   2.774  0.1320  0.0738  0.4159
 1330TIP3    H125549   5.709   3.671   2.809  0.2298 -0.4252  0.0075
 1330TIP3    H225550   5.798   3.792   2.831 -1.7762  1.2059 -0.5941
 1331TIP3   OH225551   2.529   2.339   1.565 -0.0093 -0.2844  0.1499
 1331TIP3    H125552   2.556   2.286   1.640 -1.2540 -0.8461  0.2177
 1331TIP3    H225553   2.585   2.310   1.493  1.0992  0.1606  0.8006
 1332TIP3   OH225554   1.073   4.231   7.542  0.0959  0.1002  0.2808
 1332TIP3    H125555   1.029   4.148   7.560  0.3379 -0.2870 -0.8418
 1332TIP3    H225556   1.166   4.208   7.536  0.3422  0.7181  1.4846
 1333TIP3   OH225557   4.685   5.904   7.406 -0.0834  0.0782 -0.3533
 1333TIP3    H125558   4.651   5.892   7.495 -2.2793  2.4485 -0.7619
 1333TIP3    H225559   4.611   5.887   7.349  0.2395  2.1736 -1.5063
 1334TIP3   OH225560   4.278   2.377   0.712  0.1339  0.0995 -0.2408
 1334TIP3    H125561   4.290   2.290   0.750 -0.3567 -0.1877 -0.7349
 1334TIP3    H225562   4.321   2.436   0.774  0.4277 -0.4870  0.1227
 1335TIP3   OH225563   2.181   2.239   1.817  0.3837  0.6574 -0.6885
 1335TIP3    H125564   2.102   2.225   1.765  0.4201 -0.7754 -0.4103
 1335TIP3    H225565   2.165   2.320   1.864 -1.3610 -0.1127  0.1193
 1336TIP3   OH225566   6.364   5.730   8.058  0.4126 -0.0175  0.5978
 1336TIP3    H125567   6.317   5.809   8.032 -1.6449 -1.3070  0.1807
 1336TIP3    H225568   6.455   5.759   8.069 -0.6162  2.8563  2.6430
 1337TIP3   OH225569   3.056   3.059   8.802 -0.0520 -0.0070 -0.2098
 1337TIP3    H125570   3.033   3.026   8.715 -2.5344 -0.7205  0.6200
 1337TIP3    H225571   3.120   3.128   8.786 -0.1345 -0.4011 -2.5564
 1338TIP3   OH225572   3.472   4.398   6.633 -0.6610 -0.1656  0.6615
 1338TIP3    H125573   3.521   4.442   6.703 -0.5936  1.5199 -0.3933
 1338TIP3    H225574   3.380   4.410   6.658 -0.6058 -1.6779  1.6708
 1339TIP3   OH225575   6.309   3.723   1.554  0.1207  0.1167 -0.3009
 1339TIP3    H125576   6.276   3.728   1.465  0.9786 -1.2357 -0.7255
 1339TIP3    H225577   6.362   3.802   1.566 -0.6524  0.7021 -0.6942
 1340TIP3   OH225578   4.489   1.748   0.992  0.4218 -0.0950 -0.0184
 1340TIP3    H125579   4.534   1.733   1.075  2.0459 -0.0241 -0.8641
 1340TIP3    H225580   4.401   1.712   1.006  0.6898 -0.1742  1.6825
 1341TIP3   OH225581   6.536   0.102   8.773 -0.4098 -0.4188 -0.2326
 1341TIP3    H125582   6.471   0.047   8.818 -1.3217  0.5244 -0.3409
 1341TIP3    H225583   6.500   0.114   8.685  0.0710 -0.1410 -0.3917
 1342TIP3   OH225584   1.968   4.563   8.241 -0.0639  0.2281  1.1592
 1342TIP3    H125585   2.048   4.522   8.271 -0.2120 -1.0602 -0.0961
 1342TIP3    H225586   1.900   4.532   8.301  0.1523  0.1758  1.3740
 1343TIP3   OH225587   6.182   1.857   1.877 -0.1843  0.4503  0.2446
 1343TIP3    H125588   6.192   1.861   1.782 -0.8088  1.0047  0.2003
 1343TIP3    H225589   6.244   1.789   1.904  0.1786  0.4595 -0.5273
 1344TIP3   OH225590   5.050   1.738   7.344 -0.1861 -0.1361  0.2093
 1344TIP3    H125591   4.986   1.673   7.315 -1.2169  0.4981  1.0112
 1344TIP3    H225592   5.112   1.688   7.398  1.3724 -1.2012 -2.3536
 1345TIP3   OH225593   3.037   2.016   0.579  0.4285 -0.0107 -0.1511
 1345TIP3    H125594   2.987   2.047   0.503 -0.1538  1.2835  0.7294
 1345TIP3    H225595   2.992   2.053   0.654  2.0239  0.1979  0.7377
 1346TIP3   OH225596   1.649   1.833   8.160  0.1681  0.2650 -0.3989
 1346TIP3    H125597   1.661   1.758   8.218 -1.1701 -0.9724 -1.6537
 1346TIP3    H225598   1.733   1.842   8.114  1.3863  1.4956  1.8704
 1347TIP3   OH225599   2.904   6.663   7.825  0.1614 -0.2303  0.1430
 1347TIP3    H125600   2.821   6.623   7.849  0.5549 -0.8779  0.4533
 1347TIP3    H225601   2.968   6.593   7.836  0.9033  0.5434  0.9596
 1348TIP3   OH225602   5.608   0.377   2.887  0.0309 -0.4216  0.0952
 1348TIP3    H125603   5.683   0.435   2.874  0.8870 -1.1419  1.6201
 1348TIP3    H225604   5.627   0.300   2.833 -0.1334 -0.1497 -0.3532
 1349TIP3   OH225605   0.090   6.581   1.700  0.3542  0.0652  0.1898
 1349TIP3    H125606   0.062   6.646   1.766 -0.0942  0.0982 -0.0255
 1349TIP3    H225607   0.109   6.633   1.622  0.6368  0.0008  0.2159
 1350TIP3   OH225608   5.536   5.332   7.622  0.1421  0.1138  0.1702
 1350TIP3    H125609   5.447   5.326   7.655  0.3766  2.4267  1.4137
 1350TIP3    H225610   5.530   5.300   7.532 -1.4087 -2.0869  0.9879
 1351TIP3   OH225611   3.638   0.871   2.842 -0.1959  0.2675  0.0724
 1351TIP3    H125612   3.563   0.874   2.901 -0.5309  0.0627 -0.3363
 1351TIP3    H225613   3.600   0.870   2.755  0.2854  0.1955 -0.1404
 1352TIP3   OH225614   5.337   0.091   2.005 -0.5412  0.1151 -0.1587
 1352TIP3    H125615   5.295   0.153   1.946  0.0249  0.1528 -0.5323
 1352TIP3    H225616   5.413   0.139   2.040  0.6846 -0.7698 -1.4766
 1353TIP3   OH225617   1.617   4.700   8.837 -0.7639 -0.1190 -0.1322
 1353TIP3    H125618   1.549   4.757   8.873 -0.8025  0.2794 -0.8107
 1353TIP3    H225619   1.595   4.613   8.869 -0.7837  0.2186  0.8070
 1354TIP3   OH225620   5.893   0.394   0.230  0.0808  0.2221 -0.1081
 1354TIP3    H125621   5.836   0.468   0.253  0.6397  1.1907 -1.6543
 1354TIP3    H225622   5.914   0.353   0.313  1.5124  3.1244  1.0930
 1355TIP3   OH225623   1.879   3.307   0.703 -0.1792  0.2570 -0.2861
 1355TIP3    H125624   1.906   3.362   0.629  0.5195  1.7272  1.0091
 1355TIP3    H225625   1.786   3.328   0.714 -0.2913  0.0234 -0.7350
 1356TIP3   OH225626   0.295   5.224   8.261 -0.1643  0.1695 -0.4790
 1356TIP3    H125627   0.286   5.265   8.175  0.6223  1.1987 -0.0909
 1356TIP3    H225628   0.337   5.291   8.315 -0.3017 -0.5976  0.6099
 1357TIP3   OH225629   3.040   2.531   2.269 -0.5623 -0.1186 -0.1303
 1357TIP3    H125630   3.127   2.544   2.306  0.0041 -1.0369 -1.0927
 1357TIP3    H225631   3.005   2.620   2.258  0.6150  0.3044 -0.5715
 1358TIP3   OH225632   3.644   4.885   0.197  0.3350  0.5003 -0.1096
 1358TIP3    H125633   3.710   4.868   0.263  0.4590 -2.5452 -0.8344
 1358TIP3    H225634   3.569   4.831   0.223  0.7966 -1.7565 -2.8835
 1359TIP3   OH225635   2.211   6.007   0.587  0.1565 -0.1485 -0.4261
 1359TIP3    H125636   2.137   5.983   0.643  0.1333  0.2272 -0.2944
 1359TIP3    H225637   2.235   6.095   0.615  1.9924 -1.0157  0.9821
 1360TIP3   OH225638   1.630   3.300   1.893  0.5039  0.1200  0.3326
 1360TIP3    H125639   1.671   3.386   1.899 -1.0622  0.8613  1.1070
 1360TIP3    H225640   1.632   3.278   1.800 -1.0737  2.0374 -0.1957
 1361TIP3   OH225641   3.716   6.047   7.736  0.5051 -0.3422  0.2215
 1361TIP3    H125642   3.747   6.068   7.649 -1.1538 -1.6466 -0.7531
 1361TIP3    H225643   3.639   6.102   7.749  1.2872  0.5603  1.3076
 1362TIP3   OH225644   4.543   3.518   0.976  0.0470 -0.6375  0.4413
 1362TIP3    H125645   4.626   3.538   1.020  0.2054  0.7065 -0.4142
 1362TIP3    H225646   4.569   3.470   0.898  0.0560 -0.0593  0.0792
 1363TIP3   OH225647   5.692   0.004   1.689 -0.1168 -0.1889 -0.1013
 1363TIP3    H125648   5.647   0.084   1.663 -3.0378 -1.7207 -0.1946
 1363TIP3    H225649   5.696  -0.049   1.610  0.9134 -0.5512  0.1674
 1364TIP3   OH225650   4.368   4.624   7.207 -0.3457 -0.4037 -0.2966
 1364TIP3    H125651   4.362   4.565   7.132 -1.5020  0.4075 -0.8879
 1364TIP3    H225652   4.296   4.599   7.264 -0.9105  0.4725 -0.6015
 1365TIP3   OH225653   6.075   1.357   8.785  0.2654 -0.0921  0.5958
 1365TIP3    H125654   5.986   1.383   8.764 -0.7969 -1.2882  3.2569
 1365TIP3    H225655   6.095   1.288   8.721  0.3582  1.8985 -1.6813
 1366TIP3   OH225656   1.599   6.632   8.835 -0.1231 -0.8875 -0.3444
 1366TIP3    H125657   1.578   6.556   8.780 -0.4042  0.2456 -1.8542
 1366TIP3    H225658   1.695   6.637   8.833 -0.0001 -1.9980  0.9318
 1367TIP3   OH225659   3.444   2.798   1.899 -0.2373 -0.7318 -0.4106
 1367TIP3    H125660   3.476   2.709   1.913  2.1675 -0.0534 -1.2610
 1367TIP3    H225661   3.521   2.848   1.874 -1.7991  1.2805 -1.4672
 1368TIP3   OH225662   6.744   4.438   0.525  0.7558 -0.3932  0.1129
 1368TIP3    H125663   6.826   4.454   0.476  0.5455 -0.9069 -0.4184
 1368TIP3    H225664   6.710   4.356   0.489 -1.0100  0.7952 -1.0967
 1369TIP3   OH225665   6.187   4.279   7.872  0.0905  0.0929  0.5423
 1369TIP3    H125666   6.232   4.339   7.814 -1.2759  0.1669 -0.4869
 1369TIP3    H225667   6.106   4.257   7.826  0.2961 -2.1179  1.1256
 1370TIP3   OH225668   5.557   1.875   0.996  0.3692  0.1204  0.0779
 1370TIP3    H125669   5.592   1.928   0.924  1.8409 -3.1189 -1.8233
 1370TIP3    H225670   5.463   1.871   0.979  0.3606  1.3812 -0.2365
 1371TIP3   OH225671   0.175   3.581   7.751  0.6063 -0.1953  0.5531
 1371TIP3    H125672   0.146   3.661   7.708  1.4705  0.3686  0.9751
 1371TIP3    H225673   0.121   3.575   7.830 -0.6314 -0.9627 -0.3108
 1372TIP3   OH225674   0.603   5.444   8.116  0.0831 -0.7359 -0.2399
 1372TIP3    H125675   0.644   5.371   8.164 -0.8445 -2.3758 -1.8050
 1372TIP3    H225676   0.530   5.403   8.070 -1.9043  1.6566  0.5945
 1373TIP3   OH225677   2.496   1.532   8.422 -0.3993 -0.0954  0.1654
 1373TIP3    H125678   2.559   1.475   8.377  0.3520  1.3644 -0.6955
 1373TIP3    H225679   2.411   1.490   8.406  0.1264 -0.9574 -0.4789
 1374TIP3   OH225680   1.700   5.899   1.084 -0.0809 -0.2062 -0.4746
 1374TIP3    H125681   1.608   5.877   1.074  0.0780 -1.2588  0.2611
 1374TIP3    H225682   1.742   5.817   1.109  1.0826  0.2269 -0.9221
 1375TIP3   OH225683   2.795   3.704   8.212  0.3538  0.0198  0.1634
 1375TIP3    H125684   2.887   3.729   8.203  0.2022  1.4975  1.9983
 1375TIP3    H225685   2.797   3.621   8.259  0.7491 -0.4563 -0.6723
 1376TIP3   OH225686   3.981   6.078   7.525 -0.1015  0.0053  0.2144
 1376TIP3    H125687   4.072   6.061   7.500  0.2016 -2.8645  2.7406
 1376TIP3    H225688   3.930   6.015   7.475 -0.2140 -1.0960  1.6634
 1377TIP3   OH225689   3.127   0.734   1.889  0.7151 -0.0778 -0.3022
 1377TIP3    H125690   3.053   0.706   1.835 -0.5309  1.5354  0.4689
 1377TIP3    H225691   3.087   0.761   1.972  2.2436  0.3089  0.3472
 1378TIP3   OH225692   4.499   4.486   2.792  0.0308 -0.4333 -0.0190
 1378TIP3    H125693   4.541   4.427   2.855  2.1951  1.7309  0.7030
 1378TIP3    H225694   4.560   4.491   2.719  1.4100  2.9881  1.1671
 1379TIP3   OH225695   1.602   1.114   0.695 -0.3671  0.0801 -0.2813
 1379TIP3    H125696   1.550   1.162   0.631 -0.6680 -0.1063 -0.1836
 1379TIP3    H225697   1.659   1.180   0.734 -1.2461  0.5035  0.3305
 1380TIP3   OH225698   1.600   3.059   0.777 -0.1947  0.2740  0.0780
 1380TIP3    H125699   1.669   3.049   0.713 -0.7116 -1.0361 -0.3005
 1380TIP3    H225700   1.538   3.120   0.737  0.6202  1.3078  0.3460
 1381TIP3   OH225701   3.757   0.956   3.456  0.7512 -0.1046 -0.3450
 1381TIP3    H125702   3.769   0.933   3.364  0.8933  0.1743 -0.4003
 1381TIP3    H225703   3.793   1.045   3.462  0.5393 -0.0373 -0.0685
 1382TIP3   OH225704   3.616   4.910   2.175  0.3033 -0.4968 -0.4820
 1382TIP3    H125705   3.541   4.913   2.117 -0.3343 -0.4053  0.3233
 1382TIP3    H225706   3.591   4.848   2.244  0.9967 -0.5326 -0.2464
 1383TIP3   OH225707   1.158   5.501   1.597 -0.4079 -0.0255  0.0008
 1383TIP3    H125708   1.114   5.476   1.515  0.4351  0.8321 -0.7418
 1383TIP3    H225709   1.092   5.490   1.665 -1.1997 -0.5221 -0.8385
 1384TIP3   OH225710   4.667   0.422   0.850 -0.1325  0.2029 -0.3230
 1384TIP3    H125711   4.676   0.331   0.881 -1.3746  0.1152 -0.1541
 1384TIP3    H225712   4.587   0.421   0.797 -0.9782  1.4977  0.8588
 1385TIP3   OH225713   0.110   1.369   1.157  0.5122 -0.4814  0.5005
 1385TIP3    H125714   0.040   1.353   1.093  0.0305  0.0229  0.8923
 1385TIP3    H225715   0.089   1.455   1.194  2.2302  0.4487 -0.5407
 1386TIP3   OH225716   0.783   5.423   0.026  0.0161 -0.1395 -0.3992
 1386TIP3    H125717   0.830   5.414  -0.057  1.1451  0.0023  0.2084
 1386TIP3    H225718   0.731   5.343   0.033  0.9749 -0.7944 -0.5963
 1387TIP3   OH225719   4.680   1.246   1.159  0.4093 -0.0498  0.2828
 1387TIP3    H125720   4.644   1.212   1.077 -0.2526  0.2032  0.4555
 1387TIP3    H225721   4.615   1.311   1.188  1.6315  1.3527 -0.0290
 1388TIP3   OH225722   4.237   4.526   2.828 -0.4666 -0.4530 -0.2756
 1388TIP3    H125723   4.328   4.498   2.817 -0.3970 -0.9030  1.2043
 1388TIP3    H225724   4.243   4.620   2.846 -0.1015 -0.7756  1.5512
 1389TIP3   OH225725   4.899   1.265   0.932 -0.4302  0.0583  0.0035
 1389TIP3    H125726   4.860   1.279   1.018  0.0022  0.5716  0.1194
 1389TIP3    H225727   4.983   1.222   0.950 -0.0778  0.6821 -0.1193
 1390TIP3   OH225728   3.041   0.687   0.649  0.1501  0.4353 -0.4732
 1390TIP3    H125729   3.029   0.621   0.580  0.1752 -0.1843  0.1041
 1390TIP3    H225730   3.096   0.644   0.714 -2.7560 -0.3466  1.6890
 1391TIP3   OH225731   3.346   1.051   8.122 -0.2346 -0.5976  0.8617
 1391TIP3    H125732   3.429   1.012   8.096 -1.2985 -1.2984 -1.8519
 1391TIP3    H225733   3.359   1.145   8.111  0.3616 -0.6482  1.0851
 1392TIP3   OH225734   6.240   5.635   1.510  0.1179  1.3625  0.2717
 1392TIP3    H125735   6.194   5.691   1.573  0.5125  0.3604  1.4773
 1392TIP3    H225736   6.280   5.697   1.449 -2.5186  2.2870 -0.6613
 1393TIP3   OH225737   0.678   3.337   8.379 -0.3347  0.9376  0.5265
 1393TIP3    H125738   0.662   3.284   8.457 -0.4242  0.1295 -0.0313
 1393TIP3    H225739   0.770   3.322   8.358 -0.0703  1.8404  0.9652
 1394TIP3   OH225740   4.074   6.564   3.089  0.3146 -0.6575 -0.3909
 1394TIP3    H125741   4.049   6.645   3.045  2.6904  1.8967  2.5486
 1394TIP3    H225742   4.079   6.500   3.018 -0.5575  1.9883 -3.0743
 1395TIP3   OH225743   4.869   2.735   2.844 -0.1773 -0.7295  1.3205
 1395TIP3    H125744   4.912   2.810   2.885  1.0682 -1.4972  1.4449
 1395TIP3    H225745   4.937   2.669   2.835  0.0894 -0.2112 -3.1510
 1396TIP3   OH225746   4.267   6.664   7.847  0.4408 -0.4039  0.0207
 1396TIP3    H125747   4.312   6.710   7.918 -0.2854 -1.3455  1.1292
 1396TIP3    H225748   4.312   6.580   7.841  1.4627  0.2230 -1.6824
 1397TIP3   OH225749   1.533   4.052   1.162 -0.8920  0.6691  0.5609
 1397TIP3    H125750   1.497   3.963   1.172  0.9124 -0.0317  1.2294
 1397TIP3    H225751   1.623   4.038   1.134 -1.1315  2.3682 -1.2032
 1398TIP3   OH225752   2.564   2.582   8.072  0.1834 -0.1125  0.2176
 1398TIP3    H125753   2.480   2.538   8.057 -0.0784  0.6477 -0.6209
 1398TIP3    H225754   2.543   2.655   8.130 -0.1041  1.2035 -1.4806
 1399TIP3   OH225755   1.239   6.481   8.737  0.1426 -0.4480 -0.0386
 1399TIP3    H125756   1.322   6.462   8.780  1.1908  0.0228 -1.7703
 1399TIP3    H225757   1.221   6.403   8.683  0.7694  0.4371 -1.5882
 1400TIP3   OH225758   6.621   5.666   1.927  0.6111 -0.0614  0.5217
 1400TIP3    H125759   6.587   5.682   1.840 -0.5878  0.4060  1.0553
 1400TIP3    H225760   6.633   5.752   1.966  0.3611 -0.2765  1.0991
 1401TIP3   OH225761   3.748   0.108   2.009 -0.0774 -0.6585 -0.0640
 1401TIP3    H125762   3.786   0.021   2.025 -2.6582 -1.8438  0.1005
 1401TIP3    H225763   3.789   0.137   1.928  3.6962 -0.2348  1.7473
 1402TIP3   OH225764   0.533   4.131   0.602  0.2228  0.2383  0.9357
 1402TIP3    H125765   0.609   4.078   0.582  0.0273  1.0093 -2.4936
 1402TIP3    H225766   0.459   4.070   0.600  0.2743  0.1805 -0.5941
 1403TIP3   OH225767   6.310   3.356   1.213  0.2543 -0.1031  0.1109
 1403TIP3    H125768   6.387   3.338   1.267 -0.4269  0.0607  1.1581
 1403TIP3    H225769   6.300   3.451   1.217  0.3376 -0.0683 -0.5011
 1404TIP3   OH225770   2.356   5.580   1.422 -0.3966 -0.3265  0.0392
 1404TIP3    H125771   2.366   5.595   1.516 -0.1982 -0.7396  0.0882
 1404TIP3    H225772   2.432   5.527   1.398 -1.0152 -1.1503 -0.1413
 1405TIP3   OH225773   0.459   0.630   3.202  0.2177 -0.0394 -0.0408
 1405TIP3    H125774   0.388   0.629   3.137  0.4066 -0.0641 -0.2502
 1405TIP3    H225775   0.533   0.669   3.155  0.3944 -0.1782  0.1206
 1406TIP3   OH225776   2.814   2.796   8.754 -0.7408  0.1603  0.0437
 1406TIP3    H125777   2.852   2.722   8.802  0.3098  1.4808  1.3204
 1406TIP3    H225778   2.803   2.864   8.820  0.7681  2.0608 -1.5503
 1407TIP3   OH225779   3.187   0.104   0.806  0.4335 -0.3660  0.6523
 1407TIP3    H125780   3.215   0.163   0.876 -1.0484 -0.1426  1.1006
 1407TIP3    H225781   3.158   0.025   0.851  0.3625 -0.5930  0.2144
 1408TIP3   OH225782   0.723   4.474   1.670  0.1484 -0.1212  0.4524
 1408TIP3    H125783   0.745   4.401   1.728 -0.1550 -0.9057 -0.4078
 1408TIP3    H225784   0.776   4.460   1.592  0.0270  0.5384  0.2413
 1409TIP3   OH225785   4.233   2.701   1.758  0.0891  0.3111  0.3466
 1409TIP3    H125786   4.164   2.751   1.714 -1.7972 -3.1571 -1.0391
 1409TIP3    H225787   4.209   2.701   1.850 -1.6684 -0.5123 -0.0667
 1410TIP3   OH225788   1.828   0.102   0.999  0.1629 -0.6098 -0.5795
 1410TIP3    H125789   1.778   0.062   0.928 -1.8198  0.0586  0.3698
 1410TIP3    H225790   1.861   0.184   0.962  0.9202 -1.2549 -1.3470
 1411TIP3   OH225791   0.621   1.726   0.466  0.1361 -0.9488  0.0708
 1411TIP3    H125792   0.658   1.705   0.551  2.1074  0.8735 -0.2489
 1411TIP3    H225793   0.648   1.817   0.449 -2.0527 -0.4973 -1.5471
 1412TIP3   OH225794   4.118   4.384   7.875 -0.1733 -0.3731  0.0280
 1412TIP3    H125795   4.113   4.291   7.894  0.3712 -0.8140 -1.7824
 1412TIP3    H225796   4.181   4.418   7.939 -0.0372 -1.3241  0.4147
 1413TIP3   OH225797   2.400   3.591   7.577  0.3180 -0.3613 -0.1235
 1413TIP3    H125798   2.468   3.559   7.636  0.1705  0.8885  0.7522
 1413TIP3    H225799   2.340   3.517   7.567  0.8442 -0.8900  0.5292
 1414TIP3   OH225800   4.722   4.637   8.264 -0.2266 -0.4613  0.3316
 1414TIP3    H125801   4.697   4.642   8.356 -1.2870 -0.3933  0.0549
 1414TIP3    H225802   4.809   4.676   8.260 -1.6005  2.9715  0.7358
 1415TIP3   OH225803   2.338   0.899   0.033 -0.3860 -0.0180 -0.3965
 1415TIP3    H125804   2.371   0.920  -0.054  0.9096 -1.1065 -0.2009
 1415TIP3    H225805   2.290   0.818   0.021 -0.4444 -0.0199 -0.1504
 1416TIP3   OH225806   2.797   1.597   2.809 -0.2496  0.0771  0.3546
 1416TIP3    H125807   2.753   1.623   2.728 -0.0631  0.7815  0.4753
 1416TIP3    H225808   2.737   1.536   2.851 -0.4194 -0.1622 -0.2340
 1417TIP3   OH225809   1.316   5.250   0.233  0.1057  0.0289 -0.3507
 1417TIP3    H125810   1.228   5.219   0.214 -0.1033 -1.3586  2.3476
 1417TIP3    H225811   1.306   5.303   0.313  1.6782 -0.0669 -0.0538
 1418TIP3   OH225812   5.725   1.269   7.571 -0.0529  0.4038 -0.0386
 1418TIP3    H125813   5.760   1.205   7.508  1.8781  1.1623  0.1982
 1418TIP3    H225814   5.634   1.279   7.546 -0.1658 -1.7256 -0.6795
 1419TIP3   OH225815   5.118   0.808   8.051 -0.0597 -0.3696  0.1278
 1419TIP3    H125816   5.147   0.723   8.016 -0.1854 -0.2842 -0.1945
 1419TIP3    H225817   5.079   0.853   7.975  0.6199  0.2516  0.1385
 1420TIP3   OH225818   1.802   1.287   8.122 -0.6234  0.3108 -0.3388
 1420TIP3    H125819   1.876   1.228   8.104 -0.9204 -0.2179  0.1371
 1420TIP3    H225820   1.740   1.269   8.051  0.5618  2.2744 -1.9772
 1421TIP3   OH225821   0.959   1.854   1.743  0.0255  0.1552 -0.3559
 1421TIP3    H125822   1.003   1.933   1.714 -0.4378  0.6218  0.1719
 1421TIP3    H225823   1.029   1.796   1.773  0.2306  1.9667  3.1420
 1422TIP3   OH225824   3.645   4.965   2.540 -0.0398 -0.1982  0.2040
 1422TIP3    H125825   3.560   5.009   2.536 -0.7749 -1.1709  3.0221
 1422TIP3    H225826   3.626   4.878   2.574  2.0538 -0.6124  0.4701
 1423TIP3   OH225827   4.821   5.049   8.418  0.6463  0.1241  0.1725
 1423TIP3    H125828   4.902   5.086   8.453  0.5667 -0.8906  1.5159
 1423TIP3    H225829   4.753   5.114   8.441  0.7753  0.0113  0.9085
 1424TIP3   OH225830   3.882   4.812   0.980 -0.2660  0.1114  0.4400
 1424TIP3    H125831   3.887   4.767   0.897 -0.3441  1.0961 -0.1166
 1424TIP3    H225832   3.917   4.750   1.044  0.8085 -0.2693 -0.4840
 1425TIP3   OH225833   1.677   0.532   1.001 -0.1383  0.0716  0.0929
 1425TIP3    H125834   1.587   0.560   1.017 -0.3796 -0.3586 -0.4940
 1425TIP3    H225835   1.672   0.476   0.923  0.8308  1.1696 -0.8015
 1426TIP3   OH225836   2.545   1.324   7.373 -0.1047  0.5367  0.0989
 1426TIP3    H125837   2.548   1.420   7.379 -0.7565  0.4710  2.4295
 1426TIP3    H225838   2.636   1.296   7.382 -0.0521  0.8980  0.6991
 1427TIP3   OH225839   1.844   1.308   7.353 -0.7426  0.1642 -0.0911
 1427TIP3    H125840   1.763   1.325   7.401  0.1154 -0.0296  1.4804
 1427TIP3    H225841   1.914   1.338   7.411  0.3771 -0.7964 -0.8774
 1428TIP3   OH225842   2.494   2.938   0.228  0.3729 -0.1234 -0.1239
 1428TIP3    H125843   2.437   3.014   0.237 -0.1380 -0.3449 -1.3971
 1428TIP3    H225844   2.507   2.908   0.318 -0.7671  0.4736  0.2573
 1429TIP3   OH225845   3.974   2.414   0.140 -0.4463 -0.0399  0.2992
 1429TIP3    H125846   3.881   2.427   0.126 -0.8038  1.5573  3.4440
 1429TIP3    H225847   3.980   2.351   0.212  0.8794  0.3667  0.5822
 1430TIP3   OH225848   4.733   5.757   7.705 -0.2140  0.5851  0.2961
 1430TIP3    H125849   4.818   5.789   7.735  0.3294  1.2547 -1.7672
 1430TIP3    H225850   4.747   5.664   7.689 -0.0370  0.5642  0.5744
 1431TIP3   OH225851   2.921   5.796   0.569 -0.0603  0.1103  0.0736
 1431TIP3    H125852   2.974   5.866   0.530  0.1101  0.6937  1.3166
 1431TIP3    H225853   2.854   5.842   0.620  1.0769 -0.5607  2.3194
 1432TIP3   OH225854   3.802   1.125   7.250  0.5458  0.4271 -0.1887
 1432TIP3    H125855   3.880   1.085   7.289 -0.2840 -1.3116 -0.2276
 1432TIP3    H225856   3.730   1.095   7.304 -0.2120  1.2432 -0.7164
 1433TIP3   OH225857   3.755   2.242   8.830  0.3898  0.2005 -0.1596
 1433TIP3    H125858   3.841   2.199   8.833  0.6303  0.5956 -0.9145
 1433TIP3    H225859   3.735   2.263   8.921  0.1855 -1.6266  0.2456
 1434TIP3   OH225860   5.910   5.658   2.840  0.1254 -0.2115  0.3359
 1434TIP3    H125861   5.893   5.735   2.786  2.1383 -0.1359 -0.2609
 1434TIP3    H225862   5.873   5.680   2.926 -1.3761  0.4446 -0.4391
 1435TIP3   OH225863   0.862   0.581   7.663  0.1041  0.1453 -0.2762
 1435TIP3    H125864   0.834   0.615   7.578  0.5698 -1.6164 -1.1731
 1435TIP3    H225865   0.844   0.653   7.724 -2.9334  0.4459 -1.3551
 1436TIP3   OH225866   5.186   3.049   0.255  0.0027 -0.0665  0.1816
 1436TIP3    H125867   5.123   3.091   0.197 -0.2534  1.4480  1.4686
 1436TIP3    H225868   5.156   3.072   0.343  0.2539 -2.4526  0.9535
 1437TIP3   OH225869   4.475   4.584   8.127  0.1389  0.2473 -0.5891
 1437TIP3    H125870   4.553   4.588   8.184 -0.2148  0.4613 -0.1136
 1437TIP3    H225871   4.464   4.673   8.095 -1.7870  1.0339  1.9271
 1438TIP3   OH225872   5.207   2.843   1.726  0.2816  0.8777  0.2963
 1438TIP3    H125873   5.248   2.835   1.640  1.2709  0.8995  0.7467
 1438TIP3    H225874   5.150   2.920   1.719 -0.4890  0.2413 -0.6505
 1439TIP3   OH225875   0.793   0.994   1.912 -0.2801  0.0430 -0.6991
 1439TIP3    H125876   0.839   0.923   1.866 -0.1804 -0.3525 -0.0094
 1439TIP3    H225877   0.728   1.025   1.849 -0.2334 -0.5734 -1.0612
 1440TIP3   OH225878   4.980   5.951   8.657 -0.4099  0.3090 -0.1875
 1440TIP3    H125879   4.980   6.003   8.737 -1.8194  0.8126 -0.4913
 1440TIP3    H225880   4.887   5.941   8.635 -0.0267  1.2124 -2.4307
 1441TIP3   OH225881   0.086   5.260   0.860  0.0269  0.3966 -0.2790
 1441TIP3    H125882   0.114   5.346   0.889 -0.2027 -0.1096  1.6021
 1441TIP3    H225883   0.165   5.219   0.826  0.8283  0.3152  1.5629
 1442TIP3   OH225884   2.948   3.425   2.437 -0.7512  0.0500  0.0877
 1442TIP3    H125885   2.991   3.484   2.375  0.0016  1.5348  1.9156
 1442TIP3    H225886   2.854   3.438   2.422 -0.5849  0.2738 -0.8123
 1443TIP3   OH225887   0.042   0.406   8.665 -0.7362 -0.1320  0.7932
 1443TIP3    H125888   0.086   0.444   8.741  0.5286  0.5500 -0.2550
 1443TIP3    H225889   0.004   0.481   8.619 -0.8375 -0.4611  0.3362
 1444TIP3   OH225890   4.373   4.808   7.988 -0.4150  0.6435  0.3606
 1444TIP3    H125891   4.442   4.873   7.999 -0.2080  0.6032 -0.6323
 1444TIP3    H225892   4.371   4.790   7.894  0.7154 -2.0740  0.7467
 1445TIP3   OH225893   6.287   4.059   8.813  0.3058  0.1406  0.6087
 1445TIP3    H125894   6.257   4.148   8.793  2.6917  0.5484 -1.6244
 1445TIP3    H225895   6.333   4.067   8.897  1.0873  1.1730  0.0956
 1446TIP3   OH225896   4.574   4.206   2.819  0.1376  0.5068  0.7447
 1446TIP3    H125897   4.567   4.158   2.901  0.9790  0.4673  0.8015
 1446TIP3    H225898   4.632   4.152   2.765 -0.3575  0.5643  0.1500
 1447TIP3   OH225899   2.062   5.687   7.368 -0.1290 -0.6026 -0.0568
 1447TIP3    H125900   2.152   5.683   7.400 -1.1784  0.3571  3.4494
 1447TIP3    H225901   2.069   5.671   7.274  3.5926 -1.2246  0.1906
 1448TIP3   OH225902   4.168   5.350   1.753 -0.2982 -0.3211 -0.4377
 1448TIP3    H125903   4.202   5.265   1.780 -0.4378  0.1677  1.4128
 1448TIP3    H225904   4.073   5.338   1.748 -0.6975  0.4028  2.9149
 1449TIP3   OH225905   6.686   0.579   2.712 -0.3895 -0.0385  0.3892
 1449TIP3    H125906   6.614   0.587   2.774 -0.3717  0.2783  0.3750
 1449TIP3    H225907   6.761   0.620   2.757 -0.0449 -0.9648  0.6730
 1450TIP3   OH225908   4.984   1.870   1.421 -0.0427 -0.0856 -0.5332
 1450TIP3    H125909   4.962   1.777   1.430  0.1325 -0.0957 -0.1834
 1450TIP3    H225910   4.927   1.901   1.351 -1.6522  0.0466  0.7724
 1451TIP3   OH225911   5.100   4.104   1.172  0.7267  0.4028 -0.2625
 1451TIP3    H125912   5.166   4.092   1.103  1.0610  2.6619 -0.4330
 1451TIP3    H225913   5.039   4.168   1.135 -0.7899 -0.5621  0.4514
 1452TIP3   OH225914   2.186   6.642   2.218  0.0663 -0.2230 -0.4141
 1452TIP3    H125915   2.216   6.730   2.197  0.4522 -0.2832 -0.1367
 1452TIP3    H225916   2.133   6.616   2.143 -0.4892  0.4437 -0.2609
 1453TIP3   OH225917   6.125   0.101   8.009  0.3455 -0.0187 -0.5343
 1453TIP3    H125918   6.090   0.159   8.076  0.8932  1.0304 -1.1362
 1453TIP3    H225919   6.204   0.145   7.977  0.7554 -1.0727 -1.0400
 1454TIP3   OH225920   4.999   4.503   0.738  0.2422 -0.1388 -0.3452
 1454TIP3    H125921   5.022   4.570   0.802 -0.5152  0.0188 -0.2318
 1454TIP3    H225922   4.943   4.442   0.786  1.7852 -1.4676 -0.1318
 1455TIP3   OH225923   2.670   1.268   1.831 -0.1204 -0.0843  0.3707
 1455TIP3    H125924   2.708   1.350   1.863 -0.1110  0.5899 -1.3047
 1455TIP3    H225925   2.718   1.248   1.751 -1.9851 -0.2364 -0.7674
 1456TIP3   OH225926   5.822   2.341   1.276  0.1553 -0.4106  0.6706
 1456TIP3    H125927   5.794   2.422   1.320  1.2651  0.8508 -0.8391
 1456TIP3    H225928   5.750   2.320   1.216  0.5055  0.3557 -0.0414
 1457TIP3   OH225929   1.242   2.251   0.479  0.0461 -0.5015  0.3170
 1457TIP3    H125930   1.331   2.221   0.497 -0.2103 -1.1441  0.5624
 1457TIP3    H225931   1.243   2.345   0.499  1.2904  0.0579 -1.9913
 1458TIP3   OH225932   4.434   6.652   0.461 -0.0384 -0.1146  0.1730
 1458TIP3    H125933   4.487   6.701   0.524 -0.8501  2.4159 -0.9555
 1458TIP3    H225934   4.375   6.599   0.515 -0.2172  1.4160  1.5667
 1459TIP3   OH225935   6.597   1.176   2.508  0.0434  0.2347 -0.0250
 1459TIP3    H125936   6.556   1.256   2.540 -0.3615 -0.5418  1.5044
 1459TIP3    H225937   6.525   1.123   2.473  0.1017 -0.0222  0.2327
 1460TIP3   OH225938   3.895   0.999   2.982  0.2516 -0.4656  0.2556
 1460TIP3    H125939   3.922   0.925   2.927 -1.1242 -0.0830 -1.0052
 1460TIP3    H225940   3.843   0.959   3.052 -1.8950 -0.6641 -1.3236
 1461TIP3   OH225941   4.820   1.340   8.806 -0.2367  0.1389 -0.9438
 1461TIP3    H125942   4.910   1.320   8.834 -0.6864 -2.8329 -1.3182
 1461TIP3    H225943   4.767   1.329   8.886 -0.5602 -0.7408 -1.2674
 1462TIP3   OH225944   4.931   6.556   8.589  0.4284  0.2812 -0.0178
 1462TIP3    H125945   4.891   6.557   8.676 -0.4353 -3.7864 -0.1644
 1462TIP3    H225946   4.865   6.595   8.532  0.6021  2.0716  0.9287
 1463TIP3   OH225947   4.830   1.131   3.336 -0.2657  0.3496  0.1950
 1463TIP3    H125948   4.855   1.219   3.364  2.1630  0.1887 -1.1562
 1463TIP3    H225949   4.909   1.079   3.349 -1.5578 -1.6138  0.6955
 1464TIP3   OH225950   3.110   1.380   1.593  0.1873 -0.1490  0.0751
 1464TIP3    H125951   3.036   1.321   1.580  0.5974 -1.0526  1.5809
 1464TIP3    H225952   3.129   1.374   1.686  1.6922  0.6355 -0.1551
 1465TIP3   OH225953   2.309   0.720   2.631  0.3343 -0.7689 -0.0551
 1465TIP3    H125954   2.219   0.688   2.634  0.3294 -0.8316 -0.6436
 1465TIP3    H225955   2.363   0.645   2.657  0.2121 -0.7284  0.3050
 1466TIP3   OH225956   5.817   5.776   0.333  0.3841 -0.4650 -0.1645
 1466TIP3    H125957   5.858   5.764   0.247 -1.1587 -0.1850 -0.9776
 1466TIP3    H225958   5.860   5.853   0.369  0.4239 -0.0273 -1.1009
 1467TIP3   OH225959   3.186   2.975   3.376  0.1711  0.0067  0.1983
 1467TIP3    H125960   3.180   3.069   3.362 -0.9275  0.3381  2.3604
 1467TIP3    H225961   3.095   2.945   3.378  0.5024 -1.1321 -0.5151
 1468TIP3   OH225962   0.234   2.585   8.154  0.2330  0.0826 -0.6195
 1468TIP3    H125963   0.221   2.509   8.098 -0.3421 -0.2814  0.0024
 1468TIP3    H225964   0.281   2.551   8.230 -2.3888 -0.2608  0.9788
 1469TIP3   OH225965   4.132   0.857   1.880  0.0406 -0.3028  0.5037
 1469TIP3    H125966   4.093   0.818   1.958  1.4057 -0.5334  1.0955
 1469TIP3    H225967   4.148   0.948   1.904  0.2201 -0.3068  0.3999
 1470TIP3   OH225968   4.435   3.669   2.490 -0.1022  0.2678  0.1873
 1470TIP3    H125969   4.427   3.578   2.462 -1.9098  0.0978  1.1486
 1470TIP3    H225970   4.527   3.678   2.515 -0.3687 -2.0486  2.4071
 1471TIP3   OH225971   0.036   3.683   2.207 -0.3297  0.3680  0.3014
 1471TIP3    H125972  -0.031   3.720   2.148 -0.4530 -1.7933 -1.0252
 1471TIP3    H225973  -0.012   3.623   2.263  0.0595  1.1800  1.5453
 1472TIP3   OH225974   1.878   2.236   1.856  0.0044  0.5975  0.1769
 1472TIP3    H125975   1.902   2.185   1.932  1.9391  0.8828 -0.1895
 1472TIP3    H225976   1.832   2.175   1.799 -0.0335 -0.0249  0.8678
 1473TIP3   OH225977   6.246   3.188   8.939  0.2072 -0.3106  0.0212
 1473TIP3    H125978   6.279   3.125   9.004 -0.2629  0.3209  0.8889
 1473TIP3    H225979   6.228   3.267   8.989 -2.7519 -0.6333 -0.3506
 1474TIP3   OH225980   1.166   2.007   7.748  0.1029  0.4876 -0.9353
 1474TIP3    H125981   1.179   2.005   7.842 -3.0700  1.8255 -0.3210
 1474TIP3    H225982   1.246   1.971   7.711  1.2323 -0.5918  2.2687
 1475TIP3   OH225983   3.881   4.455   1.073  0.3649 -0.5818 -0.0239
 1475TIP3    H125984   3.959   4.499   1.106  1.2673 -2.0966 -0.0382
 1475TIP3    H225985   3.867   4.491   0.986  0.1686  0.7417  0.5295
 1476TIP3   OH225986   5.669   3.388   2.153 -0.3110  0.2510 -0.0181
 1476TIP3    H125987   5.681   3.437   2.235  0.6717 -2.2320  1.4026
 1476TIP3    H225988   5.746   3.410   2.100  1.9446 -2.2571  2.0074
 1477TIP3   OH225989   1.343   1.753   8.812  0.2091  0.3127  0.1373
 1477TIP3    H125990   1.296   1.825   8.771  0.2183 -0.8402 -2.0272
 1477TIP3    H225991   1.434   1.781   8.813 -0.0612  1.2571  1.4844
 1478TIP3   OH225992   3.925   2.597   2.097  0.1373  0.7303  0.8246
 1478TIP3    H125993   4.016   2.584   2.070 -0.0509  0.9716  0.0694
 1478TIP3    H225994   3.932   2.640   2.182  0.7371 -1.2223  1.8201
 1479TIP3   OH225995   1.662   5.996   8.160  0.5267  0.2817 -0.1130
 1479TIP3    H125996   1.572   6.001   8.129  0.8390  2.5631 -0.8462
 1479TIP3    H225997   1.657   5.942   8.239 -0.9851 -2.0151 -1.6674
 1480TIP3   OH225998   1.834   5.358   2.062 -0.4340 -0.3839 -0.3719
 1480TIP3    H125999   1.893   5.396   2.127 -0.4003 -0.3124 -0.4441
 1480TIP3    H226000   1.748   5.362   2.103 -1.0119  2.7758 -1.5960
 1481TIP3   OH226001   1.676   0.715   2.495 -0.6747  0.3043 -0.6944
 1481TIP3    H126002   1.684   0.733   2.589 -1.2204  1.4978 -0.8530
 1481TIP3    H226003   1.600   0.658   2.488 -0.3607 -0.1580 -0.3709
 1482TIP3   OH226004   5.432   5.368   8.229 -0.3412 -0.3989 -0.2128
 1482TIP3    H126005   5.431   5.361   8.134  1.7164 -0.4628 -0.2722
 1482TIP3    H226006   5.461   5.457   8.247 -2.5858  0.2842  0.4248
 1483TIP3   OH226007   0.890   5.681   8.219 -0.5963  0.6745  0.0315
 1483TIP3    H126008   0.884   5.736   8.141  0.9487 -0.6844 -1.0790
 1483TIP3    H226009   0.973   5.635   8.211  0.4994  1.7272  3.3307
 1484TIP3   OH226010   3.218   4.376   7.327  0.3742 -0.0824 -0.0097
 1484TIP3    H126011   3.240   4.328   7.247 -1.7631 -0.2248 -0.5716
 1484TIP3    H226012   3.123   4.384   7.325  0.3078  0.4628  2.2270
 1485TIP3   OH226013   5.998   6.134   2.650 -0.6749  0.0180  0.2798
 1485TIP3    H126014   6.078   6.101   2.691 -0.3385 -1.0898 -1.1880
 1485TIP3    H226015   5.939   6.059   2.649 -0.8156  0.1284 -0.8943
 1486TIP3   OH226016   5.168   0.107   0.419  0.7059  0.5465 -0.3944
 1486TIP3    H126017   5.126   0.193   0.420  0.2855  0.3364  1.1630
 1486TIP3    H226018   5.103   0.050   0.378  0.1137  0.5568  0.5037
 1487TIP3   OH226019   3.347   6.458   1.802  0.2342  0.0254 -0.5674
 1487TIP3    H126020   3.375   6.420   1.719  1.2294 -0.5035 -0.0011
 1487TIP3    H226021   3.428   6.475   1.850 -0.1916  2.2244 -0.4902
 1488TIP3   OH226022   2.025   3.342   1.443 -0.1159 -0.9347 -0.3402
 1488TIP3    H126023   2.060   3.409   1.502  0.4284 -0.4078 -1.2425
 1488TIP3    H226024   2.076   3.263   1.464 -1.9525 -1.6281  1.9756
 1489TIP3   OH226025   2.667   2.937   2.374 -0.5386  0.3979  0.3212
 1489TIP3    H126026   2.696   2.974   2.290 -0.7497  2.8089  1.2258
 1489TIP3    H226027   2.595   2.995   2.402 -2.2738 -1.9060  0.9632
 1490TIP3   OH226028   6.612   0.529   2.451 -0.1016 -0.5656  0.2583
 1490TIP3    H126029   6.519   0.509   2.459 -0.7387  2.0780  0.2341
 1490TIP3    H226030   6.641   0.547   2.540 -0.0772  0.3577  0.0749
 1491TIP3   OH226031   2.371   1.478   2.641  0.2634  0.0214 -0.1857
 1491TIP3    H126032   2.410   1.550   2.691  0.6316 -0.4262  0.1785
 1491TIP3    H226033   2.351   1.517   2.556 -0.6903  0.8911  0.4022
 1492TIP3   OH226034   2.366   5.866   7.830  0.6224 -0.4028  0.6370
 1492TIP3    H126035   2.340   5.782   7.869 -1.2924 -0.1664 -0.0472
 1492TIP3    H226036   2.429   5.842   7.761  0.3800 -1.2424  0.7005
 1493TIP3   OH226037   3.850   5.339   1.086 -0.6023 -0.3136  0.1936
 1493TIP3    H126038   3.794   5.360   1.011 -0.8871  0.8701  0.7243
 1493TIP3    H226039   3.928   5.393   1.073 -0.1270 -0.9888  0.1456
 1494TIP3   OH226040   4.518   0.329   3.056 -0.3427  0.2170 -0.0713
 1494TIP3    H126041   4.559   0.256   3.011 -1.1752 -0.4842  0.2726
 1494TIP3    H226042   4.587   0.395   3.064  0.5871 -0.7650  0.1327
 1495TIP3   OH226043   3.416   0.145   7.829  0.0808  0.2544 -0.2090
 1495TIP3    H126044   3.359   0.084   7.876 -2.2305  0.7887 -2.1051
 1495TIP3    H226045   3.473   0.090   7.777 -0.5796 -0.3046 -0.3492
 1496TIP3   OH226046   1.325   1.436   1.199 -0.3074  0.5256 -0.0504
 1496TIP3    H126047   1.303   1.405   1.112  3.0008  0.4855 -1.0083
 1496TIP3    H226048   1.270   1.384   1.258  0.5254 -2.7574 -1.9061
 1497TIP3   OH226049   3.458   2.049   3.329  0.8207 -0.2093 -0.6424
 1497TIP3    H126050   3.430   1.993   3.402  1.1337  0.7811  0.2688
 1497TIP3    H226051   3.435   2.138   3.357  1.5476  0.2524 -1.4722
 1498TIP3   OH226052   3.702   2.471   2.205  0.2006  0.2442 -0.0726
 1498TIP3    H126053   3.776   2.510   2.158 -0.6638  0.9524 -0.8929
 1498TIP3    H226054   3.705   2.512   2.292  0.1178  1.1310 -0.4726
 1499TIP3   OH226055   2.879   2.010   2.724 -0.3029 -0.4422 -0.3326
 1499TIP3    H126056   2.899   2.023   2.631  1.0745 -0.8328 -0.1160
 1499TIP3    H226057   2.958   1.970   2.760 -0.3494  0.8039  1.2549
 1500TIP3   OH226058   4.635   3.646   1.787  0.0042  0.6841  0.2885
 1500TIP3    H126059   4.598   3.734   1.794  0.1106  0.8941 -1.3445
 1500TIP3    H226060   4.730   3.661   1.782  0.1038  0.3835  1.1728
 1501TIP3   OH226061   1.501   0.913   8.012 -0.2367  0.6979  0.4833
 1501TIP3    H126062   1.496   0.955   8.098  1.7151  0.8612  0.5644
 1501TIP3    H226063   1.534   0.982   7.954  1.9366 -0.3489  0.3837
 1502TIP3   OH226064   4.696   6.195   0.047  0.3590 -0.4814  0.2911
 1502TIP3    H126065   4.624   6.139   0.020 -0.1512 -0.3164  1.2831
 1502TIP3    H226066   4.655   6.279   0.069  0.7386 -0.6241  1.6117
 1503TIP3   OH226067   1.885   3.530   8.648 -0.1588  0.5872 -0.0403
 1503TIP3    H126068   1.926   3.605   8.692 -0.7710 -0.1599  1.9247
 1503TIP3    H226069   1.955   3.464   8.644 -0.5550  0.0252  1.5049
 1504TIP3   OH226070   4.095   5.731   8.841 -0.0208  0.8450  0.5233
 1504TIP3    H126071   4.046   5.724   8.759 -0.0796  1.7252  0.4760
 1504TIP3    H226072   4.155   5.656   8.839  1.5591  2.0346 -1.4108
 1505TIP3   OH226073   4.889   4.957   7.207 -0.3776 -0.3156 -0.7092
 1505TIP3    H126074   4.906   5.047   7.179  0.4567 -0.4691 -0.7155
 1505TIP3    H226075   4.862   4.912   7.127  1.3924 -0.5986 -1.1977
 1506TIP3   OH226076   1.107   5.626   0.823 -0.2151 -0.2475 -0.1449
 1506TIP3    H126077   1.142   5.713   0.803  0.5404 -0.1742  1.3072
 1506TIP3    H226078   1.175   5.565   0.794  0.6630 -0.1637  1.5744
 1507TIP3   OH226079   5.487   3.927   1.055  0.3649  0.0225  0.2441
 1507TIP3    H126080   5.460   3.927   0.963  0.1746 -2.0686  0.2518
 1507TIP3    H226081   5.577   3.958   1.054  0.0728  0.8782 -0.5275
 1508TIP3   OH226082   6.141   1.543   8.241 -0.0397  0.3744  0.0530
 1508TIP3    H126083   6.236   1.543   8.247  0.0679 -1.3508 -0.9797
 1508TIP3    H226084   6.122   1.582   8.156 -0.1404 -0.7955 -0.4853
 1509TIP3   OH226085   2.830   2.175   0.005 -0.0621  0.0984  0.0934
 1509TIP3    H126086   2.865   2.225   0.079  2.4466 -0.0906 -0.8544
 1509TIP3    H226087   2.801   2.241  -0.057  1.2454  0.3748 -0.2551
 1510TIP3   OH226088   4.626   4.864   1.325 -0.0763  0.1832 -0.2641
 1510TIP3    H126089   4.718   4.867   1.299  0.5022  1.2255  1.6581
 1510TIP3    H226090   4.596   4.777   1.298  0.2171  1.2336 -4.6075
 1511TIP3   OH226091   4.268   1.967   2.003  0.5914 -0.2727 -0.0723
 1511TIP3    H126092   4.285   1.884   1.958  1.6296 -0.9798  1.5463
 1511TIP3    H226093   4.246   1.942   2.092 -0.6780  1.1379  0.0555
 1512TIP3   OH226094   5.354   4.226   2.249  0.3348 -0.0689 -0.1584
 1512TIP3    H126095   5.401   4.210   2.331  1.8587  2.3444 -0.4779
 1512TIP3    H226096   5.278   4.278   2.275 -0.1695 -0.8082 -0.1047
 1513TIP3   OH226097   5.134   3.639   7.221  0.4050  0.2846 -0.0131
 1513TIP3    H126098   5.132   3.564   7.280  1.2602  1.2092  1.2260
 1513TIP3    H226099   5.045   3.675   7.226  1.0125  1.6676  2.5232
 1514TIP3   OH226100   4.168   1.296   1.021 -0.3307 -0.5576 -0.0907
 1514TIP3    H126101   4.188   1.389   1.032 -0.9867 -0.3283 -0.7842
 1514TIP3    H226102   4.106   1.276   1.092 -0.6028 -0.3373 -0.2658
 1515TIP3   OH226103   3.451   3.583   8.857  0.1200  0.0369  0.1143
 1515TIP3    H126104   3.398   3.658   8.829 -0.0759  0.9780  2.6809
 1515TIP3    H226105   3.503   3.618   8.929  0.9508 -2.0117  0.5494
 1516TIP3   OH226106   0.372   0.842   1.794  0.2252  0.2155  0.0145
 1516TIP3    H126107   0.467   0.834   1.800  0.0268 -1.6197  2.8044
 1516TIP3    H226108   0.344   0.759   1.756 -0.3144  0.0198  0.8044
 1517TIP3   OH226109   1.953   3.481   2.603  0.9100  0.3577  0.6164
 1517TIP3    H126110   1.938   3.543   2.675  0.3003  0.8101  0.1149
 1517TIP3    H226111   2.038   3.506   2.567  0.2067  1.6482 -0.2700
 1518TIP3   OH226112   4.810   6.646   8.164 -0.0672  0.7273 -0.2110
 1518TIP3    H126113   4.812   6.732   8.122 -2.8529  0.6203 -0.7401
 1518TIP3    H226114   4.780   6.663   8.253  1.7486  0.4910  0.4973
 1519TIP3   OH226115   3.740   5.000   7.409  0.0418 -0.2766 -0.1427
 1519TIP3    H126116   3.727   4.926   7.350 -0.2856  0.4496 -1.0071
 1519TIP3    H226117   3.793   5.062   7.359 -1.8301  1.1898 -0.4440
 1520TIP3   OH226118   0.899   4.848   1.077 -0.2765 -0.4139  0.0300
 1520TIP3    H126119   0.928   4.939   1.071 -0.8563 -0.3053 -1.6075
 1520TIP3    H226120   0.857   4.842   1.163  1.2882  0.3754  0.8902
 1521TIP3   OH226121   2.455   3.655   1.472 -0.1563  0.0606 -0.5517
 1521TIP3    H126122   2.466   3.560   1.475  2.1604  0.2885  0.3210
 1521TIP3    H226123   2.410   3.672   1.390 -1.9612 -1.8662 -0.0334
 1522TIP3   OH226124   5.380   0.470   8.781 -0.7432  0.2736  0.6285
 1522TIP3    H126125   5.368   0.413   8.857 -0.3716  0.4328  0.8065
 1522TIP3    H226126   5.342   0.554   8.807 -0.9141  0.2336  0.5148
 1523TIP3   OH226127   1.476   0.878   1.869  0.4728  0.6666 -0.1591
 1523TIP3    H126128   1.418   0.933   1.817  0.3227 -0.6543 -1.4275
 1523TIP3    H226129   1.463   0.790   1.835  0.8592 -0.1491  1.6929
 1524TIP3   OH226130   3.433   4.730   0.277 -0.7773 -0.2461 -0.1444
 1524TIP3    H126131   3.420   4.657   0.217 -0.7947  1.0368 -1.7467
 1524TIP3    H226132   3.349   4.777   0.276 -0.6094  0.0829  0.5031
 1525TIP3   OH226133   2.487   2.224   1.837  0.2205 -0.3631  0.7882
 1525TIP3    H126134   2.482   2.133   1.868  0.9044  0.0529  2.2036
 1525TIP3    H226135   2.397   2.247   1.815 -0.0382 -1.2275  0.8977
 1526TIP3   OH226136   6.239   6.735   0.852  0.0468 -0.3170  0.6733
 1526TIP3    H126137   6.144   6.739   0.843 -0.1497 -1.2689  1.9861
 1526TIP3    H226138   6.263   6.818   0.894 -0.5560 -1.1154  2.7111
 1527TIP3   OH226139   4.044   1.821   2.882 -0.3541 -0.4950  0.6298
 1527TIP3    H126140   3.962   1.870   2.890 -0.8252 -0.8978 -1.1522
 1527TIP3    H226141   4.096   1.872   2.819 -0.4952 -1.7690 -0.5772
 1528TIP3   OH226142   1.779   1.297   7.827 -0.2974  0.4776 -0.6259
 1528TIP3    H126143   1.768   1.364   7.759 -1.2517  1.0994  0.1182
 1528TIP3    H226144   1.868   1.266   7.815 -0.0382  1.4474 -1.3927
 1529TIP3   OH226145   5.746   5.201   1.762  0.3103  0.1250  0.1615
 1529TIP3    H126146   5.780   5.124   1.808  0.4594  0.0828 -0.0176
 1529TIP3    H226147   5.757   5.180   1.669  2.3076  1.2173  0.0862
 1530TIP3   OH226148   0.697   1.438   2.104  0.1680 -0.2556  0.1493
 1530TIP3    H126149   0.693   1.343   2.109 -1.1217 -0.2672 -0.7167
 1530TIP3    H226150   0.785   1.460   2.137 -0.6303 -1.4922  3.4936
 1531TIP3   OH226151   2.144   0.555   1.674 -0.3097 -0.4059 -0.2415
 1531TIP3    H126152   2.104   0.614   1.738  1.4065 -2.2865  2.8061
 1531TIP3    H226153   2.070   0.512   1.631 -1.5506  0.5504  0.8700
 1532TIP3   OH226154   6.209   1.016   0.072 -0.3906  0.6107  0.2274
 1532TIP3    H126155   6.291   0.996   0.028 -0.5163  0.2037  0.1710
 1532TIP3    H226156   6.233   1.035   0.162 -0.4304 -1.6132  0.7649
 1533TIP3   OH226157   3.958   0.190   2.199 -0.1314  0.2214 -0.3833
 1533TIP3    H126158   3.897   0.221   2.132 -0.9908 -1.6085 -0.4827
 1533TIP3    H226159   3.904   0.140   2.260  0.7059  1.4662  1.4802
 1534TIP3   OH226160   4.728   4.395   8.102  0.4126  0.6333  0.8040
 1534TIP3    H126161   4.740   4.487   8.128 -0.2995  1.3616 -1.2149
 1534TIP3    H226162   4.634   4.387   8.089  0.2670 -0.8718  2.4282
 1535TIP3   OH226163   0.153   0.211   1.628  0.0514 -0.8578  0.1689
 1535TIP3    H126164   0.064   0.182   1.608 -1.9471  3.6422  1.3298
 1535TIP3    H226165   0.179   0.157   1.703 -4.4584  1.4348  3.9781
 1536TIP3   OH226166   1.432   0.220   0.150 -0.0536  0.1792  0.1078
 1536TIP3    H126167   1.444   0.130   0.180 -0.4705 -0.2139 -0.8779
 1536TIP3    H226168   1.344   0.244   0.178 -0.8345 -0.5351 -1.5852
 1537TIP3   OH226169   0.280   3.887   8.608 -0.7108  0.0191 -0.6255
 1537TIP3    H126170   0.342   3.831   8.561  0.4710  0.2934  0.5590
 1537TIP3    H226171   0.248   3.948   8.541 -1.6713 -1.7162 -1.8462
 1538TIP3   OH226172   6.537   5.045   2.404  0.0263 -0.2560  0.1525
 1538TIP3    H126173   6.625   5.017   2.428  0.3088 -0.4366 -1.0457
 1538TIP3    H226174   6.534   5.138   2.428  0.3420 -0.3811  0.7033
 1539TIP3   OH226175   1.068   3.600   2.779  0.8101  0.3742  0.2353
 1539TIP3    H126176   1.043   3.645   2.860  0.8866 -0.8007  0.9410
 1539TIP3    H226177   1.111   3.520   2.809  1.6884  0.3685 -0.9804
 1540TIP3   OH226178   3.606   1.807   0.514  0.3232  0.4207 -0.1641
 1540TIP3    H126179   3.525   1.858   0.518 -0.7644 -1.1476 -1.1496
 1540TIP3    H226180   3.675   1.873   0.514 -1.0277  1.9540 -1.6330
 1541TIP3   OH226181   4.439   4.760   2.868 -0.1493 -0.0529 -0.2290
 1541TIP3    H126182   4.482   4.809   2.798  2.5034 -0.0147  1.2986
 1541TIP3    H226183   4.462   4.669   2.851 -0.5567 -0.1852 -0.0860
 1542TIP3   OH226184   2.879   0.915   3.445  0.3804 -1.0219  0.0585
 1542TIP3    H126185   2.963   0.957   3.465  0.3475 -1.4376  1.1227
 1542TIP3    H226186   2.814   0.975   3.482  0.2808 -1.4129  0.5251
 1543TIP3   OH226187   0.870   6.024   8.184 -0.0319  0.8243  0.3459
 1543TIP3    H126188   0.806   6.068   8.128 -0.4271  0.2582  0.3396
 1543TIP3    H226189   0.817   5.989   8.256 -0.2081 -2.0458 -1.0443
 1544TIP3   OH226190   3.125   3.385   2.042  1.0734  0.2639 -0.4625
 1544TIP3    H126191   3.173   3.309   2.073 -0.3369 -0.1085  0.9187
 1544TIP3    H226192   3.113   3.439   2.120 -1.1651  0.0925 -0.6345
 1545TIP3   OH226193   3.818   2.722   1.582 -0.3893 -0.2545 -0.2948
 1545TIP3    H126194   3.858   2.728   1.669  1.3638 -0.5663 -1.0270
 1545TIP3    H226195   3.779   2.634   1.579 -0.1616 -0.3680  0.0564
 1546TIP3   OH226196   0.843   0.188   7.418  0.3150 -0.5576  0.2130
 1546TIP3    H126197   0.785   0.145   7.355 -0.2681 -2.1653  1.7468
 1546TIP3    H226198   0.917   0.220   7.366 -0.1262 -1.8208 -1.2615
 1547TIP3   OH226199   1.838   6.171   7.789 -0.3429  0.0438  0.0228
 1547TIP3    H126200   1.896   6.121   7.847 -0.3844 -1.4028 -1.1278
 1547TIP3    H226201   1.752   6.133   7.802 -0.4518  0.0788 -0.6067
 1548TIP3   OH226202   0.126   2.187   8.864 -0.3484 -0.3908  0.1359
 1548TIP3    H126203   0.053   2.190   8.925 -0.8009 -0.6490 -0.3855
 1548TIP3    H226204   0.119   2.101   8.823  0.4739 -0.5718  0.3497
 1549TIP3   OH226205   3.520   0.702   8.083 -0.0793  0.0484 -0.8650
 1549TIP3    H126206   3.596   0.649   8.058 -0.1640 -1.7077  2.0595
 1549TIP3    H226207   3.556   0.768   8.143 -0.5373  0.7557 -1.3628
 1550TIP3   OH226208   3.873   3.680   8.844 -0.2725 -0.1884 -0.1137
 1550TIP3    H126209   3.933   3.682   8.919  0.8884  0.8114 -1.0282
 1550TIP3    H226210   3.927   3.648   8.771 -1.1710 -0.3994 -0.7048
 1551TIP3   OH226211   3.228   6.016   8.050 -0.3922 -0.3015 -0.2753
 1551TIP3    H126212   3.152   6.056   8.093 -0.0651  0.6863 -0.6020
 1551TIP3    H226213   3.264   6.085   7.996  0.0375 -1.1217 -1.0609
 1552TIP3   OH226214   4.957   0.012   2.021  0.2368 -0.3997 -0.6090
 1552TIP3    H126215   4.978   0.065   1.944  2.0424  0.6914  0.5570
 1552TIP3    H226216   5.038   0.009   2.071 -1.1705 -0.0323  1.8618
 1553TIP3   OH226217   6.456   2.622   7.259  0.4578 -0.1713 -0.2897
 1553TIP3    H126218   6.432   2.533   7.232 -0.2082 -0.2096  0.3747
 1553TIP3    H226219   6.484   2.612   7.350  0.0417  0.3476 -0.0996
 1554TIP3   OH226220   2.487   2.931   0.499 -0.7149 -0.1821 -0.1611
 1554TIP3    H126221   2.397   2.963   0.513 -0.1252  1.8469 -0.6135
 1554TIP3    H226222   2.493   2.853   0.554 -2.3084  0.4755  1.0529
 1555TIP3   OH226223   0.648   2.119   2.004 -0.3000 -0.2634  0.0861
 1555TIP3    H126224   0.607   2.194   2.047 -0.1963 -1.1843  1.8875
 1555TIP3    H226225   0.741   2.141   2.002  0.0819 -1.2299  2.7470
 1556TIP3   OH226226   2.122   1.035   1.515  0.0586  0.5853  0.1672
 1556TIP3    H126227   2.195   0.981   1.486 -0.8973 -0.4959 -0.3087
 1556TIP3    H226228   2.155   1.079   1.594  1.9142  1.7810 -1.1834
 1557TIP3   OH226229   6.033   0.317   8.226 -0.1462 -0.4184  0.4642
 1557TIP3    H126230   6.019   0.394   8.282 -0.6947 -1.1107  1.3110
 1557TIP3    H226231   6.010   0.243   8.282 -0.0984 -1.1727 -0.4946
 1558TIP3   OH226232   0.534   6.372   7.904 -0.2144 -0.4396 -0.1720
 1558TIP3    H126233   0.496   6.376   7.817  2.8735 -0.0073 -1.6259
 1558TIP3    H226234   0.558   6.463   7.925  1.3331 -0.8402 -0.0335
 1559TIP3   OH226235   3.827   2.487   8.674  0.1247 -0.5062 -0.0428
 1559TIP3    H126236   3.847   2.460   8.584 -0.2233 -1.9300  0.2936
 1559TIP3    H226237   3.819   2.405   8.723 -4.5800 -0.0816  0.2751
 1560TIP3   OH226238   3.530   3.424   2.223  0.2996  0.5433 -0.3902
 1560TIP3    H126239   3.611   3.378   2.245 -1.0622 -1.5334  0.6565
 1560TIP3    H226240   3.518   3.487   2.293  0.7815  0.5552 -0.3165
 1561TIP3   OH226241   1.241   2.367   8.687  0.0686  0.1341  0.0803
 1561TIP3    H126242   1.328   2.346   8.721 -0.6718 -1.0295  1.3877
 1561TIP3    H226243   1.193   2.401   8.763 -0.4129  1.5093 -0.7981
 1562TIP3   OH226244   3.898   3.560   0.988  0.3308 -0.0922 -0.6611
 1562TIP3    H126245   3.942   3.644   0.978 -1.0458  0.7475  0.0359
 1562TIP3    H226246   3.966   3.495   0.970  0.9374  1.1479 -3.2285
 1563TIP3   OH226247   0.153   5.463   0.228 -0.3860  0.0212  0.4893
 1563TIP3    H126248   0.107   5.493   0.150  0.6768  0.7607  0.1214
 1563TIP3    H226249   0.173   5.543   0.277 -0.5405 -0.3836  1.2420
 1564TIP3   OH226250   5.268   5.889   0.908  0.3947 -0.2257 -0.4452
 1564TIP3    H126251   5.271   5.974   0.951  1.5167 -0.1020 -0.7293
 1564TIP3    H226252   5.320   5.901   0.828 -1.9304 -0.3155 -2.1033
 1565TIP3   OH226253   5.742   5.108   1.491 -0.1487  0.0008  0.0254
 1565TIP3    H126254   5.826   5.065   1.473 -0.0744 -0.3875  1.1934
 1565TIP3    H226255   5.729   5.167   1.417 -0.9608 -2.9781 -2.4121
 1566TIP3   OH226256   5.588   2.104   0.854  0.0523  0.5128  0.7361
 1566TIP3    H126257   5.515   2.134   0.909  0.0547 -0.3836  1.2514
 1566TIP3    H226258   5.587   2.163   0.779 -1.2095  0.5230  0.7358
 1567TIP3   OH226259   1.937   0.770   0.328 -0.0938 -0.5912 -0.5006
 1567TIP3    H126260   1.919   0.824   0.406  2.0167 -0.8982  0.2773
 1567TIP3    H226261   1.964   0.686   0.364  0.5745 -0.8443 -1.5748
 1568TIP3   OH226262   2.098   2.469   2.005 -0.6890  0.3407  0.1959
 1568TIP3    H126263   2.146   2.551   2.008 -1.7762  0.9939  0.3999
 1568TIP3    H226264   2.006   2.495   2.012 -1.0124 -0.9548  1.2318
 1569TIP3   OH226265   1.013   1.206   1.066  0.1926  0.1480  0.3634
 1569TIP3    H126266   0.964   1.278   1.104  0.8239  0.2825  0.9356
 1569TIP3    H226267   0.947   1.143   1.038 -0.2764 -0.1652  2.0963
 1570TIP3   OH226268   0.742   2.630   0.272  0.1914 -0.1915 -0.3246
 1570TIP3    H126269   0.748   2.724   0.258 -0.2159 -0.1895 -0.4949
 1570TIP3    H226270   0.744   2.592   0.184  3.4148 -0.5467 -0.1992
 1571TIP3   OH226271   4.739   0.023   1.192  0.2507  0.5833 -0.2006
 1571TIP3    H126272   4.749  -0.064   1.155  1.3528 -0.3631  2.1417
 1571TIP3    H226273   4.672   0.013   1.259  1.2271  1.2075  0.9125
 1572TIP3   OH226274   3.674   0.425   3.169  0.2503 -0.0481  0.1202
 1572TIP3    H126275   3.742   0.360   3.152  0.9681  0.0851  2.2131
 1572TIP3    H226276   3.715   0.508   3.144  0.8476  0.0170  1.2526
 1573TIP3   OH226277   3.656   2.597   0.124  0.1379  0.0534 -0.2626
 1573TIP3    H126278   3.569   2.575   0.156  0.1232 -0.3843 -0.5926
 1573TIP3    H226279   3.684   2.670   0.179 -1.6821  2.3072 -2.0851
 1574TIP3   OH226280   2.022   4.581   2.366  0.4154 -0.4338  0.1419
 1574TIP3    H126281   1.975   4.638   2.426 -1.9147 -0.6853 -1.2956
 1574TIP3    H226282   1.957   4.516   2.339  1.4707 -0.5885 -2.2794
 1575TIP3   OH226283   2.347   3.165   0.266 -0.0409 -0.0972  0.6395
 1575TIP3    H126284   2.301   3.181   0.349  0.5794  0.1396  0.9467
 1575TIP3    H226285   2.277   3.157   0.201 -0.4990  2.0841  0.7591
 1576TIP3   OH226286   1.016   3.634   2.503 -0.4673  0.4359 -0.2880
 1576TIP3    H126287   1.055   3.614   2.588  0.0950  1.9233 -0.1728
 1576TIP3    H226288   0.922   3.640   2.521 -0.6083 -1.3422 -0.2151
 1577TIP3   OH226289   6.767   2.887   8.812 -0.5299 -0.6604 -0.3790
 1577TIP3    H126290   6.826   2.849   8.747  1.0520  0.7555  0.1761
 1577TIP3    H226291   6.808   2.868   8.896  0.2995  2.0996 -0.0766
 1578TIP3   OH226292   0.866   2.037   8.218 -0.0095  0.1598 -0.0393
 1578TIP3    H126293   0.810   2.008   8.289 -0.5015  1.5034  0.1555
 1578TIP3    H226294   0.819   2.012   8.138  0.0052 -0.3365  0.1034
 1579TIP3   OH226295   3.780   3.330   1.166 -0.0843  0.0175  0.1188
 1579TIP3    H126296   3.834   3.401   1.132 -2.3449  1.5065 -0.5632
 1579TIP3    H226297   3.710   3.373   1.215 -0.3273 -1.8513  1.5195
 1580TIP3   OH226298   2.767   6.472   7.435 -0.1559  0.1363  0.0159
 1580TIP3    H126299   2.790   6.532   7.364 -0.4138 -0.4106 -0.5398
 1580TIP3    H226300   2.672   6.476   7.440 -0.3055 -1.3679 -1.0691
 1581TIP3   OH226301   3.971   6.108   2.008 -0.5920 -0.2893  0.2155
 1581TIP3    H126302   3.940   6.017   2.002 -0.5572 -0.3412  0.8489
 1581TIP3    H226303   3.986   6.122   2.101 -1.3891  0.6302  0.2195
 1582TIP3   OH226304   4.224   3.987   1.110 -0.2056 -0.0446 -0.6603
 1582TIP3    H126305   4.315   3.967   1.090  0.4162  0.5359  1.4318
 1582TIP3    H226306   4.182   3.901   1.118  0.0847 -0.3113 -1.7602
 1583TIP3   OH226307   6.057   5.611   7.873 -0.2899  0.1893 -0.6151
 1583TIP3    H126308   6.014   5.673   7.814  1.9570 -0.1831 -2.8214
 1583TIP3    H226309   6.149   5.637   7.873 -0.2448  0.7071  3.5521
 1584TIP3   OH226310   5.741   3.335   0.976  0.2582 -0.6611 -0.4302
 1584TIP3    H126311   5.817   3.374   0.931  0.4300 -0.8870 -0.3335
 1584TIP3    H226312   5.778   3.269   1.033  0.0006 -0.6513 -0.2505
 1585TIP3   OH226313   1.247   2.015   0.623  0.3043 -0.1941  0.1262
 1585TIP3    H126314   1.335   1.983   0.605 -0.4495 -1.7421 -1.0299
 1585TIP3    H226315   1.236   2.090   0.564  0.2780 -1.0446 -0.9802
 1586TIP3   OH226316   2.136   3.075   1.550 -0.1688 -0.5499 -0.4261
 1586TIP3    H126317   2.227   3.093   1.571 -0.3897  1.1633 -0.8272
 1586TIP3    H226318   2.110   3.008   1.613  0.8087  0.3314  0.9564
 1587TIP3   OH226319   4.269   6.068   3.136 -0.7326  0.1612  0.0541
 1587TIP3    H126320   4.340   6.058   3.072 -0.0696 -2.0445  1.0250
 1587TIP3    H226321   4.312   6.108   3.212  0.0072 -2.6702  1.2666
 1588TIP3   OH226322   3.643   3.267   2.784 -0.0685  0.6252  0.1436
 1588TIP3    H126323   3.631   3.361   2.776 -2.1773  0.3784 -0.1394
 1588TIP3    H226324   3.607   3.246   2.871  0.9868  0.1462  0.4830
 1589TIP3   OH226325   0.098   1.926   8.781  0.2579  0.6049 -0.3336
 1589TIP3    H126326   0.036   1.857   8.757  0.4979  0.3347 -0.1838
 1589TIP3    H226327   0.173   1.879   8.819  1.0371  0.8352 -1.5179
 1590TIP3   OH226328   6.047   6.325   1.177  0.8485  0.2246  0.2941
 1590TIP3    H126329   6.012   6.293   1.094  1.4942  0.4780 -0.0845
 1590TIP3    H226330   6.142   6.332   1.162  0.9736  0.2201  1.0685
 1591TIP3   OH226331   3.295   3.338   7.584  0.4559 -0.8419  0.2239
 1591TIP3    H126332   3.328   3.428   7.585 -0.1061 -0.6333  1.2523
 1591TIP3    H226333   3.374   3.284   7.576  0.9960 -0.3145  1.6549
 1592TIP3   OH226334   0.069   5.438   7.566  0.0071 -0.0720  0.0180
 1592TIP3    H126335   0.147   5.404   7.521 -0.8232 -3.4734  0.8392
 1592TIP3    H226336   0.003   5.443   7.497  0.2478  0.2508 -0.1917
 1593TIP3   OH226337   0.997   5.615   8.518  1.0050  0.0778  0.1134
 1593TIP3    H126338   0.948   5.558   8.458  3.4814 -1.4019 -0.6569
 1593TIP3    H226339   1.036   5.681   8.461  1.6463 -0.0702  0.3739
 1594TIP3   OH226340   4.289   4.434   0.568  0.4455 -0.7875 -0.1867
 1594TIP3    H126341   4.367   4.471   0.525  0.0911  0.3932  0.1435
 1594TIP3    H226342   4.290   4.341   0.544  0.5205 -0.2834 -2.3811
 1595TIP3   OH226343   5.108   5.963   1.417 -0.2480  0.9187 -0.1915
 1595TIP3    H126344   5.174   5.909   1.373 -1.4455 -0.2161 -0.6446
 1595TIP3    H226345   5.116   6.048   1.374  1.3436  1.0158  0.2091
 1596TIP3   OH226346   5.370   5.617   0.354  0.1053 -0.0458 -0.0212
 1596TIP3    H126347   5.342   5.551   0.418  0.5970 -1.1239 -0.8762
 1596TIP3    H226348   5.466   5.613   0.357  0.1356  0.4124 -0.3153
 1597TIP3   OH226349   6.618   5.931   1.654  0.2072 -0.3587  0.1639
 1597TIP3    H126350   6.704   5.951   1.692  1.1567 -0.3554 -1.8475
 1597TIP3    H226351   6.583   6.016   1.628 -0.6661 -0.3076  1.4321
 1598TIP3   OH226352   0.997   4.016   7.890  0.2397 -0.2035 -0.3809
 1598TIP3    H126353   1.009   4.097   7.938  0.9648  0.0716 -1.0009
 1598TIP3    H226354   1.037   3.949   7.945  0.0823 -0.0641 -0.0964
 1599TIP3   OH226355   6.593   6.491   1.941 -0.0758 -0.2544 -0.4288
 1599TIP3    H126356   6.613   6.583   1.923  0.8844 -0.1876  0.8304
 1599TIP3    H226357   6.575   6.488   2.035  0.4164 -1.4356 -0.3547
 1600TIP3   OH226358   3.680   5.812   8.488 -0.0049  0.1409 -0.1724
 1600TIP3    H126359   3.721   5.874   8.548 -1.8290  1.1310  0.1246
 1600TIP3    H226360   3.593   5.848   8.472 -0.4164 -1.3459 -1.5524
 1601TIP3   OH226361   0.884   5.804   0.842 -0.0741 -0.3996 -0.2349
 1601TIP3    H126362   0.818   5.791   0.774  1.3073 -0.1359 -1.6848
 1601TIP3    H226363   0.938   5.725   0.839  1.3023  0.5348 -0.9847
 1602TIP3   OH226364   1.923   5.709   1.923  0.1751 -0.0247 -0.2955
 1602TIP3    H126365   1.830   5.688   1.927  0.4133 -0.9959  0.4384
 1602TIP3    H226366   1.943   5.748   2.008  0.8010 -1.4534  0.2388
 1603TIP3   OH226367   4.401   1.675   2.206 -0.1837 -0.8641  0.6528
 1603TIP3    H126368   4.321   1.624   2.215 -0.4444 -0.7756 -0.9155
 1603TIP3    H226369   4.464   1.615   2.166 -0.4112 -0.0848 -0.9642
 1604TIP3   OH226370   1.781   2.757   8.352 -0.4891  0.0056 -0.4559
 1604TIP3    H126371   1.865   2.756   8.306 -0.7138  0.0353 -0.8660
 1604TIP3    H226372   1.748   2.668   8.341 -0.4316 -0.0557 -0.1434
 1605TIP3   OH226373   1.338   0.736   0.553 -0.8321  0.4212 -0.5734
 1605TIP3    H126374   1.427   0.710   0.578 -1.3895  0.2320  1.4304
 1605TIP3    H226375   1.306   0.663   0.499 -0.4451 -0.4816  0.3656
 1606TIP3   OH226376   6.099   2.930   0.962  0.1909 -0.1552  0.1722
 1606TIP3    H126377   6.160   2.867   0.924 -0.2185 -0.0750 -0.6410
 1606TIP3    H226378   6.139   3.016   0.946  0.2099 -0.1457  0.2724
 1607TIP3   OH226379   2.851   4.125   0.345 -0.4664 -0.1262  0.5304
 1607TIP3    H126380   2.781   4.188   0.362 -1.5579 -1.3614  0.7184
 1607TIP3    H226381   2.807   4.041   0.338  0.9122 -0.8222 -0.1913
 1608TIP3   OH226382   1.770   0.397   0.536 -0.7606 -0.3846 -0.1396
 1608TIP3    H126383   1.717   0.331   0.491 -1.4435  0.6654 -0.9431
 1608TIP3    H226384   1.849   0.350   0.564 -2.4704 -2.2186  1.9290
 1609TIP3   OH226385   4.843   0.816   0.078 -0.1441  0.0463  0.2894
 1609TIP3    H126386   4.930   0.855   0.072 -0.4258  0.5294 -0.9064
 1609TIP3    H226387   4.856   0.736   0.129  0.3300  1.9491  3.4246
 1610TIP3   OH226388   6.054   2.888   0.119 -0.1917  0.5019 -0.0435
 1610TIP3    H126389   6.016   2.973   0.140  0.8274  0.5534  1.8451
 1610TIP3    H226390   6.140   2.909   0.081 -0.1186  0.3281  0.0265
 1611TIP3   OH226391   5.922   4.367   1.455  0.0926 -0.4225 -1.0317
 1611TIP3    H126392   5.942   4.459   1.443 -1.0608 -0.2203 -1.5348
 1611TIP3    H226393   5.936   4.351   1.549  2.5674 -0.3422 -1.3339
 1612TIP3   OH226394   5.085   1.060   3.265 -1.0947  0.0217  0.1514
 1612TIP3    H126395   5.165   1.007   3.262 -1.7224 -0.9163 -0.4610
 1612TIP3    H226396   5.116   1.150   3.260 -0.0992 -0.3459 -0.6378
 1613TIP3   OH226397   3.988   1.114   2.704 -0.2656 -0.3131 -0.2150
 1613TIP3    H126398   4.047   1.117   2.629 -1.3193 -2.2985 -1.2157
 1613TIP3    H226399   3.949   1.026   2.700 -1.2034 -0.0684  2.0144
 1614TIP3   OH226400   0.997   3.379   8.657 -0.0438 -0.8037  0.2072
 1614TIP3    H126401   1.053   3.427   8.595 -0.4472 -1.1205 -0.4132
 1614TIP3    H226402   1.056   3.354   8.728  0.3165  0.0240  0.2141
 1615TIP3   OH226403   5.269   6.512   0.410  0.1650 -0.2500 -0.4938
 1615TIP3    H126404   5.174   6.514   0.405  0.0982  1.3382  0.6339
 1615TIP3    H226405   5.296   6.603   0.396  1.4231 -0.4814  0.2791
 1616TIP3   OH226406   1.392   6.397   2.460  0.1858 -0.2905 -0.4866
 1616TIP3    H126407   1.454   6.458   2.420 -0.7690  0.3202 -1.0674
 1616TIP3    H226408   1.406   6.314   2.414 -1.7348  0.6767 -3.0994
 1617TIP3   OH226409   5.707   5.563   7.693 -0.2093  0.3275 -0.3729
 1617TIP3    H126410   5.705   5.577   7.788  1.1110 -2.2281  0.1233
 1617TIP3    H226411   5.656   5.484   7.678  0.4976  0.0704 -1.6335
 1618TIP3   OH226412   3.887   0.258   8.104  0.1269 -0.3464  0.3149
 1618TIP3    H126413   3.929   0.201   8.169 -1.5339  0.0476  1.8170
 1618TIP3    H226414   3.895   0.346   8.142 -1.3406 -0.1779  0.2569
 1619TIP3   OH226415   5.975   2.843   2.787  0.1175  0.1079  0.2056
 1619TIP3    H126416   5.934   2.800   2.862 -0.9111  1.4354  0.4387
 1619TIP3    H226417   6.064   2.808   2.785 -0.9594 -2.8362 -0.2960
 1620TIP3   OH226418   1.714   1.895   0.956 -0.4039 -0.4878 -0.3721
 1620TIP3    H126419   1.621   1.907   0.937 -0.4025  1.0791  0.4309
 1620TIP3    H226420   1.730   1.946   1.036  1.2494 -0.2477 -0.8016
 1621TIP3   OH226421   4.877   4.182   8.031  0.1715 -0.3087  0.0720
 1621TIP3    H126422   4.811   4.249   8.048  1.0423  1.2175 -2.1025
 1621TIP3    H226423   4.835   4.100   8.055 -2.9096  0.4648 -2.1451
 1622TIP3   OH226424   5.668   6.594   0.169 -0.1487  0.1139 -0.0854
 1622TIP3    H126425   5.609   6.519   0.172 -0.2096  0.1781  1.0503
 1622TIP3    H226426   5.612   6.668   0.146  0.1343 -0.3548 -2.4728
 1623TIP3   OH226427   5.246   3.459   3.141  0.8084  0.6293 -0.0617
 1623TIP3    H126428   5.253   3.456   3.046  0.7468 -1.1628 -0.0515
 1623TIP3    H226429   5.173   3.400   3.161  2.0354 -0.5358  1.1843
 1624TIP3   OH226430   1.273   4.293   8.116 -0.6060  0.0121  0.0457
 1624TIP3    H126431   1.298   4.384   8.131 -1.1662  0.6666 -2.5186
 1624TIP3    H226432   1.352   4.243   8.137  0.5528  1.3553 -0.9238
 1625TIP3   OH226433   6.109   1.286   8.373 -0.5808 -0.0613 -0.1671
 1625TIP3    H126434   6.103   1.359   8.312  0.0002  0.8256  0.8036
 1625TIP3    H226435   6.201   1.285   8.401 -0.3161 -1.8525 -0.9815
 1626TIP3   OH226436   5.072   5.114   1.141  0.2576  0.3419 -0.4623
 1626TIP3    H126437   5.011   5.121   1.067  0.6720  0.6423 -0.7780
 1626TIP3    H226438   5.091   5.020   1.147  0.2656  0.3212 -0.7731
 1627TIP3   OH226439   0.536   6.723   0.735  0.3366 -0.2047  0.3921
 1627TIP3    H126440   0.496   6.657   0.791  0.7170  0.9890  2.1431
 1627TIP3    H226441   0.600   6.767   0.791  0.6526  1.1366 -0.9481
 1628TIP3   OH226442   4.580   4.322   1.429 -0.1192 -0.2714  0.2664
 1628TIP3    H126443   4.619   4.262   1.492  0.7357  0.6804  0.6743
 1628TIP3    H226444   4.487   4.300   1.428  0.2604 -1.9770 -0.0306
 1629TIP3   OH226445   5.978   2.692   8.894 -0.2691 -0.0041  0.3491
 1629TIP3    H126446   6.066   2.727   8.902 -0.7435  1.4145 -0.3425
 1629TIP3    H226447   5.930   2.731   8.967 -0.3069 -0.9309  0.8477
 1630TIP3   OH226448   1.602   2.274   0.037 -0.1381 -0.4655 -1.1793
 1630TIP3    H126449   1.682   2.244  -0.006  0.7583  0.5806 -0.3098
 1630TIP3    H226450   1.557   2.327  -0.029  1.4569  1.5303 -0.7654
 1631TIP3   OH226451   3.749   1.662   7.686  0.2143 -0.2003 -0.0146
 1631TIP3    H126452   3.833   1.639   7.647  1.4184  1.2479  1.5796
 1631TIP3    H226453   3.723   1.742   7.641  0.3520  0.0657  0.3693
 1632TIP3   OH226454   5.702   2.622   1.417 -0.0035 -0.1790  0.0943
 1632TIP3    H126455   5.785   2.668   1.406 -0.1731 -0.1050 -0.9523
 1632TIP3    H226456   5.669   2.653   1.501  0.8372  0.0854  0.3410
 1633TIP3   OH226457   1.636   1.400   0.758 -0.0464  0.2019 -0.7691
 1633TIP3    H126458   1.642   1.485   0.802 -0.4433  0.1152 -0.5440
 1633TIP3    H226459   1.667   1.337   0.822 -0.6655  0.0703 -0.6003
 1634TIP3   OH226460   1.437   5.971   7.570 -0.4212 -0.4302  0.3160
 1634TIP3    H126461   1.409   5.933   7.487  2.3802  2.2126 -2.0791
 1634TIP3    H226462   1.356   5.988   7.618 -2.3270 -0.2598 -2.7417
 1635TIP3   OH226463   3.818   6.209   0.251 -0.0795  0.6878  0.6868
 1635TIP3    H126464   3.827   6.262   0.330 -2.3836  1.6372  0.3918
 1635TIP3    H226465   3.896   6.229   0.199  1.6094 -0.1601  2.7648
 1636TIP3   OH226466   5.356   0.344   1.360  0.0890 -0.5143 -0.6845
 1636TIP3    H126467   5.383   0.436   1.357 -3.3674  0.7013  0.9012
 1636TIP3    H226468   5.319   0.328   1.273 -3.1219  1.0472  0.2636
 1637TIP3   OH226469   5.069   3.860   8.326  0.1231 -0.7747 -0.8999
 1637TIP3    H126470   4.979   3.855   8.358 -0.2184 -1.0625 -1.8644
 1637TIP3    H226471   5.084   3.954   8.311 -0.1315 -0.7595 -1.0620
 1638TIP3   OH226472   4.557   6.319   0.405 -0.9125  0.4464  0.2157
 1638TIP3    H126473   4.508   6.289   0.328  0.2529 -0.0403 -0.3564
 1638TIP3    H226474   4.541   6.251   0.471  0.1242 -0.4711 -0.4394
 1639TIP3   OH226475   1.788   5.783   7.344 -0.3594 -0.1497 -0.2141
 1639TIP3    H126476   1.880   5.808   7.354  0.4741 -3.4862  1.9190
 1639TIP3    H226477   1.740   5.850   7.393  0.6901  2.2674 -2.2331
 1640TIP3   OH226478   4.120   5.016   7.309  0.0850  0.4167 -0.3580
 1640TIP3    H126479   4.053   4.954   7.278 -1.2116  1.1739  0.8244
 1640TIP3    H226480   4.121   5.085   7.242 -0.9384  0.8069  0.0022
 1641TIP3   OH226481   6.313   0.633   8.321  0.0988 -0.1235  0.0095
 1641TIP3    H126482   6.249   0.605   8.387 -0.0259  1.0500  0.4190
 1641TIP3    H226483   6.364   0.555   8.302  0.3198 -0.4309  1.7076
 1642TIP3   OH226484   1.403   4.881   8.890  0.2893  0.1723  0.7182
 1642TIP3    H126485   1.365   4.896   8.803  0.0492 -0.4302  0.7096
 1642TIP3    H226486   1.430   4.967   8.920 -1.4099  0.6826  0.8700
 1643TIP3   OH226487   0.272   5.313   1.636 -0.1315  0.4158 -0.0312
 1643TIP3    H126488   0.183   5.303   1.669  0.0894  0.4364  0.5694
 1643TIP3    H226489   0.261   5.322   1.541 -0.7014 -0.5248 -0.0661
 1644TIP3   OH226490   4.560   5.643   1.003  0.4004 -0.1173  0.0681
 1644TIP3    H126491   4.580   5.649   0.909 -1.6244 -1.4755 -0.5007
 1644TIP3    H226492   4.646   5.643   1.045  1.3309  2.4509 -1.6077
 1645TIP3   OH226493   6.161   6.662   2.013  0.5348 -0.1965  0.1520
 1645TIP3    H126494   6.186   6.602   2.083 -0.8764 -1.4844 -0.3842
 1645TIP3    H226495   6.240   6.671   1.960  1.2978 -0.0943  1.2688
 1646TIP3   OH226496   5.865   6.717   1.935 -0.4428 -0.3667 -0.2175
 1646TIP3    H126497   5.808   6.710   1.859  0.2097 -1.2807 -0.6443
 1646TIP3    H226498   5.951   6.740   1.898 -0.1711 -0.5972  0.2625
 1647TIP3   OH226499   0.706   5.524   3.047  0.2416  0.5672 -0.0493
 1647TIP3    H126500   0.748   5.608   3.027 -0.9494  1.3700  0.6620
 1647TIP3    H226501   0.648   5.508   2.972  1.4211 -0.2964 -0.8021
 1648TIP3   OH226502   6.300   2.467   0.176 -0.0944 -0.2988  0.0735
 1648TIP3    H126503   6.354   2.475   0.098 -1.0395 -0.7098 -0.6492
 1648TIP3    H226504   6.290   2.372   0.189 -2.0385 -0.2828 -0.8586
 1649TIP3   OH226505   4.918   1.024   2.221  0.2115 -0.1859 -0.7619
 1649TIP3    H126506   4.996   1.054   2.174  0.5052 -2.4483 -1.8774
 1649TIP3    H226507   4.952   0.987   2.302 -0.0457  1.4753  0.1377
 1650TIP3   OH226508   2.000   1.045   8.949 -0.1018  0.1492 -0.0253
 1650TIP3    H126509   2.092   1.060   8.970  0.7300 -2.8512 -1.0722
 1650TIP3    H226510   1.960   1.021   9.033  0.5347 -0.4334  0.1187
 1651TIP3   OH226511   3.649   5.797   7.961  0.1030 -0.2689 -0.1679
 1651TIP3    H126512   3.677   5.775   7.872  0.6590  1.8946 -0.5984
 1651TIP3    H226513   3.560   5.831   7.950 -0.9746 -2.6546  0.5553
 1652TIP3   OH226514   4.750   2.304   2.319 -0.1736  0.4092 -0.5537
 1652TIP3    H126515   4.668   2.272   2.284  0.3507 -2.3280  0.4895
 1652TIP3    H226516   4.732   2.322   2.412  0.1777  0.7510 -0.5461
 1653TIP3   OH226517   6.226   2.288   1.110 -0.2437  0.0439  0.8277
 1653TIP3    H126518   6.152   2.230   1.124 -2.2413  1.8804 -1.3099
 1653TIP3    H226519   6.287   2.237   1.056 -1.6579 -0.3424 -0.4560
 1654TIP3   OH226520   6.683   1.391   1.839  0.0522 -0.3273 -0.0512
 1654TIP3    H126521   6.751   1.457   1.852 -1.1332  1.0721 -0.6266
 1654TIP3    H226522   6.679   1.343   1.922 -0.5683  1.8036  1.2235
 1655TIP3   OH226523   6.676   1.107   8.486  0.5329  0.7155 -0.0972
 1655TIP3    H126524   6.761   1.109   8.530 -0.3003  0.5769  1.6147
 1655TIP3    H226525   6.624   1.174   8.531 -0.4160  0.4692 -0.7861
 1656TIP3   OH226526   0.604   0.023   8.670  0.1361 -0.0840  0.2328
 1656TIP3    H126527   0.670  -0.003   8.605  0.6206  1.7822 -0.0619
 1656TIP3    H226528   0.653   0.031   8.751 -0.0562 -0.2747  0.3691
 1657TIP3   OH226529   0.704   2.529   7.394  0.3971  0.5826 -0.2154
 1657TIP3    H126530   0.696   2.478   7.474 -0.4578  0.6541 -0.2443
 1657TIP3    H226531   0.642   2.488   7.333 -1.4674  2.5409  0.2482
 1658TIP3   OH226532   1.068   1.227   2.086 -0.1699 -0.4186 -0.0042
 1658TIP3    H126533   1.057   1.192   1.998 -1.0973 -2.3613  0.8260
 1658TIP3    H226534   1.162   1.225   2.101 -0.1514 -3.0681  0.1072
 1659TIP3   OH226535   2.522   0.267   7.313 -0.6813  0.1498  0.0948
 1659TIP3    H126536   2.603   0.230   7.276 -0.5762 -0.1553  0.6259
 1659TIP3    H226537   2.510   0.350   7.266  0.2564  0.4811  0.4063
 1660TIP3   OH226538   2.401   1.988   8.841 -1.0786 -0.1309  0.0116
 1660TIP3    H126539   2.316   2.019   8.811 -1.5526 -1.2205  0.1784
 1660TIP3    H226540   2.382   1.939   8.921 -0.2424 -0.0178  0.2912
 1661TIP3   OH226541   1.468   3.016   3.111 -0.0744 -0.0220  0.0692
 1661TIP3    H126542   1.463   3.099   3.063  1.7344  0.2737  0.3155
 1661TIP3    H226543   1.481   3.042   3.202 -1.0537 -0.5909  0.3823
 1662TIP3   OH226544   4.754   5.293   0.072  0.1505 -0.0813 -0.2662
 1662TIP3    H126545   4.831   5.280   0.127  0.4200  0.9591 -0.3944
 1662TIP3    H226546   4.702   5.213   0.084  0.9928 -0.5588  0.2226
 1663TIP3   OH226547   0.376   6.760   1.182  0.6828  0.0249  0.9345
 1663TIP3    H126548   0.423   6.843   1.177  0.5972  0.0607  0.6741
 1663TIP3    H226549   0.304   6.776   1.243  0.3903  0.2828  0.5277
 1664TIP3   OH226550   0.990   0.759   2.290  0.6154  0.1167 -0.4408
 1664TIP3    H126551   1.003   0.790   2.380  0.0906 -1.2681  0.1443
 1664TIP3    H226552   0.952   0.672   2.301  1.1340 -0.3281 -2.0136
 1665TIP3   OH226553   6.264   2.832   1.423  0.4131  0.3729  0.6237
 1665TIP3    H126554   6.278   2.742   1.452  1.2007 -0.2814 -1.5936
 1665TIP3    H226555   6.335   2.848   1.360  0.2784  2.5445  0.9549
 1666TIP3   OH226556   2.055   6.655   0.885  0.2004  0.2520 -0.1540
 1666TIP3    H126557   2.065   6.730   0.943  0.6118  0.9534 -1.0927
 1666TIP3    H226558   2.041   6.694   0.798 -0.5581 -0.7578 -0.5104
 1667TIP3   OH226559   0.450   1.874   8.847  0.1255 -0.5424  0.2131
 1667TIP3    H126560   0.369   1.846   8.890 -0.2879 -1.5962 -1.1888
 1667TIP3    H226561   0.489   1.935   8.909 -0.8358 -1.3805  1.7306
 1668TIP3   OH226562   3.331   5.827   7.495 -0.2995  0.4105 -0.2406
 1668TIP3    H126563   3.273   5.752   7.505 -0.2931  0.3227 -0.8576
 1668TIP3    H226564   3.280   5.891   7.446  0.0249  0.4455 -0.5351
 1669TIP3   OH226565   5.560   1.905   8.578 -0.3689  0.3596 -0.3882
 1669TIP3    H126566   5.641   1.858   8.562  0.7337  1.9944  0.0997
 1669TIP3    H226567   5.516   1.907   8.493  0.7150  0.5494 -0.9572
 1670TIP3   OH226568   4.543   0.839   1.539 -0.2551  0.1084  0.4230
 1670TIP3    H126569   4.554   0.844   1.634  0.7210 -0.0233  0.3217
 1670TIP3    H226570   4.458   0.795   1.527 -1.0821  1.4135  1.2243
 1671TIP3   OH226571   4.271   0.960   0.580  0.1326 -0.3226  0.2418
 1671TIP3    H126572   4.311   0.885   0.535 -1.1843 -0.3267 -0.9954
 1671TIP3    H226573   4.343   0.997   0.632  1.5068 -0.8843 -1.1519
 1672TIP3   OH226574   5.054   6.295   8.089  0.0074  0.3814  0.6662
 1672TIP3    H126575   5.062   6.363   8.156 -0.6113  1.1350 -0.0068
 1672TIP3    H226576   4.980   6.323   8.035  0.2251 -0.4379 -0.0804
 1673TIP3   OH226577   3.590   6.514   0.656  1.0590 -0.2383 -0.1578
 1673TIP3    H126578   3.567   6.531   0.565  0.0283 -1.3063 -0.1190
 1673TIP3    H226579   3.529   6.566   0.707 -0.8665 -2.4112 -0.0687
 1674TIP3   OH226580   1.303   2.709   1.611  0.4000 -0.4949 -0.3863
 1674TIP3    H126581   1.376   2.707   1.673  1.2260  1.2932 -1.2239
 1674TIP3    H226582   1.333   2.657   1.537  1.3492  1.1269 -1.2021
 1675TIP3   OH226583   0.207   2.266   2.104  0.3958 -0.0335  0.2198
 1675TIP3    H126584   0.241   2.355   2.091 -0.6440  0.4939  0.9530
 1675TIP3    H226585   0.266   2.227   2.168  1.5541 -0.3070 -0.9651
 1676TIP3   OH226586   4.176   1.112   2.006 -0.3206 -0.4120  0.0340
 1676TIP3    H126587   4.089   1.141   2.034 -0.2790 -0.6869  0.4563
 1676TIP3    H226588   4.224   1.101   2.088  0.1738 -0.0716 -0.2091
 1677TIP3   OH226589   3.643   0.406   1.183 -0.0218  0.4275 -0.3084
 1677TIP3    H126590   3.689   0.349   1.244  1.2790  1.3733 -0.3711
 1677TIP3    H226591   3.595   0.347   1.126  0.6786 -0.5665  0.1143
 1678TIP3   OH226592   5.226   0.171   2.332  0.1500 -0.3028 -0.1880
 1678TIP3    H126593   5.247   0.141   2.244 -0.7166  0.2173 -0.5846
 1678TIP3    H226594   5.298   0.230   2.356  0.8098 -1.0895 -0.2092
 1679TIP3   OH226595   3.921   3.241   2.691 -0.7527  0.3582  0.5753
 1679TIP3    H126596   4.015   3.260   2.687 -0.4584 -1.1946 -1.4333
 1679TIP3    H226597   3.905   3.221   2.783  0.9008  0.5977  0.9609
 1680TIP3   OH226598   4.202   2.204   1.656 -0.0049  0.0029  0.0227
 1680TIP3    H126599   4.233   2.293   1.638  0.9589 -0.1875  0.6837
 1680TIP3    H226600   4.193   2.165   1.569  0.0676  0.5782 -0.2552
 1681TIP3   OH226601   1.199   2.713   7.798 -0.3642 -0.0617  0.1401
 1681TIP3    H126602   1.146   2.681   7.725  0.5332 -1.5615  0.1219
 1681TIP3    H226603   1.290   2.699   7.770  0.0444  1.1874  0.7476
 1682TIP3   OH226604   1.710   1.203   0.377 -0.0393  0.3325 -0.3394
 1682TIP3    H126605   1.640   1.172   0.435 -0.2991  0.3954 -0.6190
 1682TIP3    H226606   1.682   1.291   0.352 -0.0914  0.1751 -0.8324
 1683TIP3   OH226607   4.303   2.935   2.507 -0.5441  0.0314  0.2091
 1683TIP3    H126608   4.311   2.854   2.558 -1.3665 -0.4091 -0.3426
 1683TIP3    H226609   4.393   2.962   2.491 -0.2649 -0.4945  0.8482
 1684TIP3   OH226610   2.782   6.345   2.262 -0.5218  0.4425 -0.9137
 1684TIP3    H126611   2.789   6.258   2.303 -1.9524 -0.2398 -2.0343
 1684TIP3    H226612   2.779   6.406   2.335 -4.0436 -0.7969  0.1750
 1685TIP3   OH226613   6.151   4.506   7.445 -0.0759 -0.0171 -0.1576
 1685TIP3    H126614   6.157   4.484   7.352 -0.3379  0.1188 -0.2091
 1685TIP3    H226615   6.083   4.574   7.449 -0.9959 -0.9342  0.2721
 1686TIP3   OH226616   0.185   4.839   1.462 -0.0141 -0.3926  0.0919
 1686TIP3    H126617   0.118   4.907   1.468  0.9002  0.8660 -2.4735
 1686TIP3    H226618   0.137   4.760   1.437 -0.6468  0.3270 -1.0364
 1687TIP3   OH226619   2.403   1.396   2.165  0.0535  0.2652 -0.4170
 1687TIP3    H126620   2.480   1.453   2.160  0.2424 -0.0228 -0.9504
 1687TIP3    H226621   2.346   1.428   2.095 -0.1670  0.2680 -0.2360
 1688TIP3   OH226622   4.985   6.222   2.480 -0.4693 -0.3313  0.3490
 1688TIP3    H126623   4.902   6.249   2.519 -0.1143 -0.4973  1.2355
 1688TIP3    H226624   4.960   6.156   2.415 -1.0187 -0.5191  0.7435
 1689TIP3   OH226625   1.473   4.085   0.214  0.0130  0.0160 -0.0456
 1689TIP3    H126626   1.424   4.004   0.199 -0.9627  0.4290  0.7859
 1689TIP3    H226627   1.478   4.092   0.309  1.4302  0.1596 -0.1118
 1690TIP3   OH226628   2.592   5.573   1.638 -0.2238 -0.5152  0.5099
 1690TIP3    H126629   2.667   5.539   1.687 -0.1461 -0.8100  0.1840
 1690TIP3    H226630   2.520   5.513   1.659  0.3426 -1.9766 -1.4730
 1691TIP3   OH226631   2.414   4.029   0.712 -0.1903  0.2029 -0.4995
 1691TIP3    H126632   2.352   4.003   0.644  0.1901  1.3088 -1.2951
 1691TIP3    H226633   2.409   3.959   0.777 -0.2115 -1.1144 -1.8736
 1692TIP3   OH226634   1.191   2.970   8.629 -0.4550  0.2140 -0.6437
 1692TIP3    H126635   1.228   2.996   8.714 -0.2844  0.7540 -0.8778
 1692TIP3    H226636   1.098   2.952   8.648 -0.7217  1.5690 -0.5660
 1693TIP3   OH226637   0.172   1.254   1.406 -0.0509  0.0932 -0.7313
 1693TIP3    H126638   0.140   1.300   1.329 -0.2865  2.1035  0.4767
 1693TIP3    H226639   0.102   1.265   1.471  0.2766 -1.2508 -0.1224
 1694TIP3   OH226640   6.703   1.248   1.570  0.5727 -0.1870  0.2689
 1694TIP3    H126641   6.616   1.252   1.533  0.9230  0.5689 -0.4857
 1694TIP3    H226642   6.697   1.297   1.652 -0.6446 -3.3043  2.2249
 1695TIP3   OH226643   1.656   2.860   0.189 -0.0388 -0.3321  0.2296
 1695TIP3    H126644   1.653   2.839   0.282  0.1572  0.3928  0.4040
 1695TIP3    H226645   1.719   2.798   0.153  1.2784  0.5641  0.9138
 1696TIP3   OH226646   1.643   3.826   0.959  0.5028  0.5153  0.2293
 1696TIP3    H126647   1.581   3.753   0.969  0.1091  0.5415 -1.5910
 1696TIP3    H226648   1.729   3.784   0.953  0.1329 -0.0460 -2.5541
 1697TIP3   OH226649   5.123   6.678   1.654 -0.0831  0.4404 -0.0824
 1697TIP3    H126650   5.070   6.737   1.707  1.6404  1.1154  0.9511
 1697TIP3    H226651   5.206   6.724   1.642  0.1286 -0.3693 -2.0888
 1698TIP3   OH226652   5.407   1.547   0.732 -0.2304  0.0463  1.0564
 1698TIP3    H126653   5.476   1.555   0.799 -1.0183 -1.7094  2.1550
 1698TIP3    H226654   5.446   1.490   0.665  0.0111  0.5304  0.7819
 1699TIP3   OH226655   3.123   3.165   2.408  0.0332  0.3680  0.5101
 1699TIP3    H126656   3.170   3.242   2.439  2.1558 -1.9321  3.6392
 1699TIP3    H226657   3.053   3.152   2.472 -2.0834  1.1123 -1.5253
 1700TIP3   OH226658   2.363   4.853   7.932  0.0167  0.3457  0.6072
 1700TIP3    H126659   2.426   4.789   7.897 -0.1170  0.7810 -0.4897
 1700TIP3    H226660   2.342   4.821   8.020  0.1138 -1.0189  0.1634
 1701TIP3   OH226661   5.182   5.902   0.065 -0.0859  0.0594  0.1536
 1701TIP3    H126662   5.141   5.930   0.147  0.1014 -2.3315  1.1398
 1701TIP3    H226663   5.121   5.839   0.027  0.0428  0.7836 -1.3635
 1702TIP3   OH226664   3.656   5.052   7.898 -0.3257 -0.1083  0.8245
 1702TIP3    H126665   3.703   5.069   7.817 -0.5187 -2.4474  0.1498
 1702TIP3    H226666   3.669   5.131   7.950 -2.2061  2.5925 -2.3714
 1703TIP3   OH226667   3.120   1.703   8.925  0.0245  0.0439 -0.4723
 1703TIP3    H126668   3.042   1.756   8.938  0.4202  0.2726  1.2243
 1703TIP3    H226669   3.094   1.614   8.953  0.8012  0.4799  1.9281
 1704TIP3   OH226670   6.260   3.696   0.986  0.3209  0.1352 -0.6223
 1704TIP3    H126671   6.252   3.607   0.952  0.2434  0.0215 -0.3065
 1704TIP3    H226672   6.330   3.736   0.934  1.9481 -0.8209  0.7526
 1705TIP3   OH226673   0.666   6.523   0.324 -0.2137  0.1100 -0.2355
 1705TIP3    H126674   0.581   6.518   0.367 -0.5304  1.8356 -0.6124
 1705TIP3    H226675   0.648   6.559   0.238  0.7350 -0.9396 -0.9009
 1706TIP3   OH226676   0.067   5.751   0.206  0.1448  0.4279 -0.1548
 1706TIP3    H126677   0.075   5.802   0.286  3.4050 -0.5884  0.3442
 1706TIP3    H226678   0.104   5.806   0.138  2.0632 -0.4993  0.0650
 1707TIP3   OH226679   1.759   2.487   1.828 -0.5300  0.0789 -0.0213
 1707TIP3    H126680   1.788   2.493   1.737 -1.9436  0.7924 -0.4536
 1707TIP3    H226681   1.814   2.418   1.866  0.8781  0.5603 -1.0787
 1708TIP3   OH226682   3.203   0.534   0.072 -0.1656 -0.6882 -0.0033
 1708TIP3    H126683   3.154   0.598   0.019  0.4525  1.1082  1.4603
 1708TIP3    H226684   3.181   0.449   0.034 -1.4287  0.3470 -1.7440
 1709TIP3   OH226685   0.665   4.314   1.092  0.0769 -0.1752 -0.8159
 1709TIP3    H126686   0.703   4.272   1.170 -0.5441 -0.4094 -0.6364
 1709TIP3    H226687   0.741   4.344   1.042  0.4806  0.1695 -0.0148
 1710TIP3   OH226688   6.606   6.760   7.235  0.3752 -0.1603  0.6682
 1710TIP3    H126689   6.566   6.701   7.298 -0.7107 -0.3377 -0.1572
 1710TIP3    H226690   6.549   6.837   7.234  1.8291  1.0035  1.8140
 1711TIP3   OH226691   0.992   4.926   7.828 -0.1290  0.0174  0.0784
 1711TIP3    H126692   0.924   4.904   7.765  0.6969 -0.0563 -0.8212
 1711TIP3    H226693   1.030   5.008   7.794  0.7848 -0.3927  0.0736
 1712TIP3   OH226694   3.430   1.594   2.720  1.2157  0.1054  0.0075
 1712TIP3    H126695   3.487   1.623   2.791 -1.2366  0.6490  1.8812
 1712TIP3    H226696   3.423   1.499   2.731  1.9737 -0.0117 -0.4404
 1713TIP3   OH226697   2.747   3.813   7.243 -0.2645  0.1932 -0.1858
 1713TIP3    H126698   2.754   3.746   7.174 -0.5140  0.8902 -0.9000
 1713TIP3    H226699   2.808   3.881   7.217 -0.0246  0.2563  0.5323
 1714TIP3   OH226700   2.118   5.739   1.690  0.0479 -0.0102  0.4286
 1714TIP3    H126701   2.160   5.808   1.741 -0.7929  0.4849  0.4679
 1714TIP3    H226702   2.030   5.733   1.726 -0.5257  0.2694 -0.8608
 1715TIP3   OH226703   3.342   6.508   1.005 -0.0282  0.2041 -0.3081
 1715TIP3    H126704   3.409   6.439   1.012 -1.3918 -1.1040  0.4271
 1715TIP3    H226705   3.259   6.461   1.012 -1.0470  1.7597 -1.4985
 1716TIP3   OH226706   6.426   1.235   2.824  0.0381  0.4034 -0.0455
 1716TIP3    H126707   6.460   1.147   2.811 -0.1143  0.0694  1.6362
 1716TIP3    H226708   6.391   1.261   2.738  1.1182 -0.7054 -0.8409
 1717TIP3   OH226709   4.623   6.622   2.311 -1.2723  0.2330 -0.0986
 1717TIP3    H126710   4.689   6.611   2.379 -0.9286 -1.4522 -0.6457
 1717TIP3    H226711   4.661   6.683   2.249  0.2016 -1.3648 -0.8552
 1718TIP3   OH226712   5.091   3.580   7.571  0.0935  0.1502  0.0499
 1718TIP3    H126713   5.011   3.548   7.531 -0.4736  2.5577 -0.9382
 1718TIP3    H226714   5.082   3.676   7.569  1.4194  0.4590  3.1667
 1719TIP3   OH226715   0.803   2.119   0.130 -0.4719 -0.4460  0.2974
 1719TIP3    H126716   0.830   2.200   0.173 -1.5852  0.7853 -1.1986
 1719TIP3    H226717   0.844   2.050   0.181 -0.1719  1.0102  2.1304
 1720TIP3   OH226718   5.074   3.847   2.178 -0.1634 -0.7330  0.0188
 1720TIP3    H126719   5.142   3.878   2.238  0.0342  0.1835 -0.6431
 1720TIP3    H226720   5.021   3.786   2.230  1.4994 -1.9302  0.3884
 1721TIP3   OH226721   3.140   3.322   7.842 -0.1915 -0.1805  0.0362
 1721TIP3    H126722   3.175   3.313   7.753  1.4996  1.8311  0.4057
 1721TIP3    H226723   3.211   3.364   7.891 -1.1659 -1.0433  2.2970
 1722TIP3   OH226724   0.949   5.433   1.746 -0.4639  0.3532  0.0996
 1722TIP3    H126725   0.935   5.505   1.808 -1.6246 -1.5554  2.1789
 1722TIP3    H226726   0.879   5.370   1.766 -0.7599 -0.4785 -3.0519
 1723TIP3   OH226727   0.351   4.311   8.552 -0.0101 -0.2010  0.2712
 1723TIP3    H126728   0.317   4.245   8.614  0.1559  0.4676  1.0931
 1723TIP3    H226729   0.335   4.273   8.466 -0.9758 -0.8141  0.6990
 1724TIP3   OH226730   5.077   4.194   0.661  0.2534  0.1163 -0.3227
 1724TIP3    H126731   5.060   4.145   0.742 -3.0778 -0.9751 -1.5083
 1724TIP3    H226732   5.034   4.278   0.674 -0.0761  0.0359 -0.8583
 1725TIP3   OH226733   2.942   4.262   0.054 -0.4727  0.1848  0.2221
 1725TIP3    H126734   2.936   4.174   0.018  0.1951 -0.2330  1.1088
 1725TIP3    H226735   2.864   4.270   0.110 -2.8839  1.7013 -3.0093
 1726TIP3   OH226736   3.131   3.024   8.135  0.2963 -0.1551  0.3437
 1726TIP3    H126737   3.079   3.063   8.205  2.3405  0.4950  1.6031
 1726TIP3    H226738   3.078   2.951   8.103 -0.2900 -1.2149  3.3859
 1727TIP3   OH226739   5.584   1.392   8.184 -0.6140 -0.5159 -0.2303
 1727TIP3    H126740   5.614   1.376   8.273  2.3238  0.3211 -0.9577
 1727TIP3    H226741   5.615   1.316   8.134  0.2875  0.3386 -1.0092
 1728TIP3   OH226742   4.862   0.303   1.515 -0.4401 -0.6802 -0.6881
 1728TIP3    H126743   4.879   0.271   1.427 -0.3039 -2.1074 -0.1797
 1728TIP3    H226744   4.948   0.311   1.556 -0.5664 -1.5045 -0.2232
 1729TIP3   OH226745   1.458   0.557   2.362  0.0985  0.3961  0.6018
 1729TIP3    H126746   1.392   0.624   2.345  2.0233  2.1948 -0.4086
 1729TIP3    H226747   1.518   0.563   2.287  0.7398 -2.0065  0.8449
 1730TIP3   OH226748   1.729   5.572   8.715 -0.2093 -0.2389 -0.3498
 1730TIP3    H126749   1.678   5.512   8.660  0.1964  1.0873 -2.2751
 1730TIP3    H226750   1.795   5.609   8.656  1.5333 -0.1748  1.5219
 1731TIP3   OH226751   1.827   4.392   2.311 -0.3641 -0.1141 -0.1278
 1731TIP3    H126752   1.768   4.463   2.287 -1.4834 -1.0707 -0.3278
 1731TIP3    H226753   1.775   4.337   2.369  0.2587 -1.0953 -0.4727
 1732TIP3   OH226754   6.407   5.614   8.968 -0.5648  0.2681  0.3408
 1732TIP3    H126755   6.446   5.663   9.040  1.8242 -1.4140  0.2861
 1732TIP3    H226756   6.422   5.669   8.891 -1.2942  1.1204  0.7792
 1733TIP3   OH226757   1.111   4.814   7.292 -0.1754  0.1769  0.6625
 1733TIP3    H126758   1.021   4.834   7.316 -0.7259 -0.3022 -0.9234
 1733TIP3    H226759   1.143   4.894   7.250 -0.6183 -0.3929 -0.8082
 1734TIP3   OH226760   4.102   4.634   6.945  0.2202  0.1932  0.0992
 1734TIP3    H126761   4.191   4.600   6.956  0.2434  0.0581 -0.4892
 1734TIP3    H226762   4.111   4.728   6.956  0.1264  0.0323  1.9361
 1735TIP3   OH226763   3.382   5.295   8.471  0.0002 -0.1908 -0.3794
 1735TIP3    H126764   3.418   5.214   8.506 -1.4596 -0.4019  0.6966
 1735TIP3    H226765   3.287   5.284   8.476 -0.4225  2.8971  3.2229
 1736TIP3   OH226766   6.036   2.764   1.691  0.4752  0.0387  0.5524
 1736TIP3    H126767   6.089   2.755   1.770 -1.6923  0.0469  2.1123
 1736TIP3    H226768   6.071   2.842   1.647  0.9561  0.7736  2.1745
 1737TIP3   OH226769   3.421   0.121   2.328  0.3256 -0.6423 -0.4730
 1737TIP3    H126770   3.482   0.047   2.319  0.2838 -0.7846  0.4117
 1737TIP3    H226771   3.441   0.177   2.252  1.8261 -0.4933  0.0023
 1738TIP3   OH226772   1.039   4.689   8.244  0.1860  0.4993 -0.0125
 1738TIP3    H126773   0.991   4.771   8.256  0.7403  0.9565 -0.8724
 1738TIP3    H226774   1.089   4.701   8.164 -0.6364 -1.1226 -0.8327
 1739TIP3   OH226775   0.969   2.489   0.951  0.4955 -0.4694  0.0293
 1739TIP3    H126776   0.966   2.466   0.858  0.5434  0.3617 -0.1808
 1739TIP3    H226777   0.923   2.417   0.994 -2.8311  0.8564 -0.9835
 1740TIP3   OH226778   6.123   1.792   0.031  0.1819 -0.0912  0.4834
 1740TIP3    H126779   6.069   1.850   0.085 -0.7314  1.0492 -1.5330
 1740TIP3    H226780   6.135   1.714   0.085 -0.5916  1.0122  2.3480
 1741TIP3   OH226781   4.098   4.036   0.088 -0.4919 -0.7082  0.9982
 1741TIP3    H126782   4.037   3.991   0.146 -1.6432 -2.1453 -1.2048
 1741TIP3    H226783   4.052   4.041   0.004  2.4761 -2.0538 -0.8457
 1742TIP3   OH226784   2.150   0.372   7.773  0.2477  0.0860  0.0673
 1742TIP3    H126785   2.133   0.351   7.864  0.0701 -2.1125 -0.4234
 1742TIP3    H226786   2.103   0.454   7.758  1.6580  1.4152  2.3493
 1743TIP3   OH226787   2.041   2.674   3.397  0.0060  0.0829  0.1322
 1743TIP3    H126788   1.984   2.708   3.328  0.3818  1.5896  0.5449
 1743TIP3    H226789   2.111   2.738   3.405  2.1273 -1.9864 -0.7333
 1744TIP3   OH226790   6.506   2.050   2.745  0.5554  0.0452 -0.0906
 1744TIP3    H126791   6.597   2.031   2.721  0.8097  0.9912  0.0923
 1744TIP3    H226792   6.498   2.015   2.834  0.8338  0.2355  0.0122
 1745TIP3   OH226793   2.553   3.611   8.702  0.1063 -0.1012 -0.2994
 1745TIP3    H126794   2.492   3.681   8.677 -0.6193 -0.7313 -0.3203
 1745TIP3    H226795   2.615   3.606   8.630 -0.5169 -0.2359 -0.8356
 1746TIP3   OH226796   3.197   0.500   0.819  0.0937 -0.1299 -0.2437
 1746TIP3    H126797   3.211   0.431   0.884 -2.5787 -0.4364  0.1461
 1746TIP3    H226798   3.261   0.567   0.841 -0.3123 -0.5012  2.3700
 1747TIP3   OH226799   3.218   5.630   0.396 -0.0926  0.2879 -0.3576
 1747TIP3    H126800   3.254   5.669   0.317  0.5575 -0.4130 -0.4169
 1747TIP3    H226801   3.260   5.679   0.467  0.7335 -0.2929 -0.4316
 1748TIP3   OH226802   4.935   0.994   3.035  0.2031 -0.4649 -0.3121
 1748TIP3    H126803   4.998   1.001   3.107  0.9933  0.5304 -1.0627
 1748TIP3    H226804   4.863   1.051   3.061  0.1544 -0.6692  0.0081
 1749TIP3   OH226805   2.447   6.187   1.176  0.4697 -0.1155  0.5930
 1749TIP3    H126806   2.382   6.118   1.188  1.7613 -1.4650  0.1294
 1749TIP3    H226807   2.408   6.245   1.110 -0.3458 -0.7888  0.4626
 1750TIP3   OH226808   1.471   3.034   8.406  1.0551 -0.0141  0.1732
 1750TIP3    H126809   1.506   3.027   8.317  0.6640  1.3985 -0.1252
 1750TIP3    H226810   1.534   2.987   8.461  2.4955  0.9825 -0.5642
 1751TIP3   OH226811   5.754   5.822   1.760  0.0570 -0.0594 -0.3039
 1751TIP3    H126812   5.674   5.873   1.758  0.6762  0.9227 -0.3943
 1751TIP3    H226813   5.758   5.787   1.849 -0.9425 -0.9132 -0.5722
 1752TIP3   OH226814   2.720   5.745   0.949 -0.0079 -0.7378 -0.1466
 1752TIP3    H126815   2.626   5.744   0.964 -0.3021  0.6343 -1.5636
 1752TIP3    H226816   2.734   5.681   0.880 -0.1936  0.2381 -1.1307
 1753TIP3   OH226817   2.217   3.036   0.499  0.9825 -0.4362 -0.1589
 1753TIP3    H126818   2.184   2.970   0.437  1.0696 -0.4773 -0.1609
 1753TIP3    H226819   2.199   2.998   0.585  1.5161 -0.7002 -0.1614
 1754TIP3   OH226820   6.200   4.413   1.616 -0.0091 -0.1105 -0.1444
 1754TIP3    H126821   6.127   4.375   1.663 -1.3613  1.3033 -1.0160
 1754TIP3    H226822   6.219   4.350   1.546 -1.4714  0.2378 -0.8882
 1755TIP3   OH226823   2.219   2.968   1.267  0.6672  0.2546  0.4207
 1755TIP3    H126824   2.225   2.884   1.314  0.9485  0.0205 -0.0282
 1755TIP3    H226825   2.209   3.033   1.337  1.7934 -0.0171  0.8547
 1756TIP3   OH226826   5.465   2.935   2.759 -0.4729 -0.1992 -0.3196
 1756TIP3    H126827   5.459   3.027   2.783 -1.4371 -0.5572  0.9349
 1756TIP3    H226828   5.409   2.890   2.823 -1.1338 -1.5076 -1.7426
 1757TIP3   OH226829   3.593   4.528   7.804 -0.1900  0.0086  0.3073
 1757TIP3    H126830   3.526   4.594   7.785 -0.1216  0.3629  1.2185
 1757TIP3    H226831   3.663   4.576   7.848 -0.4454 -0.7682  1.6371
 1758TIP3   OH226832   3.527   1.428   2.206 -0.0939  0.4314 -0.0406
 1758TIP3    H126833   3.532   1.499   2.271  0.0895  0.4073 -0.0269
 1758TIP3    H226834   3.618   1.403   2.192 -0.0022  1.4627 -1.4544
 1759TIP3   OH226835   0.442   0.697   8.652  0.1265  0.2923 -0.0963
 1759TIP3    H126836   0.437   0.618   8.705 -3.3739  0.7215  0.4776
 1759TIP3    H226837   0.417   0.669   8.564 -1.1812  0.6904  0.1216
 1760TIP3   OH226838   3.141   4.403   8.297 -0.0479 -0.1100 -0.1029
 1760TIP3    H126839   3.201   4.464   8.340  0.0062 -0.8876  0.9890
 1760TIP3    H226840   3.061   4.408   8.349 -0.0365 -0.9537  0.0080
 1761TIP3   OH226841   0.755   6.390   1.390 -0.1258 -0.1930 -0.7168
 1761TIP3    H126842   0.743   6.353   1.477 -0.3744  0.3940 -0.4935
 1761TIP3    H226843   0.682   6.355   1.339 -1.0033  0.8308 -0.2144
 1762TIP3   OH226844   1.968   4.754   0.081  0.4394 -0.2488  0.2520
 1762TIP3    H126845   1.904   4.780   0.147 -0.6368 -3.1733  0.5019
 1762TIP3    H226846   1.920   4.758  -0.002 -0.6959 -3.7420  0.5769
 1763TIP3   OH226847   4.933   5.944   2.599 -0.4991 -0.1899  0.0056
 1763TIP3    H126848   4.845   5.977   2.617 -0.4065 -0.6527  1.4825
 1763TIP3    H226849   4.928   5.850   2.616 -0.1425 -0.5481 -1.6874
 1764TIP3   OH226850   5.316   4.368   0.462  0.7289 -0.2139 -0.0553
 1764TIP3    H126851   5.307   4.291   0.518  0.6429  0.2529  0.5870
 1764TIP3    H226852   5.235   4.369   0.410  0.2291  0.0531  0.7173
 1765TIP3   OH226853   0.521   6.167   3.186 -0.2316  0.3437 -0.0250
 1765TIP3    H126854   0.599   6.187   3.134 -0.2010  1.7866  0.5364
 1765TIP3    H226855   0.538   6.080   3.222  1.1273  0.6271  0.0770
 1766TIP3   OH226856   6.087   0.416   0.951 -0.2331  0.1015  0.6860
 1766TIP3    H126857   6.025   0.487   0.938 -0.0984 -0.0271 -0.7879
 1766TIP3    H226858   6.161   0.457   0.995 -0.6080  0.6376  0.8249
 1767TIP3   OH226859   1.682   4.517   8.288  0.3683 -0.2059 -0.0678
 1767TIP3    H126860   1.694   4.460   8.212  2.1381  2.8174 -2.2817
 1767TIP3    H226861   1.587   4.526   8.296  0.1299 -1.2534 -1.4009
 1768TIP3   OH226862   1.989   1.296   8.830 -0.4744 -0.0563  0.2081
 1768TIP3    H126863   2.079   1.272   8.807 -0.3426 -0.6829  1.3349
 1768TIP3    H226864   1.959   1.225   8.887 -0.5501  1.7390  2.5227
 1769TIP3   OH226865   3.378   2.016   2.720  0.3063 -0.2228  0.3405
 1769TIP3    H126866   3.356   2.101   2.760  1.0699 -0.1748  0.6757
 1769TIP3    H226867   3.346   1.951   2.784 -1.1410 -0.2310 -0.3523
 1770TIP3   OH226868   0.707   2.772   8.287 -0.0263  0.7689 -0.0897
 1770TIP3    H126869   0.750   2.719   8.219 -0.1473 -0.3104  0.6428
 1770TIP3    H226870   0.619   2.786   8.254 -0.4962 -0.8412  0.3596
 1771TIP3   OH226871   5.964   0.769   8.373 -0.2731  0.4114  0.2669
 1771TIP3    H126872   5.985   0.678   8.393 -0.7745 -0.1879 -1.7009
 1771TIP3    H226873   5.870   0.776   8.386 -0.3442  0.4510 -0.2429
 1772TIP3   OH226874   3.176   1.495   1.842 -0.1532 -0.0312  0.1069
 1772TIP3    H126875   3.144   1.420   1.891  2.5113 -1.5113 -0.2122
 1772TIP3    H226876   3.262   1.513   1.880  0.9033  0.3900 -2.3082
 1773TIP3   OH226877   2.751   5.969   0.712  0.1592 -0.1466  0.0223
 1773TIP3    H126878   2.678   6.000   0.659 -0.1101 -1.2449 -0.2698
 1773TIP3    H226879   2.724   5.986   0.803 -0.6980 -1.0034 -0.0540
 1774TIP3   OH226880   5.797   4.502   6.570 -0.2335  0.4779  0.0086
 1774TIP3    H126881   5.880   4.543   6.593 -0.8856  0.9795  1.6048
 1774TIP3    H226882   5.744   4.573   6.533 -0.7006  0.6862  1.0335
 1775TIP3   OH226883   4.894   3.867   2.507 -1.2706  0.2016 -0.5604
 1775TIP3    H126884   4.966   3.812   2.539 -1.6959 -0.5960 -0.9528
 1775TIP3    H226885   4.937   3.947   2.478 -0.7485  0.4996  0.9419
 1776TIP3   OH226886   3.931   1.220   0.868  0.1020  0.1660 -0.1252
 1776TIP3    H126887   3.991   1.274   0.920 -0.7116  1.6087 -0.6408
 1776TIP3    H226888   3.845   1.237   0.905 -0.3553  0.3871 -1.2526
 1777TIP3   OH226889   1.411   6.698   1.497 -0.1752  0.0007  0.2065
 1777TIP3    H126890   1.393   6.671   1.407 -2.6086  0.5098  0.4681
 1777TIP3    H226891   1.427   6.792   1.492  0.5928 -0.1236  0.2153
 1778TIP3   OH226892   4.916   3.500   1.523 -0.5200 -0.4728  0.1533
 1778TIP3    H126893   4.839   3.553   1.504  0.2075  0.1772 -1.0987
 1778TIP3    H226894   4.986   3.563   1.542 -0.0717 -1.0220  0.3702
 1779TIP3   OH226895   2.823   1.166   3.214 -0.2736 -0.0694  0.0240
 1779TIP3    H126896   2.887   1.207   3.271  0.2342 -0.3501 -0.3287
 1779TIP3    H226897   2.750   1.144   3.271  0.5307 -1.0284  0.7340
 1780TIP3   OH226898   0.957   0.997   8.652 -0.0299  0.1823 -0.4344
 1780TIP3    H126899   1.035   0.956   8.688 -1.4098 -0.6754  1.8330
 1780TIP3    H226900   0.986   1.041   8.573  2.6306 -0.4779  0.1033
 1781TIP3   OH226901   1.596   2.950   1.807  0.2603 -0.8595 -0.2402
 1781TIP3    H126902   1.606   2.882   1.740 -0.8988 -2.3272  1.0261
 1781TIP3    H226903   1.606   3.033   1.758  2.5113 -1.8843 -1.6847
 1782TIP3   OH226904   5.991   3.736   2.397 -0.4042 -0.0976 -0.6481
 1782TIP3    H126905   5.972   3.642   2.399 -1.1852 -0.0138 -2.5343
 1782TIP3    H226906   6.015   3.757   2.488 -0.3527 -2.0721 -0.1582
 1783TIP3   OH226907   2.940   3.989   0.555 -0.4519  0.0252 -1.1170
 1783TIP3    H126908   2.923   4.048   0.482 -0.7506 -0.3564 -1.3624
 1783TIP3    H226909   2.858   3.988   0.605 -0.4228 -0.1228 -1.0721
 1784TIP3   OH226910   3.985   2.167   0.279  0.0823  0.0922  0.2996
 1784TIP3    H126911   3.939   2.113   0.215  0.4803 -1.7330  1.4621
 1784TIP3    H226912   4.068   2.120   0.295  0.0329  0.5091  2.0508
 1785TIP3   OH226913   5.930   0.615   1.037 -0.0183  0.0198  0.2123
 1785TIP3    H126914   5.917   0.683   1.104 -0.1951 -1.4668  1.7533
 1785TIP3    H226915   5.849   0.564   1.039  0.0911 -0.2387 -0.9746
 1786TIP3   OH226916   0.071   5.858   8.656  0.6769  0.6067  0.4733
 1786TIP3    H126917   0.135   5.885   8.589  0.0099  0.1778 -0.3506
 1786TIP3    H226918   0.000   5.922   8.648 -0.3581 -0.6277 -0.6684
 1787TIP3   OH226919   4.808   6.413   8.000  0.0867 -0.1240 -0.7382
 1787TIP3    H126920   4.788   6.491   8.052  0.6226 -0.6163  0.2237
 1787TIP3    H226921   4.740   6.412   7.932  0.8095  1.8645 -1.5512
 1788TIP3   OH226922   4.487   2.622   2.965 -0.4772 -0.1006 -1.1375
 1788TIP3    H126923   4.476   2.600   3.058 -0.5623 -0.4294 -1.2225
 1788TIP3    H226924   4.514   2.539   2.924 -1.8207 -0.3131 -1.6408
 1789TIP3   OH226925   1.821   2.033   2.669 -0.0795 -0.1902  0.0604
 1789TIP3    H126926   1.732   2.038   2.704  0.4130 -0.6642  1.4278
 1789TIP3    H226927   1.827   1.946   2.630 -0.0029 -0.4284  0.5943
 1790TIP3   OH226928   6.658   0.260   1.353  0.7411 -0.0894 -0.6187
 1790TIP3    H126929   6.744   0.279   1.315  1.0531  1.2521  0.6562
 1790TIP3    H226930   6.678   0.218   1.437  0.2908  2.2647  0.7618
 1791TIP3   OH226931   2.467   5.712   8.521 -0.4659 -0.4246 -0.6412
 1791TIP3    H126932   2.469   5.616   8.522  0.1697 -0.4432  1.1616
 1791TIP3    H226933   2.551   5.737   8.560  0.0576  0.9213 -2.5219
 1792TIP3   OH226934   5.356   1.303   1.929 -0.0937 -0.0854 -0.3596
 1792TIP3    H126935   5.295   1.368   1.963 -0.4175 -0.3165 -0.4910
 1792TIP3    H226936   5.307   1.221   1.932 -1.3623  0.3060 -4.3276
 1793TIP3   OH226937   4.578   6.392   7.830 -0.3340 -0.0647  0.2052
 1793TIP3    H126938   4.563   6.407   7.737 -0.3005 -0.7842  0.0816
 1793TIP3    H226939   4.491   6.370   7.865 -0.6891  1.9570  0.7001
 1794TIP3   OH226940   3.273   4.915   8.229 -0.2951 -0.1219 -0.0178
 1794TIP3    H126941   3.307   4.983   8.171  1.6262  0.1570  1.3107
 1794TIP3    H226942   3.244   4.845   8.171  1.3432  0.2417 -1.3442
 1795TIP3   OH226943   2.720   0.956   2.539  0.8808 -0.2096 -0.5933
 1795TIP3    H126944   2.632   0.970   2.575  1.0419 -0.5371 -0.0645
 1795TIP3    H226945   2.771   1.029   2.572  0.5191  0.6733 -1.9159
 1796TIP3   OH226946   5.364   5.371   0.493 -0.2701 -0.5029 -0.0064
 1796TIP3    H126947   5.307   5.296   0.473 -0.5317 -0.5386  0.8383
 1796TIP3    H226948   5.374   5.368   0.588  1.3396 -0.6405 -0.1586
 1797TIP3   OH226949   6.611   2.192   0.296 -0.0360 -0.2106 -0.2132
 1797TIP3    H126950   6.595   2.225   0.207 -2.0779  0.3854  0.3119
 1797TIP3    H226951   6.562   2.252   0.352 -2.3100 -2.9576  0.9754
 1798TIP3   OH226952   3.235   4.503   1.135  0.1579 -0.0506  0.6170
 1798TIP3    H126953   3.181   4.557   1.192 -0.0679 -0.3688  0.7108
 1798TIP3    H226954   3.172   4.451   1.085  0.3646 -0.0297  0.3370
 1799TIP3   OH226955   6.298   3.548   2.438  0.1110  0.1316 -0.7615
 1799TIP3    H126956   6.292   3.527   2.345 -0.7483 -1.6828 -0.3261
 1799TIP3    H226957   6.207   3.555   2.467  0.3603 -0.2601  0.1420
 1800TIP3   OH226958   2.838   3.106   0.978 -0.2472 -0.0881 -0.3084
 1800TIP3    H126959   2.790   3.172   0.928  0.5226 -0.2795 -1.3363
 1800TIP3    H226960   2.776   3.034   0.989 -0.6861  0.2916 -0.2612
 1801TIP3   OH226961   1.091   0.482   1.093 -0.0851 -0.1051 -0.4036
 1801TIP3    H126962   1.046   0.557   1.055  0.4827  0.8534  0.7442
 1801TIP3    H226963   1.062   0.480   1.184  0.2451 -1.0107 -0.3072
 1802TIP3   OH226964   5.150   0.048   1.377 -0.3995 -0.2434 -0.7926
 1802TIP3    H126965   5.209   0.065   1.451  0.0159  3.2419 -1.7182
 1802TIP3    H226966   5.067   0.025   1.418  0.7163 -2.0938  0.6087
 1803TIP3   OH226967   0.242   2.731   8.761 -0.0460 -0.5623  0.6455
 1803TIP3    H126968   0.305   2.792   8.800  0.3230 -1.0684  0.8602
 1803TIP3    H226969   0.242   2.753   8.668  1.4863 -1.4335  0.4021
 1804TIP3   OH226970   6.037   2.659   8.219 -0.0673  0.0072 -0.0512
 1804TIP3    H126971   6.099   2.618   8.160  1.6854 -0.7529  2.1773
 1804TIP3    H226972   5.955   2.612   8.204  0.4600 -0.4850 -1.5008
 1805TIP3   OH226973   5.297   5.066   1.532  0.3297 -0.4570  0.2478
 1805TIP3    H126974   5.211   5.092   1.567  0.0164 -0.7287 -0.3013
 1805TIP3    H226975   5.282   4.978   1.497  0.2241  0.3692 -1.9410
 1806TIP3   OH226976   1.579   5.235   0.640  0.2935 -0.1996 -0.0179
 1806TIP3    H126977   1.581   5.331   0.650  1.4464 -0.2952  0.8858
 1806TIP3    H226978   1.589   5.202   0.729  1.6749 -1.1471 -0.4968
 1807TIP3   OH226979   1.388   1.815   8.182  0.2128 -0.2087  0.1828
 1807TIP3    H126980   1.482   1.813   8.166  0.2549 -1.0194  0.5013
 1807TIP3    H226981   1.364   1.724   8.199 -0.2983  0.2053  1.9656
 1808TIP3   OH226982   0.085   3.381   0.953 -0.0878 -0.5116 -0.0841
 1808TIP3    H126983   0.128   3.297   0.969  0.5319  0.0375  1.3322
 1808TIP3    H226984   0.155   3.446   0.964 -0.0153  0.1162 -3.3646
 1809TIP3   OH226985   1.214   2.765   8.879  0.3648  0.0537  0.1703
 1809TIP3    H126986   1.286   2.720   8.923  0.5010  0.0437 -0.0612
 1809TIP3    H226987   1.150   2.696   8.859  0.6242 -0.0570 -0.2858
 1810TIP3   OH226988   3.427   0.519   1.642 -0.4178 -0.4539 -0.3253
 1810TIP3    H126989   3.512   0.483   1.617 -0.6817  0.0709 -2.1284
 1810TIP3    H226990   3.427   0.608   1.607 -2.1932 -0.8904 -1.5658
 1811TIP3   OH226991   0.532   0.963   7.784  0.1752  0.4357  0.9493
 1811TIP3    H126992   0.471   0.924   7.847 -1.0772  0.6671 -0.0805
 1811TIP3    H226993   0.505   1.055   7.779  1.0401  0.7047  0.9479
 1812TIP3   OH226994   2.811   5.118   8.386 -0.7775  0.1316  0.6483
 1812TIP3    H126995   2.898   5.099   8.349 -1.2022  1.3311 -1.0786
 1812TIP3    H226996   2.765   5.164   8.316 -1.8604  1.9978  2.4791
 1813TIP3   OH226997   0.962   4.919   0.032  0.4061 -0.5030  0.1375
 1813TIP3    H126998   0.914   4.965   0.100  0.2767 -1.3660  0.6489
 1813TIP3    H226999   1.033   4.979   0.006  1.3764 -0.7424  2.0922
 1814TIP3   OH227000   6.033   6.011   8.336 -0.4995 -0.0504  0.2994
 1814TIP3    H127001   6.022   6.106   8.341  1.0187  0.0871  2.0917
 1814TIP3    H227002   6.123   5.996   8.366 -0.5309 -2.0235 -0.4854
 1815TIP3   OH227003   3.440   5.402   8.171 -0.1593 -0.2316 -0.2276
 1815TIP3    H127004   3.431   5.363   8.258 -2.6682 -1.1423 -0.8110
 1815TIP3    H227005   3.510   5.467   8.181  3.7236 -4.1045  1.0583
 1816TIP3   OH227006   4.578   1.713   7.904 -0.0166 -0.3578  0.3319
 1816TIP3    H127007   4.538   1.669   7.829  0.1732 -0.5628  0.3495
 1816TIP3    H227008   4.656   1.755   7.867  0.6748 -1.3492  0.6089
 1817TIP3   OH227009   2.302   1.233   7.559  0.1137 -0.1528 -0.1901
 1817TIP3    H127010   2.331   1.277   7.638  2.5707 -1.7403 -0.0919
 1817TIP3    H227011   2.337   1.286   7.487 -0.1319  0.0530 -0.1569
 1818TIP3   OH227012   1.288   0.095   8.921  0.1366 -0.3960  0.1579
 1818TIP3    H127013   1.256   0.041   8.994  1.0729 -2.9780 -1.2138
 1818TIP3    H227014   1.329   0.170   8.963 -0.8804 -0.9054  2.2010
 1819TIP3   OH227015   0.968   5.413   2.966  0.1647  0.0868 -0.1533
 1819TIP3    H127016   0.880   5.376   2.966  0.9237 -1.8581  0.4806
 1819TIP3    H227017   0.975   5.459   3.050  0.0696 -0.6123  0.2472
 1820TIP3   OH227018   4.313   3.310   7.592  0.0484  0.4944 -0.0167
 1820TIP3    H127019   4.254   3.377   7.557 -0.5098 -0.0220 -0.0617
 1820TIP3    H227020   4.374   3.359   7.647 -0.5085  1.0099  0.1532
 1821TIP3   OH227021   6.320   4.828   1.267  0.2402 -0.0193  0.2567
 1821TIP3    H127022   6.382   4.865   1.203  0.8299 -1.1763  0.1162
 1821TIP3    H227023   6.309   4.896   1.333 -0.6616  1.3604 -1.2366
 1822TIP3   OH227024   6.512   6.432   7.997  0.6144  0.1216  0.3354
 1822TIP3    H127025   6.588   6.490   8.001  1.6602 -1.0366 -1.2343
 1822TIP3    H227026   6.542   6.350   8.036  0.1777 -0.3257 -0.2405
 1823TIP3   OH227027   5.208   1.781   2.035  0.2136  0.4083  0.6885
 1823TIP3    H127028   5.257   1.859   2.009 -0.9084  0.8793 -0.1193
 1823TIP3    H227029   5.149   1.812   2.104  0.8795 -0.1092  1.5177
 1824TIP3   OH227030   2.533   0.508   2.598  0.0409  0.3636  0.2737
 1824TIP3    H127031   2.513   0.518   2.505 -0.3380  1.0966  0.4296
 1824TIP3    H227032   2.627   0.487   2.600 -0.2518 -1.1697 -0.3456
 1825TIP3   OH227033   4.825   1.014   8.553 -0.0760  0.2169 -0.1305
 1825TIP3    H127034   4.904   0.986   8.507  0.2334 -1.9017  1.5038
 1825TIP3    H227035   4.753   0.987   8.496  0.3235 -1.4976  0.1070
 1826TIP3   OH227036   2.465   5.782   0.530 -0.2587 -0.5752  0.2305
 1826TIP3    H127037   2.544   5.744   0.492 -0.3351  1.7066 -2.6041
 1826TIP3    H227038   2.397   5.716   0.516  0.3587 -0.9764 -1.0329
 1827TIP3   OH227039   4.771   3.585   1.096 -0.7132 -0.5343  0.0341
 1827TIP3    H127040   4.830   3.528   1.144  0.0212  1.3041  1.4512
 1827TIP3    H227041   4.812   3.672   1.101 -3.3262  0.7755  0.8722
 1828TIP3   OH227042   3.838   5.835   1.804 -0.2534 -0.4332  0.3609
 1828TIP3    H127043   3.805   5.830   1.714  0.3715 -0.3530  0.1191
 1828TIP3    H227044   3.931   5.815   1.796  0.2142  1.3567  0.7264
 1829TIP3   OH227045   3.871   0.421   0.763 -1.1311  0.5523 -0.0989
 1829TIP3    H127046   3.805   0.364   0.725  0.1999 -1.7029  0.7785
 1829TIP3    H227047   3.921   0.453   0.688 -1.9379  0.6278 -0.6145
 1830TIP3   OH227048   3.621   0.752   1.843  0.3307 -0.1686  0.1915
 1830TIP3    H127049   3.541   0.793   1.811  1.1873  0.5563 -1.1177
 1830TIP3    H227050   3.641   0.798   1.924 -0.1707  0.1774  0.1239
 1831TIP3   OH227051   0.975   1.400   8.212  0.3168  0.0088  0.2592
 1831TIP3    H127052   1.024   1.455   8.273  0.5982 -0.4884  0.4842
 1831TIP3    H227053   0.931   1.337   8.268  0.8768 -0.6857 -0.0703
 1832TIP3   OH227054   6.102   1.094   1.693 -0.2669 -0.1995 -0.1421
 1832TIP3    H127055   6.126   1.044   1.771  0.2280  0.2977  0.0353
 1832TIP3    H227056   6.100   1.029   1.623 -2.1501 -0.9105  0.5228
 1833TIP3   OH227057   3.683   0.365   2.186 -0.3374  0.2903 -0.1946
 1833TIP3    H127058   3.651   0.297   2.126  2.6136 -0.9668 -0.5684
 1833TIP3    H227059   3.718   0.316   2.260 -0.1355  1.5712  0.5842
 1834TIP3   OH227060   0.360   0.706   1.499 -0.0581 -0.0477  0.6460
 1834TIP3    H127061   0.272   0.731   1.471 -1.4651  1.7675  5.5347
 1834TIP3    H227062   0.353   0.614   1.522 -0.5138 -0.0793  0.3783
 1835TIP3   OH227063   3.527   2.060   8.504 -1.0706 -1.0327 -0.6980
 1835TIP3    H127064   3.465   2.132   8.488  0.0304 -0.0570 -0.7528
 1835TIP3    H227065   3.527   2.050   8.599 -0.9075 -0.6450 -0.6527
 1836TIP3   OH227066   1.529   0.932   8.582 -0.7069 -0.5602 -0.1696
 1836TIP3    H127067   1.507   0.857   8.527 -0.9572 -1.1032  0.6418
 1836TIP3    H227068   1.459   0.996   8.565 -0.1022 -0.2081 -1.4002
 1837TIP3   OH227069   2.244   6.490   0.486  0.1087  0.5342  0.1828
 1837TIP3    H127070   2.232   6.479   0.392  3.1948  0.1300 -0.2834
 1837TIP3    H227071   2.202   6.573   0.506  0.7257  1.4246 -1.8917
 1838TIP3   OH227072   4.757   1.336   2.114 -0.5875  0.1075  0.6299
 1838TIP3    H127073   4.802   1.380   2.186 -0.3862 -1.5756  1.5928
 1838TIP3    H227074   4.693   1.400   2.083 -0.4041  1.0230  2.0265
 1839TIP3   OH227075   2.146   4.753   1.440 -0.0096  0.4022 -0.0180
 1839TIP3    H127076   2.198   4.827   1.407 -0.7660  1.2753  0.7034
 1839TIP3    H227077   2.057   4.786   1.443 -0.0729  0.1342  2.1987
 1840TIP3   OH227078   3.865   4.174   1.149 -0.2034 -0.4272 -0.3897
 1840TIP3    H127079   3.852   4.265   1.123 -0.9444 -0.3526  0.2058
 1840TIP3    H227080   3.781   4.132   1.127 -0.3373 -0.6678  0.5650
 1841TIP3   OH227081   2.170   4.309   1.413 -0.5528 -0.3841 -0.2197
 1841TIP3    H127082   2.193   4.350   1.496 -0.4798 -1.5042  0.3381
 1841TIP3    H227083   2.152   4.218   1.436 -1.5631 -0.4732 -1.2771
 1842TIP3   OH227084   6.452   1.922   8.369  0.4591 -0.1193 -0.3914
 1842TIP3    H127085   6.427   1.924   8.461  0.6376  1.0349 -0.3569
 1842TIP3    H227086   6.529   1.979   8.363  0.2545  0.0777 -1.3034
 1843TIP3   OH227087   0.631   0.362   3.547  0.1397 -0.3290  0.6840
 1843TIP3    H127088   0.717   0.321   3.550  0.9667  1.2794  0.2514
 1843TIP3    H227089   0.570   0.290   3.533  0.8069 -2.2298  5.6217
 1844TIP3   OH227090   5.836   5.915   2.105 -0.0382 -0.0771  0.4616
 1844TIP3    H127091   5.844   5.930   2.199 -1.5073  0.4114  0.5427
 1844TIP3    H227092   5.903   5.849   2.085  0.0006 -0.5163  1.9306
 1845TIP3   OH227093   0.362   3.028   1.925  0.1346 -0.4750 -0.2137
 1845TIP3    H127094   0.320   3.010   1.841  0.6984 -2.6301 -0.0888
 1845TIP3    H227095   0.450   2.993   1.915  0.6302  0.4414  0.8437
 1846TIP3   OH227096   3.140   6.541   8.788 -0.2303 -0.1877 -0.3512
 1846TIP3    H127097   3.157   6.449   8.771  0.7854 -0.3596  1.3268
 1846TIP3    H227098   3.194   6.562   8.865 -1.7623  1.3277  0.3993
 1847TIP3   OH227099   4.783   0.419   7.609 -0.2103 -0.2719  0.1337
 1847TIP3    H127100   4.714   0.378   7.556  0.9332 -1.7422 -0.3085
 1847TIP3    H227101   4.803   0.500   7.563 -1.8733  0.3821  0.4806
 1848TIP3   OH227102   3.950   1.440   1.734  0.6631 -0.5394 -0.3011
 1848TIP3    H127103   3.872   1.401   1.775  0.4924 -0.1323 -0.2389
 1848TIP3    H227104   3.918   1.480   1.654  0.5266  0.9787  0.4877
 1849TIP3   OH227105   3.353   1.904   1.857  0.4080 -0.7799  0.2835
 1849TIP3    H127106   3.302   1.869   1.784  0.1209  1.7126 -0.7980
 1849TIP3    H227107   3.306   1.874   1.935 -1.4524 -0.4311 -0.6461
 1850TIP3   OH227108   5.554   5.621   1.179 -0.7841  0.3215  0.0067
 1850TIP3    H127109   5.503   5.699   1.200 -3.2017 -1.1940  0.2598
 1850TIP3    H227110   5.580   5.585   1.264  1.5688  1.5388 -0.1382
 1851TIP3   OH227111   4.342   0.567   8.592  0.0808  0.0802  0.3429
 1851TIP3    H127112   4.325   0.652   8.632 -0.7977  0.0885 -0.0323
 1851TIP3    H227113   4.433   0.573   8.562 -0.6587  1.8211 -1.8824
 1852TIP3   OH227114   3.263   4.737   8.765  0.5067 -0.3009  0.0492
 1852TIP3    H127115   3.321   4.661   8.773 -0.6156 -1.3855 -1.4361
 1852TIP3    H227116   3.176   4.702   8.787 -0.2483  0.1733 -1.9749
 1853TIP3   OH227117   6.653   4.639   0.985  0.4457 -0.0408  0.0160
 1853TIP3    H127118   6.697   4.711   0.940  1.1427 -1.6978 -2.1504
 1853TIP3    H227119   6.587   4.608   0.923 -0.8111 -0.3876  1.4714
 1854TIP3   OH227120   4.309   0.790   2.303 -0.0501 -0.1204 -0.3098
 1854TIP3    H127121   4.369   0.757   2.236  1.2644  0.1614  0.6850
 1854TIP3    H227122   4.347   0.760   2.386 -1.4411 -0.1579  0.3440
 1855TIP3   OH227123   3.973   4.817   7.212  0.8269  0.2816  0.2826
 1855TIP3    H127124   3.997   4.828   7.120  1.7459 -0.6433  0.3910
 1855TIP3    H227125   3.878   4.804   7.211  0.9375 -0.5572 -0.6268
 1856TIP3   OH227126   0.337   0.866   1.168 -0.4968  0.1169 -0.5124
 1856TIP3    H127127   0.346   0.771   1.171  1.3376  0.2398  2.6563
 1856TIP3    H227128   0.267   0.885   1.231 -1.8068  0.8557 -2.1295
 1857TIP3   OH227129   1.941   5.382   1.556 -0.1809 -0.2495  0.0588
 1857TIP3    H127130   1.921   5.379   1.650  0.8005  0.8873  0.3347
 1857TIP3    H227131   1.927   5.474   1.532  1.4718 -0.1051 -0.4478
 1858TIP3   OH227132   5.533   0.341   2.050  0.7918  0.1692 -0.0370
 1858TIP3    H127133   5.611   0.321   2.102  0.1992 -0.6919  0.5561
 1858TIP3    H227134   5.482   0.399   2.107  0.2371 -0.6105  0.2718
 1859TIP3   OH227135   3.682   3.047   1.496 -0.1162  0.6051  0.2671
 1859TIP3    H127136   3.616   3.115   1.498 -1.4263 -0.6239  1.9277
 1859TIP3    H227137   3.688   3.015   1.586  0.6876 -1.2255 -0.3632
 1860TIP3   OH227138   5.315   4.651   0.831  0.3065  0.4151  0.2994
 1860TIP3    H127139   5.407   4.663   0.806 -0.1770  1.1830 -1.2909
 1860TIP3    H227140   5.268   4.651   0.748 -0.9584 -2.0753  0.9241
 1861TIP3   OH227141   6.358   5.262   7.782  0.2947 -0.1431 -1.0186
 1861TIP3    H127142   6.384   5.271   7.690 -0.1932 -0.4050 -1.1826
 1861TIP3    H227143   6.377   5.347   7.821 -0.7496  0.4058 -1.6755
 1862TIP3   OH227144   1.621   3.475   8.495 -0.1050 -0.1773  0.0366
 1862TIP3    H127145   1.703   3.471   8.543  0.0102  2.6760  0.2287
 1862TIP3    H227146   1.575   3.394   8.519  1.6405 -0.7250  1.7370
 1863TIP3   OH227147   4.118   3.783   8.040  0.6019  0.5239  0.0095
 1863TIP3    H127148   4.195   3.748   8.085  0.6278 -0.9904 -1.1465
 1863TIP3    H227149   4.054   3.712   8.043 -0.1697  1.1868 -0.4430
 1864TIP3   OH227150   4.629   1.823   1.457  0.1113  0.5849 -0.0889
 1864TIP3    H127151   4.536   1.837   1.438  0.3872 -0.1364 -2.2409
 1864TIP3    H227152   4.655   1.901   1.506 -1.9173  0.1441  1.8646
 1865TIP3   OH227153   1.207   1.696   1.179  0.3630  0.2698  0.5533
 1865TIP3    H127154   1.267   1.715   1.107  1.8254  1.1128  1.9299
 1865TIP3    H227155   1.205   1.601   1.184 -1.9533  0.0250 -2.2963
 1866TIP3   OH227156   2.700   5.591   1.954  0.0805 -0.8701  0.2038
 1866TIP3    H127157   2.780   5.553   1.917  0.3132  0.2362 -0.4961
 1866TIP3    H227158   2.726   5.681   1.977 -0.6803 -0.8382  0.9637
 1867TIP3   OH227159   6.577   0.542   1.172 -0.4628 -0.0798  0.2901
 1867TIP3    H127160   6.644   0.475   1.186  0.7721  1.3800  1.6642
 1867TIP3    H227161   6.589   0.568   1.080  1.5987  0.8829  0.7806
 1868TIP3   OH227162   1.989   1.461   2.444  0.5846  0.9114  0.1364
 1868TIP3    H127163   1.971   1.519   2.518  0.1145  1.1362 -0.1486
 1868TIP3    H227164   2.030   1.517   2.379  0.1465  0.9298 -0.1334
 1869TIP3   OH227165   3.971   6.438   0.947 -0.6768 -0.1901  0.1380
 1869TIP3    H127166   4.018   6.362   0.982  0.5011  0.4863  0.0873
 1869TIP3    H227167   3.931   6.479   1.024 -1.5265 -0.9790  0.1349
 1870TIP3   OH227168   5.524   5.560   2.687  0.4345  0.3758  0.1110
 1870TIP3    H127169   5.601   5.513   2.719  0.0789  0.4800  1.1297
 1870TIP3    H227170   5.496   5.614   2.761 -1.5524 -0.8210  0.2823
 1871TIP3   OH227171   2.393   0.229   0.180  0.1369 -0.1405  0.6977
 1871TIP3    H127172   2.346   0.146   0.168  0.4205 -0.0919 -1.0121
 1871TIP3    H227173   2.480   0.203   0.208  0.2271 -0.4371  0.1629
 1872TIP3   OH227174   5.441   3.660   8.601  0.1113  0.3462  0.6257
 1872TIP3    H127175   5.411   3.570   8.615 -1.4734  0.7826  0.2530
 1872TIP3    H227176   5.534   3.658   8.622  0.0738 -1.3485  0.7558
 1873TIP3   OH227177   0.853   2.254   8.458  0.1461  0.2057 -0.3531
 1873TIP3    H127178   0.833   2.174   8.410 -1.9665  0.3262  0.2467
 1873TIP3    H227179   0.947   2.248   8.477  0.3434 -1.3594 -1.6737
 1874TIP3   OH227180   5.801   5.111   8.379  0.2512 -0.7905 -0.6182
 1874TIP3    H127181   5.761   5.108   8.292 -0.2543  1.2857 -0.5015
 1874TIP3    H227182   5.727   5.122   8.439  0.5668 -2.4684  0.1478
 1875TIP3   OH227183   4.730   0.373   8.429 -0.8314  0.2776  0.4576
 1875TIP3    H127184   4.822   0.369   8.403 -0.4515  0.8252  1.6673
 1875TIP3    H227185   4.684   0.324   8.360  0.5751 -1.7404  0.8452
 1876TIP3   OH227186   2.922   0.699   1.704 -0.2910  0.1102  0.1396
 1876TIP3    H127187   2.900   0.614   1.742  0.8421  0.1760  0.9762
 1876TIP3    H227188   2.843   0.752   1.717 -0.9073 -0.7097 -0.1357
 1877TIP3   OH227189   5.122   2.792   1.252  0.1747  0.0686 -0.2213
 1877TIP3    H127190   5.171   2.717   1.219 -0.3232  0.4481 -1.9232
 1877TIP3    H227191   5.034   2.758   1.269  0.2893 -0.0053  0.2467
 1878TIP3   OH227192   1.358   4.980   0.799 -0.4890  0.4159  0.0091
 1878TIP3    H127193   1.335   5.073   0.788  0.1908  0.4617 -1.2880
 1878TIP3    H227194   1.277   4.939   0.831 -0.8380  1.4262  0.4727
 1879TIP3   OH227195   1.521   3.922   0.724  0.4640 -0.4045  0.5676
 1879TIP3    H127196   1.583   3.898   0.793  0.0867 -0.4719  0.8875
 1879TIP3    H227197   1.479   4.001   0.756  0.0436 -0.6292  0.5678
 1880TIP3   OH227198   5.687   4.361   7.649  0.2226  0.2414  0.5389
 1880TIP3    H127199   5.779   4.371   7.672 -0.0435  2.7973  0.8386
 1880TIP3    H227200   5.688   4.329   7.559  1.3939 -0.0990  0.6572
 1881TIP3   OH227201   3.836   4.510   8.601  0.1449 -0.3713  0.3034
 1881TIP3    H127202   3.853   4.473   8.514 -0.6936  1.7494 -0.8597
 1881TIP3    H227203   3.922   4.538   8.632  0.1353  1.6138 -1.2608
 1882TIP3   OH227204   2.400   2.855   2.036 -0.0661 -0.0176  0.5433
 1882TIP3    H127205   2.454   2.864   1.958  2.8721 -1.7735  2.2082
 1882TIP3    H227206   2.409   2.939   2.082 -0.0373  0.2347  0.0818
 1883TIP3   OH227207   6.065   2.171   7.885  0.2652  0.3924  0.2172
 1883TIP3    H127208   6.053   2.239   7.952  0.1264  0.2428  0.3448
 1883TIP3    H227209   6.042   2.089   7.930  0.6021  0.2403  0.1147
 1884TIP3   OH227210   6.274   6.154   7.025  0.1385 -0.1817 -0.7126
 1884TIP3    H127211   6.235   6.160   7.112  1.2613  0.3560 -0.2206
 1884TIP3    H227212   6.287   6.060   7.010 -1.4056 -0.3857 -0.9457
 1885TIP3   OH227213   1.049   5.198   8.378 -0.1336 -0.2036  0.1332
 1885TIP3    H127214   1.051   5.200   8.282 -0.7827 -0.1746  0.1162
 1885TIP3    H227215   0.997   5.120   8.399 -1.7725  0.8996  0.4217
 1886TIP3   OH227216   5.905   2.134   8.395  0.2068  0.2721 -0.0167
 1886TIP3    H127217   5.997   2.143   8.420  0.5136 -0.7549 -0.6930
 1886TIP3    H227218   5.859   2.119   8.478  0.9526 -1.3295  0.1388
 1887TIP3   OH227219   1.616   1.529   3.095  0.0108  0.4653  0.1276
 1887TIP3    H127220   1.524   1.550   3.078 -0.2133  0.2992  1.0907
 1887TIP3    H227221   1.615   1.434   3.112  0.2645  0.5711  0.7442
 1888TIP3   OH227222   5.818   5.756   1.468 -0.4600  0.1353 -0.2859
 1888TIP3    H127223   5.824   5.712   1.552 -0.7982  0.1033 -0.2761
 1888TIP3    H227224   5.897   5.729   1.421 -1.3324 -1.6692 -0.8350
 1889TIP3   OH227225   5.779   0.118   8.650  0.1528  0.1502  0.9330
 1889TIP3    H127226   5.869   0.085   8.651 -0.1384 -0.6886  0.8775
 1889TIP3    H227227   5.732   0.056   8.594 -0.3973  0.7570  0.7189
 1890TIP3   OH227228   5.328   3.396   1.275  0.0506  0.0726  0.2821
 1890TIP3    H127229   5.415   3.383   1.313 -0.7501 -3.4073  1.3734
 1890TIP3    H227230   5.277   3.435   1.346  0.5249  1.5318 -0.1520
 1891TIP3   OH227231   5.774   1.554   8.442  0.7702 -0.4182  0.1654
 1891TIP3    H127232   5.682   1.565   8.467  0.7021  1.6358 -0.7814
 1891TIP3    H227233   5.790   1.625   8.380  2.8070 -1.1908 -0.2451
 1892TIP3   OH227234   5.592   1.787   2.279  0.0520  0.4296 -0.0346
 1892TIP3    H127235   5.533   1.713   2.265  1.3346 -0.4320 -1.0801
 1892TIP3    H227236   5.568   1.849   2.210  0.3765  0.0648 -0.4822
 1893TIP3   OH227237   6.730   4.638   1.578 -0.1768  0.5063 -0.6976
 1893TIP3    H127238   6.697   4.558   1.621  1.2990 -0.5217 -1.4023
 1893TIP3    H227239   6.673   4.649   1.502 -0.5841  0.3218 -0.4301
 1894TIP3   OH227240   4.019   0.105   8.550 -0.0808  0.3019  0.2125
 1894TIP3    H127241   3.996   0.194   8.524 -0.0352  0.8743  2.0119
 1894TIP3    H227242   4.050   0.114   8.640  1.7822 -1.2609 -0.2146
 1895TIP3   OH227243   5.301   3.111   8.267 -0.4012 -0.3809  0.2166
 1895TIP3    H127244   5.217   3.086   8.306 -0.9974  0.8691 -0.2173
 1895TIP3    H227245   5.364   3.101   8.338 -1.1280 -0.0972  0.9220
 1896TIP3   OH227246   3.807   4.824   0.417  0.0461  0.3476  0.0364
 1896TIP3    H127247   3.783   4.736   0.446  2.9244 -0.0781  1.4321
 1896TIP3    H227248   3.902   4.824   0.416  0.1409  2.6390 -2.6536
 1897TIP3   OH227249   0.958   2.097   8.789 -0.5962  0.5728  0.3069
 1897TIP3    H127250   0.979   2.023   8.847 -2.5065  1.6348  2.4886
 1897TIP3    H227251   1.029   2.159   8.803 -1.0237  0.8070  1.5297
 1898TIP3   OH227252   2.551   5.037   8.502 -0.3754 -0.3858  0.5232
 1898TIP3    H127253   2.620   5.061   8.563 -0.1704 -0.5345  0.3498
 1898TIP3    H227254   2.594   5.032   8.417 -0.4288 -1.2956  0.5451
 1899TIP3   OH227255   2.936   0.009   0.361  0.3647  0.1771 -0.3720
 1899TIP3    H127256   2.927   0.008   0.266  1.2094 -0.6304 -0.4579
 1899TIP3    H227257   2.958   0.100   0.382 -1.6065  0.7924 -0.7353
 1900TIP3   OH227258   4.811   5.895   1.172  0.3580 -0.0113 -0.7057
 1900TIP3    H127259   4.789   5.904   1.265 -0.4255  0.2889 -0.9123
 1900TIP3    H227260   4.906   5.882   1.172  0.4147  0.2885  0.1196
 1901TIP3   OH227261   2.317   0.887   1.719 -0.3897 -0.4672 -0.1285
 1901TIP3    H127262   2.222   0.899   1.723 -0.5614 -1.1708 -1.5162
 1901TIP3    H227263   2.346   0.955   1.658 -0.1832 -1.1027 -0.7441
 1902TIP3   OH227264   3.579   5.018   1.752 -0.3612  0.3547  0.0290
 1902TIP3    H127265   3.645   5.079   1.786 -0.7205  0.9808 -0.3791
 1902TIP3    H227266   3.542   4.976   1.830  0.5879 -0.0852  0.2570
 1903TIP3   OH227267   3.771   1.274   2.418 -0.2009  0.1336  0.4214
 1903TIP3    H127268   3.831   1.343   2.391  0.0705 -0.3169 -0.1285
 1903TIP3    H227269   3.717   1.315   2.487  0.4683  0.6509  0.6443
 1904TIP3   OH227270   0.807   6.543   7.764  0.1908 -0.2100 -0.2693
 1904TIP3    H127271   0.726   6.575   7.804  0.8807 -0.0586  1.0396
 1904TIP3    H227272   0.836   6.616   7.709 -0.8069 -0.4525 -1.1486
 1905TIP3   OH227273   3.364   5.118   0.103  0.1330 -0.1336 -0.4862
 1905TIP3    H127274   3.434   5.076   0.053 -0.4469 -2.8888  0.8463
 1905TIP3    H227275   3.284   5.075   0.073 -0.4730 -0.2543  1.2246
 1906TIP3   OH227276   2.135   4.208   2.056 -0.3158 -0.1222 -0.4558
 1906TIP3    H127277   2.130   4.254   1.972 -2.3007  0.7378  0.0841
 1906TIP3    H227278   2.048   4.216   2.093  0.0444 -1.9932  0.9351
 1907TIP3   OH227279   1.306   4.122   2.242 -0.2362  0.0871  0.0668
 1907TIP3    H127280   1.402   4.132   2.237 -0.2806  0.8376  0.5794
 1907TIP3    H227281   1.293   4.037   2.283  0.2000 -0.3164 -0.5992
 1908TIP3   OH227282   5.404   1.763   0.258 -0.3221 -0.1986 -0.5560
 1908TIP3    H127283   5.451   1.841   0.286 -0.0053 -0.0618 -1.4590
 1908TIP3    H227284   5.423   1.755   0.165  0.2466 -1.7624 -0.3360
 1909TIP3   OH227285   0.072   0.465   0.707  0.0018  0.3211 -0.3776
 1909TIP3    H127286   0.145   0.404   0.713 -0.1202  0.2446  0.4128
 1909TIP3    H227287   0.111   0.551   0.724 -0.0557  0.2975 -0.1111
 1910TIP3   OH227288   5.643   5.869   7.900  0.0685  0.2758  0.3438
 1910TIP3    H127289   5.739   5.872   7.905  0.0225  0.9017  0.8836
 1910TIP3    H227290   5.623   5.890   7.808  0.4587 -0.2527  0.1310
 1911TIP3   OH227291   3.964   3.183   8.041  0.6936 -0.0468 -0.1043
 1911TIP3    H127292   3.888   3.205   8.094  2.2063  2.3551  1.2210
 1911TIP3    H227293   3.981   3.262   7.990  3.5630  0.3581  1.2817
 1912TIP3   OH227294   1.241   1.976   8.631 -0.3186 -0.8600  0.2345
 1912TIP3    H127295   1.229   1.945   8.541 -1.6943 -0.8200  0.3843
 1912TIP3    H227296   1.299   2.052   8.623 -0.9296 -0.4787 -0.7012
 1913TIP3   OH227297   6.695   3.575   0.450 -0.1682 -0.2439 -0.0067
 1913TIP3    H127298   6.749   3.623   0.386 -0.1495 -1.0739 -0.6321
 1913TIP3    H227299   6.744   3.495   0.468 -0.7613 -0.5879  0.1076
 1914TIP3   OH227300   0.521   4.652   2.732 -0.1858  0.4037  0.4293
 1914TIP3    H127301   0.519   4.575   2.788  0.0620 -0.3571 -0.5801
 1914TIP3    H227302   0.432   4.660   2.698 -0.5324  1.3139  1.5000
 1915TIP3   OH227303   2.697   4.498   6.653 -0.1884  0.0025  0.2090
 1915TIP3    H127304   2.673   4.464   6.739 -1.8683  1.1656  0.2493
 1915TIP3    H227305   2.720   4.420   6.602  0.0415 -0.7727  1.4526
 1916TIP3   OH227306   6.527   6.669   1.544  0.4062  0.0847 -0.2162
 1916TIP3    H127307   6.570   6.634   1.465 -1.6251  1.3096 -1.9446
 1916TIP3    H227308   6.439   6.632   1.542  0.1138  0.6509  1.1531
 1917TIP3   OH227309   1.801   6.145   0.612 -0.1492  0.7671 -0.2419
 1917TIP3    H127310   1.797   6.240   0.626  0.3925  0.8625 -0.6699
 1917TIP3    H227311   1.759   6.107   0.689  0.7774  1.3294  0.5693
 1918TIP3   OH227312   5.311   0.851   0.480 -0.1650 -0.3705 -0.2160
 1918TIP3    H127313   5.393   0.806   0.460 -0.3081 -0.5050 -0.5161
 1918TIP3    H227314   5.306   0.851   0.576  0.6323  0.4655 -0.1679
 1919TIP3   OH227315   0.624   0.718   7.951 -0.7001  0.1313 -0.4910
 1919TIP3    H127316   0.573   0.672   7.885  0.5794 -1.2713 -0.5396
 1919TIP3    H227317   0.637   0.806   7.915 -0.1353 -0.5737 -2.0427
 1920TIP3   OH227318   3.809   1.683   8.318 -0.2162  0.0240  0.0191
 1920TIP3    H127319   3.815   1.594   8.284  0.6483  0.7791 -2.0169
 1920TIP3    H227320   3.753   1.729   8.255  0.0154  1.1066  0.5725
 1921TIP3   OH227321   5.267   5.938   8.150  0.5064  0.6622 -0.3832
 1921TIP3    H127322   5.303   5.990   8.078  0.8567 -0.5192 -1.0927
 1921TIP3    H227323   5.331   5.869   8.164 -0.2421  0.0512  0.1083
 1922TIP3   OH227324   0.299   4.482   2.469  0.0480  0.4790  0.2198
 1922TIP3    H127325   0.255   4.541   2.408  0.0843 -0.0695 -0.3394
 1922TIP3    H227326   0.304   4.532   2.550 -1.7788  0.5089  0.3717
 1923TIP3   OH227327   3.289   4.385   2.012 -0.1452  0.3620  0.3432
 1923TIP3    H127328   3.328   4.395   2.098  1.6656 -2.5448  0.0143
 1923TIP3    H227329   3.239   4.303   2.018  0.3038 -0.0866 -1.3976
 1924TIP3   OH227330   5.705   1.263   0.242 -0.0728 -0.2563 -0.4119
 1924TIP3    H127331   5.624   1.223   0.273 -0.8490  0.6552 -1.2068
 1924TIP3    H227332   5.677   1.323   0.173  1.3053 -0.0888 -0.8500
 1925TIP3   OH227333   5.452   6.617   8.787 -0.1399 -0.5431 -0.3363
 1925TIP3    H127334   5.407   6.660   8.714  0.9946  0.5560 -0.4375
 1925TIP3    H227335   5.393   6.628   8.861 -1.4176 -1.8917 -1.1139
 1926TIP3   OH227336   4.229   0.359   7.544 -0.3207 -0.1441 -0.5507
 1926TIP3    H127337   4.218   0.264   7.542  0.8222 -0.2899 -0.6913
 1926TIP3    H227338   4.224   0.381   7.637 -2.1414 -0.1201 -0.6283
 1927TIP3   OH227339   4.626   1.972   2.920  0.8345 -1.4303 -0.0226
 1927TIP3    H127340   4.634   2.060   2.884  0.7213 -1.9039 -1.2324
 1927TIP3    H227341   4.544   1.973   2.969  1.0527 -0.7490  0.3380
 1928TIP3   OH227342   5.152   0.919   2.021 -0.4414 -0.3159 -0.4835
 1928TIP3    H127343   5.193   0.994   2.066  1.0254 -1.2222 -0.2516
 1928TIP3    H227344   5.154   0.943   1.929 -0.7304  0.2759 -0.3425
 1929TIP3   OH227345   0.964   3.929   0.358 -0.7022 -0.2011  0.3023
 1929TIP3    H127346   0.952   3.842   0.321  2.3448 -0.5743 -0.0130
 1929TIP3    H227347   0.984   3.985   0.282  1.6616 -0.1732  0.8759
 1930TIP3   OH227348   3.202   2.509   8.600  0.1454 -0.0937 -0.0391
 1930TIP3    H127349   3.134   2.571   8.573  1.0587  2.1092  2.3177
 1930TIP3    H227350   3.240   2.479   8.517 -2.8030 -0.4923 -1.3913
 1931TIP3   OH227351   6.330   0.221   7.865  0.2125  0.4770 -0.1859
 1931TIP3    H127352   6.423   0.213   7.846 -0.0130  0.3143 -1.2758
 1931TIP3    H227353   6.323   0.298   7.922  0.8583  1.3759 -1.2963
 1932TIP3   OH227354   0.823   5.731   1.643  0.1197 -0.2333 -0.1592
 1932TIP3    H127355   0.753   5.778   1.689 -1.2371 -1.6171 -0.7172
 1932TIP3    H227356   0.875   5.800   1.602  0.6776  0.9802  2.4129
 1933TIP3   OH227357   0.905   2.805   2.759  0.4693  0.1478  0.5414
 1933TIP3    H127358   0.833   2.866   2.745  0.4455 -0.5320 -3.4821
 1933TIP3    H227359   0.982   2.850   2.726  1.1760 -0.6014  1.1083
 1934TIP3   OH227360   6.398   3.911   8.539  0.1641 -0.2231  0.0600
 1934TIP3    H127361   6.425   3.969   8.611  0.0257 -0.9684  0.7329
 1934TIP3    H227362   6.326   3.958   8.497 -1.7098 -0.9904  2.2168
 1935TIP3   OH227363   0.860   3.637   0.304  0.4306 -0.1997  0.0428
 1935TIP3    H127364   0.864   3.565   0.367 -2.1412 -1.7312 -1.3885
 1935TIP3    H227365   0.767   3.654   0.292  0.8929  1.4338 -1.8270
 1936TIP3   OH227366   2.827   1.757   1.415 -0.3151  0.3195  0.5044
 1936TIP3    H127367   2.856   1.695   1.348 -0.3935  1.2353 -0.4050
 1936TIP3    H227368   2.841   1.843   1.375 -0.0882  0.9016  1.7864
 1937TIP3   OH227369   3.004   1.287   3.387  0.1388  0.4536 -0.3561
 1937TIP3    H127370   3.042   1.363   3.433  0.4678 -0.4515  0.9094
 1937TIP3    H227371   3.020   1.213   3.445 -1.5181 -0.3600 -0.8720
 1938TIP3   OH227372   4.489   1.055   0.739 -0.1544 -0.3571 -0.2479
 1938TIP3    H127373   4.560   0.992   0.751  0.9741  0.5769 -1.6345
 1938TIP3    H227374   4.475   1.092   0.826 -0.4892 -2.1153  0.4808
 1939TIP3   OH227375   4.900   0.911   2.532  0.2168  0.2874  0.6533
 1939TIP3    H127376   4.904   0.878   2.622  0.4406 -0.7253  0.2809
 1939TIP3    H227377   4.974   0.971   2.526  0.4864 -0.0018  1.0072
 1940TIP3   OH227378   5.594   2.549   8.935 -0.6049 -0.1905  0.0772
 1940TIP3    H127379   5.507   2.581   8.910 -0.0403  1.3619 -0.0057
 1940TIP3    H227380   5.640   2.627   8.967  0.8755 -0.9084 -0.2228
 1941TIP3   OH227381   3.490   5.310   0.581 -0.7880  0.2581 -0.4618
 1941TIP3    H127382   3.528   5.394   0.553  0.0266  0.1594  0.2797
 1941TIP3    H227383   3.561   5.247   0.568 -0.5425  0.1213  1.2697
 1942TIP3   OH227384   1.510   6.695   0.121  0.2158  0.3088 -0.1993
 1942TIP3    H127385   1.541   6.684   0.031  0.4488  2.7679 -0.5065
 1942TIP3    H227386   1.415   6.688   0.115 -0.0021  2.9951 -1.1925
 1943TIP3   OH227387   0.470   6.323   1.489  0.1683  0.3006  0.3520
 1943TIP3    H127388   0.488   6.405   1.535 -1.4881 -0.7798  3.1597
 1943TIP3    H227389   0.416   6.349   1.415 -0.2588  1.7735  1.1233
 1944TIP3   OH227390   1.657   0.270   2.123 -0.6107 -0.0063  0.4973
 1944TIP3    H127391   1.693   0.339   2.067  0.4699 -0.4625  0.5982
 1944TIP3    H227392   1.564   0.289   2.127 -0.7108  0.1427 -1.3432
 1945TIP3   OH227393   5.856   3.095   8.596  0.8152 -0.2235 -0.0226
 1945TIP3    H127394   5.936   3.099   8.649  0.8799 -2.2408  0.1136
 1945TIP3    H227395   5.785   3.095   8.661  0.8133 -0.5748 -0.0190
 1946TIP3   OH227396   4.326   0.700   1.996  0.6245  0.1285 -0.2071
 1946TIP3    H127397   4.408   0.740   2.024 -0.1459  0.0973  2.4164
 1946TIP3    H227398   4.277   0.772   1.955  1.6473  0.3207 -1.1256
 1947TIP3   OH227399   1.638   4.596   0.436 -0.4323  0.4430 -0.2165
 1947TIP3    H127400   1.722   4.557   0.410  0.0657  2.4595 -1.8353
 1947TIP3    H227401   1.584   4.521   0.461  2.1991 -0.8569  2.0983
 1948TIP3   OH227402   4.569   0.636   3.309 -0.3983  0.0823  0.2588
 1948TIP3    H127403   4.623   0.564   3.276 -0.8893 -0.5670  0.8396
 1948TIP3    H227404   4.512   0.595   3.375 -1.0731  0.8966  0.1954
 1949TIP3   OH227405   0.927   2.570   0.505 -0.5234 -0.0078 -0.0525
 1949TIP3    H127406   0.846   2.591   0.458 -0.9157  1.2035  1.0834
 1949TIP3    H227407   0.991   2.550   0.437 -1.2816  0.9007 -1.0603
 1950TIP3   OH227408   0.980   1.402   1.394  0.2464  0.2565  0.1093
 1950TIP3    H127409   0.996   1.477   1.452 -1.1573  1.6362 -1.1875
 1950TIP3    H227410   1.063   1.353   1.395  0.8369  1.1933  1.8636
 1951TIP3   OH227411   6.324   6.281   7.609 -0.2986  0.6429 -0.3514
 1951TIP3    H127412   6.391   6.238   7.556 -0.5099 -1.2388  0.8139
 1951TIP3    H227413   6.244   6.232   7.590 -0.2910 -0.3983  1.9713
 1952TIP3   OH227414   0.103   6.171   0.154 -0.6209  0.1587 -0.6518
 1952TIP3    H127415   0.144   6.257   0.141 -0.5506 -0.0205 -1.6848
 1952TIP3    H227416   0.033   6.168   0.088 -0.4859 -0.6550 -0.7662
 1953TIP3   OH227417   3.149   5.204   8.551 -0.0290  0.0354 -0.1607
 1953TIP3    H127418   3.207   5.166   8.618 -0.4998  1.5671  1.1783
 1953TIP3    H227419   3.062   5.201   8.590 -0.1908  1.7657 -0.3008
 1954TIP3   OH227420   4.671   5.414   1.240  0.0578 -0.5585  0.1297
 1954TIP3    H127421   4.698   5.323   1.225  1.4376 -0.1090 -0.3626
 1954TIP3    H227422   4.595   5.427   1.183 -1.6518 -2.0341  1.9479
 1955TIP3   OH227423   6.298   2.004   2.102  0.2273 -0.0153  0.2358
 1955TIP3    H127424   6.323   1.932   2.043  0.4281  0.6510 -0.5093
 1955TIP3    H227425   6.378   2.024   2.150 -0.3947 -1.9073  2.2846
 1956TIP3   OH227426   2.255   1.790   2.502 -0.7552  0.2369 -0.1761
 1956TIP3    H127427   2.345   1.778   2.533  0.2990  1.0887 -2.6100
 1956TIP3    H227428   2.261   1.778   2.407 -3.0144  1.3801 -0.5321
 1957TIP3   OH227429   1.812   4.322   1.511 -0.2483  0.1199  0.2764
 1957TIP3    H127430   1.800   4.374   1.591  0.7114 -0.1036  0.5827
 1957TIP3    H227431   1.883   4.261   1.533  0.1489  0.1776 -0.8075
 1958TIP3   OH227432   5.004   2.152   2.316 -0.2477 -1.1083  0.0178
 1958TIP3    H127433   4.917   2.186   2.299  0.2942  2.0251  2.6567
 1958TIP3    H227434   5.055   2.177   2.238 -1.5510 -2.8387 -1.4760
 1959TIP3   OH227435   3.691   6.285   2.271 -0.2494 -0.4235  0.2269
 1959TIP3    H127436   3.692   6.240   2.356 -2.4960 -0.2558  0.4012
 1959TIP3    H227437   3.703   6.215   2.207  0.0183 -0.7525  0.6273
 1960TIP3   OH227438   1.115   3.169   2.597  0.3038  0.3049  0.0133
 1960TIP3    H127439   1.058   3.241   2.625  0.6287  0.4803  0.2296
 1960TIP3    H227440   1.204   3.198   2.619  0.3356 -0.7820  1.4980
 1961TIP3   OH227441   6.318   2.772   0.827 -0.0960  0.1484 -0.1541
 1961TIP3    H127442   6.329   2.766   0.732  1.8380 -1.6882  0.1349
 1961TIP3    H227443   6.339   2.685   0.860 -1.1934  0.6105  1.9601
 1962TIP3   OH227444   2.200   3.948   1.439 -0.2789 -0.0077  0.2980
 1962TIP3    H127445   2.183   3.926   1.531  2.4053 -0.0975  0.8416
 1962TIP3    H227446   2.225   3.864   1.400  0.0531  0.2996 -0.1431
 1963TIP3   OH227447   1.622   2.493   2.858  0.3040 -0.3283  0.0699
 1963TIP3    H127448   1.677   2.415   2.861 -1.8202 -1.8847  0.4414
 1963TIP3    H227449   1.553   2.471   2.796 -0.0362  1.4999 -0.2429
 1964TIP3   OH227450   0.068   5.573   1.143  0.1134  0.3011  0.1236
 1964TIP3    H127451  -0.026   5.588   1.153 -0.3136 -2.5557  1.0809
 1964TIP3    H227452   0.107   5.624   1.214 -0.7161  1.1251  0.0192
 1965TIP3   OH227453   0.038   1.837   2.483  0.3389  0.1664  0.8832
 1965TIP3    H127454   0.039   1.899   2.556  1.7757  1.2894 -0.0405
 1965TIP3    H227455   0.079   1.885   2.411 -0.3538 -1.1777 -0.4477
 1966TIP3   OH227456   4.866   0.977   8.088 -0.7869 -0.0897  0.1388
 1966TIP3    H127457   4.915   0.988   8.006 -0.0286  0.6359  0.6839
 1966TIP3    H227458   4.816   1.058   8.098  0.8085  0.7780  1.4975
 1967TIP3   OH227459   5.406   6.256   2.812 -0.2494 -0.0503 -0.2620
 1967TIP3    H127460   5.320   6.266   2.770  0.4017  1.8784 -1.2375
 1967TIP3    H227461   5.390   6.280   2.904 -0.9958 -1.0286 -0.1122
 1968TIP3   OH227462   5.605   6.293   2.613 -0.6467  0.0073  0.5568
 1968TIP3    H127463   5.544   6.252   2.675 -1.0741 -0.0870  0.0745
 1968TIP3    H227464   5.552   6.317   2.538 -0.0986 -0.0212  0.1510
 1969TIP3   OH227465   6.237   4.255   0.383 -0.8920  0.4940 -0.0438
 1969TIP3    H127466   6.270   4.263   0.294  0.4778 -2.3705  0.0840
 1969TIP3    H227467   6.208   4.165   0.390  0.6621  0.0869  2.8607
 1970TIP3   OH227468   2.737   4.765   2.917  0.4823  0.6788 -0.0671
 1970TIP3    H127469   2.774   4.711   2.987  1.5050  2.7321  1.0815
 1970TIP3    H227470   2.643   4.762   2.931  0.4179 -1.3255 -0.5022
 1971TIP3   OH227471   1.133   4.286   0.526 -0.2658  0.4283 -0.4022
 1971TIP3    H127472   1.063   4.248   0.578  1.1817  0.0967  1.3998
 1971TIP3    H227473   1.197   4.316   0.590  1.9359 -0.6072 -1.9845
 1972TIP3   OH227474   3.752   1.459   2.059  0.5008 -0.1109  0.3179
 1972TIP3    H127475   3.810   1.506   2.000  1.9899  0.3680  2.0597
 1972TIP3    H227476   3.667   1.502   2.050  1.0960  0.9637 -0.3063
 1973TIP3   OH227477   0.773   6.496   8.819 -0.0282 -0.0356  0.3780
 1973TIP3    H127478   0.856   6.540   8.806 -0.6210  0.5320 -1.8430
 1973TIP3    H227479   0.715   6.533   8.753 -1.3089 -2.2325  0.1541
 1974TIP3   OH227480   5.832   1.958   7.175  0.1188 -0.0489  0.1735
 1974TIP3    H127481   5.896   1.936   7.107 -1.3681 -0.3193 -1.2163
 1974TIP3    H227482   5.787   2.036   7.140 -1.2418 -0.6951  0.4207
 1975TIP3   OH227483   3.968   2.465   0.756  0.2174  0.0631 -0.2291
 1975TIP3    H127484   3.958   2.427   0.669  1.8787 -1.9321  0.3836
 1975TIP3    H227485   4.051   2.432   0.788  0.3623  1.9425  1.5686
 1976TIP3   OH227486   4.749   2.995   3.147  0.0782 -0.5298  0.0211
 1976TIP3    H127487   4.762   3.049   3.069 -1.0754  2.1783  1.5494
 1976TIP3    H227488   4.835   2.961   3.168  0.7596  0.2602 -1.3787
 1977TIP3   OH227489   5.901   5.333   7.668  0.5233 -0.4845 -0.4526
 1977TIP3    H127490   5.907   5.295   7.581  2.4761 -0.9697 -0.1623
 1977TIP3    H227491   5.897   5.428   7.652 -1.5197 -0.6386 -1.0948
 1978TIP3   OH227492   1.260   0.063   8.222 -0.0033 -0.1145  0.3362
 1978TIP3    H127493   1.260   0.033   8.314  0.0048 -1.1734  0.0103
 1978TIP3    H227494   1.218  -0.009   8.174 -0.1113  0.4847 -0.4761
 1979TIP3   OH227495   6.212   6.647   1.215  0.0316 -0.1348 -0.1814
 1979TIP3    H127496   6.214   6.740   1.238  0.1836 -0.2685  0.3424
 1979TIP3    H227497   6.124   6.634   1.180  0.1822  0.3224 -0.7688
 1980TIP3   OH227498   0.140   6.009   7.482 -0.1417  0.1785  0.0782
 1980TIP3    H127499   0.095   5.965   7.410  0.8716 -1.2328  0.2726
 1980TIP3    H227500   0.231   6.013   7.454  0.0232  0.8965  0.6894
 1981TIP3   OH227501   5.894   0.928   0.958  0.5990 -0.3436  0.5726
 1981TIP3    H127502   5.950   1.006   0.954  0.4528 -0.1860  1.5415
 1981TIP3    H227503   5.828   0.948   1.024 -0.9611 -0.3122 -0.9135
 1982TIP3   OH227504   0.884   3.372   0.007  0.0511  0.0537  0.1033
 1982TIP3    H127505   0.836   3.427   0.070 -0.2870  0.9021 -0.8705
 1982TIP3    H227506   0.880   3.421  -0.075 -1.5982 -2.1266 -1.2184
 1983TIP3   OH227507   3.645   1.895   3.142  0.0568 -0.1817  0.5280
 1983TIP3    H127508   3.735   1.876   3.170  0.0872 -2.1903 -0.7796
 1983TIP3    H227509   3.593   1.882   3.221  0.6560 -1.3437  0.7567
 1984TIP3   OH227510   6.102   5.672   0.135  0.3756 -0.2346  0.5624
 1984TIP3    H127511   6.174   5.710   0.186 -0.7908  1.2176  1.2254
 1984TIP3    H227512   6.137   5.590   0.101  1.7916 -0.3689  2.2177
 1985TIP3   OH227513   6.441   5.794   8.741  0.2466  0.8756 -0.8891
 1985TIP3    H127514   6.370   5.749   8.696  0.4335 -0.0751 -0.2534
 1985TIP3    H227515   6.397   5.846   8.809 -0.0270  2.2410 -2.0653
 1986TIP3   OH227516   5.654   5.237   0.739  0.2230  0.1802 -0.2349
 1986TIP3    H127517   5.733   5.268   0.695 -0.6781  1.6397 -0.9236
 1986TIP3    H227518   5.658   5.277   0.826 -0.4048  1.4302 -0.7511
 1987TIP3   OH227519   4.927   2.059   2.580  0.1731  0.8001  0.4715
 1987TIP3    H127520   4.866   1.988   2.561  1.7599 -0.5874  0.2222
 1987TIP3    H227521   4.953   2.092   2.494  0.8679  0.3734  0.5099
 1988TIP3   OH227522   4.090   5.088   2.764 -0.3795 -0.7972  0.1206
 1988TIP3    H127523   4.029   5.059   2.696  0.2210  0.4992 -1.0193
 1988TIP3    H227524   4.037   5.142   2.823 -1.0366 -2.4093  1.0889
 1989TIP3   OH227525   0.159   3.981   2.320  0.0131 -0.0184  0.0188
 1989TIP3    H127526   0.096   3.964   2.390 -1.7002  0.8328 -1.2364
 1989TIP3    H227527   0.124   4.058   2.275  1.7753  0.2562 -0.9840
 1990TIP3   OH227528   1.567   3.223   7.911 -0.1791 -0.6251 -0.5682
 1990TIP3    H127529   1.634   3.176   7.861 -0.4490  0.8747 -2.4511
 1990TIP3    H227530   1.523   3.278   7.847  0.5607  2.7314  1.5334
 1991TIP3   OH227531   2.521   2.748   0.745 -0.0550 -0.0301 -0.7750
 1991TIP3    H127532   2.488   2.692   0.816  1.1074 -1.5808 -1.4182
 1991TIP3    H227533   2.589   2.696   0.703 -0.0883  1.2306 -2.4678
 1992TIP3   OH227534   6.234   6.438   2.639 -0.1550 -0.0092 -0.2337
 1992TIP3    H127535   6.279   6.373   2.693 -1.6563  1.0381  2.4516
 1992TIP3    H227536   6.273   6.522   2.663 -0.3225  0.4263 -1.3999
 1993TIP3   OH227537   3.211   5.423   7.589 -0.6884  0.1600 -0.1367
 1993TIP3    H127538   3.255   5.469   7.517  1.0492 -0.2949  0.5673
 1993TIP3    H227539   3.242   5.467   7.668 -0.0527 -1.3123  0.4844
 1994TIP3   OH227540   4.673   5.223   7.528 -0.2480  0.2319  0.0384
 1994TIP3    H127541   4.648   5.139   7.490 -1.7408  0.1221  1.1305
 1994TIP3    H227542   4.760   5.241   7.494 -0.4590 -1.0950 -1.2902
 1995TIP3   OH227543   5.898   3.638   8.441  0.5228 -0.0073  0.2630
 1995TIP3    H127544   5.825   3.678   8.487 -0.8506 -1.1354 -0.8300
 1995TIP3    H227545   5.859   3.562   8.396  1.6394  1.1572 -2.9636
 1996TIP3   OH227546   0.653   2.199   1.638 -0.3318 -0.0802 -0.3999
 1996TIP3    H127547   0.566   2.216   1.603 -0.5118  1.0712  0.5253
 1996TIP3    H227548   0.638   2.155   1.722 -0.0414  0.3628 -0.1086
 1997TIP3   OH227549   5.936   4.588   7.853 -0.0499 -0.0390 -0.8825
 1997TIP3    H127550   5.919   4.500   7.888 -2.4249 -0.0263 -1.7795
 1997TIP3    H227551   5.979   4.572   7.769 -1.4436 -0.4585 -1.5579
 1998TIP3   OH227552   3.464   4.894   8.014 -0.1327  0.1317  0.1592
 1998TIP3    H127553   3.535   4.899   8.078  0.1010 -0.2076 -0.0733
 1998TIP3    H227554   3.447   4.985   7.990  1.8141  0.1031 -1.5462
 1999TIP3   OH227555   1.865   0.214   8.945  0.2407 -0.2339  0.5143
 1999TIP3    H127556   1.909   0.277   9.002  0.6876  0.6679 -0.7877
 1999TIP3    H227557   1.780   0.254   8.927  1.3877  1.2424 -2.2104
 2000TIP3   OH227558   1.243   4.058   1.296 -0.6152  0.0456 -0.2340
 2000TIP3    H127559   1.147   4.062   1.293 -0.6566 -1.1621 -0.9968
 2000TIP3    H227560   1.270   4.039   1.206  0.2638 -0.8640  0.2022
 2001TIP3   OH227561   2.526   1.739   1.220 -0.0163 -0.3009  0.2014
 2001TIP3    H127562   2.457   1.697   1.169 -2.2267  1.3393  1.6343
 2001TIP3    H227563   2.580   1.783   1.155 -1.8108  0.4220 -0.8926
 2002TIP3   OH227564   5.151   5.987   2.091 -0.5414  0.3075 -0.2946
 2002TIP3    H127565   5.190   5.986   2.004 -0.9424  0.5018 -0.4793
 2002TIP3    H227566   5.223   6.010   2.150  0.7019 -3.5288 -0.0680
 2003TIP3   OH227567   6.465   5.159   0.107 -0.0130 -0.2391 -0.5401
 2003TIP3    H127568   6.383   5.132   0.066 -1.3452 -0.3762  1.9965
 2003TIP3    H227569   6.506   5.077   0.135 -1.2000 -0.0760  1.9767
 2004TIP3   OH227570   2.975   4.514   7.267 -0.1610 -0.3946  0.5914
 2004TIP3    H127571   2.926   4.503   7.186  0.7290 -0.7386  0.0842
 2004TIP3    H227572   2.918   4.567   7.323 -0.6865  0.0570 -0.3494
 2005TIP3   OH227573   5.253   0.744   2.320  0.0084 -0.2832  0.0844
 2005TIP3    H127574   5.236   0.665   2.372 -0.4720  0.2846  0.8116
 2005TIP3    H227575   5.220   0.723   2.233 -1.0170 -0.5470  0.5169
 2006TIP3   OH227576   2.665   1.579   7.670 -0.5199  0.1137 -0.3720
 2006TIP3    H127577   2.696   1.618   7.588 -0.9412 -0.1950 -0.6861
 2006TIP3    H227578   2.672   1.649   7.735 -0.8000  0.5634 -0.8214
 2007TIP3   OH227579   4.944   2.115   7.953 -1.0031 -0.3854  0.2823
 2007TIP3    H127580   4.917   2.192   8.004  0.2470  0.1754  0.1613
 2007TIP3    H227581   4.873   2.100   7.892 -0.8467  1.3489 -0.4052
 2008TIP3   OH227582   4.266   2.198   8.889  0.1976  0.3773  0.0261
 2008TIP3    H127583   4.305   2.123   8.932 -1.0134 -1.1263 -1.3256
 2008TIP3    H227584   4.294   2.190   8.798 -4.1644 -1.7442 -1.4522
 2009TIP3   OH227585   3.543   3.306   7.859 -0.1920  0.2471  0.0385
 2009TIP3    H127586   3.581   3.244   7.797 -1.0094 -0.2197 -0.0004
 2009TIP3    H227587   3.507   3.376   7.804 -1.4572 -0.4623 -0.0742
 2010TIP3   OH227588   3.468   2.149   1.915  0.0274  0.3283  0.6673
 2010TIP3    H127589   3.391   2.204   1.902 -0.2590 -0.2474 -0.1676
 2010TIP3    H227590   3.439   2.061   1.893  1.1028  0.2087 -0.4175
 2011TIP3   OH227591   6.335   4.887   8.152  0.5346  0.3970  0.0785
 2011TIP3    H127592   6.337   4.965   8.098  1.6282  0.3391  0.0109
 2011TIP3    H227593   6.347   4.919   8.241 -1.0262  0.4709  0.2852
 2012TIP3   OH227594   1.355   5.207   7.960  0.0898  0.1377  0.5487
 2012TIP3    H127595   1.261   5.222   7.954 -0.4808 -1.8547  2.7717
 2012TIP3    H227596   1.370   5.126   7.911  0.7492  0.6873 -0.1853
 2013TIP3   OH227597   4.495   4.229   7.223 -0.6038  0.1955 -0.0869
 2013TIP3    H127598   4.561   4.299   7.224 -0.6523  0.2763 -1.2627
 2013TIP3    H227599   4.529   4.164   7.286  0.0344  0.7345  0.1425
 2014TIP3   OH227600   5.102   0.785   0.763  0.1160 -0.3598 -0.3001
 2014TIP3    H127601   5.013   0.753   0.753  0.0065 -0.3315  0.5632
 2014TIP3    H227602   5.102   0.870   0.720 -0.5342  0.0806  0.5645
 2015TIP3   OH227603   1.469   5.735   0.011 -0.5850 -0.0163 -0.1700
 2015TIP3    H127604   1.418   5.750   0.090 -0.7508 -0.3083 -0.2230
 2015TIP3    H227605   1.546   5.686   0.041 -0.5955 -0.0336 -0.1711
 2016TIP3   OH227606   1.062   1.614   1.564 -0.1610 -0.0319  0.2232
 2016TIP3    H127607   1.140   1.654   1.602 -0.1753 -0.3889  0.6427
 2016TIP3    H227608   1.031   1.677   1.499  0.0403  0.4521  0.5922
 2017TIP3   OH227609   1.445   1.388   8.490  0.0210 -0.4791 -0.0130
 2017TIP3    H127610   1.391   1.308   8.487  0.8475 -1.0425 -0.0894
 2017TIP3    H227611   1.531   1.357   8.518  0.0014  0.5848  1.3428
 2018TIP3   OH227612   2.454   0.480   1.133  0.5127  0.3440  0.0312
 2018TIP3    H127613   2.440   0.464   1.040 -0.8406  0.2061  0.2363
 2018TIP3    H227614   2.464   0.393   1.171  1.9041  0.4333 -0.0858
 2019TIP3   OH227615   5.762   3.618   8.116  0.2498  0.1639 -0.0966
 2019TIP3    H127616   5.675   3.595   8.084  0.2580 -0.5974  0.4083
 2019TIP3    H227617   5.767   3.713   8.105 -0.7018  0.2368  0.0120
 2020TIP3   OH227618   1.392   6.356   2.901 -0.0495 -0.4137 -0.0422
 2020TIP3    H127619   1.429   6.283   2.951 -1.1923 -0.5132  0.6964
 2020TIP3    H227620   1.346   6.315   2.828 -1.2823 -0.5166  0.7559
 2021TIP3   OH227621   4.095   6.588   2.598 -0.1606  0.0670 -0.0961
 2021TIP3    H127622   4.187   6.566   2.581  0.2548  0.4733  1.4888
 2021TIP3    H227623   4.090   6.683   2.583 -0.8112 -0.2445 -2.1134
 2022TIP3   OH227624   3.769   2.138   8.351  0.4053  0.0551  0.0867
 2022TIP3    H127625   3.710   2.109   8.420  2.4100 -1.8182  1.1688
 2022TIP3    H227626   3.721   2.123   8.270 -0.1363 -2.8757  0.8371
 2023TIP3   OH227627   0.212   2.063   8.195 -0.2069  0.3127  0.0924
 2023TIP3    H127628   0.168   2.112   8.265  2.3438  0.6613  1.5940
 2023TIP3    H227629   0.148   1.998   8.167 -2.0814  1.5561  1.2564
 2024TIP3   OH227630   3.376   4.772   1.589  0.3157  0.5017  0.3296
 2024TIP3    H127631   3.293   4.723   1.594 -0.0876  0.8894 -1.7464
 2024TIP3    H227632   3.397   4.791   1.680 -0.7824 -1.4171  1.0470
 2025TIP3   OH227633   5.759   6.497   0.776 -0.2640  0.3319  0.2750
 2025TIP3    H127634   5.759   6.585   0.738  0.9211  1.2763  2.3018
 2025TIP3    H227635   5.678   6.492   0.827 -0.4392  0.1608 -0.0180
 2026TIP3   OH227636   0.146   2.840   8.144 -0.0917 -0.3430 -0.2279
 2026TIP3    H127637   0.184   2.756   8.117 -0.8545 -0.5207 -0.7684
 2026TIP3    H227638   0.214   2.881   8.196  0.9780 -0.5070 -1.4524
 2027TIP3   OH227639   5.602   6.125   0.142  0.7358 -0.0297 -0.3571
 2027TIP3    H127640   5.668   6.121   0.210 -0.2148 -0.7878  0.5571
 2027TIP3    H227641   5.562   6.038   0.142 -0.6160  0.5674 -0.5188
 2028TIP3   OH227642   1.609   4.817   7.690 -0.3905  0.7923 -0.2891
 2028TIP3    H127643   1.580   4.888   7.632 -1.6610  1.0713  0.6574
 2028TIP3    H227644   1.630   4.745   7.630 -1.3688  1.1821 -1.1312
 2029TIP3   OH227645   4.518   3.223   1.100 -0.0374  0.6510 -0.2644
 2029TIP3    H127646   4.586   3.266   1.151 -0.6271 -0.2830  1.3476
 2029TIP3    H227647   4.547   3.133   1.091 -1.0741  0.2173  0.5226
 2030TIP3   OH227648   5.122   1.761   8.723  0.1505 -0.2286  0.0538
 2030TIP3    H127649   5.034   1.746   8.689  0.0662 -2.1537  1.0043
 2030TIP3    H227650   5.112   1.761   8.818  1.2833 -1.3729  0.2011
 2031TIP3   OH227651   4.188   3.553   8.212 -0.3660 -0.2878  0.1718
 2031TIP3    H127652   4.098   3.522   8.205 -0.1819 -1.5883  2.5921
 2031TIP3    H227653   4.210   3.545   8.305  1.4412  2.4090  0.1095
 2032TIP3   OH227654   1.201   2.680   2.039  0.6631 -0.4804 -0.0347
 2032TIP3    H127655   1.154   2.632   2.108  0.2366  0.7964  0.5801
 2032TIP3    H227656   1.169   2.770   2.046  3.4173  0.5356  0.6243
 2033TIP3   OH227657   6.751   1.163   2.845  0.7169  0.2121  0.0333
 2033TIP3    H127658   6.746   1.123   2.932  3.3205 -0.5460 -0.0873
 2033TIP3    H227659   6.680   1.123   2.796  0.8781 -1.3792  1.0459
 2034TIP3   OH227660   6.733   1.945   7.144 -0.0323 -0.7343  0.2222
 2034TIP3    H127661   6.714   1.918   7.055 -0.7887 -0.6365  0.3527
 2034TIP3    H227662   6.807   2.006   7.135 -0.7405  0.0488 -0.4339
 2035TIP3   OH227663   4.459   2.178   2.818  0.3313  0.2531 -0.4357
 2035TIP3    H127664   4.370   2.178   2.854 -0.2334  0.8357 -1.8010
 2035TIP3    H227665   4.490   2.268   2.827  0.1278  0.4418 -1.5225
 2036TIP3   OH227666   2.078   6.639   8.000 -1.0029  0.5779 -0.5259
 2036TIP3    H127667   2.072   6.697   7.924 -1.7625 -0.2099 -1.0902
 2036TIP3    H227668   2.070   6.551   7.963 -3.5431  0.2366  0.6568
 2037TIP3   OH227669   6.346   0.504   8.668  0.2380 -0.3417 -0.3034
 2037TIP3    H127670   6.296   0.480   8.746  1.1722 -1.1889  0.0564
 2037TIP3    H227671   6.280   0.518   8.600 -0.5262 -0.7348  0.3455
 2038TIP3   OH227672   4.036   5.349   1.478 -0.0539  0.6630  0.0143
 2038TIP3    H127673   4.074   5.265   1.505 -1.0846  0.3647  0.5955
 2038TIP3    H227674   3.949   5.327   1.444 -0.3933  1.5080  0.2978
 2039TIP3   OH227675   0.711   5.385   7.838 -0.5444 -0.3005  0.0369
 2039TIP3    H127676   0.697   5.292   7.820  1.2955 -0.8024  0.9458
 2039TIP3    H227677   0.800   5.402   7.805  0.2218  0.4139  2.2676
 2040TIP3   OH227678   0.198   1.956   2.287 -0.4215 -0.2327 -0.1300
 2040TIP3    H127679   0.217   2.049   2.271  0.4873 -0.2927  0.5371
 2040TIP3    H227680   0.282   1.912   2.272 -0.7729 -0.9073 -0.1277
 2041TIP3   OH227681   1.694   3.904   3.451  0.3868 -0.1851  0.5476
 2041TIP3    H127682   1.772   3.932   3.403 -0.5209 -0.2083 -1.0171
 2041TIP3    H227683   1.626   3.966   3.424 -0.8033 -1.7847 -0.2539
 2042TIP3   OH227684   0.944   6.570   1.880  0.5707 -0.0127 -0.4231
 2042TIP3    H127685   1.024   6.582   1.932  0.1102  0.4310  0.2066
 2042TIP3    H227686   0.874   6.602   1.937 -0.1611 -1.2032 -0.6207
 2043TIP3   OH227687   1.693   0.285   1.245  0.1663 -0.1435 -0.9158
 2043TIP3    H127688   1.765   0.223   1.235  0.7119  0.4704 -0.8395
 2043TIP3    H227689   1.733   0.371   1.232 -0.3969  0.2566 -0.0855
 2044TIP3   OH227690   4.280   0.566   7.332  0.1322  0.2947 -0.2216
 2044TIP3    H127691   4.290   0.512   7.411 -1.5294 -0.2840 -0.3532
 2044TIP3    H227692   4.341   0.527   7.269  2.6299  1.7082  1.1679
 2045TIP3   OH227693   0.904   2.951   8.647 -0.5491 -0.0458 -0.2623
 2045TIP3    H127694   0.817   2.991   8.655 -1.4216 -2.3004  3.5272
 2045TIP3    H227695   0.887   2.866   8.606  0.4428  0.7235 -2.4461
 2046TIP3   OH227696   1.006   3.941   1.513 -0.1585 -0.3765  0.0339
 2046TIP3    H127697   0.921   3.964   1.551 -0.7358  0.4444 -1.6515
 2046TIP3    H227698   1.053   3.897   1.584 -2.6953 -2.6370  0.4754
 2047TIP3   OH227699   0.081   0.257   2.193 -0.4575  0.1981  0.0637
 2047TIP3    H127700   0.098   0.164   2.176  0.3969  0.2200  0.7428
 2047TIP3    H227701   0.063   0.294   2.106  2.7412  0.0946 -0.7955
 2048TIP3   OH227702   2.038   1.053   2.319 -0.0526  0.9592  0.1990
 2048TIP3    H127703   2.032   1.013   2.405 -0.8931  1.3409  0.3233
 2048TIP3    H227704   2.129   1.083   2.313  0.0513  0.7912  0.8883
 2049TIP3   OH227705   1.228   0.689   0.811  0.1825 -0.1860 -0.1372
 2049TIP3    H127706   1.268   0.738   0.739  1.4033  0.0088  0.6547
 2049TIP3    H227707   1.297   0.678   0.875 -0.8370 -0.5165  0.9511
 2050TIP3   OH227708   4.816   4.203   2.315 -0.0344 -0.5489  0.0052
 2050TIP3    H127709   4.830   4.243   2.401 -0.7225  0.5763 -0.3887
 2050TIP3    H227710   4.729   4.163   2.321  0.2345 -1.1494  0.0640
 2051TIP3   OH227711   6.075   6.631   7.659 -0.1763  0.4213  0.6102
 2051TIP3    H127712   6.037   6.697   7.717 -0.0126  1.2150 -0.1808
 2051TIP3    H227713   6.088   6.676   7.576 -0.6896 -0.7966 -0.1487
 2052TIP3   OH227714   0.567   5.775   1.785 -0.0859  0.1087  0.4443
 2052TIP3    H127715   0.540   5.817   1.704 -0.9494 -0.2939  0.5117
 2052TIP3    H227716   0.493   5.718   1.808  0.3316 -0.1069  1.2776
 2053TIP3   OH227717   0.885   6.745   7.598 -0.2628 -0.5203 -0.2416
 2053TIP3    H127718   0.979   6.766   7.600 -0.4965  0.5966  0.2146
 2053TIP3    H227719   0.845   6.820   7.554 -1.1606  0.0846  1.5166
 2054TIP3   OH227720   3.805   3.797   7.873 -0.0106 -0.1595 -0.4303
 2054TIP3    H127721   3.713   3.773   7.858  0.3297 -1.0596 -1.1187
 2054TIP3    H227722   3.836   3.735   7.938  0.4167 -0.5639 -1.0153
 2055TIP3   OH227723   3.849   6.481   0.500  0.3187  0.0924 -0.3489
 2055TIP3    H127724   3.776   6.539   0.520  0.5731  0.3978 -0.2929
 2055TIP3    H227725   3.860   6.428   0.579  1.5982  1.5886  0.5414
 2056TIP3   OH227726   1.966   3.875   7.555 -0.2994  0.1029  0.7644
 2056TIP3    H127727   1.949   3.888   7.648 -0.3166 -1.5287  1.0202
 2056TIP3    H227728   2.046   3.822   7.553 -0.1882  0.2927 -0.1530
 2057TIP3   OH227729   2.153   1.084   2.588 -0.1764 -0.6146  0.5475
 2057TIP3    H127730   2.172   1.140   2.513  1.9590 -1.1466  0.6303
 2057TIP3    H227731   2.070   1.117   2.622 -0.4353  0.5988 -1.1339
 2058TIP3   OH227732   4.058   0.932   8.374 -0.1210 -0.2702  0.2715
 2058TIP3    H127733   3.978   0.984   8.379  0.2098  0.1703  1.5839
 2058TIP3    H227734   4.120   0.980   8.430  0.4411 -1.6631  0.8789
 2059TIP3   OH227735   5.506   3.438   2.550 -0.0510 -0.0733  0.6486
 2059TIP3    H127736   5.413   3.441   2.575 -0.0072 -0.4652  0.8582
 2059TIP3    H227737   5.539   3.525   2.571  0.3194 -0.7647  3.2481
 2060TIP3   OH227738   5.641   0.566   1.704 -0.8374 -0.6519 -0.8239
 2060TIP3    H127739   5.735   0.552   1.704 -0.8843 -1.7843  2.1996
 2060TIP3    H227740   5.631   0.660   1.688  0.8371 -0.4415 -0.8183
 2061TIP3   OH227741   4.328   2.487   8.910  0.5178  0.4268 -0.2813
 2061TIP3    H127742   4.312   2.534   8.992  0.2248  0.5091 -0.3856
 2061TIP3    H227743   4.271   2.411   8.914  0.9951  0.0736 -0.1096
 2062TIP3   OH227744   3.820   4.530   1.851 -0.1616  0.1499  0.0932
 2062TIP3    H127745   3.750   4.488   1.800 -0.5494 -0.8090  1.3771
 2062TIP3    H227746   3.782   4.613   1.879  0.2702  0.9928 -1.6466
 2063TIP3   OH227747   2.495   0.504   2.319 -0.5370  1.2276 -0.2452
 2063TIP3    H127748   2.498   0.556   2.239 -1.2701  1.9292  0.1671
 2063TIP3    H227749   2.506   0.413   2.289  0.9730  1.6189 -0.9444
 2064TIP3   OH227750   3.319   6.196   0.035  0.5803  0.6285 -0.2204
 2064TIP3    H127751   3.363   6.219   0.118  0.1036  0.0707  0.1959
 2064TIP3    H227752   3.335   6.271  -0.022  2.1379  0.4264 -0.1097
 2065TIP3   OH227753   2.735   4.533   0.263 -0.4839  0.4545 -0.1270
 2065TIP3    H127754   2.691   4.451   0.239 -0.1108  0.2369 -0.0854
 2065TIP3    H227755   2.745   4.527   0.358 -0.4997  0.5696 -0.1185
 2066TIP3   OH227756   2.740   0.168   7.208  0.0029  0.4862  0.7730
 2066TIP3    H127757   2.733   0.080   7.171 -0.2987 -0.0709  2.1030
 2066TIP3    H227758   2.821   0.166   7.259  1.1381  1.6654 -0.8662
 2067TIP3   OH227759   1.034   1.147   3.054  0.3455  0.2386  0.0771
 2067TIP3    H127760   0.949   1.106   3.070  0.2491 -0.3769 -1.8392
 2067TIP3    H227761   1.075   1.151   3.141 -1.6476  0.6392  1.0481
 2068TIP3   OH227762   3.581   6.273   7.769  0.3335 -0.4202  0.4472
 2068TIP3    H127763   3.660   6.316   7.799  0.9906 -0.1197 -1.5783
 2068TIP3    H227764   3.518   6.343   7.757  0.0462 -0.5496  1.1187
 2069TIP3   OH227765   6.102   4.786   0.464  0.5320  0.2939  0.0368
 2069TIP3    H127766   6.055   4.706   0.442  1.2276 -0.4495  1.1149
 2069TIP3    H227767   6.186   4.756   0.497  1.0141  1.5044 -0.0318
 2070TIP3   OH227768   2.651   5.209   2.191  0.5640  0.2910  0.2745
 2070TIP3    H127769   2.615   5.121   2.182 -0.6644  0.5622  1.9458
 2070TIP3    H227770   2.745   5.196   2.201  0.4690 -0.7713 -0.1058
 2071TIP3   OH227771   0.800   5.062   0.203 -0.0610  0.4910 -0.1433
 2071TIP3    H127772   0.770   5.150   0.226 -1.1435 -0.0175  0.4395
 2071TIP3    H227773   0.721   5.015   0.177  0.4441 -0.4332 -0.0512
 2072TIP3   OH227774   5.323   0.036   0.661  0.1788  0.3586 -0.4526
 2072TIP3    H127775   5.321   0.121   0.706  1.5913  0.3129 -0.2732
 2072TIP3    H227776   5.303   0.058   0.570 -3.2213  0.3866  0.1690
 2073TIP3   OH227777   4.841   4.091   0.895  0.4507  0.1720 -0.5074
 2073TIP3    H127778   4.832   3.998   0.876 -0.8678 -0.6597  3.2974
 2073TIP3    H227779   4.756   4.116   0.933  1.8563  1.9720  1.7305
 2074TIP3   OH227780   3.110   1.653   0.769 -0.1492 -0.0067 -0.0536
 2074TIP3    H127781   3.102   1.728   0.827  0.5950  1.4128 -1.7048
 2074TIP3    H227782   3.027   1.606   0.778  0.4221 -0.6341  3.1054
 2075TIP3   OH227783   3.046   1.735   7.939 -0.3385 -0.0933 -0.1738
 2075TIP3    H127784   3.007   1.711   8.023  1.5218 -2.4142  0.1388
 2075TIP3    H227785   2.999   1.681   7.875  0.5199 -0.8962 -0.1415
 2076TIP3   OH227786   6.026   1.186   0.708  0.3357 -0.4775 -0.1762
 2076TIP3    H127787   6.069   1.127   0.647 -0.6041 -0.9714 -0.3861
 2076TIP3    H227788   5.932   1.173   0.692  0.0927  0.1821  0.6155
 2077TIP3   OH227789   4.197   2.199   2.295  0.2767  0.2896 -0.2429
 2077TIP3    H127790   4.183   2.104   2.293  0.9749  0.1930 -1.7731
 2077TIP3    H227791   4.199   2.225   2.203  0.4945  1.7334  0.1470
 2078TIP3   OH227792   0.008   2.682   2.159 -0.2000  0.0356  0.5642
 2078TIP3    H127793   0.040   2.642   2.079 -0.0765  1.5285 -0.1620
 2078TIP3    H227794  -0.057   2.619   2.193 -1.6866  0.2305 -1.7284
 2079TIP3   OH227795   6.673   2.974   8.137  0.1249 -0.5696 -0.4702
 2079TIP3    H127796   6.763   2.943   8.137  0.0204 -0.8646  0.2919
 2079TIP3    H227797   6.678   3.063   8.172  0.1155 -0.5971 -0.3987
 2080TIP3   OH227798   6.373   4.264   0.845 -0.3454 -0.2533  0.1098
 2080TIP3    H127799   6.347   4.175   0.868  0.8930 -0.7631 -0.3695
 2080TIP3    H227800   6.467   4.258   0.829 -0.5612  0.7248 -1.8198
 2081TIP3   OH227801   2.247   1.971   7.762 -0.2514  0.4499  0.1022
 2081TIP3    H127802   2.333   1.930   7.757 -0.0415  0.9326 -0.2742
 2081TIP3    H227803   2.214   1.968   7.672 -0.3471  0.8606  0.1202
 2082TIP3   OH227804   1.825   5.789   0.470  0.4718 -0.1562  0.6379
 2082TIP3    H127805   1.787   5.864   0.425  0.1002 -1.2931 -1.0098
 2082TIP3    H227806   1.872   5.827   0.544  1.1204  1.7917 -0.7028
 2083TIP3   OH227807   0.277   4.320   3.274  0.0991  0.5366 -0.0280
 2083TIP3    H127808   0.351   4.312   3.335 -0.6810 -0.6102  0.8063
 2083TIP3    H227809   0.318   4.345   3.191  1.3861  0.3439  0.5123
 2084TIP3   OH227810   4.560   6.601   0.738 -0.2486 -0.1706 -0.5809
 2084TIP3    H127811   4.570   6.687   0.698 -0.8870 -0.1405 -0.6862
 2084TIP3    H227812   4.605   6.542   0.677 -0.8396 -0.0665 -1.1357
 2085TIP3   OH227813   0.724   3.099   0.042  0.1001 -0.0176 -0.2340
 2085TIP3    H127814   0.691   3.152  -0.030 -1.0765 -0.1017  0.2376
 2085TIP3    H227815   0.701   3.147   0.121  1.3223  0.0394  0.1217
 2086TIP3   OH227816   0.473   4.529   7.922  1.0428  0.5862  0.1295
 2086TIP3    H127817   0.478   4.622   7.897  3.5903  0.9142  1.5673
 2086TIP3    H227818   0.524   4.484   7.855 -2.4175 -0.2984 -2.1758
 2087TIP3   OH227819   0.896   1.161   2.333 -0.5038 -0.1496  0.2957
 2087TIP3    H127820   0.954   1.099   2.377 -1.5451  0.2843  2.4357
 2087TIP3    H227821   0.954   1.214   2.279  0.9776 -0.3119  1.6392
 2088TIP3   OH227822   4.182   3.213   2.084 -0.2231 -0.3376 -0.2594
 2088TIP3    H127823   4.185   3.308   2.077 -1.3922 -0.2741 -0.1345
 2088TIP3    H227824   4.136   3.184   2.005  0.9793 -0.8851 -0.7763
 2089TIP3   OH227825   4.104   1.862   0.431 -0.1437 -0.7587  0.2336
 2089TIP3    H127826   4.164   1.822   0.493 -1.2626  0.1276  1.9739
 2089TIP3    H227827   4.147   1.944   0.405 -0.1415 -0.6093  0.6994
 2090TIP3   OH227828   4.113   4.621   7.359  0.0329  0.0200  0.5363
 2090TIP3    H127829   4.111   4.691   7.424  0.2475  0.3084  0.2316
 2090TIP3    H227830   4.060   4.653   7.287  2.5438  1.1565 -0.9013
 2091TIP3   OH227831   3.819   5.113   7.673  0.1415 -0.3903 -0.0702
 2091TIP3    H127832   3.806   5.053   7.600 -0.0732 -0.4278 -0.0024
 2091TIP3    H227833   3.875   5.182   7.637 -0.8103  0.1484 -0.5905
 2092TIP3   OH227834   6.509   2.662   2.488  0.0319 -0.1496  0.1194
 2092TIP3    H127835   6.427   2.710   2.487  0.2362  0.2004 -0.0735
 2092TIP3    H227836   6.570   2.720   2.535  0.8439  0.7387 -1.9277
 2093TIP3   OH227837   3.251   3.276   8.706  0.3509 -0.4274 -0.2288
 2093TIP3    H127838   3.295   3.274   8.621  0.7685  4.3581 -0.3812
 2093TIP3    H227839   3.321   3.259   8.769  1.3515  1.6290 -0.7046
 2094TIP3   OH227840   1.958   1.643   0.763  0.1846 -0.0555 -0.6427
 2094TIP3    H127841   1.899   1.676   0.694 -0.0512  0.5888 -0.1429
 2094TIP3    H227842   1.899   1.614   0.833  0.4528  0.6110 -0.1311
 2095TIP3   OH227843   0.555   2.085   8.973  0.1931  0.2353 -0.2472
 2095TIP3    H127844   0.631   2.113   9.024  1.3829 -1.3614 -1.0377
 2095TIP3    H227845   0.525   2.165   8.929  2.5523  0.6226 -1.3142
 2096TIP3   OH227846   4.673   5.143   1.262 -0.0311  0.4784 -0.5557
 2096TIP3    H127847   4.680   5.056   1.301  1.2256  0.8612  0.1369
 2096TIP3    H227848   4.580   5.154   1.244 -0.2915 -0.7541 -0.0741
 2097TIP3   OH227849   3.827   5.527   8.691  0.4016 -0.4836  0.6167
 2097TIP3    H127850   3.741   5.512   8.650  0.9145 -2.6414  0.2133
 2097TIP3    H227851   3.877   5.575   8.625  0.0406 -0.7072  0.1741
 2098TIP3   OH227852   4.510   4.458   8.592 -0.3056  0.1656 -0.3020
 2098TIP3    H127853   4.499   4.412   8.675 -0.9211 -1.9352 -1.4693
 2098TIP3    H227854   4.420   4.473   8.560 -0.0986  1.6278 -0.2682
 2099TIP3   OH227855   2.422   2.673   7.232  0.3930  0.2608 -0.6816
 2099TIP3    H127856   2.484   2.604   7.257  1.3808  1.8001  1.4913
 2099TIP3    H227857   2.446   2.747   7.288 -0.0296  2.6941 -3.5108
 2100TIP3   OH227858   5.286   3.338   1.023  0.0401  0.1368 -0.4214
 2100TIP3    H127859   5.329   3.254   1.005  0.6587  0.6071 -1.1753
 2100TIP3    H227860   5.324   3.367   1.105 -0.4243 -0.4669  0.0255
 2101TIP3   OH227861   3.194   5.456   0.601 -0.2231  0.3693  0.1035
 2101TIP3    H127862   3.219   5.493   0.517  1.3781  0.0009  0.3973
 2101TIP3    H227863   3.173   5.532   0.656 -0.6174  0.6339 -0.4040
 2102TIP3   OH227864   2.128   1.189   8.171  0.2179 -1.1185 -0.3878
 2102TIP3    H127865   2.139   1.213   8.079 -1.8339 -0.1345 -0.4286
 2102TIP3    H227866   2.102   1.270   8.214 -0.1612 -1.8507  0.8187
 2103TIP3   OH227867   2.308   1.626   1.114  0.4775  0.1717  0.2140
 2103TIP3    H127868   2.224   1.625   1.160 -0.0810 -1.6021 -0.7540
 2103TIP3    H227869   2.285   1.637   1.022  1.5015  2.2511  0.1492
 2104TIP3   OH227870   2.441   4.775   2.923  0.1298  0.5527 -0.5011
 2104TIP3    H127871   2.408   4.718   2.854  0.7349 -1.6678  0.9462
 2104TIP3    H227872   2.362   4.812   2.963 -0.4249 -1.0572 -0.0398
 2105TIP3   OH227873   2.649   4.480   1.961  0.2270  0.2075 -0.5340
 2105TIP3    H127874   2.702   4.405   1.990 -1.6962 -1.1268 -0.3081
 2105TIP3    H227875   2.628   4.527   2.042 -0.2565 -0.1851 -0.4261
 2106TIP3   OH227876   1.242   6.764   8.487 -0.1690  0.1544 -0.1755
 2106TIP3    H127877   1.230   6.672   8.465  0.7714  0.5559 -2.6433
 2106TIP3    H227878   1.314   6.764   8.551  0.7741 -0.7556 -1.1952
 2107TIP3   OH227879   1.991   4.126   2.660 -0.4350  0.3242  0.5643
 2107TIP3    H127880   2.010   4.190   2.729  0.2322  1.2201 -0.4136
 2107TIP3    H227881   1.985   4.043   2.706 -0.4449  0.9624  1.7627
 2108TIP3   OH227882   0.068   1.624   1.751  0.6776 -0.4368 -0.7891
 2108TIP3    H127883   0.114   1.555   1.702  1.5426  0.8413 -1.8507
 2108TIP3    H227884   0.138   1.681   1.782 -0.1195  0.9272 -1.4412
 2109TIP3   OH227885   1.393   3.390   7.773 -0.4094  0.3743  0.1206
 2109TIP3    H127886   1.370   3.336   7.697  1.1511  0.8394 -0.7150
 2109TIP3    H227887   1.462   3.447   7.742  0.1957  0.6630  1.8771
 2110TIP3   OH227888   3.019   2.377   7.860  0.3967  0.2871  0.0411
 2110TIP3    H127889   3.069   2.423   7.928  0.4073  1.3912 -0.6904
 2110TIP3    H227890   2.947   2.436   7.840  1.6217  1.0742 -2.4960
 2111TIP3   OH227891   5.341   1.227   2.827 -0.2737  0.5886  0.0295
 2111TIP3    H127892   5.298   1.289   2.886 -0.5229 -0.2618  0.7621
 2111TIP3    H227893   5.278   1.212   2.757  0.4729  2.5084 -1.1469
 2112TIP3   OH227894   1.688   4.523   1.365 -0.0269 -0.3983 -0.2708
 2112TIP3    H127895   1.740   4.444   1.380 -0.4839 -0.7615 -0.5999
 2112TIP3    H227896   1.603   4.503   1.404  0.4956  0.7302  1.5985
 2113TIP3   OH227897   3.307   6.125   2.376 -0.1517 -0.3862 -0.1319
 2113TIP3    H127898   3.353   6.086   2.450 -0.0001 -1.6461 -0.8624
 2113TIP3    H227899   3.216   6.131   2.405  0.2254  0.9568  0.8562
 2114TIP3   OH227900   6.058   0.032   8.676  0.2443  0.0413  0.3548
 2114TIP3    H127901   6.103   0.066   8.754  0.0523  1.3508 -0.0812
 2114TIP3    H227902   6.094   0.083   8.604 -0.1905 -0.5865 -0.3215
 2115TIP3   OH227903   5.001   5.413   1.788 -0.2009  0.0464  0.2974
 2115TIP3    H127904   5.052   5.443   1.712  1.1420  0.9769  1.5159
 2115TIP3    H227905   4.980   5.494   1.835  0.0133 -0.6008  1.5303
 2116TIP3   OH227906   1.453   5.347   2.274 -0.0790 -0.2466 -0.2403
 2116TIP3    H127907   1.417   5.434   2.289  1.1255  0.0877  0.9457
 2116TIP3    H227908   1.427   5.325   2.184 -1.1375  0.9525 -0.2506
 2117TIP3   OH227909   4.695   2.076   7.826  0.9282 -0.2174 -0.2292
 2117TIP3    H127910   4.627   2.130   7.785  1.7623  1.3991  0.4257
 2117TIP3    H227911   4.670   2.071   7.918  1.9666  0.8794  0.1352
 2118TIP3   OH227912   1.999   6.089   1.791  0.0499  0.1990  0.1484
 2118TIP3    H127913   2.088   6.121   1.806  0.3218 -0.8796  0.9691
 2118TIP3    H227914   1.969   6.137   1.714  1.2963  0.6659 -0.0718
 2119TIP3   OH227915   4.941   4.220   1.620  0.6571 -0.1185  0.0383
 2119TIP3    H127916   4.951   4.294   1.679 -0.5154 -0.8472  1.2190
 2119TIP3    H227917   5.005   4.156   1.651  1.3061  0.1943 -0.6467
 2120TIP3   OH227918   0.169   6.115   1.586 -0.4061  0.3494  0.3197
 2120TIP3    H127919   0.254   6.135   1.625 -1.1657 -0.0367  2.2916
 2120TIP3    H227920   0.118   6.196   1.595 -1.3419 -0.3885  2.3628
 2121TIP3   OH227921   0.514   2.850   2.592 -0.3344 -0.2640 -0.3842
 2121TIP3    H127922   0.512   2.785   2.522 -1.6307 -0.5278 -0.1271
 2121TIP3    H227923   0.512   2.934   2.547  2.3730 -0.2926 -0.7641
 2122TIP3   OH227924   1.154   5.785   8.375 -0.4748 -0.0328  0.0476
 2122TIP3    H127925   1.139   5.818   8.286 -0.3611 -1.8765 -0.6959
 2122TIP3    H227926   1.244   5.753   8.374 -0.7367 -0.8215  0.5652
 2123TIP3   OH227927   3.972   2.083   1.749 -0.5037 -0.3414 -0.0010
 2123TIP3    H127928   4.045   2.130   1.708  0.4572 -0.6829  1.2704
 2123TIP3    H227929   3.901   2.147   1.754 -0.1971  0.0839 -0.9623
 2124TIP3   OH227930   0.248   0.895   0.596  0.5444  0.2525 -0.1949
 2124TIP3    H127931   0.250   0.865   0.505 -0.7950 -0.1360 -0.1252
 2124TIP3    H227932   0.215   0.819   0.645  3.1561 -0.2339  0.9429
 2125TIP3   OH227933   0.878   1.188   0.514  0.3145 -0.6288 -0.3618
 2125TIP3    H127934   0.921   1.154   0.593  0.3111 -0.2594 -0.2009
 2125TIP3    H227935   0.908   1.130   0.444  1.4896 -0.0610 -0.3432
 2126TIP3   OH227936   4.826   2.446   8.599 -0.1545  0.0529  0.3372
 2126TIP3    H127937   4.749   2.481   8.554  0.9888  0.9095 -1.0825
 2126TIP3    H227938   4.813   2.352   8.599 -0.6299  0.0909 -1.0565
 2127TIP3   OH227939   4.474   4.690   0.173 -0.0650  0.7435 -0.0650
 2127TIP3    H127940   4.415   4.673   0.246 -0.1712  3.4526  0.5885
 2127TIP3    H227941   4.533   4.616   0.172 -1.3017 -0.3320  1.4981
 2128TIP3   OH227942   6.523   1.761   2.509  0.7306 -0.1942 -0.3008
 2128TIP3    H127943   6.523   1.727   2.598  0.3072  0.1851 -0.1508
 2128TIP3    H227944   6.615   1.764   2.484  0.8771  0.0453  0.2560
 2129TIP3   OH227945   3.784   0.724   0.331 -0.1108  0.2053 -0.8883
 2129TIP3    H127946   3.761   0.783   0.259  0.2145  0.3232 -0.8971
 2129TIP3    H227947   3.723   0.650   0.321 -0.9643  0.8363 -0.4757
 2130TIP3   OH227948   1.861   1.958   2.957  0.5392 -0.3324  0.3955
 2130TIP3    H127949   1.822   1.893   3.015  0.5424 -0.8337 -0.1569
 2130TIP3    H227950   1.787   1.996   2.910  0.7038 -1.4398 -0.8138
 2131TIP3   OH227951   3.846   6.683   8.928  0.5693 -0.2465 -0.2196
 2131TIP3    H127952   3.821   6.733   9.006  0.0787 -1.8545  0.6989
 2131TIP3    H227953   3.764   6.672   8.880  0.8863  0.8122 -1.0310
 2132TIP3   OH227954   5.640   6.537   2.266 -0.1442 -0.2258  0.1296
 2132TIP3    H127955   5.631   6.630   2.284 -0.8217 -0.5221  1.4576
 2132TIP3    H227956   5.733   6.524   2.249 -0.3185  0.9962 -2.0516
 2133TIP3   OH227957   6.332   4.438   3.038  0.3633 -0.4382  0.2686
 2133TIP3    H127958   6.418   4.406   3.012 -0.1041 -0.2610 -1.6964
 2133TIP3    H227959   6.272   4.368   3.011 -0.0686 -0.9211  2.3526
 2134TIP3   OH227960   6.064   0.695   2.898 -0.2233  0.6137  0.3173
 2134TIP3    H127961   6.082   0.745   2.977 -1.8812  2.3651 -0.3161
 2134TIP3    H227962   6.146   0.696   2.849  0.5787  0.2193  1.6113
 2135TIP3   OH227963   3.531   5.896   1.801  0.1745 -0.2192 -0.0083
 2135TIP3    H127964   3.627   5.895   1.806  0.2511  0.9513 -0.8342
 2135TIP3    H227965   3.507   5.804   1.785  1.4703 -0.0720 -3.8651
 2136TIP3   OH227966   4.478   3.708   1.166 -0.2316  0.3959 -0.0577
 2136TIP3    H127967   4.473   3.759   1.085  2.8921  1.0162  0.0173
 2136TIP3    H227968   4.505   3.621   1.138  0.3176  0.4636  0.2391
 2137TIP3   OH227969   1.969   4.230   0.212 -0.1762  0.2983 -0.4118
 2137TIP3    H127970   1.929   4.147   0.186  0.7252  0.0196 -0.9665
 2137TIP3    H227971   2.034   4.205   0.278  1.3959  0.3025 -1.9033
 2138TIP3   OH227972   6.754   1.479   2.232 -0.0503  0.1829  0.3602
 2138TIP3    H127973   6.662   1.464   2.207 -0.2379 -0.2519  1.2734
 2138TIP3    H227974   6.768   1.420   2.306  1.6477 -1.4952 -1.1831
 2139TIP3   OH227975   0.165   5.039   1.242  0.3759 -0.2592 -0.0128
 2139TIP3    H127976   0.084   5.088   1.229  0.8177  1.0521  1.7608
 2139TIP3    H227977   0.159   5.006   1.331  2.1599  0.6491  0.4884
 2140TIP3   OH227978   3.689   1.979   7.585 -0.2162  0.0934 -0.1220
 2140TIP3    H127979   3.680   2.066   7.545 -0.0825 -0.4202 -1.3022
 2140TIP3    H227980   3.783   1.964   7.589 -0.2601 -0.6226 -1.3508
 2141TIP3   OH227981   6.397   4.191   7.305  0.0250 -0.4580 -0.0241
 2141TIP3    H127982   6.310   4.230   7.292 -0.2992 -0.8030  1.0228
 2141TIP3    H227983   6.423   4.162   7.217 -2.2373 -3.0587  0.0116
 2142TIP3   OH227984   2.486   0.950   0.256 -0.4159 -0.3355  0.0365
 2142TIP3    H127985   2.539   0.871   0.263 -2.3446 -1.7396 -0.2180
 2142TIP3    H227986   2.434   0.937   0.177  0.0960  1.7973 -0.7173
 2143TIP3   OH227987   1.452   1.074   7.114 -0.0457 -0.4385 -0.2168
 2143TIP3    H127988   1.544   1.084   7.139 -0.2169  0.2410  0.1723
 2143TIP3    H227989   1.423   1.163   7.095 -0.6949 -0.6191 -0.0855
 2144TIP3   OH227990   3.654   5.572   8.160 -0.2566  0.0911 -0.3441
 2144TIP3    H127991   3.641   5.617   8.077 -1.9427 -0.1343 -0.2220
 2144TIP3    H227992   3.728   5.618   8.200 -0.2544  1.0342 -1.3849
 2145TIP3   OH227993   4.883   5.672   2.687  0.4585 -0.5055 -0.5779
 2145TIP3    H127994   4.914   5.634   2.769  1.1975  1.0735 -0.0829
 2145TIP3    H227995   4.788   5.671   2.695  0.4783 -1.5988 -0.2992
 2146TIP3   OH227996   6.371   5.529   7.868  0.2564  0.4920  0.4849
 2146TIP3    H127997   6.418   5.548   7.949  0.8087  4.1658 -0.5213
 2146TIP3    H227998   6.422   5.572   7.799 -0.2323 -2.4264 -1.8906
 2147TIP3   OH227999   1.138   2.760   7.243 -0.1742  0.7256 -0.7380
 2147TIP3    H128000   1.133   2.665   7.258  2.0048  0.5997 -0.5452
 2147TIP3    H228001   1.047   2.790   7.253 -1.1051 -1.4633 -1.8181
 2148TIP3   OH228002   6.216   2.784   7.979  0.0057  0.4473  0.3939
 2148TIP3    H128003   6.225   2.793   7.885 -0.8898 -0.1842  0.2338
 2148TIP3    H228004   6.122   2.788   7.995  0.1208  0.1245  1.2067
 2149TIP3   OH228005   6.645   1.621   0.817  0.1432  0.1629  0.3076
 2149TIP3    H128006   6.679   1.645   0.902  0.6483  1.5600 -0.2605
 2149TIP3    H228007   6.670   1.694   0.759  0.8876 -1.3025 -1.3065
 2150TIP3   OH228008   6.397   6.518   0.282  0.0387 -0.2367  0.0443
 2150TIP3    H128009   6.427   6.583   0.218 -0.3794  1.0319  1.0946
 2150TIP3    H228010   6.337   6.462   0.233  0.5910  0.0054 -0.9409
 2151TIP3   OH228011   1.321   5.704   0.554 -0.0663 -0.5602  0.0166
 2151TIP3    H128012   1.228   5.720   0.539 -0.0853 -1.1875 -0.5503
 2151TIP3    H228013   1.366   5.768   0.498 -0.1448  0.2037  0.7997
 2152TIP3   OH228014   4.673   3.328   8.046 -0.4784  0.2204  0.0307
 2152TIP3    H128015   4.590   3.304   8.087 -1.0922  0.2990 -1.1223
 2152TIP3    H228016   4.726   3.249   8.051  0.2353  0.7556  2.7039
 2153TIP3   OH228017   5.978   3.611   7.728 -0.1618 -0.2739 -0.4164
 2153TIP3    H128018   5.897   3.560   7.726 -1.1993  1.2656  0.2957
 2153TIP3    H228019   5.990   3.641   7.638 -0.5324 -0.2942 -0.4747
 2154TIP3   OH228020   4.073   6.161   1.334  0.1211  0.0175 -0.4121
 2154TIP3    H128021   4.104   6.083   1.381  0.7621  1.4497  1.6513
 2154TIP3    H228022   4.113   6.234   1.380 -1.2848  1.6411 -1.6627
 2155TIP3   OH228023   3.261   1.113   8.938  0.0759 -0.0608  0.5332
 2155TIP3    H128024   3.177   1.121   8.985  0.8907 -0.2245  2.0796
 2155TIP3    H228025   3.260   1.025   8.903  0.3590 -0.7353  2.1355
 2156TIP3   OH228026   5.059   0.326   8.896 -0.2205 -0.0535  0.0750
 2156TIP3    H128027   5.149   0.294   8.906 -0.7148 -1.2338  1.1579
 2156TIP3    H228028   5.043   0.324   8.802  0.6199 -0.6232 -0.0689
 2157TIP3   OH228029   1.960   4.125   1.640 -0.7083 -0.1711  0.4854
 2157TIP3    H128030   2.014   4.048   1.657  2.3399  1.4783 -0.8729
 2157TIP3    H228031   1.984   4.187   1.708  1.0231  1.4108 -1.4258
 2158TIP3   OH228032   4.282   3.626   7.780 -0.6287  0.0666 -0.4251
 2158TIP3    H128033   4.202   3.672   7.805 -1.6917 -1.0873 -1.5402
 2158TIP3    H228034   4.288   3.553   7.842  1.0357  1.6014  1.3200
 2159TIP3   OH228035   4.197   1.571   0.952 -0.2268 -0.2456  0.2083
 2159TIP3    H128036   4.127   1.633   0.932 -0.5356 -0.3688  0.8831
 2159TIP3    H228037   4.233   1.548   0.866  0.7042  1.7644 -0.0050
 2160TIP3   OH228038   0.361   4.529   1.925 -0.0330  0.0064 -0.0222
 2160TIP3    H128039   0.450   4.551   1.950 -0.0112 -1.5965  1.5331
 2160TIP3    H228040   0.323   4.612   1.893  2.5239  0.3363 -2.5968
 2161TIP3   OH228041   0.216   4.650   7.363  0.4912  0.2474 -0.1491
 2161TIP3    H128042   0.285   4.601   7.317  0.4789 -0.0454  0.1365
 2161TIP3    H228043   0.246   4.740   7.362  2.1343 -0.1913  2.1389
 2162TIP3   OH228044   2.837   3.489   8.408 -0.0207  0.6736 -0.1960
 2162TIP3    H128045   2.899   3.430   8.449  0.6735  1.8003  0.4369
 2162TIP3    H228046   2.754   3.442   8.410  0.8866 -1.1134 -1.6097
 2163TIP3   OH228047   4.494   2.857   0.694  0.1911  0.1141  0.2797
 2163TIP3    H128048   4.551   2.838   0.769 -0.2227  1.3289  0.9314
 2163TIP3    H228049   4.442   2.932   0.722 -1.0219 -0.3310 -0.6923
 2164TIP3   OH228050   4.268   1.251   8.178 -0.0042  0.4567 -0.0351
 2164TIP3    H128051   4.339   1.191   8.153  2.2728  2.8431  0.2269
 2164TIP3    H228052   4.277   1.325   8.117 -1.0724  1.6725  1.2145
 2165TIP3   OH228053   4.075   1.901   0.130  0.0916  0.0957  0.1247
 2165TIP3    H128054   4.060   1.807   0.119  0.2781  0.1018 -0.1706
 2165TIP3    H228055   4.024   1.942   0.060  0.0663  0.2123  0.2111
 2166TIP3   OH228056   0.118   6.697   0.694 -0.1629  0.3299  0.0288
 2166TIP3    H128057   0.098   6.621   0.750 -0.9259  1.4550  1.3607
 2166TIP3    H228058   0.069   6.681   0.614  0.5209 -1.0791 -0.1309
 2167TIP3   OH228059   2.426   4.510   8.476  0.1821 -0.3160  0.4162
 2167TIP3    H128060   2.397   4.531   8.386  0.6351 -1.0067  0.1044
 2167TIP3    H228061   2.521   4.507   8.470  0.1646 -2.8604  0.3202
 2168TIP3   OH228062   0.877   1.897   2.285 -0.2100 -0.4966 -0.4756
 2168TIP3    H128063   0.946   1.835   2.306 -0.3712 -0.4986  0.0854
 2168TIP3    H228064   0.864   1.889   2.191 -0.4465 -1.5356 -0.3659
 2169TIP3   OH228065   5.952   1.879   0.201  0.5677  0.9998  0.0003
 2169TIP3    H128066   5.918   1.829   0.275  1.6677 -2.0314 -1.3785
 2169TIP3    H228067   5.891   1.953   0.192 -2.3451 -1.0700  1.0841
 2170TIP3   OH228068   0.865   5.954   0.181  0.8374 -0.2922 -0.8562
 2170TIP3    H128069   0.890   6.044   0.202  1.9330 -0.0223 -2.9815
 2170TIP3    H228070   0.847   5.955   0.087  1.1495 -2.3373 -1.0030
 2171TIP3   OH228071   4.222   3.842   7.554  0.0963  0.3832  0.0115
 2171TIP3    H128072   4.313   3.816   7.569 -0.0676  0.0016  0.3735
 2171TIP3    H228073   4.178   3.822   7.637 -0.1204  1.4717  0.1700
 2172TIP3   OH228074   4.803   3.250   8.371  0.1034  0.0467  0.1946
 2172TIP3    H128075   4.780   3.218   8.458  1.3665  0.5422  0.7313
 2172TIP3    H228076   4.720   3.282   8.334 -0.5554 -0.7670  0.9468
 2173TIP3   OH228077   2.509   6.633   0.485  0.6575 -0.6746 -0.4696
 2173TIP3    H128078   2.433   6.576   0.495 -0.9871  1.4033 -0.1721
 2173TIP3    H228079   2.479   6.703   0.426  2.1224  0.5578  0.1665
 2174TIP3   OH228080   4.845   1.892   3.111  0.0134  0.3801 -0.2421
 2174TIP3    H128081   4.798   1.865   3.190 -0.8111  0.7618 -0.5892
 2174TIP3    H228082   4.778   1.929   3.054  0.8195  1.4457 -0.5365
 2175TIP3   OH228083   1.980   6.250   2.973  0.1706 -0.5399  0.0793
 2175TIP3    H128084   1.890   6.283   2.976  0.9743  1.8841 -0.7589
 2175TIP3    H228085   2.000   6.228   3.065 -0.1009  2.4010  0.9340
 2176TIP3   OH228086   6.568   3.303   0.067  0.9641 -0.5144 -0.1597
 2176TIP3    H128087   6.649   3.345   0.096  0.6571  0.2412 -0.3868
 2176TIP3    H228088   6.521   3.371   0.020 -0.8958 -0.2661  1.9326
 2177TIP3   OH228089   3.508   4.941   7.595  0.0310  0.2922  0.0327
 2177TIP3    H128090   3.495   5.034   7.612  0.4753  0.1026  1.5351
 2177TIP3    H228091   3.581   4.938   7.533 -1.4675  1.0058 -1.8409
 2178TIP3   OH228092   0.355   0.305   2.269  0.7420  0.1230  0.2951
 2178TIP3    H128093   0.398   0.227   2.304  0.5260 -0.0318  0.2166
 2178TIP3    H228094   0.269   0.274   2.239  1.0117  0.2095 -0.5893
 2179TIP3   OH228095   1.266   5.783   7.794 -0.0899  0.1128 -0.5845
 2179TIP3    H128096   1.235   5.873   7.785  0.6855  0.4241 -0.2318
 2179TIP3    H228097   1.186   5.731   7.804 -0.4985  1.0905  2.0648
 2180TIP3   OH228098   2.802   4.260   8.759  0.4691  0.0485 -0.1270
 2180TIP3    H128099   2.890   4.266   8.796  0.8852 -2.7902 -0.4484
 2180TIP3    H228100   2.748   4.225   8.830  0.7128 -2.9241 -1.2973
 2181TIP3   OH228101   2.341   1.995   2.830 -0.2775  0.0633 -0.1427
 2181TIP3    H128102   2.428   2.032   2.842 -0.4212  0.1583  0.6513
 2181TIP3    H228103   2.357   1.911   2.787  0.3573 -0.6618  1.4102
 2182TIP3   OH228104   3.109   4.994   7.975 -0.1421  0.1691 -0.0944
 2182TIP3    H128105   3.075   4.989   7.886 -0.2540  1.6265 -0.1489
 2182TIP3    H228106   3.200   5.019   7.965 -0.1681  0.3878  0.2056
 2183TIP3   OH228107   4.584   0.170   0.981  0.2556 -0.6454  0.2496
 2183TIP3    H128108   4.634   0.120   1.046  1.5843  0.6055  0.2488
 2183TIP3    H228109   4.561   0.251   1.027 -0.1312 -0.4113 -0.3555
 2184TIP3   OH228110   2.597   2.624   1.212  0.6422  0.0084  0.4241
 2184TIP3    H128111   2.502   2.630   1.214  0.4230 -1.7988 -1.2738
 2184TIP3    H228112   2.627   2.706   1.249 -1.5960  1.7475 -1.3053
 2185TIP3   OH228113   4.991   2.948   2.961 -0.1903 -0.3268  0.0993
 2185TIP3    H128114   4.961   3.038   2.947  0.0645 -0.3991 -0.9645
 2185TIP3    H228115   5.076   2.958   3.005 -0.0200 -0.0244 -0.2838
 2186TIP3   OH228116   1.286   1.717   1.702  0.0838  0.4997 -0.2207
 2186TIP3    H128117   1.366   1.682   1.740  0.2870 -2.5315 -3.0015
 2186TIP3    H228118   1.312   1.801   1.665  0.8302  1.5677  2.4598
 2187TIP3   OH228119   4.478   1.565   7.681 -0.4412  0.4464 -0.0654
 2187TIP3    H128120   4.464   1.472   7.667  1.3392  0.3689 -1.7777
 2187TIP3    H228121   4.441   1.607   7.604  1.9178  0.7888 -1.1004
 2188TIP3   OH228122   0.323   5.992   1.933 -0.4719  0.4668  0.1954
 2188TIP3    H128123   0.262   5.936   1.884 -0.6915  1.1344 -0.3096
 2188TIP3    H228124   0.362   6.049   1.866  0.4280  0.3042  0.5747
 2189TIP3   OH228125   5.266   2.468   0.744  0.0322 -0.1321  0.2986
 2189TIP3    H128126   5.348   2.459   0.695 -1.9051  1.1496 -3.6372
 2189TIP3    H228127   5.221   2.385   0.729 -0.0143 -0.2961  1.2659
 2190TIP3   OH228128   1.463   0.104   1.085  0.2538 -0.3120  0.2640
 2190TIP3    H128129   1.546   0.151   1.093  1.7927 -2.3505 -2.1685
 2190TIP3    H228130   1.460   0.077   0.993 -2.1955 -1.9702  0.7363
 2191TIP3   OH228131   6.603   0.290   8.068  0.2171 -0.5824  0.1228
 2191TIP3    H128132   6.665   0.237   8.118  2.2339 -0.0917 -1.6907
 2191TIP3    H228133   6.596   0.245   7.983 -1.4628 -0.2681  0.0616
 2192TIP3   OH228134   0.674   0.583   3.381 -0.4516  0.3516 -0.1286
 2192TIP3    H128135   0.645   0.510   3.436  1.0932 -0.9007 -0.8690
 2192TIP3    H228136   0.604   0.593   3.316 -1.2380  0.3358  0.7026
 2193TIP3   OH228137   1.360   2.015   0.011 -0.2903  0.6448  0.5473
 2193TIP3    H128138   1.329   2.089   0.063  2.2988  2.0160  0.3173
 2193TIP3    H228139   1.404   2.055  -0.064  0.9387 -1.1103  0.2679
 2194TIP3   OH228140   0.112   5.140   2.520 -0.3038 -0.5353 -0.0866
 2194TIP3    H128141   0.121   5.060   2.572 -1.4490 -0.3345  0.4585
 2194TIP3    H228142   0.072   5.202   2.580 -0.0806  0.2345 -0.7248
 2195TIP3   OH228143   1.127   3.296   0.248 -0.2654  0.1962  0.1008
 2195TIP3    H128144   1.077   3.320   0.326  1.7539 -0.1968  1.5972
 2195TIP3    H228145   1.165   3.211   0.269  1.6003  0.7908 -0.6052
 2196TIP3   OH228146   0.230   6.096   8.422 -0.3500  0.5083 -0.0913
 2196TIP3    H128147   0.227   6.161   8.492  0.0160  1.3121 -0.8022
 2196TIP3    H228148   0.276   6.022   8.461 -2.9219 -0.3782  1.5268
 2197TIP3   OH228149   6.119   0.723   8.792  0.1577  0.2952 -0.1261
 2197TIP3    H128150   6.058   0.694   8.725 -3.3913  0.7328  2.6380
 2197TIP3    H228151   6.080   0.803   8.827  1.9457  0.1965  2.3309
 2198TIP3   OH228152   6.643   4.328   7.697  0.1257  0.3272 -0.3003
 2198TIP3    H128153   6.597   4.332   7.613 -0.8925 -0.3283  0.1944
 2198TIP3    H228154   6.724   4.281   7.678  0.8892  1.9407 -1.2956
 2199TIP3   OH228155   5.536   6.130   7.628 -0.0585 -0.2039  0.5598
 2199TIP3    H128156   5.503   6.169   7.709 -0.4717 -0.9380  0.7572
 2199TIP3    H228157   5.458   6.125   7.571 -0.0076 -0.7332  0.5381
 2200TIP3   OH228158   1.524   2.255   2.343  0.4399 -0.0652  1.0519
 2200TIP3    H128159   1.610   2.213   2.336  0.4132 -0.5220  2.9559
 2200TIP3    H228160   1.483   2.239   2.258  1.3614 -1.8587  0.8907
 2201TIP3   OH228161   6.543   4.139   1.766 -0.4608  0.3337 -0.1175
 2201TIP3    H128162   6.591   4.216   1.735 -0.1483  1.2707  2.4609
 2201TIP3    H228163   6.475   4.174   1.822  1.4703 -1.2253  3.5198
 2202TIP3   OH228164   5.061   2.616   1.794 -0.2456  0.0794 -0.7046
 2202TIP3    H128165   5.113   2.662   1.729 -1.0072 -0.4768 -1.7392
 2202TIP3    H228166   5.099   2.641   1.878  0.3005  1.3866 -1.3184
 2203TIP3   OH228167   0.620   4.008   8.645  0.1993 -0.1203  0.3616
 2203TIP3    H128168   0.636   3.936   8.584 -0.0387 -0.3549  0.5722
 2203TIP3    H228169   0.694   4.068   8.632  0.8933 -0.8495  0.8325
 2204TIP3   OH228170   4.226   4.900   1.302  0.1400  0.2134 -0.3913
 2204TIP3    H128171   4.242   4.912   1.395  1.0899  1.0686 -0.6495
 2204TIP3    H228172   4.138   4.937   1.288  0.1519  0.4335  0.0885
 2205TIP3   OH228173   3.998   0.563   0.520  0.1891  0.4200 -0.1252
 2205TIP3    H128174   3.967   0.625   0.454 -1.1099  0.1647  0.2349
 2205TIP3    H228175   4.031   0.489   0.470 -1.2071  0.0298 -0.5097
 2206TIP3   OH228176   1.038   4.178   8.091 -0.1325 -0.0112  0.2966
 2206TIP3    H128177   0.981   4.251   8.114 -0.7159 -0.6132  0.8178
 2206TIP3    H228178   1.126   4.215   8.091  0.0801 -0.0408  4.3738
 2207TIP3   OH228179   1.599   1.181   1.027 -0.2746 -0.1112 -0.3342
 2207TIP3    H128180   1.675   1.226   1.063  0.5034  0.1784 -2.2257
 2207TIP3    H228181   1.524   1.227   1.065  0.4690  0.0866  0.9686
 2208TIP3   OH228182   5.289   2.572   1.159 -0.7703 -0.0000  0.4859
 2208TIP3    H128183   5.282   2.477   1.168 -1.2030 -0.1036 -0.7597
 2208TIP3    H228184   5.382   2.591   1.173 -1.0614 -0.2479  3.4856
 2209TIP3   OH228185   2.811   6.158   0.400 -0.0602  0.1179 -0.3150
 2209TIP3    H128186   2.726   6.195   0.423  0.1067 -0.7623  1.9303
 2209TIP3    H228187   2.791   6.088   0.338 -0.9037  0.3416 -0.2993
 2210TIP3   OH228188   0.050   4.911   7.680  0.7472  0.3011 -0.2685
 2210TIP3    H128189  -0.009   4.900   7.755  1.0473  2.2835  0.3093
 2210TIP3    H228190   0.113   4.839   7.688 -0.5938 -0.9023  0.0087
 2211TIP3   OH228191   2.378   0.060   7.562 -0.1973  0.0707  0.2186
 2211TIP3    H128192   2.388   0.045   7.656 -0.0158 -1.0457  0.0253
 2211TIP3    H228193   2.298   0.014   7.538  0.1093 -0.1933 -0.3011
 2212TIP3   OH228194   4.968   3.647   2.306 -0.8894 -0.6482 -0.0866
 2212TIP3    H128195   4.878   3.655   2.274 -0.5444  0.8140 -0.7445
 2212TIP3    H228196   4.962   3.666   2.399 -1.2894 -0.7363 -0.0907
 2213TIP3   OH228197   4.512   1.263   1.473 -0.2010  0.1731  0.4195
 2213TIP3    H128198   4.420   1.237   1.478 -0.3400  0.8241  1.5242
 2213TIP3    H228199   4.509   1.359   1.469  0.4377  0.2072  0.6806
 2214TIP3   OH228200   2.580   4.071   1.235 -0.3531  0.2785 -0.2988
 2214TIP3    H128201   2.611   4.002   1.293  1.3475  1.8901  0.8065
 2214TIP3    H228202   2.569   4.147   1.292 -0.1588  1.4873 -1.8149
 2215TIP3   OH228203   1.478   5.613   1.191  0.2443  0.3036  0.3812
 2215TIP3    H128204   1.386   5.635   1.207 -0.0099 -1.0264  0.8287
 2215TIP3    H228205   1.523   5.636   1.272 -0.0037 -0.6877  0.8107
 2216TIP3   OH228206   4.876   4.444   0.114 -0.0927  0.1228 -0.4882
 2216TIP3    H128207   4.838   4.363   0.147  0.0272  0.6518  1.0101
 2216TIP3    H228208   4.970   4.429   0.115 -0.0977  0.0444 -0.8838
 2217TIP3   OH228209   0.799   2.776   7.812 -0.4679  0.1270  0.4473
 2217TIP3    H128210   0.755   2.692   7.826 -1.6177  0.9929  2.6197
 2217TIP3    H228211   0.865   2.781   7.882  2.6754 -0.7504 -2.2228
 2218TIP3   OH228212   1.882   0.376   2.675  0.0225 -0.4940 -0.0418
 2218TIP3    H128213   1.914   0.424   2.750 -0.7767  0.4610 -0.2895
 2218TIP3    H228214   1.789   0.398   2.670 -0.3454 -1.9504 -0.2529
 2219TIP3   OH228215   0.110   0.451   8.130 -0.3791 -0.6185  0.6450
 2219TIP3    H128216   0.031   0.501   8.111  0.3554  0.6007  0.7076
 2219TIP3    H228217   0.104   0.374   8.074 -1.4544 -0.3878  0.4266
 2220TIP3   OH228218   0.021   4.413   3.264  0.3036  0.0939 -0.3520
 2220TIP3    H128219   0.040   4.506   3.275  0.3101  0.0389  0.0974
 2220TIP3    H228220   0.107   4.371   3.261  0.2819  0.0082  0.2595
 2221TIP3   OH228221   1.542   2.187   1.643  0.8259  0.5516 -0.1975
 2221TIP3    H128222   1.613   2.131   1.675  1.0047  1.5477  1.2695
 2221TIP3    H228223   1.466   2.128   1.638  0.8227  0.2597  2.0266
 2222TIP3   OH228224   1.183   1.545   7.838  0.0416 -0.5752  1.4621
 2222TIP3    H128225   1.202   1.463   7.794 -0.3020  0.8128 -1.5100
 2222TIP3    H228226   1.242   1.608   7.798 -1.9002  1.2532  1.2817
 2223TIP3   OH228227   1.088   6.353   2.202 -0.0001  0.1676  0.3346
 2223TIP3    H128228   1.147   6.292   2.246 -1.3112 -0.4064  1.3877
 2223TIP3    H228229   1.000   6.323   2.227 -0.7332  1.1994 -0.8861
 2224TIP3   OH228230   0.346   5.568   1.813 -0.2392  0.3883  0.1792
 2224TIP3    H128231   0.331   5.506   1.742 -4.1300  0.0321  1.1291
 2224TIP3    H228232   0.323   5.519   1.892 -0.8313  2.2483  1.1969
 2225TIP3   OH228233   6.731   4.637   7.579  0.0814 -0.0124  0.1304
 2225TIP3    H128234   6.668   4.597   7.519 -1.2930  1.1194  0.7390
 2225TIP3    H228235   6.679   4.657   7.657  1.4143  0.1712  0.9908
 2226TIP3   OH228236   1.108   0.573   8.703  0.0470  0.0443 -0.7392
 2226TIP3    H128237   1.047   0.617   8.645 -1.6642  0.5677  1.3187
 2226TIP3    H228238   1.190   0.569   8.654 -0.4646  3.0667 -2.0406
 2227TIP3   OH228239   2.110   5.060   8.214 -0.3409 -0.0972  0.1849
 2227TIP3    H128240   2.180   5.001   8.189  0.3858  0.2696  1.2913
 2227TIP3    H228241   2.046   5.004   8.258 -0.3977 -0.3137 -0.1715
 2228TIP3   OH228242   3.862   6.317   0.710 -1.0038  0.3532 -0.0208
 2228TIP3    H128243   3.919   6.364   0.770 -0.4836  0.7361 -0.7956
 2228TIP3    H228244   3.908   6.237   0.689  0.0907  1.4047 -1.9490
 2229TIP3   OH228245   0.448   1.243   1.401  0.1567 -0.4193 -0.0971
 2229TIP3    H128246   0.362   1.235   1.442  0.6512 -1.3952  0.7739
 2229TIP3    H228247   0.459   1.161   1.353  0.4681 -0.1501 -0.4899
 2230TIP3   OH228248   2.551   6.655   2.536 -0.1854 -0.0329 -0.1996
 2230TIP3    H128249   2.553   6.750   2.550 -1.3198  0.2060 -1.4598
 2230TIP3    H228250   2.643   6.630   2.523 -0.0234  1.2115 -1.7155
 2231TIP3   OH228251   4.509   1.806   2.695 -0.9055 -0.3298 -0.8377
 2231TIP3    H128252   4.547   1.720   2.713  0.9782  0.2185 -1.8850
 2231TIP3    H228253   4.540   1.861   2.767  0.9641  0.2729 -2.0269
 2232TIP3   OH228254   0.812   5.152   2.835 -0.3540  0.2419  0.4636
 2232TIP3    H128255   0.717   5.150   2.842 -0.2816 -1.9886  1.7763
 2232TIP3    H228256   0.830   5.127   2.744 -1.0435 -1.6911  0.8091
 2233TIP3   OH228257   1.473   6.193   0.686 -0.0227 -0.2941  0.4757
 2233TIP3    H128258   1.401   6.136   0.660  1.2034 -2.5265  1.7619
 2233TIP3    H228259   1.504   6.231   0.604 -2.1692  0.1942 -0.1823
 2234TIP3   OH228260   3.914   6.742   2.397 -0.0694  0.2094 -0.1842
 2234TIP3    H128261   3.913   6.661   2.346 -1.9987 -0.2173  0.4425
 2234TIP3    H228262   4.007   6.762   2.408  0.4413 -0.3066 -2.8132
 2235TIP3   OH228263   1.139   4.878   8.462 -0.2710 -0.0512  0.3472
 2235TIP3    H128264   1.114   4.799   8.414 -0.7294  1.0378 -1.2796
 2235TIP3    H228265   1.058   4.930   8.466  0.4259  1.1150 -0.1902
 2236TIP3   OH228266   0.445   5.272   1.861 -0.6857  0.0563  0.4551
 2236TIP3    H128267   0.397   5.320   1.928 -2.7483 -1.4237  0.1345
 2236TIP3    H228268   0.387   5.274   1.784  0.0356 -1.2657 -0.1599
 2237TIP3   OH228269   6.409   1.478   1.770  0.0613 -0.5368 -0.5781
 2237TIP3    H128270   6.436   1.566   1.746  1.3104 -0.7810 -0.1560
 2237TIP3    H228271   6.462   1.457   1.847 -0.6446 -1.4361 -0.3148
 2238TIP3   OH228272   5.747   0.352   8.523 -0.6251  0.5399 -0.5505
 2238TIP3    H128273   5.826   0.405   8.535  1.1405 -2.0643  0.2034
 2238TIP3    H228274   5.760   0.277   8.581 -2.8846 -0.8279 -1.6913
 2239TIP3   OH228275   5.932   5.535   8.227  0.1365  0.4719 -0.1685
 2239TIP3    H128276   5.903   5.625   8.241 -1.3450  0.0168 -0.1400
 2239TIP3    H228277   5.953   5.502   8.314 -1.2362  0.1920  0.0823
 2240TIP3   OH228278   1.532   4.015   7.598 -0.0850  0.0830 -0.1127
 2240TIP3    H128279   1.467   4.074   7.561 -0.7758 -0.4394  0.2177
 2240TIP3    H228280   1.542   4.044   7.689  0.1629  0.1846 -0.1739
 2241TIP3   OH228281   1.982   5.286   7.717 -0.0736 -0.4075 -0.6639
 2241TIP3    H128282   1.911   5.343   7.747  0.2455 -0.9713  1.3459
 2241TIP3    H228283   1.973   5.207   7.771 -0.5046 -2.3329 -3.3232
 2242TIP3   OH228284   1.087   1.352   7.430 -0.1806 -0.4469 -1.1749
 2242TIP3    H128285   1.024   1.412   7.392  1.0735  1.0288 -1.0263
 2242TIP3    H228286   1.075   1.270   7.382 -3.1635 -0.6991 -0.1781
 2243TIP3   OH228287   5.520   1.305   8.770 -0.1835 -0.2287  0.2499
 2243TIP3    H128288   5.587   1.240   8.750 -0.7001 -0.5531 -0.4623
 2243TIP3    H228289   5.473   1.317   8.688  0.1101  1.2979  0.2679
 2244TIP3   OH228290   2.813   2.128   0.740 -0.1471  0.6239 -0.5654
 2244TIP3    H128291   2.746   2.063   0.720  0.6926 -0.1127 -1.0132
 2244TIP3    H228292   2.779   2.210   0.702 -1.1487  0.4407 -0.1011
 2245TIP3   OH228293   1.371   1.523   2.467 -0.7164 -0.6283  0.2004
 2245TIP3    H128294   1.348   1.431   2.462 -1.3120 -0.4445 -0.5648
 2245TIP3    H228295   1.349   1.558   2.381  0.6601 -0.0326  0.0694
 2246TIP3   OH228296   6.533   2.830   2.016  0.6861 -0.2352 -0.6900
 2246TIP3    H128297   6.558   2.894   1.949  0.3460  0.3703 -0.2395
 2246TIP3    H228298   6.560   2.869   2.099  0.0379 -0.4634 -0.3667
 2247TIP3   OH228299   5.910   0.133   0.122  0.1647  0.0779 -0.9012
 2247TIP3    H128300   5.929   0.225   0.139  1.7378 -0.4340  0.3544
 2247TIP3    H228301   5.816   0.125   0.136  0.2733  1.1627  0.6927
 2248TIP3   OH228302   1.745   2.436   1.158 -0.0215  0.5558 -0.1880
 2248TIP3    H128303   1.672   2.435   1.096  1.4011 -0.4587 -1.9609
 2248TIP3    H228304   1.798   2.512   1.133  0.3783  0.3436 -0.0130
 2249TIP3   OH228305   1.741   6.255   0.374 -0.2546  0.8008 -0.0636
 2249TIP3    H128306   1.750   6.204   0.455 -0.1513  0.4655 -0.2815
 2249TIP3    H228307   1.664   6.310   0.389 -1.1500 -0.3547 -0.3052
 2250TIP3   OH228308   0.958   0.194   2.212 -0.1122  0.4739  0.6788
 2250TIP3    H128309   1.034   0.244   2.241 -2.4608  5.1824 -0.3245
 2250TIP3    H228310   0.907   0.179   2.292  0.1189  0.6197  0.8539
 2251TIP3   OH228311   6.518   2.264   7.825 -0.1748  0.0983 -0.1333
 2251TIP3    H128312   6.453   2.205   7.864 -1.2596  1.1346 -0.3155
 2251TIP3    H228313   6.523   2.338   7.885 -1.5117  1.4944 -1.6421
 2252TIP3   OH228314   6.505   1.473   8.082 -0.0163  0.0402 -0.3184
 2252TIP3    H128315   6.451   1.443   8.009 -0.4029  0.9363 -0.4129
 2252TIP3    H228316   6.464   1.555   8.110  0.5552  0.0791  0.4354
 2253TIP3   OH228317   1.229   5.042   7.111  0.3034  0.3252 -0.1487
 2253TIP3    H128318   1.208   5.115   7.169  1.6006 -0.9829  2.1453
 2253TIP3    H228319   1.305   5.000   7.152  0.8879 -1.1152 -2.4827
 2254TIP3   OH228320   3.941   4.447   8.298  0.5492 -0.4616 -0.0564
 2254TIP3    H128321   3.868   4.501   8.268 -1.8694 -2.7435  1.2527
 2254TIP3    H228322   3.953   4.382   8.229  0.2837 -1.0404  0.4440
 2255TIP3   OH228323   5.051   5.166   8.102 -0.4070  0.2058  0.3672
 2255TIP3    H128324   5.049   5.094   8.038 -0.2856 -1.2422  1.8998
 2255TIP3    H228325   4.960   5.178   8.127 -0.3175 -0.1718  0.8906
 2256TIP3   OH228326   2.081   3.059   3.034  0.2366 -0.6491 -0.1164
 2256TIP3    H128327   2.174   3.070   3.015  0.0601 -1.8718 -1.9602
 2256TIP3    H228328   2.036   3.098   2.959 -0.6989 -1.1638  0.1515
 2257TIP3   OH228329   0.656   0.360   0.053 -1.0771  0.0060 -0.0216
 2257TIP3    H128330   0.634   0.390   0.142  0.9898 -1.4577  1.0529
 2257TIP3    H228331   0.584   0.302   0.029 -0.8550 -0.8888  1.3954
 2258TIP3   OH228332   0.286   5.784   1.102  0.4603  0.0465 -0.3166
 2258TIP3    H128333   0.240   5.767   1.019 -2.5201 -0.6360  1.3267
 2258TIP3    H228334   0.306   5.697   1.136 -1.4218  0.1442  1.1890
 2259TIP3   OH228335   0.085   5.554   0.864  0.0749 -0.2304  0.1987
 2259TIP3    H128336   0.081   5.599   0.948 -0.0710 -0.2820  0.2194
 2259TIP3    H228337  -0.003   5.517   0.852 -0.2164  0.6392 -0.4421
 2260TIP3   OH228338   4.383   3.983   8.317  0.4094  0.6392 -0.7528
 2260TIP3    H128339   4.421   4.071   8.314  0.4320  0.6276 -0.8025
 2260TIP3    H228340   4.436   3.936   8.382  0.8039  0.4685 -1.1967
 2261TIP3   OH228341   0.244   4.952   0.237  0.7001 -0.1170  0.0485
 2261TIP3    H128342   0.223   5.014   0.307 -0.8477  0.5095 -0.9292
 2261TIP3    H228343   0.231   5.002   0.156 -0.1967 -1.5983 -0.7487
 2262TIP3   OH228344   0.393   4.739   0.670  0.1819 -0.1216  0.1181
 2262TIP3    H128345   0.389   4.645   0.686 -1.5376  0.2121  2.1739
 2262TIP3    H228346   0.365   4.750   0.580 -0.1787 -1.5357  0.0424
 2263TIP3   OH228347   2.836   0.148   7.788 -0.5075  0.3573  0.0354
 2263TIP3    H128348   2.887   0.073   7.818 -0.3845  0.5038  0.1893
 2263TIP3    H228349   2.795   0.117   7.707 -2.4902 -0.7530  1.3740
 2264TIP3   OH228350   4.463   1.545   1.461 -0.4527 -0.0286 -0.0288
 2264TIP3    H128351   4.371   1.570   1.450 -0.1562  0.6505 -1.0767
 2264TIP3    H228352   4.499   1.609   1.522 -0.9687 -1.0682  1.4301
 2265TIP3   OH228353   5.662   6.769   0.977  0.8754  0.5775  0.0472
 2265TIP3    H128354   5.652   6.848   1.030 -2.6045  0.7069 -0.5728
 2265TIP3    H228355   5.667   6.698   1.040  2.8687  1.1366  0.5840
 2266TIP3   OH228356   2.836   0.716   8.423 -0.2219 -0.0529 -0.0098
 2266TIP3    H128357   2.890   0.771   8.479 -0.5406  0.6277 -0.3538
 2266TIP3    H228358   2.792   0.656   8.483  2.4986 -2.0827  0.0985
 2267TIP3   OH228359   6.655   0.860   8.036 -0.3192  0.0964  0.0492
 2267TIP3    H128360   6.647   0.765   8.042 -0.9204  0.1098 -0.4986
 2267TIP3    H228361   6.750   0.876   8.037 -0.1892 -0.5651 -0.7090
 2268TIP3   OH228362   4.550   0.863   0.001  0.2224  0.3415  0.9231
 2268TIP3    H128363   4.500   0.803  -0.054  0.6345 -0.2169  1.1473
 2268TIP3    H228364   4.611   0.807   0.049 -0.4663  0.7537  2.3287
 2269TIP3   OH228365   6.230   2.717   8.445  0.4266  0.6571 -0.2579
 2269TIP3    H128366   6.285   2.771   8.387  0.0471 -0.5105 -1.7731
 2269TIP3    H228367   6.159   2.687   8.388 -0.4155  0.1188  1.0478
 2270TIP3   OH228368   4.106   2.603   1.459 -0.0131 -0.1630  0.4234
 2270TIP3    H128369   4.050   2.665   1.506  0.3123  0.2796  0.2296
 2270TIP3    H228370   4.176   2.656   1.423 -0.3982 -0.4576 -0.8033
 2271TIP3   OH228371   0.817   6.289   0.856  0.4180  0.2346 -0.2656
 2271TIP3    H128372   0.836   6.356   0.921 -0.6777 -0.4202  0.7662
 2271TIP3    H228373   0.900   6.243   0.845  0.9432  1.1719 -0.3068
 2272TIP3   OH228374   0.237   3.194   8.676  0.4826 -1.3272  0.2833
 2272TIP3    H128375   0.154   3.151   8.657  0.1686 -0.7915  0.4320
 2272TIP3    H228376   0.221   3.287   8.660  0.6066 -1.0209  1.7805
 2273TIP3   OH228377   6.652   0.911   8.709  0.4374 -0.1074  0.8668
 2273TIP3    H128378   6.580   0.923   8.771  1.2734  0.9595  1.6643
 2273TIP3    H228379   6.631   0.970   8.636  0.1893 -0.2739  0.8025
 2274TIP3   OH228380   3.664   5.693   0.949 -0.4633  0.5304 -0.0350
 2274TIP3    H128381   3.666   5.597   0.949 -1.9314  0.4784  1.3037
 2274TIP3    H228382   3.756   5.718   0.936  0.1913 -1.0521  1.2316
 2275TIP3   OH228383   4.210   1.331   1.708 -0.0240 -0.3867  0.1718
 2275TIP3    H128384   4.132   1.338   1.763 -0.7559 -0.9977 -0.7527
 2275TIP3    H228385   4.191   1.387   1.633  1.8347  2.1284  1.4548
 2276TIP3   OH228386   1.295   5.326   0.535 -0.3048 -0.0609 -0.2393
 2276TIP3    H128387   1.299   5.398   0.598 -1.3532 -2.1288  2.4341
 2276TIP3    H228388   1.377   5.278   0.549 -1.6567 -2.0384  1.7122
 2277TIP3   OH228389   4.422   4.223   8.205 -0.3743 -0.1390 -0.2443
 2277TIP3    H128390   4.461   4.224   8.118  0.1667  2.0840 -0.0336
 2277TIP3    H228391   4.328   4.230   8.189 -0.3284 -0.4363 -0.6559
 2278TIP3   OH228392   6.483   0.085   8.485 -0.2811  0.1459  0.0347
 2278TIP3    H128393   6.548   0.060   8.420  0.5059 -1.1965  1.2621
 2278TIP3    H228394   6.514   0.169   8.519  0.1458  0.1066 -0.2441
 2279TIP3   OH228395   4.751   4.637   1.059 -0.0937  0.1826  0.5264
 2279TIP3    H128396   4.795   4.561   1.020 -0.0769  0.3807  0.1576
 2279TIP3    H228397   4.785   4.712   1.010 -2.7643  0.1500 -1.5898
 2280TIP3   OH228398   0.731   5.278   3.154 -0.3128  0.3793 -0.4559
 2280TIP3    H128399   0.689   5.247   3.074  0.4061  1.9671 -1.5107
 2280TIP3    H228400   0.719   5.373   3.152  1.6479  0.6938  0.1454
 2281TIP3   OH228401   1.099   0.129   3.472  0.0578  0.1758  0.1649
 2281TIP3    H128402   1.105   0.035   3.486 -1.2645 -0.5607 -3.3234
 2281TIP3    H228403   1.139   0.144   3.387 -0.8950  2.5521  0.0528
 2282TIP3   OH228404   4.414   5.633   7.641  0.3915 -0.3433 -0.4731
 2282TIP3    H128405   4.484   5.574   7.616  1.5550  0.8667 -0.1759
 2282TIP3    H228406   4.433   5.715   7.595  1.3053  1.2027  2.3532
 2283TIP3   OH228407   1.685   5.099   1.820 -0.1050 -0.6135  0.2856
 2283TIP3    H128408   1.770   5.074   1.783 -0.4722 -1.7595  0.1614
 2283TIP3    H228409   1.626   5.098   1.745 -0.3070 -0.2041  0.4395
 2284TIP3   OH228410   1.861   1.072   1.577  1.1148  0.4993 -0.0927
 2284TIP3    H128411   1.845   1.056   1.670 -0.2832  0.5632 -0.2949
 2284TIP3    H228412   1.951   1.044   1.563  1.3258  0.4203  1.2659
 2285TIP3   OH228413   3.859   3.362   0.651 -0.1887 -0.2015  0.4700
 2285TIP3    H128414   3.933   3.423   0.655 -0.5376  0.2453  0.2991
 2285TIP3    H228415   3.886   3.286   0.702 -0.7799  1.2068  3.0707
 2286TIP3   OH228416   5.469   1.211   0.389  0.3167 -0.6198  0.2531
 2286TIP3    H128417   5.477   1.214   0.484 -0.8044  0.5996  0.3423
 2286TIP3    H228418   5.463   1.117   0.369  1.0300 -0.9160  1.3240
 2287TIP3   OH228419   2.104   4.504   0.917 -0.4375 -0.3822 -0.5568
 2287TIP3    H128420   2.199   4.512   0.923 -0.4263 -0.8858  0.1192
 2287TIP3    H228421   2.086   4.414   0.944 -1.2080  0.1268  0.7174
 2288TIP3   OH228422   6.135   1.075   8.098  0.0787  0.7672 -0.2280
 2288TIP3    H128423   6.119   1.149   8.040  0.4389  0.3260 -0.8974
 2288TIP3    H228424   6.100   1.103   8.183  0.1805  1.6809 -0.4823
 2289TIP3   OH228425   0.846   2.594   8.129 -0.4190  0.2472  0.1172
 2289TIP3    H128426   0.799   2.525   8.082 -1.0262  2.2166 -2.3827
 2289TIP3    H228427   0.935   2.593   8.091  0.2217 -0.5048  1.5856
 2290TIP3   OH228428   3.624   4.994   1.443  0.4972 -0.9063  0.6119
 2290TIP3    H128429   3.659   4.942   1.515 -0.9165  0.3150  2.2624
 2290TIP3    H228430   3.545   5.036   1.479  0.6388  1.0400 -1.1227
 2291TIP3   OH228431   1.470   2.561   0.754  0.1673 -0.1670 -0.5813
 2291TIP3    H128432   1.386   2.572   0.797 -0.0870 -0.0800 -1.0879
 2291TIP3    H228433   1.517   2.643   0.771 -0.0052 -0.0565 -0.6360
 2292TIP3   OH228434   0.534   5.376   0.911  0.2559 -0.1475  0.0177
 2292TIP3    H128435   0.520   5.295   0.960 -2.9770  0.3204  0.0663
 2292TIP3    H228436   0.492   5.362   0.827  0.6626  1.0695 -0.4158
 2293TIP3   OH228437   1.206   0.629   8.037 -0.0135  0.2642 -0.0221
 2293TIP3    H128438   1.240   0.649   7.950  1.6329 -2.0701 -0.0125
 2293TIP3    H228439   1.112   0.614   8.023  0.4269 -1.3891 -1.7076
 2294TIP3   OH228440   2.236   4.794   0.070  0.0482  0.1412  0.1750
 2294TIP3    H128441   2.226   4.854  -0.004  1.6576 -0.8075 -0.8665
 2294TIP3    H228442   2.148   4.759   0.085 -0.0703 -0.8318 -2.3684
 2295TIP3   OH228443   1.191   4.343   1.132 -0.0430 -0.1073  0.7629
 2295TIP3    H128444   1.282   4.313   1.119  1.1848  3.2156  0.7513
 2295TIP3    H228445   1.189   4.376   1.222 -0.7292  1.2725  0.2707
 2296TIP3   OH228446   4.023   4.655   1.198 -0.2719  0.2056 -0.3101
 2296TIP3    H128447   4.042   4.675   1.289 -1.8482 -0.3314  0.1591
 2296TIP3    H228448   4.108   4.636   1.159  0.2885 -0.9709  1.3956
 2297TIP3   OH228449   1.018   2.387   0.665  0.0070 -0.1188 -0.5435
 2297TIP3    H128450   0.970   2.314   0.626  1.1993 -0.1862 -1.9660
 2297TIP3    H228451   0.978   2.465   0.627 -2.4456  0.1945  2.2766
 2298TIP3   OH228452   5.285   5.281   0.768 -0.3722  0.3823  0.1893
 2298TIP3    H128453   5.247   5.357   0.814 -0.5124  0.2545  0.2848
 2298TIP3    H228454   5.313   5.222   0.838 -1.4068 -0.2240  0.1089
 2299TIP3   OH228455   1.057   6.681   2.378  0.1579 -0.2866  0.1009
 2299TIP3    H128456   1.108   6.605   2.405  0.5248  0.2596  0.9930
 2299TIP3    H228457   0.982   6.645   2.331  1.2572 -1.1230 -1.1022
 2300TIP3   OH228458   0.349   0.339   8.279  0.3197  0.0465 -0.0944
 2300TIP3    H128459   0.375   0.268   8.221  0.5843  0.3641 -0.3709
 2300TIP3    H228460   0.276   0.381   8.234  1.3110  1.0581 -0.8102
 2301TIP3   OH228461   3.023   5.874   7.615  0.2891  0.3063 -0.1125
 2301TIP3    H128462   3.044   5.786   7.646 -0.6231  1.2799  3.7302
 2301TIP3    H228463   2.927   5.874   7.608  0.2454  1.1036  0.3721
 2302TIP3   OH228464   0.612   0.499   7.478  0.0987 -0.0253 -0.1074
 2302TIP3    H128465   0.701   0.509   7.445  0.8535 -1.4334  1.3398
 2302TIP3    H228466   0.571   0.584   7.464  1.9143  0.9012 -0.1007
 2303TIP3   OH228467   3.135   5.676   1.918  0.5178  0.6573 -0.1174
 2303TIP3    H128468   3.059   5.618   1.922 -1.0032  2.5346 -0.6035
 2303TIP3    H228469   3.148   5.693   1.825  2.1812 -0.3754 -0.1240
 2304TIP3   OH228470   1.642   0.590   2.144 -0.3936 -0.3991  1.1793
 2304TIP3    H128471   1.664   0.561   2.055 -0.7412 -0.3711  1.0814
 2304TIP3    H228472   1.715   0.646   2.169 -1.1586  1.1516  0.1626
 2305TIP3   OH228473   6.724   1.505   7.668 -0.0176 -0.0322  0.3964
 2305TIP3    H128474   6.763   1.546   7.590  2.4023  0.3811  1.7256
 2305TIP3    H228475   6.657   1.447   7.633  1.6057 -0.5626 -2.0890
 2306TIP3   OH228476   3.582   6.664   2.268  1.1358 -0.8424  0.8780
 2306TIP3    H128477   3.510   6.600   2.272  1.2713 -0.9670  1.4535
 2306TIP3    H228478   3.615   6.657   2.178 -1.0563  0.8781 -0.1654
 2307TIP3   OH228479   5.798   3.481   1.387  0.2543 -0.3242 -0.4153
 2307TIP3    H128480   5.854   3.413   1.351  1.6320  0.3721  0.3359
 2307TIP3    H228481   5.798   3.465   1.482 -1.2045 -0.5730 -0.4218
 2308TIP3   OH228482   2.264   1.216   2.333  0.2189  0.2728  0.3152
 2308TIP3    H128483   2.265   1.290   2.273 -1.1867  0.2530  0.2484
 2308TIP3    H228484   2.357   1.201   2.354  0.5937  1.3625 -0.4924
 2309TIP3   OH228485   2.309   3.059   2.824 -0.1581 -0.2764 -0.0543
 2309TIP3    H128486   2.323   3.148   2.858 -1.0060  0.1272 -0.7283
 2309TIP3    H228487   2.387   3.011   2.851 -0.7753 -0.0031  2.5261
 2310TIP3   OH228488   5.738   0.864   1.244 -0.5330  0.0919  0.1873
 2310TIP3    H128489   5.815   0.902   1.287  1.6410 -2.3558 -1.2124
 2310TIP3    H228490   5.720   0.784   1.294 -1.4155  0.0122 -0.2460
 2311TIP3   OH228491   0.602   5.828   7.331  0.1825 -0.1531  0.4055
 2311TIP3    H128492   0.680   5.826   7.275 -0.2567  0.4956 -0.2439
 2311TIP3    H228493   0.637   5.823   7.420  0.9954  0.6478  0.1454
 2312TIP3   OH228494   4.679   5.441   0.607 -0.5746  0.2705  0.5573
 2312TIP3    H128495   4.633   5.512   0.651  1.9361  0.8295  2.4871
 2312TIP3    H228496   4.729   5.397   0.676  1.3091 -0.6446 -1.2537
 2313TIP3   OH228497   0.217   5.653   1.419 -0.0864  0.3668  0.2819
 2313TIP3    H128498   0.201   5.737   1.463  0.5268  0.5773  0.1162
 2313TIP3    H228499   0.294   5.669   1.365 -0.1595 -0.2165  0.0020
 2314TIP3   OH228500   5.049   1.897   0.001  0.1313  0.3176  0.2486
 2314TIP3    H128501   5.130   1.946  -0.015  2.0014 -2.0707  1.6826
 2314TIP3    H228502   5.030   1.912   0.094 -0.6450  0.2555  0.1031
 2315TIP3   OH228503   4.054   2.428   8.227  0.4417  0.1828  0.2227
 2315TIP3    H128504   4.128   2.474   8.265  0.6690  0.7439 -0.8578
 2315TIP3    H228505   4.093   2.355   8.178  0.0446 -1.8100  2.6549
 2316TIP3   OH228506   2.834   4.402   2.480 -0.0769 -0.4953  0.1288
 2316TIP3    H128507   2.902   4.466   2.458 -0.1295 -0.6620 -0.5458
 2316TIP3    H228508   2.775   4.449   2.539  0.0293  0.0010 -0.1522
 2317TIP3   OH228509   0.186   1.916   0.553 -0.3359 -0.6979 -0.0900
 2317TIP3    H128510   0.209   1.885   0.466 -0.1621  1.1397 -0.7407
 2317TIP3    H228511   0.268   1.948   0.590 -0.0765 -2.9001  1.4368
 2318TIP3   OH228512   1.869   1.109   1.862 -0.4515  0.1151 -0.8388
 2318TIP3    H128513   1.956   1.147   1.879  0.1685 -1.3966 -0.4416
 2318TIP3    H228514   1.856   1.049   1.935 -0.9973 -1.0825 -1.8983
 2319TIP3   OH228515   1.748   3.916   8.006 -0.0757  0.3857  0.5858
 2319TIP3    H128516   1.837   3.949   7.998 -0.1111  0.4826  0.5902
 2319TIP3    H228517   1.744   3.879   8.095  0.2535 -0.5047  0.2420
 2320TIP3   OH228518   3.616   3.339   7.337  0.9539 -0.2120 -0.9429
 2320TIP3    H128519   3.708   3.325   7.314  0.9733 -0.4757 -0.6996
 2320TIP3    H228520   3.619   3.391   7.417  0.8860  1.3426 -1.9012
 2321TIP3   OH228521   3.850   2.449   7.703  0.6161  0.1508  0.1260
 2321TIP3    H128522   3.847   2.380   7.769  0.2828 -0.2611 -0.3087
 2321TIP3    H228523   3.758   2.469   7.685  0.7101  0.7425  0.2782
 2322TIP3   OH228524   1.373   1.986   0.333  0.8879 -0.2294  0.8476
 2322TIP3    H128525   1.403   1.966   0.244  2.5383  2.3416  0.7181
 2322TIP3    H228526   1.453   1.984   0.386  0.2738  0.4843  1.8261
 2323TIP3   OH228527   0.621   2.123   7.766  0.5584 -0.2887 -0.0279
 2323TIP3    H128528   0.618   2.062   7.841  1.4857 -2.3128 -1.5332
 2323TIP3    H228529   0.715   2.130   7.746  0.3738  0.8176 -0.5662
 2324TIP3   OH228530   1.300   3.299   8.323  0.2588  0.2734  0.1234
 2324TIP3    H128531   1.344   3.379   8.351 -0.4508  0.9696 -0.6961
 2324TIP3    H228532   1.267   3.319   8.235  0.3073 -1.0131 -0.2130
 2325TIP3   OH228533   3.179   6.621   0.354  1.3205 -0.6574 -0.2065
 2325TIP3    H128534   3.113   6.691   0.353  3.4277  1.4300 -0.5022
 2325TIP3    H228535   3.128   6.541   0.370 -1.0521  1.0711  1.7152
 2326TIP3   OH228536   6.589   2.161   3.044  0.4133 -0.3861 -0.3423
 2326TIP3    H128537   6.679   2.188   3.062 -0.1959  1.2414  0.4694
 2326TIP3    H228538   6.550   2.236   3.000 -0.5837 -1.0411 -0.5976
 2327TIP3   OH228539   6.050   5.377   8.025 -0.3798 -0.3495  0.1772
 2327TIP3    H128540   5.992   5.440   8.068 -1.4215  0.4867 -2.2770
 2327TIP3    H228541   6.082   5.423   7.947 -1.1193 -2.7742 -1.6849
 2328TIP3   OH228542   3.362   0.537   8.221 -0.0247  0.4427 -0.4522
 2328TIP3    H128543   3.428   0.579   8.166 -0.9239  1.4668 -0.7981
 2328TIP3    H228544   3.312   0.610   8.258 -1.0947 -0.3052 -0.3675
 2329TIP3   OH228545   0.553   0.413   0.748  0.3811  0.1403  0.4646
 2329TIP3    H128546   0.509   0.365   0.819  1.9977 -1.3723  0.4989
 2329TIP3    H228547   0.619   0.466   0.793  0.6605  0.0380  0.1734
 2330TIP3   OH228548   2.301   6.200   2.086  0.3128  0.6544  0.3679
 2330TIP3    H128549   2.231   6.220   2.148  0.7995  1.3095  0.7158
 2330TIP3    H228550   2.381   6.214   2.136  0.7028  0.0188 -0.0604
 2331TIP3   OH228551   0.702   4.323   1.941 -0.4472 -0.0032  0.0637
 2331TIP3    H128552   0.685   4.361   2.027  1.6635  0.1590  0.4463
 2331TIP3    H228553   0.629   4.261   1.928 -1.2924  0.6255  1.5438
 2332TIP3   OH228554   2.777   2.643   2.349  0.0520 -0.1537  0.5826
 2332TIP3    H128555   2.830   2.705   2.399  1.0056  0.9180 -1.6333
 2332TIP3    H228556   2.736   2.696   2.281 -0.2154 -1.7433 -0.5474
 2333TIP3   OH228557   4.749   0.341   7.880  0.0618  0.1809 -0.3179
 2333TIP3    H128558   4.729   0.430   7.910 -0.3431  0.0751 -0.2679
 2333TIP3    H228559   4.796   0.354   7.798  1.1552  0.4746  0.3343
 2334TIP3   OH228560   5.640   0.230   3.608 -0.0830 -0.3600 -0.3414
 2334TIP3    H128561   5.619   0.324   3.606  1.4495  0.0551  0.9228
 2334TIP3    H228562   5.637   0.203   3.517 -3.4615  0.1914 -0.5286
 2335TIP3   OH228563   2.342   1.173   3.416 -0.9610 -0.0419 -0.0761
 2335TIP3    H128564   2.249   1.178   3.437 -0.8000  2.7866  0.3522
 2335TIP3    H228565   2.350   1.220   3.332  0.0324 -0.5104 -0.2570
 2336TIP3   OH228566   2.916   0.525   0.863 -0.5762 -0.1302 -0.1377
 2336TIP3    H128567   2.893   0.471   0.938 -1.8280  1.7332  0.9121
 2336TIP3    H228568   2.993   0.574   0.891 -0.4068 -0.1975 -0.4771
 2337TIP3   OH228569   3.633   6.725   1.248  0.4427  0.3619  0.1068
 2337TIP3    H128570   3.645   6.819   1.265 -1.7972  0.5094  1.2721
 2337TIP3    H228571   3.586   6.722   1.164  1.2041  0.2200 -0.3235
 2338TIP3   OH228572   2.510   4.738   0.922  0.0050  0.0744  0.1293
 2338TIP3    H128573   2.585   4.751   0.981 -0.6235 -0.9097  1.1902
 2338TIP3    H228574   2.435   4.771   0.971 -0.4272 -0.0710 -0.4242
 2339TIP3   OH228575   0.500   0.137   8.134 -0.3358  0.9744 -0.3926
 2339TIP3    H128576   0.490   0.108   8.044  0.0440  0.6709 -0.3398
 2339TIP3    H228577   0.566   0.207   8.130  1.2065 -0.3990 -0.1042
 2340TIP3   OH228578   3.397   6.241   0.783  0.5648  0.0892  0.4767
 2340TIP3    H128579   3.302   6.242   0.793  0.2590  1.7913 -1.7408
 2340TIP3    H228580   3.425   6.158   0.821 -1.8002 -0.4975  1.0735
 2341TIP3   OH228581   2.939   0.144   8.363  0.0017 -0.4699 -0.5848
 2341TIP3    H128582   3.004   0.213   8.364  0.9316 -1.2894  1.6973
 2341TIP3    H228583   2.974   0.079   8.302  0.3186 -0.0466 -0.8587
 2342TIP3   OH228584   3.231   4.177   3.103 -0.3721 -0.0812  0.3310
 2342TIP3    H128585   3.238   4.093   3.056  1.3832 -2.5385  4.4201
 2342TIP3    H228586   3.322   4.200   3.123 -0.9040  2.3348  0.1816
 2343TIP3   OH228587   2.996   2.080   3.011 -0.2429 -0.7101 -0.0094
 2343TIP3    H128588   3.037   2.047   3.091 -1.2888 -1.7553  0.1211
 2343TIP3    H228589   2.962   2.166   3.035  0.7028 -0.3987  0.2486
 2344TIP3   OH228590   0.977   4.458   3.372 -0.1088 -0.0583  0.1355
 2344TIP3    H128591   1.017   4.421   3.292  0.7110 -0.3519  0.6695
 2344TIP3    H228592   1.019   4.543   3.383 -0.5115  0.1580  0.0486
 2345TIP3   OH228593   6.305   0.627   2.763  0.6843 -0.2878  0.3133
 2345TIP3    H128594   6.272   0.559   2.704  3.4579 -1.0202 -0.5302
 2345TIP3    H228595   6.349   0.578   2.833 -0.2915  0.6289  1.6197
 2346TIP3   OH228596   4.160   5.369   0.223 -0.5132  0.4318 -0.0527
 2346TIP3    H128597   4.204   5.369   0.139 -1.3525  1.6065 -0.5253
 2346TIP3    H228598   4.075   5.410   0.206 -0.9180  0.2079  1.2550
 2347TIP3   OH228599   1.787   5.520   7.237  0.0353 -0.4552  0.0378
 2347TIP3    H128600   1.866   5.475   7.266 -0.4608 -2.4828 -1.5024
 2347TIP3    H228601   1.791   5.605   7.279  2.7067 -0.7284  0.5224
 2348TIP3   OH228602   5.808   2.589   0.383 -0.2164  0.4067  0.5142
 2348TIP3    H128603   5.886   2.609   0.330 -0.3250 -0.9687 -0.2048
 2348TIP3    H228604   5.832   2.509   0.431 -2.2111 -1.9577 -2.1121
 2349TIP3   OH228605   2.763   6.562   0.432 -0.0273 -0.0513  0.1776
 2349TIP3    H128606   2.678   6.592   0.463  0.3744 -1.2950  2.7029
 2349TIP3    H228607   2.820   6.639   0.438 -0.6639  0.4600 -0.3017
 2350TIP3   OH228608   6.479   2.243   2.531 -0.0946 -0.2911  0.1535
 2350TIP3    H128609   6.477   2.216   2.439 -1.1909  0.7403 -0.1411
 2350TIP3    H228610   6.488   2.161   2.580 -3.8233 -1.3799 -0.6675
 2351TIP3   OH228611   0.130   6.573   2.523 -0.5134  0.1222 -0.1196
 2351TIP3    H128612   0.208   6.628   2.529 -0.6457  0.2403  0.6346
 2351TIP3    H228613   0.099   6.585   2.433 -0.1601  0.7554 -0.1660
 2352TIP3   OH228614   5.521   5.808   8.125  0.0752  0.3173  0.5554
 2352TIP3    H128615   5.583   5.823   8.197  0.6324 -0.1711  0.1834
 2352TIP3    H228616   5.565   5.843   8.048 -0.0836 -0.0907  0.2767
 2353TIP3   OH228617   3.754   5.174   2.156  0.1585  0.5918  0.5825
 2353TIP3    H128618   3.700   5.102   2.188  2.7488 -1.6009  0.3452
 2353TIP3    H228619   3.828   5.179   2.216  0.1850  2.9704  0.4629
 2354TIP3   OH228620   5.591   4.643   0.763 -0.1970 -0.0330 -0.3695
 2354TIP3    H128621   5.672   4.691   0.750  1.4635 -2.0363  1.7326
 2354TIP3    H228622   5.618   4.560   0.803 -3.3436 -0.3451  1.4451
 2355TIP3   OH228623   4.557   4.940   8.448  0.2930 -0.4381 -0.1245
 2355TIP3    H128624   4.634   4.949   8.393 -0.3651  1.3565 -0.8297
 2355TIP3    H228625   4.501   4.879   8.400 -0.1779  0.9342 -1.4147
 2356TIP3   OH228626   4.318   5.918   8.333  0.4002  0.2443  0.3453
 2356TIP3    H128627   4.224   5.902   8.325  0.3524  0.9536 -0.7601
 2356TIP3    H228628   4.355   5.833   8.354 -0.3107 -0.3990 -0.9032
 2357TIP3   OH228629   3.419   6.066   2.130 -0.4584  0.8191 -0.3776
 2357TIP3    H128630   3.514   6.058   2.138  0.0559  2.8690 -3.2314
 2357TIP3    H228631   3.391   6.101   2.215  0.5859 -3.6172  2.1548
 2358TIP3   OH228632   0.211   6.440   7.502 -0.1219  0.2538 -0.2546
 2358TIP3    H128633   0.201   6.515   7.444  0.1925  0.2990 -0.2510
 2358TIP3    H228634   0.125   6.429   7.542  0.5287  2.4653  2.0075
 2359TIP3   OH228635   2.887   5.239   0.020  0.0726  0.2854  0.2201
 2359TIP3    H128636   2.930   5.321   0.043 -1.4746  1.2675 -0.2785
 2359TIP3    H228637   2.904   5.181   0.094  2.9741  0.2881 -0.3128
 2360TIP3   OH228638   2.200   5.449   0.758  0.2247 -0.3902  0.1310
 2360TIP3    H128639   2.115   5.468   0.718 -0.4773 -2.0664  0.7329
 2360TIP3    H228640   2.189   5.472   0.850  0.8308  0.4976 -0.0025
 2361TIP3   OH228641   2.380   3.808   1.217  0.4542 -0.0570  0.0018
 2361TIP3    H128642   2.463   3.814   1.171  0.9512  1.0565  1.0014
 2361TIP3    H228643   2.349   3.899   1.222 -1.3604 -0.5451 -1.2835
 2362TIP3   OH228644   3.904   5.143   8.799  0.0247 -0.0883 -0.2445
 2362TIP3    H128645   3.818   5.123   8.837  0.0272 -0.0167 -0.2026
 2362TIP3    H228646   3.924   5.231   8.829  0.3599 -0.3094  0.1996
 2363TIP3   OH228647   3.292   0.136   0.091  0.0376 -0.4811 -0.1902
 2363TIP3    H128648   3.343   0.206   0.049 -0.5165 -0.5536 -1.0148
 2363TIP3    H228649   3.201   0.161   0.075 -0.2995  0.4563  2.5435
 2364TIP3   OH228650   1.797   5.643   1.113 -0.4203 -0.5251  0.0853
 2364TIP3    H128651   1.854   5.575   1.079 -0.1064  0.3151 -1.1296
 2364TIP3    H228652   1.735   5.596   1.169  0.0946 -1.7315 -0.3201
 2365TIP3   OH228653   1.400   4.826   8.009 -0.5375 -0.2462  0.5024
 2365TIP3    H128654   1.494   4.839   7.999 -0.7200 -0.4229 -2.1316
 2365TIP3    H228655   1.382   4.850   8.100  2.0718 -0.4985  1.1625
 2366TIP3   OH228656   2.664   2.159   8.128 -0.3101  0.3133 -0.5227
 2366TIP3    H128657   2.645   2.090   8.192 -0.9823  1.2904  0.3750
 2366TIP3    H228658   2.599   2.146   8.059 -0.3263 -0.0605 -0.4385
 2367TIP3   OH228659   3.015   0.535   0.400  0.1338 -0.0607  0.1051
 2367TIP3    H128660   2.971   0.502   0.322  1.7018  0.5363 -1.0827
 2367TIP3    H228661   3.102   0.561   0.370  0.2229  1.7520  1.6944
 2368TIP3   OH228662   5.291   4.877   7.080  0.0657 -0.5128 -0.1700
 2368TIP3    H128663   5.282   4.789   7.044  0.7843 -0.7665  0.2451
 2368TIP3    H228664   5.252   4.934   7.014  0.7442 -1.0383 -1.0475
 2369TIP3   OH228665   0.070   2.477   0.439  0.1136 -0.2360 -0.0506
 2369TIP3    H128666   0.039   2.442   0.356  1.4073  0.4307 -0.8434
 2369TIP3    H228667   0.001   2.454   0.502  0.0527 -2.5829 -0.8728
 2370TIP3   OH228668   1.240   4.344   2.079  0.1536 -0.2336 -0.0415
 2370TIP3    H128669   1.248   4.267   2.135 -2.2551 -0.5434  0.0037
 2370TIP3    H228670   1.229   4.309   1.990  0.5688  0.1253 -0.2390
 2371TIP3   OH228671   6.339   4.645   0.071  0.2459  0.0388  0.5410
 2371TIP3    H128672   6.376   4.702   0.003  0.6232  0.1171  0.8145
 2371TIP3    H228673   6.411   4.589   0.099  0.3014  0.5517  1.4512
 2372TIP3   OH228674   3.888   4.105   8.888  0.3422  0.7824 -0.1675
 2372TIP3    H128675   3.794   4.099   8.908  0.1013 -1.1843 -1.6103
 2372TIP3    H228676   3.903   4.197   8.867 -1.3438  1.0624 -0.2615
 2373TIP3   OH228677   4.671   2.061   1.562 -0.3335  0.1354  0.0080
 2373TIP3    H128678   4.607   2.132   1.571  2.3353  2.4856  2.5123
 2373TIP3    H228679   4.754   2.105   1.542  1.3408 -2.3055  1.0348
 2374TIP3   OH228680   1.261   1.301   8.759 -0.2036 -0.2129  0.5111
 2374TIP3    H128681   1.278   1.304   8.853  0.7171 -1.0816  0.3876
 2374TIP3    H228682   1.220   1.386   8.739  0.8351  0.5394  1.4558
 2375TIP3   OH228683   4.912   6.517   1.261  0.0592 -0.4407 -0.3917
 2375TIP3    H128684   4.827   6.495   1.300  0.1823  0.3384  0.3685
 2375TIP3    H228685   4.945   6.589   1.316  1.1861 -0.6957 -0.7138
 2376TIP3   OH228686   2.655   5.975   0.256 -0.2143  0.2360  0.0992
 2376TIP3    H128687   2.560   5.984   0.243 -0.3718  0.4727  1.3027
 2376TIP3    H228688   2.682   5.912   0.189 -1.1663  0.3974 -0.4577
 2377TIP3   OH228689   3.822   6.037   1.019 -0.2600  0.1018  0.8364
 2377TIP3    H128690   3.879   5.977   1.067  0.2751  0.8662  1.1811
 2377TIP3    H228691   3.882   6.103   0.984 -0.7425 -0.0059 -0.2213
 2378TIP3   OH228692   5.764   4.871   0.490 -0.0117 -0.4760 -0.6106
 2378TIP3    H128693   5.695   4.937   0.497  0.8455  0.3496  0.3657
 2378TIP3    H228694   5.806   4.889   0.406  0.5033  0.5422 -0.1540
 2379TIP3   OH228695   5.548   5.160   7.927  0.3270  0.2299  0.2204
 2379TIP3    H128696   5.620   5.219   7.908  0.5562  0.1930  0.9626
 2379TIP3    H228697   5.471   5.218   7.931  0.1320  0.1619 -1.4721
 2380TIP3   OH228698   0.706   6.218   8.057  0.0848  1.0000  0.1432
 2380TIP3    H128699   0.668   6.282   7.996 -1.8682  0.4330  0.6993
 2380TIP3    H228700   0.630   6.172   8.094  1.3476 -2.9813 -1.5956
 2381TIP3   OH228701   0.281   3.681   0.143 -0.5155  0.5008 -0.9042
 2381TIP3    H128702   0.301   3.772   0.120 -0.8109  0.3154 -1.9797
 2381TIP3    H228703   0.343   3.630   0.091  0.2961  0.1009  0.4179
 2382TIP3   OH228704   2.267   1.555   0.536 -0.2168 -0.0218 -0.1570
 2382TIP3    H128705   2.242   1.463   0.540  0.4033 -0.2416 -1.0035
 2382TIP3    H228706   2.361   1.555   0.553 -0.0954  0.3846 -0.7943
 2383TIP3   OH228707   2.114   5.330   8.124  0.6908 -0.3937  0.4389
 2383TIP3    H128708   2.130   5.329   8.030 -1.1855  0.3442  0.0643
 2383TIP3    H228709   2.106   5.238   8.149  2.0702 -0.6331  0.0686
 2384TIP3   OH228710   2.528   2.797   8.259 -0.4069 -0.2325  0.0916
 2384TIP3    H128711   2.444   2.842   8.272  0.3968  2.0275 -1.7839
 2384TIP3    H228712   2.593   2.867   8.258  1.1860 -1.6455 -1.0410
 2385TIP3   OH228713   5.988   2.624   7.878 -0.0744  0.1076 -0.3261
 2385TIP3    H128714   5.968   2.533   7.855 -0.9200  0.3676 -0.6816
 2385TIP3    H228715   5.970   2.674   7.798  0.8402  0.5329 -0.2770
 2386TIP3   OH228716   3.770   3.939   2.282 -0.2998  0.0307 -0.4581
 2386TIP3    H128717   3.770   3.858   2.333 -1.1305  0.1273 -0.2924
 2386TIP3    H228718   3.806   4.005   2.341 -0.6039 -0.0037 -0.2318
 2387TIP3   OH228719   2.079   6.255   2.627 -0.9159 -0.5473  0.8504
 2387TIP3    H128720   1.989   6.285   2.636 -0.5397  1.0225 -0.1706
 2387TIP3    H228721   2.116   6.264   2.715 -0.9381  1.7574  0.6962
 2388TIP3   OH228722   4.244   6.383   2.277 -0.3200  0.0669  0.8049
 2388TIP3    H128723   4.261   6.400   2.184  0.2782  0.3496  0.9651
 2388TIP3    H228724   4.174   6.317   2.276  0.4241 -0.7442  0.1408
 2389TIP3   OH228725   3.155   0.056   2.330  0.4059 -0.3930  0.2925
 2389TIP3    H128726   3.242   0.086   2.356  0.2075 -0.4587  1.0421
 2389TIP3    H228727   3.152  -0.036   2.357  0.3229 -0.5725 -0.2957
 2390TIP3   OH228728   0.621   5.104   7.746 -0.7453 -0.0393 -0.2375
 2390TIP3    H128729   0.649   5.020   7.712 -0.0774  0.4019 -0.8047
 2390TIP3    H228730   0.572   5.144   7.674  0.6853  0.9008 -0.7423
 2391TIP3   OH228731   0.257   0.874   0.297 -0.1466 -0.2676 -0.2701
 2391TIP3    H128732   0.335   0.878   0.242  0.9816  2.5639  1.2865
 2391TIP3    H228733   0.221   0.963   0.293 -2.4351 -1.0889  0.3056
 2392TIP3   OH228734   4.482   1.845   8.907  0.1359 -0.7168 -0.3507
 2392TIP3    H128735   4.402   1.852   8.854 -0.2040 -0.1557  0.2192
 2392TIP3    H228736   4.462   1.894   8.987  2.1719  2.3662 -1.5317
 2393TIP3   OH228737   6.322   5.553   8.445 -0.1072 -0.1014 -0.6148
 2393TIP3    H128738   6.265   5.525   8.373  1.0254 -1.7481 -0.9293
 2393TIP3    H228739   6.411   5.540   8.411  0.4501 -0.8736  1.0459
 2394TIP3   OH228740   3.683   5.427   7.008  0.6602  0.1623  0.0207
 2394TIP3    H128741   3.600   5.398   6.969  0.3866 -1.1076  1.4307
 2394TIP3    H228742   3.741   5.443   6.933 -0.8169  1.0351 -0.9924
 2395TIP3   OH228743   6.310   2.902   2.268 -0.0549 -0.3736  0.0142
 2395TIP3    H128744   6.385   2.962   2.274 -0.7204  0.5258 -0.3820
 2395TIP3    H228745   6.309   2.856   2.352  0.3053  0.3812  0.4450
 2396TIP3   OH228746   3.264   0.937   0.714  0.1900 -0.0890  0.0555
 2396TIP3    H128747   3.169   0.928   0.722  0.0925 -0.0326 -0.9079
 2396TIP3    H228748   3.280   0.939   0.619  1.5104 -3.9559  0.0496
 2397TIP3   OH228749   2.336   5.477   1.710 -0.3278 -0.6819  0.4835
 2397TIP3    H128750   2.289   5.401   1.677 -0.3651 -0.0567 -0.9925
 2397TIP3    H228751   2.283   5.552   1.683  0.3177 -0.0783  0.8374
 2398TIP3   OH228752   1.222   3.658   7.762  0.1644 -0.4407 -0.3400
 2398TIP3    H128753   1.311   3.672   7.730  1.7736 -2.6822  2.6573
 2398TIP3    H228754   1.192   3.579   7.716  0.6957 -1.0383  0.3118
 2399TIP3   OH228755   5.352   3.672   1.041  0.1352 -0.3993 -0.5926
 2399TIP3    H128756   5.437   3.634   1.063  0.6164  1.0569  0.2192
 2399TIP3    H228757   5.363   3.766   1.057 -2.5675 -0.4731  2.8939
 2400TIP3   OH228758   0.979   0.667   1.989 -0.5422  0.0580 -0.0098
 2400TIP3    H128759   1.025   0.703   2.065  1.2196 -0.2675 -0.8628
 2400TIP3    H228760   0.900   0.627   2.025  0.3448 -0.2595  1.6655
 2401TIP3   OH228761   0.667   1.447   1.688  0.3740 -0.1447 -0.3302
 2401TIP3    H128762   0.633   1.367   1.648 -0.7492  0.1161  0.0619
 2401TIP3    H228763   0.761   1.432   1.694  0.0911 -1.8463  0.6202
 2402TIP3   OH228764   4.208   4.741   8.503 -0.4306 -0.1883 -0.2720
 2402TIP3    H128765   4.195   4.651   8.474  0.8040 -0.2588 -0.6215
 2402TIP3    H228766   4.249   4.786   8.429 -0.8925  0.6311 -0.0505
 2403TIP3   OH228767   2.060   3.969   8.805  0.4683  0.3578  0.0006
 2403TIP3    H128768   1.991   3.942   8.745  1.2770  3.7034 -2.7187
 2403TIP3    H228769   2.026   4.047   8.849  1.6269  0.6491  0.4284
 2404TIP3   OH228770   4.456   3.435   8.573  0.4965 -0.2666  0.3635
 2404TIP3    H128771   4.400   3.495   8.622  1.5321  0.9949  0.0488
 2404TIP3    H228772   4.457   3.468   8.484  0.7012 -1.0393  0.0642
 2405TIP3   OH228773   6.111   6.528   2.869 -0.7011 -0.8958 -0.2178
 2405TIP3    H128774   6.206   6.538   2.861 -0.6448 -2.3689 -1.9621
 2405TIP3    H228775   6.093   6.440   2.835 -2.6417 -0.9040  0.6686
 2406TIP3   OH228776   5.619   0.315   0.482 -0.2350  0.1800  1.5071
 2406TIP3    H128777   5.698   0.370   0.488 -0.2980  0.8851 -2.1481
 2406TIP3    H228778   5.652   0.226   0.479  0.5002  0.4703 -0.0341
 2407TIP3   OH228779   0.701   3.727   0.757  0.7043  0.5428  0.5737
 2407TIP3    H128780   0.620   3.728   0.807 -0.5984  0.2191 -1.4146
 2407TIP3    H228781   0.769   3.749   0.821 -0.5198 -1.9870  2.9515
 2408TIP3   OH228782   6.658   1.287   1.027 -0.1429 -0.3697 -0.1501
 2408TIP3    H128783   6.585   1.343   1.002  0.0770  0.4168  0.9012
 2408TIP3    H228784   6.647   1.275   1.121  0.9671 -0.4035 -0.0121
 2409TIP3   OH228785   6.554   3.780   2.048 -0.3109 -0.0421  0.1396
 2409TIP3    H128786   6.474   3.820   2.015  0.4468  1.1198 -0.3416
 2409TIP3    H228787   6.550   3.791   2.143 -0.1128  1.1892  0.0131
 2410TIP3   OH228788   2.873   6.378   8.546  0.2932  0.4817 -0.4678
 2410TIP3    H128789   2.849   6.436   8.619 -1.9283  1.9299 -2.2161
 2410TIP3    H228790   2.801   6.315   8.542  3.0297 -3.2533  1.9305
 2411TIP3   OH228791   3.351   1.293   0.868 -0.0048 -0.0450  0.0419
 2411TIP3    H128792   3.395   1.212   0.896 -0.0949 -0.8120 -1.8677
 2411TIP3    H228793   3.270   1.262   0.827  0.4785  0.9227 -1.7089
 2412TIP3   OH228794   2.615   5.667   7.890  0.1886  0.6083 -0.5130
 2412TIP3    H128795   2.637   5.630   7.975  1.2821 -0.1055 -1.0701
 2412TIP3    H228796   2.521   5.652   7.880 -0.1715  1.6572  0.9939
 2413TIP3   OH228797   5.559   4.821   7.293 -0.2176 -0.2605  0.1312
 2413TIP3    H128798   5.613   4.817   7.371 -2.2562 -0.4576  1.6239
 2413TIP3    H228799   5.557   4.731   7.260 -0.4704 -0.4578  0.6760
 2414TIP3   OH228800   2.540   3.534   2.690  0.1838 -0.2536 -0.4627
 2414TIP3    H128801   2.539   3.467   2.759  1.1253 -1.0435 -1.1818
 2414TIP3    H228802   2.566   3.614   2.734 -2.1555 -0.0139  0.6680
 2415TIP3   OH228803   5.187   6.354   2.632  0.4344 -0.1648 -0.2447
 2415TIP3    H128804   5.114   6.317   2.582  1.2151  0.9144 -2.3332
 2415TIP3    H228805   5.263   6.340   2.576  1.8266 -1.0450  1.7754
 2416TIP3   OH228806   3.989   1.848   2.539  0.2613 -0.0992 -0.0781
 2416TIP3    H128807   3.947   1.887   2.463  0.4178  0.6421  0.2128
 2416TIP3    H228808   4.080   1.879   2.536  0.9084 -1.8775 -0.8391
 2417TIP3   OH228809   1.644   1.154   2.208  0.1844 -0.0236 -0.0992
 2417TIP3    H128810   1.739   1.163   2.211  0.1135  0.5873  0.6322
 2417TIP3    H228811   1.621   1.172   2.117  0.7262  0.2703 -0.1799
 2418TIP3   OH228812   0.343   0.040   0.567 -0.3875  0.2481 -0.6812
 2418TIP3    H128813   0.266   0.007   0.614 -0.5167 -1.0460 -1.7609
 2418TIP3    H228814   0.418   0.004   0.615 -0.4011  1.4982  0.3631
 2419TIP3   OH228815   5.622   5.608   0.470 -0.8317  0.4577  0.1926
 2419TIP3    H128816   5.650   5.606   0.562 -0.3995  0.5598  0.0683
 2419TIP3    H228817   5.698   5.643   0.424 -0.8557 -0.0860 -0.2670
 2420TIP3   OH228818   0.051   4.510   2.207  0.0807  0.0986 -0.2530
 2420TIP3    H128819  -0.034   4.552   2.219  0.4885  0.8059  0.1801
 2420TIP3    H228820   0.050   4.480   2.115  0.0203  1.5884 -0.7566
 2421TIP3   OH228821   3.448   5.857   7.757 -0.0008  0.4613 -0.1548
 2421TIP3    H128822   3.383   5.890   7.696  0.7349  2.9742  0.2846
 2421TIP3    H228823   3.531   5.864   7.710  0.3668  0.7409  0.5129
 2422TIP3   OH228824   1.419   5.269   8.683  0.4317  0.0492  0.0005
 2422TIP3    H128825   1.352   5.331   8.656  0.1739 -0.2576 -0.0743
 2422TIP3    H228826   1.398   5.248   8.774 -0.0966 -0.7131 -0.2898
 2423TIP3   OH228827   0.900   1.892   0.265 -0.4381 -0.4210 -0.4083
 2423TIP3    H128828   0.974   1.945   0.293 -0.7927 -0.3007  0.3434
 2423TIP3    H228829   0.931   1.845   0.187  0.5317 -0.6246  0.0875
 2424TIP3   OH228830   5.566   5.073   2.415  0.0282 -0.3831 -0.5099
 2424TIP3    H128831   5.546   4.996   2.468  0.5070  0.1772  0.5152
 2424TIP3    H228832   5.629   5.042   2.350 -1.7188 -1.4368 -1.7762
 2425TIP3   OH228833   4.482   4.938   8.901  0.5304  0.0444 -0.1094
 2425TIP3    H128834   4.443   5.025   8.890 -1.2717 -0.4927  1.5682
 2425TIP3    H228835   4.458   4.891   8.821  0.1416  0.6092 -0.3333
 2426TIP3   OH228836   5.906   2.486   1.927  0.6464  0.1208  0.1077
 2426TIP3    H128837   5.996   2.454   1.928  0.7770  0.4883  1.1111
 2426TIP3    H228838   5.860   2.426   1.868  1.0106 -1.6310  1.5072
 2427TIP3   OH228839   3.470   6.088   1.525 -0.4856  0.8453 -0.8334
 2427TIP3    H128840   3.392   6.046   1.563  0.4450  0.1794  0.4566
 2427TIP3    H228841   3.452   6.182   1.533 -1.4082  0.7101 -1.1221
 2428TIP3   OH228842   4.885   5.923   2.298 -0.3033  0.2995  0.2724
 2428TIP3    H128843   4.902   5.834   2.327 -1.4121  0.2709  0.8811
 2428TIP3    H228844   4.795   5.922   2.266 -0.6277  1.3835  1.0851
 2429TIP3   OH228845   3.363   2.917   0.697  0.4269  0.4981 -0.1645
 2429TIP3    H128846   3.339   2.917   0.789 -1.7610  0.7792 -0.6977
 2429TIP3    H228847   3.362   3.009   0.671 -0.4424  0.3063 -0.8238
 2430TIP3   OH228848   1.368   5.494   0.744  0.2356 -0.2165 -0.2558
 2430TIP3    H128849   1.347   5.553   0.671 -0.3539 -0.2590 -0.1169
 2430TIP3    H228850   1.464   5.485   0.739  0.0754 -1.3341 -1.8737
 2431TIP3   OH228851   4.441   0.353   2.492  0.2212  0.3838 -0.6963
 2431TIP3    H128852   4.357   0.351   2.539  1.9309  0.0388  2.6196
 2431TIP3    H228853   4.429   0.289   2.421 -2.2198  0.1713 -0.1952
 2432TIP3   OH228854   6.029   5.805   8.857  0.0297 -0.1492  0.3358
 2432TIP3    H128855   6.093   5.771   8.793 -0.4668 -1.1248  0.3339
 2432TIP3    H228856   6.064   5.777   8.942 -0.3520 -0.6350  0.3377
 2433TIP3   OH228857   0.011   1.376   0.713  0.1487 -0.3169  0.0279
 2433TIP3    H128858  -0.029   1.385   0.799  0.1229  0.9930 -0.1013
 2433TIP3    H228859   0.016   1.465   0.679  1.9101 -0.5789 -0.5331
 2434TIP3   OH228860   0.090   1.490   0.381  0.3283 -0.0645  0.0195
 2434TIP3    H128861   0.137   1.460   0.304  0.4513  0.9900 -0.3333
 2434TIP3    H228862  -0.002   1.493   0.353  0.5315  1.8267 -0.6410
 2435TIP3   OH228863   1.572   2.403   0.272  0.1518  0.0157  0.0882
 2435TIP3    H128864   1.586   2.333   0.209  0.8207  0.1433  0.0836
 2435TIP3    H228865   1.660   2.430   0.298 -0.1186 -0.3623  1.4508
 2436TIP3   OH228866   0.378   3.790   1.549 -0.0375 -0.4392 -0.1714
 2436TIP3    H128867   0.362   3.755   1.461  1.6452 -0.2952 -0.5613
 2436TIP3    H228868   0.469   3.767   1.568  0.6922  2.4398  0.1633
 2437TIP3   OH228869   5.085   3.374   7.352  0.2494 -0.1161 -0.2682
 2437TIP3    H128870   5.101   3.291   7.305  0.0163 -0.5233  0.3593
 2437TIP3    H228871   5.051   3.347   7.437  0.4544  0.6290  0.0545
 2438TIP3   OH228872   3.821   6.598   2.006  0.1911  0.1040 -0.3411
 2438TIP3    H128873   3.818   6.502   2.000 -1.6484  0.1558 -0.5993
 2438TIP3    H228874   3.826   6.616   2.100  0.7395 -0.2341 -0.2976
 2439TIP3   OH228875   4.997   5.989   8.388  0.1468 -0.8586 -0.2091
 2439TIP3    H128876   5.014   5.987   8.482 -0.7057 -0.6786 -0.0363
 2439TIP3    H228877   4.939   6.064   8.376  2.7214  1.0694 -1.3385
 2440TIP3   OH228878   3.104   1.122   8.540  0.1739  0.0779  0.0157
 2440TIP3    H128879   3.121   1.103   8.448 -1.3922 -1.5515  0.0070
 2440TIP3    H228880   3.165   1.192   8.562  1.7529 -0.6589 -1.7891
 2441TIP3   OH228881   0.535   1.133   0.373 -0.0782 -0.3187 -0.3107
 2441TIP3    H128882   0.607   1.075   0.397 -0.3216 -0.8465 -0.8278
 2441TIP3    H228883   0.496   1.092   0.296 -0.6049  0.2405 -0.3489
 2442TIP3   OH228884   3.434   4.904   1.219  0.2954  1.0151 -0.2695
 2442TIP3    H128885   3.421   4.875   1.129 -0.1378 -1.2722  0.4673
 2442TIP3    H228886   3.345   4.912   1.255  0.4901 -0.7689  0.7054
 2443TIP3   OH228887   2.792   6.054   1.387 -0.6945  0.0426  0.0466
 2443TIP3    H128888   2.712   6.057   1.336 -1.0238 -2.6878  0.2459
 2443TIP3    H228889   2.859   6.023   1.326  0.0821  1.5160  0.0868
 2444TIP3   OH228890   1.216   5.012   2.196 -0.0796 -0.1210  0.2981
 2444TIP3    H128891   1.249   4.922   2.185 -0.6571 -0.4717  1.3354
 2444TIP3    H228892   1.294   5.066   2.202  0.3083 -0.7879  1.4720
 2445TIP3   OH228893   3.372   5.774   2.711 -0.0849  0.2761 -0.2201
 2445TIP3    H128894   3.346   5.809   2.796  3.6524 -1.0157  1.6986
 2445TIP3    H228895   3.415   5.848   2.668 -0.9345  0.6136 -0.5066
 2446TIP3   OH228896   2.661   6.296   0.769 -0.2276  0.2041 -0.2141
 2446TIP3    H128897   2.631   6.262   0.685  1.6985 -2.2293 -0.0275
 2446TIP3    H228898   2.743   6.342   0.749 -0.7761  1.3741  0.1105
 2447TIP3   OH228899   3.470   1.309   8.219  0.2794 -0.4511  0.0443
 2447TIP3    H128900   3.467   1.232   8.276 -0.2134  0.3844  1.1908
 2447TIP3    H228901   3.545   1.294   8.162  0.0146 -1.9026  0.0567
 2448TIP3   OH228902   3.892   6.516   2.284 -0.3721  0.5561  0.0677
 2448TIP3    H128903   3.821   6.453   2.298  0.5764 -0.2872  1.2691
 2448TIP3    H228904   3.968   6.462   2.266  0.2642  1.3982  0.1973
 2449TIP3   OH228905   6.719   4.167   0.410 -0.0587  0.2501  0.3309
 2449TIP3    H128906   6.811   4.140   0.417  0.0826  0.7600  0.4098
 2449TIP3    H228907   6.691   4.130   0.326 -0.2874 -1.3963  1.0869
 2450TIP3   OH228908   3.413   6.349   1.548  0.3724 -1.1047  0.3132
 2450TIP3    H128909   3.334   6.393   1.515  0.2947 -0.4660  1.2881
 2450TIP3    H228910   3.485   6.393   1.504  0.2404 -0.7652  0.4322
 2451TIP3   OH228911   0.870   3.745   8.615  0.1770 -0.0160  0.4336
 2451TIP3    H128912   0.891   3.837   8.598 -0.1678  0.1712  0.9835
 2451TIP3    H228913   0.954   3.706   8.641  0.4663 -0.0301 -0.4848
 2452TIP3   OH228914   4.693   3.575   2.183 -0.2081 -0.2208 -0.0300
 2452TIP3    H128915   4.606   3.578   2.222 -0.6590 -0.2036 -1.0057
 2452TIP3    H228916   4.687   3.634   2.107  0.7215 -0.0387  0.0264
 2453TIP3   OH228917   6.374   3.006   0.411  0.0339  0.4439 -0.3460
 2453TIP3    H128918   6.462   2.969   0.405 -0.2478 -0.4672  0.7864
 2453TIP3    H228919   6.334   2.961   0.485 -1.2767  1.0887 -0.6304
 2454TIP3   OH228920   5.708   5.438   0.152  0.1069  0.1495 -0.2856
 2454TIP3    H128921   5.767   5.484   0.212 -0.0663  0.9133 -0.6814
 2454TIP3    H228922   5.650   5.387   0.209  0.1458  0.6154  0.1801
 2455TIP3   OH228923   1.186   6.542   2.641 -0.3446 -0.3324  0.0215
 2455TIP3    H128924   1.224   6.572   2.724 -0.1458  0.2457 -0.2727
 2455TIP3    H228925   1.258   6.498   2.596 -0.8205 -1.9092  0.7596
 2456TIP3   OH228926   4.432   3.433   2.396  0.2069  0.7685  0.0526
 2456TIP3    H128927   4.415   3.462   2.306 -0.2065  0.0274 -0.1130
 2456TIP3    H228928   4.463   3.343   2.388  1.5859  1.1695  0.5657
 2457TIP3   OH228929   2.444   5.736   0.969  0.0034  0.2427 -0.1189
 2457TIP3    H128930   2.416   5.827   0.956 -1.4088 -0.1720 -0.1741
 2457TIP3    H228931   2.426   5.693   0.886 -0.1376 -0.2706  0.1718
 2458TIP3   OH228932   4.156   2.358   1.163  0.0952  0.1489  0.0413
 2458TIP3    H128933   4.139   2.440   1.117 -0.5812 -0.1131 -0.1875
 2458TIP3    H228934   4.106   2.292   1.114 -0.2464 -0.2153  0.8564
 2459TIP3   OH228935   2.198   2.217   0.485 -0.1824  0.0571 -0.2727
 2459TIP3    H128936   2.143   2.164   0.542  1.1751 -0.1702  0.8793
 2459TIP3    H228937   2.157   2.304   0.485  1.2103  0.8948  3.3498
 2460TIP3   OH228938   5.939   0.248   3.256  0.0485  0.1797 -0.1139
 2460TIP3    H128939   5.955   0.193   3.332 -1.1409  0.8159  0.6352
 2460TIP3    H228940   5.844   0.241   3.240 -0.0218  1.4713 -0.3915
 2461TIP3   OH228941   3.918   0.625   8.497 -0.0200  0.4873  0.0148
 2461TIP3    H128942   4.000   0.659   8.533 -0.6057  1.3130  0.5980
 2461TIP3    H228943   3.849   0.667   8.549 -0.8273 -3.2594  2.3430
 2462TIP3   OH228944   6.294   4.600   2.787  0.4688 -0.2070 -0.2116
 2462TIP3    H128945   6.233   4.557   2.727  1.4466  0.1481 -1.5010
 2462TIP3    H228946   6.303   4.538   2.859 -0.1512 -1.0006 -0.7840
 2463TIP3   OH228947   4.433   1.543   0.087  0.0010 -0.3247  0.3727
 2463TIP3    H128948   4.400   1.460   0.120 -2.0448  0.1249 -0.3698
 2463TIP3    H228949   4.376   1.564   0.012  1.4509  0.9850 -0.4326
 2464TIP3   OH228950   5.732   0.738   0.774  0.1685 -0.7425 -0.0374
 2464TIP3    H128951   5.779   0.794   0.835 -0.7020  0.8819 -0.8044
 2464TIP3    H228952   5.792   0.665   0.756  2.1108  0.9040 -0.4944
 2465TIP3   OH228953   0.913   1.538   7.323  0.1597 -0.0200 -0.5695
 2465TIP3    H128954   0.930   1.632   7.318 -0.3997  0.1347  0.1742
 2465TIP3    H228955   0.826   1.527   7.285  0.6626 -0.3907 -1.6340
 2466TIP3   OH228956   6.523   6.569   0.776 -0.7233 -0.5192 -0.7987
 2466TIP3    H128957   6.447   6.571   0.718 -1.4609  0.8258  0.1823
 2466TIP3    H228958   6.535   6.659   0.804 -0.5302 -1.1554  1.3299
 2467TIP3   OH228959   0.427   2.046   0.627 -0.2866  0.4361 -0.0581
 2467TIP3    H128960   0.445   2.087   0.543  0.8544  1.4504  0.6560
 2467TIP3    H228961   0.513   2.041   0.671 -0.4069 -2.3078  0.0907
 2468TIP3   OH228962   1.650   0.537   3.757  0.0321 -0.8018 -0.1295
 2468TIP3    H128963   1.581   0.493   3.806  0.9175 -0.1517  1.7945
 2468TIP3    H228964   1.679   0.608   3.814 -0.2105  1.2804 -2.4309
 2469TIP3   OH228965   0.074   2.118   0.424  0.3086 -0.1684  0.2693
 2469TIP3    H128966   0.067   2.052   0.493  0.4601 -2.3773 -1.6932
 2469TIP3    H228967   0.011   2.090   0.358  0.9153  1.2522 -0.9591
 2470TIP3   OH228968   5.336   1.119   0.073  0.3044 -0.4514 -0.0546
 2470TIP3    H128969   5.360   1.211   0.082 -0.5973  0.0075 -1.7534
 2470TIP3    H228970   5.413   1.071   0.103  2.3249  0.8973 -2.5735
 2471TIP3   OH228971   3.396   6.097   2.845  0.0406  0.3607 -0.3278
 2471TIP3    H128972   3.435   6.091   2.758 -0.5764  1.7849 -0.7431
 2471TIP3    H228973   3.463   6.140   2.898 -0.2954  1.2710 -0.6157
 2472TIP3   OH228974   3.962   4.331   1.423  0.3890  0.2684  0.0208
 2472TIP3    H128975   4.011   4.375   1.354  0.6224 -0.4741 -0.2976
 2472TIP3    H228976   3.876   4.373   1.421  0.5247  0.5339 -0.4486
 2473TIP3   OH228977   6.631   4.962   8.835 -0.5875  1.0280 -0.3565
 2473TIP3    H128978   6.636   5.043   8.886 -0.8607  1.3133 -0.7793
 2473TIP3    H228979   6.709   4.913   8.861 -1.7191  0.2557  1.8382
 2474TIP3   OH228980   4.268   2.676   8.719  0.1579  0.2704  0.5006
 2474TIP3    H128981   4.274   2.595   8.770 -0.4301 -0.0282  0.1145
 2474TIP3    H228982   4.188   2.718   8.751 -1.0622 -0.6478 -1.1691
 2475TIP3   OH228983   6.557   5.474   8.764  0.4929  0.8031 -0.0012
 2475TIP3    H128984   6.463   5.464   8.782  0.4885 -2.9662 -1.2753
 2475TIP3    H228985   6.560   5.534   8.690 -1.0300  0.3247 -0.4989
 2476TIP3   OH228986   6.762   4.889   8.510 -0.7023 -0.0903 -0.2817
 2476TIP3    H128987   6.787   4.816   8.567 -0.4000  1.3620  1.5333
 2476TIP3    H228988   6.810   4.964   8.545  2.1846  0.3288 -4.4635
 2477TIP3   OH228989   3.803   5.205   1.419 -0.0305  0.1778 -0.3115
 2477TIP3    H128990   3.861   5.166   1.355  1.8743  0.3826  1.2043
 2477TIP3    H228991   3.734   5.140   1.433 -0.7679  0.3382 -2.8549
 2478TIP3   OH228992   3.802   5.453   1.884 -0.3369  0.0542  0.1940
 2478TIP3    H128993   3.854   5.480   1.959  1.6700 -1.1840 -0.6782
 2478TIP3    H228994   3.830   5.510   1.812  0.3055 -0.9902 -0.4208
 2479TIP3   OH228995   6.307   6.687   8.779 -0.2227  0.2274 -0.6715
 2479TIP3    H128996   6.229   6.711   8.729 -0.5378 -0.9595 -0.7638
 2479TIP3    H228997   6.353   6.625   8.723 -0.1281 -0.4471  0.1471
 2480TIP3   OH228998   1.590   3.218   8.601 -0.3880  0.0416  0.3966
 2480TIP3    H128999   1.636   3.164   8.665 -0.3754 -0.5577 -0.1033
 2480TIP3    H229000   1.509   3.171   8.583  0.1913 -0.4840 -0.9812
 2481TIP3   OH229001   3.700   5.286   7.433 -0.3890  0.6882  0.8809
 2481TIP3    H129002   3.699   5.190   7.428  1.2095  0.6891 -0.7029
 2481TIP3    H229003   3.653   5.314   7.354  1.5589  1.1136 -0.2154
 2482TIP3   OH229004   6.076   6.588   8.134 -0.2984  0.3194 -0.3465
 2482TIP3    H129005   6.107   6.602   8.224 -0.2196  1.6963 -0.5702
 2482TIP3    H229006   6.023   6.665   8.114  0.2876  0.3968 -1.7287
 2483TIP3   OH229007   1.632   3.371   0.383 -0.0547 -0.1556 -0.2729
 2483TIP3    H129008   1.682   3.374   0.465  2.4941 -2.4609 -1.5782
 2483TIP3    H229009   1.646   3.457   0.344  2.0193 -0.3289 -0.0336
 2484TIP3   OH229010   2.543   5.847   1.840 -0.4883 -0.4859  0.1248
 2484TIP3    H129011   2.561   5.857   1.747  2.1679  1.1010  0.6939
 2484TIP3    H229012   2.543   5.752   1.855 -1.6141 -0.7878 -1.5325
 2485TIP3   OH229013   5.101   2.855   7.804 -0.3075  0.1724 -0.0591
 2485TIP3    H129014   5.050   2.828   7.727 -0.4765 -1.5227  0.6252
 2485TIP3    H229015   5.183   2.807   7.797 -0.0697  0.4815  0.5135
 2486TIP3   OH229016   4.887   4.784   8.768  0.0133  0.2074 -0.5719
 2486TIP3    H129017   4.904   4.782   8.674  1.2219  1.4972 -0.4171
 2486TIP3    H229018   4.973   4.766   8.808 -0.5403 -0.6067  0.2970
 2487TIP3   OH229019   5.289   5.316   7.697  0.5077  0.4300 -0.0612
 2487TIP3    H129020   5.252   5.227   7.701  1.6542 -0.0159  1.9165
 2487TIP3    H229021   5.214   5.374   7.707 -0.0959 -0.3576  0.0443
 2488TIP3   OH229022   4.130   3.847   8.439  0.0446 -0.3179 -0.1364
 2488TIP3    H129023   4.193   3.893   8.384 -1.7373  1.8952 -0.4714
 2488TIP3    H229024   4.052   3.903   8.439 -1.5418 -2.3538  1.1754
 2489TIP3   OH229025   3.590   1.753   2.929 -0.3217  0.0531  0.4978
 2489TIP3    H129026   3.613   1.669   2.970 -1.6542  0.0434  1.2719
 2489TIP3    H229027   3.603   1.818   2.999  1.2994  0.6172 -0.2677
 2490TIP3   OH229028   2.974   4.574   2.870  0.4231 -0.3218  0.0542
 2490TIP3    H129029   3.062   4.544   2.894  0.3898  0.7897  1.7046
 2490TIP3    H229030   2.928   4.583   2.953 -1.0606 -0.2557 -0.7430
 2491TIP3   OH229031   5.324   2.822   1.476  1.2911  0.3231 -0.1876
 2491TIP3    H129032   5.416   2.845   1.467  0.9233  1.2399 -2.5587
 2491TIP3    H229033   5.287   2.838   1.389 -1.0958 -0.0750  0.6640
 2492TIP3   OH229034   1.434   4.815   1.159  0.2614  0.3988 -0.3567
 2492TIP3    H129035   1.339   4.810   1.150  0.2244  0.5907 -0.0556
 2492TIP3    H229036   1.451   4.793   1.250  0.5157  0.2478 -0.4399
 2493TIP3   OH229037   2.941   2.164   7.710 -0.1350  0.0478  0.0898
 2493TIP3    H129038   2.983   2.224   7.772 -0.6118 -1.2328  1.7143
 2493TIP3    H229039   2.850   2.192   7.707 -0.0819  0.1991 -0.1637
 2494TIP3   OH229040   1.477   2.819   2.777  0.1538  0.1287  0.3005
 2494TIP3    H129041   1.551   2.848   2.724 -0.2123  0.9314  0.2130
 2494TIP3    H229042   1.421   2.896   2.785 -0.5997 -0.4208  0.4942
 2495TIP3   OH229043   0.161   1.126   8.885  0.4815  0.5557  0.2468
 2495TIP3    H129044   0.149   1.037   8.852 -1.1895  0.4335  1.0963
 2495TIP3    H229045   0.073   1.155   8.910  1.2722  1.6464  1.9848
 2496TIP3   OH229046   5.556   1.922   8.901 -0.1834 -0.3825 -0.1859
 2496TIP3    H129047   5.624   1.915   8.833 -0.0717 -0.3765 -0.0733
 2496TIP3    H229048   5.583   1.860   8.969 -0.2341 -0.2999 -0.0905
 2497TIP3   OH229049   5.794   3.995   7.579  0.3930 -0.1345 -0.4435
 2497TIP3    H129050   5.873   4.050   7.578 -0.4005  1.0467 -1.3173
 2497TIP3    H229051   5.791   3.958   7.667  0.4844  1.9650  0.4967
 2498TIP3   OH229052   6.402   4.695   7.405 -0.0973 -0.4272  0.3266
 2498TIP3    H129053   6.403   4.706   7.500  0.3260 -2.6189  0.6443
 2498TIP3    H229054   6.326   4.639   7.389  0.1788 -0.5538 -0.5542
 2499TIP3   OH229055   1.706   4.135   7.363 -0.0378  0.1171 -0.2659
 2499TIP3    H129056   1.654   4.164   7.439 -1.7706  0.8072 -1.6599
 2499TIP3    H229057   1.674   4.048   7.343 -1.1808  0.7902 -1.5199
 2500TIP3   OH229058   1.040   1.711   2.417 -0.1621 -0.3331 -0.5999
 2500TIP3    H129059   1.077   1.746   2.498  2.7870  0.7480 -2.2778
 2500TIP3    H229060   1.092   1.633   2.397 -1.3012 -0.9961 -1.1513
 2501TIP3   OH229061   5.816   5.971   7.109 -0.3703 -0.4351 -0.1991
 2501TIP3    H129062   5.864   5.889   7.100 -0.6521 -0.6861  0.5623
 2501TIP3    H229063   5.730   5.954   7.070 -1.2938 -1.2658  2.0741
 2502TIP3   OH229064   6.414   4.300   1.929 -0.4187  0.3780 -0.7232
 2502TIP3    H129065   6.337   4.305   1.985 -0.3621  2.4634 -0.7466
 2502TIP3    H229066   6.480   4.255   1.981 -1.1186  0.1106 -0.0584
 2503TIP3   OH229067   2.547   0.504   8.504 -0.4776 -0.0844 -0.2155
 2503TIP3    H129068   2.580   0.432   8.450 -1.1889 -0.7498  0.2237
 2503TIP3    H229069   2.620   0.528   8.560 -0.2498 -0.4974 -0.3332
 2504TIP3   OH229070   1.014   3.185   0.866  0.2110  0.0578 -0.0803
 2504TIP3    H129071   1.079   3.145   0.809 -0.2578 -0.7452 -0.0577
 2504TIP3    H229072   1.010   3.276   0.837  2.9112  0.7469  1.3185
 2505TIP3   OH229073   3.194   2.789   0.947 -0.2799 -0.5980  0.2236
 2505TIP3    H129074   3.147   2.812   1.026  0.6026  0.6043  0.4302
 2505TIP3    H229075   3.286   2.786   0.974  0.2905  2.0062 -1.1661
 2506TIP3   OH229076   1.975   0.172   2.519 -0.3001 -0.3938 -1.0610
 2506TIP3    H129077   1.960   0.254   2.565  0.7119 -0.2558 -0.9752
 2506TIP3    H229078   1.902   0.166   2.457  0.2442  1.1405 -1.8904
 2507TIP3   OH229079   3.770   1.999   0.564  0.2448  0.0332 -0.5642
 2507TIP3    H129080   3.727   2.085   0.564 -1.0787 -0.5891  0.0445
 2507TIP3    H229081   3.863   2.019   0.576 -0.1920  1.3376  1.2056
 2508TIP3   OH229082   3.123   5.435   2.564  0.2975  0.0837 -0.1252
 2508TIP3    H129083   3.108   5.523   2.599 -0.0334  0.1587 -0.4528
 2508TIP3    H229084   3.051   5.383   2.599  1.3632 -0.4574  1.4096
 2509TIP3   OH229085   2.213   2.640   0.972 -0.1350  0.0955 -0.0957
 2509TIP3    H129086   2.251   2.726   0.989  0.4258  0.3980 -2.4293
 2509TIP3    H229087   2.128   2.659   0.933 -1.9466 -0.5570  3.1962
 2510TIP3   OH229088   6.467   4.081   3.133 -0.2776  0.3721 -0.4040
 2510TIP3    H129089   6.502   4.077   3.222 -0.1844  0.2144 -0.4475
 2510TIP3    H229090   6.457   3.989   3.107 -0.7513  0.4181 -0.3811
 2511TIP3   OH229091   6.408   0.544   1.751 -0.0609 -0.3924 -0.0347
 2511TIP3    H129092   6.500   0.571   1.744  0.8057 -2.5403  1.7287
 2511TIP3    H229093   6.364   0.617   1.795  1.4890 -0.4832  1.8060
 2512TIP3   OH229094   0.076   2.576   8.944  0.1778  0.0590  0.1253
 2512TIP3    H129095   0.141   2.632   8.899 -0.8804  1.9008  0.7972
 2512TIP3    H229096   0.028   2.636   9.000 -2.3327 -1.1921 -0.5673
 2513TIP3   OH229097   3.222   4.994   1.365  0.0988 -0.2569  0.0412
 2513TIP3    H129098   3.208   4.989   1.459 -1.9291  0.2007 -0.1926
 2513TIP3    H229099   3.150   5.048   1.333  0.7073 -0.4659 -1.7882
 2514TIP3   OH229100   1.163   4.088   8.422  0.0418  0.2429 -0.0403
 2514TIP3    H129101   1.208   4.128   8.347  0.7963 -0.2329  0.1415
 2514TIP3    H229102   1.234   4.052   8.476 -0.4952  0.5303  0.8764
 2515TIP3   OH229103   2.687   4.594   8.440 -0.3190  0.2285  0.1106
 2515TIP3    H129104   2.747   4.650   8.489 -0.8045  2.1916 -1.4011
 2515TIP3    H229105   2.718   4.599   8.349  0.2299 -2.8522  0.0235
 2516TIP3   OH229106   2.470   2.261   0.404  0.2778  0.1059 -0.9638
 2516TIP3    H129107   2.492   2.352   0.425  0.5134 -0.1788  0.0716
 2516TIP3    H229108   2.376   2.255   0.419  0.6248 -0.4282  1.4831
 2517TIP3   OH229109   1.746   6.398   8.004 -0.4273 -0.2400  0.0613
 2517TIP3    H129110   1.724   6.491   8.016 -1.8307 -0.0902 -2.8551
 2517TIP3    H229111   1.807   6.398   7.930  2.5503 -1.4507  2.3121
 2518TIP3   OH229112   4.652   2.585   8.429 -0.0508 -0.2493 -0.1050
 2518TIP3    H129113   4.602   2.527   8.371 -0.3156 -0.2580  0.1296
 2518TIP3    H229114   4.715   2.628   8.371  0.7354 -1.4091 -0.1384
 2519TIP3   OH229115   0.437   0.586   7.737 -0.3160  0.4459  0.3239
 2519TIP3    H129116   0.347   0.618   7.732 -0.5161 -0.1994 -0.2644
 2519TIP3    H229117   0.489   0.653   7.691 -0.8825 -0.5944 -1.9737
 2520TIP3   OH229118   2.629   2.175   1.360 -0.0252 -0.1680 -0.5748
 2520TIP3    H129119   2.656   2.243   1.299 -2.5756  2.5128  1.0249
 2520TIP3    H229120   2.552   2.135   1.319  0.1457 -0.5598 -0.5194
 2521TIP3   OH229121   4.814   2.328   1.329 -0.6077 -0.0576  0.6919
 2521TIP3    H129122   4.883   2.392   1.347 -0.9750  0.6034 -0.2035
 2521TIP3    H229123   4.827   2.259   1.395  0.6718  0.2378  0.7647
 2522TIP3   OH229124   6.554   0.615   0.326  0.2432  0.9727  0.1296
 2522TIP3    H129125   6.553   0.641   0.418 -0.4674 -2.1288  1.1420
 2522TIP3    H229126   6.622   0.669   0.286  0.3844  2.6032  2.3977
 2523TIP3   OH229127   6.610   0.591   8.850  0.5178 -0.0828 -0.3235
 2523TIP3    H129128   6.627   0.611   8.758  1.7771 -1.7079 -0.5087
 2523TIP3    H229129   6.674   0.644   8.898 -0.4689  1.1397 -0.3258
 2524TIP3   OH229130   5.261   2.750   8.763 -0.0985 -0.0561 -0.0802
 2524TIP3    H129131   5.235   2.840   8.785  4.9685  1.7065  0.0052
 2524TIP3    H229132   5.246   2.743   8.669 -0.6388  0.7933 -0.0716
 2525TIP3   OH229133   6.154   6.061   0.631 -0.0488 -0.4506  0.0130
 2525TIP3    H129134   6.105   5.980   0.646  0.1368 -0.4895  0.4522
 2525TIP3    H229135   6.173   6.094   0.719 -0.0192  0.0103 -0.1604
 2526TIP3   OH229136   4.470   3.067   8.430 -0.1255 -0.1318 -0.0057
 2526TIP3    H129137   4.513   3.008   8.368 -0.2203  0.7893 -0.9919
 2526TIP3    H229138   4.420   3.127   8.375 -1.6062 -0.3276  1.0591
 2527TIP3   OH229139   1.699   4.250   8.777  0.2415 -0.2122  0.2257
 2527TIP3    H129140   1.648   4.268   8.698 -0.2654  2.2018  1.0196
 2527TIP3    H229141   1.634   4.219   8.840  0.5128 -1.3270 -0.0169
 2528TIP3   OH229142   4.118   5.156   7.636 -0.1490  0.3975  0.2669
 2528TIP3    H129143   4.212   5.148   7.625 -0.1864  0.1467  0.1205
 2528TIP3    H229144   4.083   5.072   7.605 -0.2307 -0.5466  2.6945
 2529TIP3   OH229145   5.313   0.223   8.960  0.2404  0.2772  0.4065
 2529TIP3    H129146   5.381   0.189   8.902 -0.2302 -1.1708  0.6649
 2529TIP3    H229147   5.294   0.151   9.020 -1.7062  0.5242  0.1573
 2530TIP3   OH229148   3.428   2.317   3.375 -0.3214  0.0535 -0.2861
 2530TIP3    H129149   3.424   2.398   3.426 -0.8230 -0.6695  0.8895
 2530TIP3    H229150   3.479   2.339   3.297  0.8763  1.0983  0.7513
 2531TIP3   OH229151   3.816   2.837   8.304  0.1996 -0.6639 -0.0298
 2531TIP3    H129152   3.836   2.780   8.379 -0.8609 -1.0333 -0.0164
 2531TIP3    H229153   3.721   2.841   8.302  0.2387 -0.0093 -0.8887
 2532TIP3   OH229154   0.131   0.863   8.811 -0.2166 -0.0555 -0.3020
 2532TIP3    H129155   0.145   0.770   8.829  1.8758  0.0414 -1.1356
 2532TIP3    H229156   0.046   0.867   8.768  1.2176 -2.1091 -3.6783
 2533TIP3   OH229157   3.171   0.354   8.838  0.0280 -0.1680 -0.3961
 2533TIP3    H129158   3.220   0.273   8.824 -0.6609 -0.9630  1.5231
 2533TIP3    H229159   3.093   0.328   8.886  0.9811  1.9027  2.5346
 2534TIP3   OH229160   2.709   4.201   1.889 -0.4534  0.5079 -0.2191
 2534TIP3    H129161   2.766   4.140   1.842  1.1056  0.3776  1.6877
 2534TIP3    H229162   2.629   4.205   1.837  0.9193 -0.0574 -2.5098
 2535TIP3   OH229163   4.700   2.147   0.685  0.0753  0.0005  0.0970
 2535TIP3    H129164   4.771   2.127   0.746  1.6879  0.2523 -1.5942
 2535TIP3    H229165   4.707   2.241   0.670 -0.0469 -0.1153 -0.7472
 2536TIP3   OH229166   5.341   5.476   1.059 -0.1203 -0.4433  0.0318
 2536TIP3    H129167   5.407   5.510   1.120 -2.3865  2.6741  0.9986
 2536TIP3    H229168   5.363   5.516   0.975 -1.5315  1.9749  0.7039
 2537TIP3   OH229169   0.970   4.477   8.575 -0.3720 -0.6705 -0.1447
 2537TIP3    H129170   0.923   4.452   8.496 -1.7159 -0.1859  0.4679
 2537TIP3    H229171   0.957   4.571   8.582  2.0090 -0.2414 -0.7572
 2538TIP3   OH229172   4.111   1.618   0.025  0.1202  0.1098  0.1382
 2538TIP3    H129173   4.083   1.529  -0.000 -0.8576  1.1044 -2.6767
 2538TIP3    H229174   4.173   1.643  -0.043  0.5466  1.5310  1.0119
 2539TIP3   OH229175   1.463   0.919   2.139 -0.0822 -0.0190 -0.4523
 2539TIP3    H129176   1.458   0.918   2.043  0.1717  1.3361 -0.5024
 2539TIP3    H229177   1.556   0.908   2.158  0.1249  1.4434 -0.4522
 2540TIP3   OH229178   2.655   0.287   3.038  0.1843 -0.0162  0.4962
 2540TIP3    H129179   2.590   0.333   2.984 -2.7229 -1.0638  2.8108
 2540TIP3    H229180   2.678   0.210   2.986 -0.0326  0.6056 -0.5670
 2541TIP3   OH229181   3.877   1.954   8.947  0.0277 -0.2467  0.5263
 2541TIP3    H129182   3.924   1.994   8.874  2.6573  0.0169  2.2172
 2541TIP3    H229183   3.838   1.875   8.911  2.7505 -1.0745 -0.8355
 2542TIP3   OH229184   0.706   4.353   0.019  0.4008  0.0408  0.0016
 2542TIP3    H129185   0.785   4.379  -0.027  0.8255  0.4929  0.9763
 2542TIP3    H229186   0.635   4.369  -0.045  0.6867  2.9873  0.2962
 2543TIP3   OH229187   4.960   1.279   2.912 -0.2304 -0.6082 -0.4997
 2543TIP3    H129188   4.898   1.268   2.985  1.3458  0.8028  1.1489
 2543TIP3    H229189   5.030   1.217   2.931  0.7868  0.6280 -0.0804
 2544TIP3   OH229190   1.992   0.169   1.657 -0.0204 -0.1987  0.1131
 2544TIP3    H129191   1.994   0.265   1.653 -0.8322 -0.0301  2.3620
 2544TIP3    H229192   1.947   0.150   1.739  0.8336 -2.5230  0.1013
 2545TIP3   OH229193   5.683   4.209   1.292 -0.8792  0.3069 -0.4790
 2545TIP3    H129194   5.692   4.263   1.371 -0.4067  0.9433 -0.9591
 2545TIP3    H229195   5.767   4.216   1.248 -1.6000  1.1599 -1.7959
 2546TIP3   OH229196   1.326   0.291   2.818 -0.0126  0.1265  0.3416
 2546TIP3    H129197   1.347   0.198   2.828  0.9544  0.3344  0.3018
 2546TIP3    H229198   1.242   0.291   2.772  0.7172 -0.7197 -1.0420
 2547TIP3   OH229199   2.658   1.170   8.102 -0.4022 -0.1562  0.0628
 2547TIP3    H129200   2.656   1.131   8.014 -0.0924 -2.4813  0.9995
 2547TIP3    H229201   2.573   1.150   8.140 -0.7184  1.2653  0.1578
 2548TIP3   OH229202   1.095   0.871   0.099 -0.0749 -0.0072 -0.2427
 2548TIP3    H129203   1.040   0.898   0.026  0.1648  0.9522 -0.0857
 2548TIP3    H229204   1.098   0.776   0.094  0.3439  0.0716 -1.7768
 2549TIP3   OH229205   0.532   0.688   0.819  0.0157 -0.5139  0.5434
 2549TIP3    H129206   0.572   0.675   0.905 -0.4235 -1.1497  0.6627
 2549TIP3    H229207   0.517   0.599   0.786  0.4997 -0.2800 -0.3433
 2550TIP3   OH229208   5.242   1.940   2.874 -0.4624  0.3412 -0.0494
 2550TIP3    H129209   5.261   1.934   2.780 -4.1496 -0.9981 -0.8952
 2550TIP3    H229210   5.261   1.852   2.908 -0.1710  0.5141  0.2440
 2551TIP3   OH229211   2.694   3.734   2.545 -0.2802 -0.2386 -0.3291
 2551TIP3    H129212   2.645   3.658   2.517 -1.2922  0.6379 -1.0032
 2551TIP3    H229213   2.674   3.742   2.639  1.3441 -1.8687  0.2133
 2552TIP3   OH229214   5.892   6.083   1.881  0.2073  0.2210  0.1550
 2552TIP3    H129215   5.871   6.054   1.970 -0.7859  1.0399  0.2047
 2552TIP3    H229216   5.827   6.040   1.826  1.9663 -1.8280 -0.4781
 2553TIP3   OH229217   1.894   4.909   0.320 -0.4517 -0.6981 -0.0920
 2553TIP3    H129218   1.806   4.899   0.356 -0.4814 -1.3122 -0.3255
 2553TIP3    H229219   1.950   4.927   0.395 -0.7077 -0.7657  0.1138
 2554TIP3   OH229220   4.253   0.157   8.390  0.6125 -0.1250 -0.2180
 2554TIP3    H129221   4.199   0.114   8.323  1.1948 -1.7770  0.3203
 2554TIP3    H229222   4.200   0.152   8.469  1.0496 -0.6872  0.0448
 2555TIP3   OH229223   1.326   3.376   0.449 -0.0478  0.0716 -0.2491
 2555TIP3    H129224   1.297   3.307   0.509  2.0447  0.6839  1.6121
 2555TIP3    H229225   1.292   3.457   0.487  0.7950  0.4169 -0.2041
 2556TIP3   OH229226   5.738   3.048   8.328  0.0813  0.0319  0.2491
 2556TIP3    H129227   5.804   3.008   8.272  0.2970 -2.4634  2.1018
 2556TIP3    H229228   5.784   3.071   8.409 -1.2652 -2.2586  1.7985
 2557TIP3   OH229229   3.061   1.341   2.019 -0.1621 -0.7613  0.5314
 2557TIP3    H129230   3.149   1.351   2.056  0.1208 -1.6430  0.1170
 2557TIP3    H229231   3.050   1.247   2.008  0.3937 -0.5511 -3.0207
 2558TIP3   OH229232   5.161   1.326   3.246  0.1738 -0.2305 -0.6814
 2558TIP3    H129233   5.200   1.399   3.294  0.0463 -0.5521 -0.0824
 2558TIP3    H229234   5.181   1.344   3.154  0.5752  0.2966 -0.4927
 2559TIP3   OH229235   1.505   0.078   2.927  0.0386  0.3068  0.5933
 2559TIP3    H129236   1.481  -0.006   2.887 -0.2813 -0.3383  2.0904
 2559TIP3    H229237   1.527   0.057   3.017 -0.0838  1.8503  1.0176
 2560TIP3   OH229238   2.101   2.179   3.036 -0.1304  0.0168 -0.1400
 2560TIP3    H129239   2.094   2.267   2.998  2.4849  0.1510 -0.4653
 2560TIP3    H229240   2.088   2.193   3.130  2.0073  1.1123  0.0576
 2561TIP3   OH229241   3.533   4.484   1.851 -0.1209 -0.3683  0.0797
 2561TIP3    H129242   3.456   4.428   1.863 -0.4281  0.0916  0.3123
 2561TIP3    H229243   3.501   4.572   1.870  0.1812 -0.0206 -0.9522
 2562TIP3   OH229244   2.293   2.652   0.477  0.1193 -0.4779 -0.3108
 2562TIP3    H129245   2.263   2.716   0.412 -1.6466 -0.4745  0.4772
 2562TIP3    H229246   2.237   2.666   0.553  1.6415 -1.0038  0.9617
 2563TIP3   OH229247   6.620   3.723   1.226  0.0334 -0.5051 -0.6664
 2563TIP3    H129248   6.661   3.798   1.183 -0.5529 -1.0978 -2.3560
 2563TIP3    H229249   6.631   3.650   1.165 -0.8343 -1.4085  0.1983
 2564TIP3   OH229250   1.902   2.676   7.264 -0.1179  0.1671  0.0558
 2564TIP3    H129251   1.934   2.722   7.186  0.0023  0.8677  0.5059
 2564TIP3    H229252   1.868   2.746   7.320  1.5258 -0.0919  1.4554
 2565TIP3   OH229253   5.892   5.293   1.039 -0.3233 -0.7282  0.0727
 2565TIP3    H129254   5.960   5.315   0.975  0.1657  0.5929  1.0090
 2565TIP3    H229255   5.820   5.352   1.018 -0.4333 -0.7781  0.3072
 2566TIP3   OH229256   3.132   5.745   8.276  0.5533  0.0315 -0.6067
 2566TIP3    H129257   3.158   5.805   8.346  0.5475 -0.6968  0.0368
 2566TIP3    H229258   3.201   5.753   8.210 -1.1940  3.4092 -2.2504
 2567TIP3   OH229259   6.494   2.541   8.401 -0.2443  0.3442 -0.3498
 2567TIP3    H129260   6.570   2.574   8.353  0.4206  0.5633  0.7997
 2567TIP3    H229261   6.427   2.529   8.335  1.2185 -1.2047 -1.6453
 2568TIP3   OH229262   4.752   0.509   3.063  0.5165  0.3101  0.2044
 2568TIP3    H129263   4.824   0.446   3.072 -0.5751 -0.7205  2.5499
 2568TIP3    H229264   4.794   0.590   3.034  2.4630 -0.5169  0.5678
 2569TIP3   OH229265   4.594   0.782   2.844  0.0010  0.1422 -0.4768
 2569TIP3    H129266   4.677   0.797   2.890 -0.2406 -1.3789  0.5069
 2569TIP3    H229267   4.559   0.870   2.830  1.5887  0.7989 -0.5969
 2570TIP3   OH229268   3.795   3.394   0.032  0.1670  0.0975  0.1061
 2570TIP3    H129269   3.884   3.360   0.044  0.3077  0.6688  0.7222
 2570TIP3    H229270   3.796   3.433  -0.055  0.2958 -0.5560 -0.1962
 2571TIP3   OH229271   1.698   1.090   8.779 -0.3845  0.1019  0.1395
 2571TIP3    H129272   1.779   1.038   8.778 -0.6410 -0.3131 -1.0038
 2571TIP3    H229273   1.630   1.028   8.753 -0.7003  0.9817 -1.2217
 2572TIP3   OH229274   2.628   0.904   0.699 -0.2622  0.0837 -0.3942
 2572TIP3    H129275   2.632   0.827   0.642  0.1710 -0.3615  0.2154
 2572TIP3    H229276   2.695   0.962   0.665  0.5572 -0.5263  0.1173
 2573TIP3   OH229277   5.755   3.014   0.928 -0.1286  0.5030 -0.3213
 2573TIP3    H129278   5.795   3.063   1.000 -1.5895 -0.6178  1.3214
 2573TIP3    H229279   5.808   3.037   0.852  0.6309  2.8108  0.8099
 2574TIP3   OH229280   0.605   3.964   0.932 -0.1348  0.0311  0.2040
 2574TIP3    H129281   0.661   3.891   0.956 -1.1504 -0.6109  0.6670
 2574TIP3    H229282   0.537   3.966   0.999 -0.5534  0.9214 -0.2255
 2575TIP3   OH229283   4.533   6.502   1.661  0.0775 -0.6045 -0.0775
 2575TIP3    H129284   4.455   6.552   1.685 -0.8368 -1.6001 -0.8975
 2575TIP3    H229285   4.510   6.411   1.681  0.9256 -0.9371 -0.5983
 2576TIP3   OH229286   2.972   5.856   0.981 -0.0046  0.1852  0.0246
 2576TIP3    H129287   3.023   5.776   0.970 -0.0670  0.1380  0.0788
 2576TIP3    H229288   2.880   5.828   0.974 -0.0053  0.5178 -1.8116
 2577TIP3   OH229289   1.031   4.503   2.035  0.2335  0.2079 -0.1334
 2577TIP3    H129290   0.958   4.533   2.089 -0.6343  0.1320 -1.2243
 2577TIP3    H229291   1.106   4.502   2.094  0.1333  3.5338  0.2314
 2578TIP3   OH229292   5.822   5.932   7.392  0.3746 -0.1361 -0.5905
 2578TIP3    H129293   5.917   5.931   7.404  0.1846  1.0283  1.5924
 2578TIP3    H229294   5.808   5.983   7.312  1.5882 -0.7552 -1.2132
 2579TIP3   OH229295   0.976   0.267   0.746  0.3477 -0.5745 -0.0159
 2579TIP3    H129296   1.063   0.308   0.747  0.1742 -0.1910 -0.5362
 2579TIP3    H229297   0.959   0.245   0.838  0.4096  0.5911  0.2845
 2580TIP3   OH229298   0.038   0.169   0.867 -0.2522  0.3843 -0.0486
 2580TIP3    H129299   0.099   0.163   0.794 -1.1476  1.9761 -0.9770
 2580TIP3    H229300   0.017   0.078   0.888  1.1841 -0.1433 -0.7508
 2581TIP3   OH229301   0.909   4.234   1.616 -0.0356  0.3689  0.9282
 2581TIP3    H129302   0.933   4.207   1.704  0.3174  0.3906  0.8401
 2581TIP3    H229303   0.950   4.320   1.605  1.9521 -0.6486 -0.1095
 2582TIP3   OH229304   0.634   0.374   2.226  0.4464  0.0323  0.2874
 2582TIP3    H129305   0.559   0.331   2.267  0.7460  0.2107  1.0368
 2582TIP3    H229306   0.707   0.359   2.287  1.3671 -1.3192 -1.0740
 2583TIP3   OH229307   6.129   5.287   0.481 -0.0398  0.1376 -0.7590
 2583TIP3    H129308   6.114   5.195   0.499 -0.0313  0.4498  1.0825
 2583TIP3    H229309   6.223   5.294   0.464  0.3403  0.0568  1.1214
 2584TIP3   OH229310   2.967   0.621   1.196  0.0325 -0.4784  0.4785
 2584TIP3    H129311   3.031   0.576   1.251 -0.0677  0.2736  1.2393
 2584TIP3    H229312   3.016   0.691   1.153 -0.4148  0.7249  1.8139
 2585TIP3   OH229313   1.098   3.004   1.426  0.0917  0.5160 -0.9320
 2585TIP3    H129314   1.190   3.030   1.428  0.4265 -0.5769 -1.5954
 2585TIP3    H229315   1.088   2.949   1.504 -0.3508  1.7000 -0.1231
 2586TIP3   OH229316   5.905   1.821   8.750  0.3707 -0.4145  0.0440
 2586TIP3    H129317   5.966   1.864   8.809 -1.0727  1.9890 -0.0767
 2586TIP3    H229318   5.920   1.862   8.665 -0.7120 -0.4782 -0.1966
 2587TIP3   OH229319   5.480   5.090   8.766 -0.2020  0.6918  0.5586
 2587TIP3    H129320   5.426   5.027   8.719 -1.3885  2.1966 -0.1837
 2587TIP3    H229321   5.417   5.147   8.811  0.8468  0.9803  1.7393
 2588TIP3   OH229322   5.560   6.334   1.640  0.1393  0.1408 -0.8383
 2588TIP3    H129323   5.478   6.291   1.665  0.6562  0.7305  2.1786
 2588TIP3    H229324   5.536   6.425   1.626 -0.4752 -0.4329 -4.7361
 2589TIP3   OH229325   1.221   5.287   7.253 -0.3504  0.4465  0.1700
 2589TIP3    H129326   1.240   5.324   7.167 -1.0540 -1.0148 -0.6513
 2589TIP3    H229327   1.306   5.267   7.290 -0.0654  0.3407 -0.5292
 2590TIP3   OH229328   1.131   0.268   0.427 -0.4985 -0.5612  0.3371
 2590TIP3    H129329   1.056   0.236   0.476 -0.8821  0.4049  0.4125
 2590TIP3    H229330   1.200   0.279   0.492 -1.1952  1.3131  0.8186
 2591TIP3   OH229331   4.337   1.638   8.514 -0.4182  0.2113 -0.3564
 2591TIP3    H129332   4.258   1.633   8.460  0.1430 -0.0101 -1.1681
 2591TIP3    H229333   4.404   1.674   8.457 -0.3036  1.9418  0.7917
 2592TIP3   OH229334   0.370   2.711   0.906  0.5845 -0.5353 -0.0379
 2592TIP3    H129335   0.417   2.749   0.980  0.1389 -1.6408  0.8480
 2592TIP3    H229336   0.324   2.636   0.944  1.2534 -1.8141 -1.6581
 2593TIP3   OH229337   6.617   6.268   1.788 -0.0971  0.0851 -0.8743
 2593TIP3    H129338   6.596   6.339   1.848 -2.4332 -0.4857 -0.9172
 2593TIP3    H229339   6.707   6.243   1.811 -0.2669  1.0972  1.1228
 2594TIP3   OH229340   3.753   4.389   8.854  0.0084  0.3292 -0.0545
 2594TIP3    H129341   3.782   4.431   8.772 -0.2162 -0.2091 -0.4171
 2594TIP3    H229342   3.765   4.457   8.921 -1.3053  1.3256 -0.7896
 2595TIP3   OH229343   5.643   4.406   8.932  0.1403 -0.0363  0.6221
 2595TIP3    H129344   5.709   4.457   8.885  0.9768 -2.3757 -0.9034
 2595TIP3    H229345   5.589   4.367   8.863 -0.9007 -0.6485  1.7531
 2596TIP3   OH229346   3.880   4.858   8.429  0.4986 -0.1734 -0.1424
 2596TIP3    H129347   3.798   4.808   8.426 -0.2846  1.0876 -0.7335
 2596TIP3    H229348   3.904   4.871   8.338  1.7067 -1.0305  0.0271
 2597TIP3   OH229349   5.383   3.875   8.777  0.2187 -0.0399  0.3653
 2597TIP3    H129350   5.406   3.821   8.702  1.5584  1.2675 -0.1906
 2597TIP3    H229351   5.300   3.838   8.808  0.2535 -1.3483 -1.0010
 2598TIP3   OH229352   3.414   5.787   0.530  0.7140  0.0805 -0.2854
 2598TIP3    H129353   3.506   5.763   0.518  0.9067  0.0280  1.1165
 2598TIP3    H229354   3.404   5.798   0.624 -0.6279  0.4927 -0.4502
 2599TIP3   OH229355   0.228   6.209   2.323 -0.1546 -1.0356 -0.1328
 2599TIP3    H129356   0.165   6.264   2.277 -0.5097 -0.8281  0.5793
 2599TIP3    H229357   0.223   6.124   2.279 -1.0791 -1.0745  0.0299
 2600TIP3   OH229358   4.762   2.839   7.749  0.0369  0.0565 -0.1081
 2600TIP3    H129359   4.828   2.806   7.688 -0.0274  0.5829 -0.4595
 2600TIP3    H229360   4.740   2.762   7.803  0.9667 -0.1146  0.0476
 2601TIP3   OH229361   4.251   4.054   7.381 -0.0352  0.0739 -0.4831
 2601TIP3    H129362   4.231   3.990   7.450 -1.9217  0.9173 -0.1932
 2601TIP3    H229363   4.303   4.004   7.318  0.3345 -1.1704  0.7264
 2602TIP3   OH229364   6.064   2.316   8.559  0.3635 -0.6160  0.3095
 2602TIP3    H129365   6.011   2.395   8.572  1.2793  0.0254  0.3301
 2602TIP3    H229366   6.095   2.293   8.647  0.3826 -0.7848  0.2585
 2603TIP3   OH229367   6.147   1.693   0.579  0.3630 -0.4192  0.6589
 2603TIP3    H129368   6.230   1.689   0.626  0.1563 -0.6382  0.9998
 2603TIP3    H229369   6.081   1.704   0.647  0.1632  0.4027  0.3501
 2604TIP3   OH229370   1.552   5.448   0.428 -0.3177  0.3013 -0.0427
 2604TIP3    H129371   1.564   5.371   0.373 -1.5213 -1.1944  1.6591
 2604TIP3    H229372   1.522   5.516   0.369 -0.7204 -0.9814 -1.3714
 2605TIP3   OH229373   4.962   5.658   8.931 -0.7617  0.6287 -0.6624
 2605TIP3    H129374   4.889   5.597   8.933  0.6562 -1.1542  0.1283
 2605TIP3    H229375   5.036   5.606   8.898  0.7492  1.5807  0.9958
 2606TIP3   OH229376   1.704   3.873   7.424 -0.2234 -0.2365  0.8858
 2606TIP3    H129377   1.788   3.873   7.470 -0.7533  1.1569  1.9157
 2606TIP3    H229378   1.651   3.938   7.470 -1.8321 -0.9830  0.1777
 2607TIP3   OH229379   2.188   6.188   1.394  0.0684  0.9233 -0.0936
 2607TIP3    H129380   2.201   6.151   1.307 -1.4394 -0.7355  0.3296
 2607TIP3    H229381   2.254   6.147   1.449 -0.2984  0.3724 -0.0527
 2608TIP3   OH229382   4.574   6.341   7.554  1.3435 -0.1107  0.0427
 2608TIP3    H129383   4.565   6.246   7.561  1.3247 -0.1371 -0.3306
 2608TIP3    H229384   4.570   6.359   7.461  1.5205  0.2429  0.1000
 2609TIP3   OH229385   2.685   1.019   1.467  0.2821  0.2186 -0.1122
 2609TIP3    H129386   2.682   0.967   1.387 -0.6241  0.7514 -0.4472
 2609TIP3    H229387   2.595   1.053   1.476  0.4781  0.4892  0.9041
 2610TIP3   OH229388   0.682   3.278   0.581 -0.0389 -0.6533  0.0506
 2610TIP3    H129389   0.587   3.278   0.566 -0.0413  1.1916 -0.2045
 2610TIP3    H229390   0.706   3.186   0.585 -1.5341 -1.2073 -1.9601
 2611TIP3   OH229391   0.409   4.358   0.470  0.0861  0.3057  0.4126
 2611TIP3    H129392   0.451   4.296   0.529  1.1473 -0.0431 -0.6815
 2611TIP3    H229393   0.391   4.435   0.525 -0.6438 -0.6917  1.6133
 2612TIP3   OH229394   1.392   0.416   8.796 -0.7272 -0.3623 -0.4734
 2612TIP3    H129395   1.330   0.485   8.821  0.6090  1.3305 -1.5425
 2612TIP3    H229396   1.366   0.391   8.708  0.1486  0.5016 -1.0097
 2613TIP3   OH229397   4.078   4.562   1.720  0.2451 -0.6181 -0.4413
 2613TIP3    H129398   4.126   4.570   1.802 -0.6458  0.4285 -0.0010
 2613TIP3    H229399   3.989   4.540   1.745 -0.2879  0.7233 -1.0405
 2614TIP3   OH229400   5.953   0.879   3.403 -0.4324 -0.9592 -0.2579
 2614TIP3    H129401   5.899   0.951   3.371 -0.3040 -0.3562  0.8333
 2614TIP3    H229402   6.017   0.921   3.461  1.2448 -1.6421 -1.5368
 2615TIP3   OH229403   0.503   1.496   0.377  0.0563  0.0153 -0.1314
 2615TIP3    H129404   0.561   1.459   0.311 -0.9684  0.6548 -1.4342
 2615TIP3    H229405   0.546   1.578   0.403  0.5932 -0.3676  0.2019
 2616TIP3   OH229406   3.009   4.362   1.676  0.2341 -0.4519  0.1012
 2616TIP3    H129407   2.954   4.300   1.629  0.0093 -0.4697  0.3879
 2616TIP3    H229408   2.949   4.410   1.733  0.3099  0.4547 -0.5550
 2617TIP3   OH229409   6.593   4.893   2.178  0.4486  0.1924  0.6197
 2617TIP3    H129410   6.508   4.885   2.135  0.7997  2.2073 -0.5416
 2617TIP3    H229411   6.575   4.946   2.256  0.9597  2.8913 -0.9644
 2618TIP3   OH229412   1.424   5.101   1.757 -0.4472 -0.4960  0.0464
 2618TIP3    H129413   1.347   5.151   1.732 -0.3356 -0.1586  0.3744
 2618TIP3    H229414   1.413   5.084   1.850  0.8250  1.2817  0.5781
 2619TIP3   OH229415   4.645   5.519   8.599  0.9008 -0.2225  0.2325
 2619TIP3    H129416   4.632   5.577   8.524 -1.5265  0.8271  1.3579
 2619TIP3    H229417   4.700   5.570   8.659  1.1941 -0.2786  0.0172
 2620TIP3   OH229418   5.114   3.507   8.093  0.3657 -0.2382  0.1957
 2620TIP3    H129419   5.159   3.430   8.127  0.7103 -0.3028 -0.3915
 2620TIP3    H229420   5.049   3.529   8.160 -1.5502 -2.5818 -0.7868
 2621TIP3   OH229421   3.415   4.340   2.860 -0.9509  0.7058 -0.0240
 2621TIP3    H129422   3.492   4.290   2.888 -2.2627 -0.8549  1.0041
 2621TIP3    H229423   3.445   4.390   2.784  0.8895 -0.3748 -0.0703
 2622TIP3   OH229424   1.192   0.753   1.603 -0.0291  0.3386 -0.0955
 2622TIP3    H129425   1.274   0.720   1.565 -1.1900 -0.7638 -1.7677
 2622TIP3    H229426   1.148   0.675   1.637  0.3069  1.1169  2.3616
 2623TIP3   OH229427   6.091   1.440   7.016  0.6883  0.6247  0.3193
 2623TIP3    H129428   6.035   1.518   7.014  1.0049  0.9551  2.2395
 2623TIP3    H229429   6.176   1.472   7.045  0.3171 -0.6366  3.1444
 2624TIP3   OH229430   2.789   2.442   2.518 -0.0361  0.1231 -0.3703
 2624TIP3    H129431   2.783   2.521   2.463 -0.7944 -0.1504 -0.6904
 2624TIP3    H229432   2.820   2.374   2.458  0.2741  0.0918 -0.1762
 2625TIP3   OH229433   5.025   6.138   1.685 -0.5618 -0.2400 -0.0372
 2625TIP3    H129434   4.994   6.048   1.678 -0.4881 -0.1663 -1.9511
 2625TIP3    H229435   4.973   6.186   1.620 -0.1928  0.9872  0.5432
 2626TIP3   OH229436   1.149   6.605   8.110 -0.0242  0.0753  0.3122
 2626TIP3    H129437   1.072   6.549   8.103  0.8940 -1.1760 -0.2844
 2626TIP3    H229438   1.150   6.655   8.029 -2.3765  3.1490  1.9638
 2627TIP3   OH229439   4.531   2.714   8.659 -0.3307  0.1144 -0.8021
 2627TIP3    H129440   4.562   2.670   8.580 -0.4029  1.3484 -1.5446
 2627TIP3    H229441   4.436   2.705   8.656 -0.5435  2.0764 -2.0972
 2628TIP3   OH229442   6.353   5.815   1.343 -0.5280  0.3079  0.9043
 2628TIP3    H129443   6.362   5.744   1.280  0.2210  2.6000 -1.7696
 2628TIP3    H229444   6.443   5.833   1.372 -0.6467  0.5739  1.1174
 2629TIP3   OH229445   5.062   2.884   0.884 -0.5975  0.1862 -0.0374
 2629TIP3    H129446   5.127   2.817   0.905 -0.6042  0.4853  1.0051
 2629TIP3    H229447   5.052   2.878   0.789 -1.5137 -2.1473  0.1244
 2630TIP3   OH229448   1.139   2.939   8.299  0.0129  0.1649 -1.0434
 2630TIP3    H129449   1.107   2.856   8.335 -0.6462  0.7373 -0.2800
 2630TIP3    H229450   1.151   2.921   8.206 -2.7916 -0.0512 -1.4497
 2631TIP3   OH229451   6.432   3.491   8.029  0.2830 -0.5356 -0.0186
 2631TIP3    H129452   6.398   3.425   8.090  0.3401  0.0975  0.7131
 2631TIP3    H229453   6.356   3.521   7.980  0.0059 -0.1241  0.6453
 2632TIP3   OH229454   0.438   3.525   7.931  0.5763  0.2095  0.3309
 2632TIP3    H129455   0.390   3.487   7.858  1.8054 -1.1221  0.1622
 2632TIP3    H229456   0.520   3.556   7.893  0.7768  0.4799  0.9664
 2633TIP3   OH229457   1.373   1.758   0.957 -0.4898 -0.0914  0.3022
 2633TIP3    H129458   1.389   1.839   1.006  2.2679  0.2361 -0.9909
 2633TIP3    H229459   1.300   1.779   0.898  0.1667  1.4614  0.0074
 2634TIP3   OH229460   6.168   5.206   2.032 -0.0847 -0.6715  0.4177
 2634TIP3    H129461   6.241   5.262   2.059  1.5550 -1.8055 -1.4163
 2634TIP3    H229462   6.094   5.266   2.022  0.4659  0.4641  2.5992
 2635TIP3   OH229463   4.612   6.166   1.300  0.1278  0.2233  0.2841
 2635TIP3    H129464   4.602   6.245   1.247 -0.7137  0.9376  1.4588
 2635TIP3    H229465   4.548   6.105   1.264  0.6048  0.1508 -0.4657
 2636TIP3   OH229466   2.080   5.554   7.110  0.9033  0.2427  0.1806
 2636TIP3    H129467   2.019   5.538   7.038  0.3857  0.7121  0.4985
 2636TIP3    H229468   2.166   5.532   7.075  0.4169 -1.8507  0.1772
 2637TIP3   OH229469   6.732   3.867   0.680 -0.0815 -0.3162 -0.0636
 2637TIP3    H129470   6.768   3.948   0.716 -2.2670  1.4682 -1.6460
 2637TIP3    H229471   6.770   3.860   0.593  1.1833 -1.8238  0.5630
 2638TIP3   OH229472   6.526   4.356   1.113  0.1655  0.0770  0.0484
 2638TIP3    H129473   6.439   4.317   1.113  0.3924 -0.6727 -2.7219
 2638TIP3    H229474   6.523   4.420   1.042  1.4049  1.2703  1.0184
 2639TIP3   OH229475   5.238   2.554   1.539 -0.0896 -0.5044 -0.2127
 2639TIP3    H129476   5.308   2.489   1.545  0.6538  0.0368 -2.1389
 2639TIP3    H229477   5.283   2.638   1.549 -0.2423 -0.0996 -2.4398
 2640TIP3   OH229478   2.626   3.335   8.739 -0.3944 -0.5338  0.6598
 2640TIP3    H129479   2.585   3.422   8.739 -0.0883 -0.3748 -0.3909
 2640TIP3    H229480   2.657   3.324   8.829 -1.0605  0.1449  0.9834
 2641TIP3   OH229481   6.396   1.924   0.561  0.1615 -0.5815  0.4291
 2641TIP3    H129482   6.430   1.839   0.589  0.4378 -0.1485  1.4446
 2641TIP3    H229483   6.380   1.914   0.467 -0.1060 -1.8500  0.6002
 2642TIP3   OH229484   0.986   2.309   1.385  0.4732 -0.3936  0.4919
 2642TIP3    H129485   0.999   2.244   1.453  3.0770  1.0082  1.4758
 2642TIP3    H229486   0.962   2.389   1.432 -1.1652 -0.2217 -0.5609
 2643TIP3   OH229487   3.523   5.866   0.204  0.3066  0.6259 -0.0987
 2643TIP3    H129488   3.554   5.848   0.114  0.4719 -0.6257  0.1858
 2643TIP3    H229489   3.437   5.826   0.208  0.3131  0.6527  0.3165
 2644TIP3   OH229490   6.261   0.123   0.548  0.7136  0.1478  0.2211
 2644TIP3    H129491   6.251   0.044   0.601  1.4659  1.1299  1.9077
 2644TIP3    H229492   6.222   0.101   0.464 -0.0656 -1.6541  1.0109
 2645TIP3   OH229493   5.394   5.832   0.668  0.2199  0.0659 -0.6106
 2645TIP3    H129494   5.435   5.884   0.599  0.3711  0.0806 -0.5082
 2645TIP3    H229495   5.308   5.809   0.632  0.0971  0.5024 -0.5993
 2646TIP3   OH229496   5.369   4.183   7.987 -0.0332 -0.2521 -0.3251
 2646TIP3    H129497   5.295   4.135   7.951  0.4546  1.5032 -4.1109
 2646TIP3    H229498   5.332   4.265   8.018 -0.1229 -0.8784  1.3341
 2647TIP3   OH229499   6.021   1.300   2.242 -0.0065 -0.6618  0.0339
 2647TIP3    H129500   5.932   1.268   2.227  0.8446 -1.9974 -2.8143
 2647TIP3    H229501   6.037   1.362   2.172  2.0635 -2.2310 -0.9748
 2648TIP3   OH229502   1.560   4.815   0.707  0.7036  0.3858 -0.6295
 2648TIP3    H129503   1.544   4.739   0.762  0.8529  0.0644 -1.0229
 2648TIP3    H229504   1.487   4.874   0.725 -0.6865 -0.8177 -2.0137
 2649TIP3   OH229505   4.937   5.552   7.228 -0.0179  0.0151 -0.1230
 2649TIP3    H129506   4.944   5.647   7.235  1.6942 -0.1849  1.7507
 2649TIP3    H229507   5.021   5.524   7.192 -1.1001 -0.7325 -2.2783
 2650TIP3   OH229508   6.211   5.633   8.701  0.0296  0.5956 -0.2794
 2650TIP3    H129509   6.193   5.545   8.733 -1.1571  0.1504 -1.9913
 2650TIP3    H229510   6.220   5.622   8.606  0.6919  2.1961 -0.4256
 2651TIP3   OH229511   5.962   0.019   0.870 -0.0092 -1.0637 -0.3722
 2651TIP3    H129512   5.927  -0.051   0.925  0.6839  0.8106  2.6915
 2651TIP3    H229513   5.885   0.072   0.849  0.1322  0.4374  2.3796
 2652TIP3   OH229514   3.450   2.452   0.245 -0.6632  0.5712  0.3959
 2652TIP3    H129515   3.375   2.395   0.225 -0.2260  0.2547 -0.3792
 2652TIP3    H229516   3.479   2.424   0.332 -1.7109  0.9930  0.8925
 2653TIP3   OH229517   0.929   1.696   0.912  0.1371  0.2669  0.8024
 2653TIP3    H129518   1.014   1.731   0.888 -0.3164  1.7595  1.2621
 2653TIP3    H229519   0.947   1.630   0.980  0.8336  1.7885  2.1583
 2654TIP3   OH229520   0.930   0.670   7.999 -0.2773 -0.0567 -0.1094
 2654TIP3    H129521   0.936   0.762   7.975 -2.1094  1.0679  3.0598
 2654TIP3    H229522   0.836   0.652   7.999  0.0760 -2.5388 -2.3378
 2655TIP3   OH229523   5.294   1.888   7.460 -0.1904  0.6433 -0.4080
 2655TIP3    H129524   5.269   1.797   7.448  1.2027  0.3152 -0.9666
 2655TIP3    H229525   5.382   1.895   7.423  0.2325  1.9268  0.7230
 2656TIP3   OH229526   5.555   2.181   2.737 -0.1933  0.0346  0.0465
 2656TIP3    H129527   5.568   2.222   2.651 -1.8847  1.4552  0.4121
 2656TIP3    H229528   5.575   2.089   2.723 -2.1397 -0.1233 -2.3461
 2657TIP3   OH229529   1.065   2.268   2.350 -0.1028 -0.8876 -0.1574
 2657TIP3    H129530   1.085   2.252   2.443  0.7380  0.7469 -0.0032
 2657TIP3    H229531   1.151   2.281   2.310 -0.5500  0.3891 -0.7432
 2658TIP3   OH229532   6.006   3.031   0.477  0.1499 -0.3660  0.7649
 2658TIP3    H129533   5.970   3.000   0.395  0.8933 -1.8223  0.9643
 2658TIP3    H229534   6.065   3.103   0.452  2.7923 -2.7651 -0.3816
 2659TIP3   OH229535   6.589   0.628   0.623  0.0335 -0.0705  0.0965
 2659TIP3    H129536   6.632   0.688   0.684  1.3118  0.6618 -1.4380
 2659TIP3    H229537   6.642   0.549   0.625 -1.8769 -1.4251  2.4161
 2660TIP3   OH229538   5.675   3.720   1.311 -0.8130 -0.1318 -0.3454
 2660TIP3    H129539   5.665   3.686   1.222 -0.4195  0.6182 -0.6871
 2660TIP3    H229540   5.712   3.646   1.361  0.5690 -0.0632 -1.2033
 2661TIP3   OH229541   2.019   5.669   0.121  0.9038 -0.2049  0.1553
 2661TIP3    H129542   2.039   5.671   0.214 -1.3869 -2.3146  0.8090
 2661TIP3    H229543   2.027   5.576   0.097 -1.4393 -0.1954 -0.9714
 2662TIP3   OH229544   0.734   2.444   3.177 -0.0374 -0.2674 -0.0039
 2662TIP3    H129545   0.662   2.410   3.230 -0.0914 -2.0471 -1.1206
 2662TIP3    H229546   0.743   2.535   3.204 -3.1304  0.2209 -0.2569
 2663TIP3   OH229547   3.677   0.877   8.687 -0.2688 -0.3170 -0.3666
 2663TIP3    H129548   3.681   0.971   8.700 -0.3814 -0.5060  1.3105
 2663TIP3    H229549   3.768   0.849   8.683 -0.2321 -0.1638 -0.5793
 2664TIP3   OH229550   6.341   4.376   2.422  0.0837  0.9045  0.2959
 2664TIP3    H129551   6.302   4.331   2.497 -1.8473  2.1577  0.1047
 2664TIP3    H229552   6.299   4.462   2.420  0.6465  1.1942 -1.7605
 2665TIP3   OH229553   2.763   2.112   1.704  0.0813 -0.6014  0.0604
 2665TIP3    H129554   2.752   2.125   1.799 -1.2886 -0.3267 -0.1187
 2665TIP3    H229555   2.813   2.188   1.676 -0.6033 -0.0165  0.3761
 2666TIP3   OH229556   5.661   4.161   2.930 -0.0096 -0.3259 -0.1443
 2666TIP3    H129557   5.573   4.199   2.927 -0.1551 -0.6686 -0.2531
 2666TIP3    H229558   5.701   4.188   2.847  0.5269  1.1075  0.5674
 2667TIP3   OH229559   2.666   0.141   2.518 -0.2227 -0.8435  0.3354
 2667TIP3    H129560   2.730   0.204   2.484 -1.0413  0.1081  0.5250
 2667TIP3    H229561   2.628   0.184   2.595 -0.9099 -1.5103  0.3799
 2668TIP3   OH229562   4.319   2.318   8.475 -0.4638  0.3167 -0.3496
 2668TIP3    H129563   4.375   2.323   8.552  3.4081 -1.1937 -2.7850
 2668TIP3    H229564   4.347   2.391   8.419  0.8787 -1.7471 -2.5792
 2669TIP3   OH229565   5.797   1.763   8.260 -0.4830  0.0118  0.8733
 2669TIP3    H129566   5.781   1.853   8.230  0.3676 -0.3844 -0.9030
 2669TIP3    H229567   5.833   1.718   8.184  0.9126 -1.3496  2.2462
 2670TIP3   OH229568   1.543   2.431   8.778  0.3069 -0.1499 -0.3268
 2670TIP3    H129569   1.612   2.484   8.737  0.6864  0.1180  0.6328
 2670TIP3    H229570   1.464   2.484   8.771 -0.0709 -0.8936 -2.3743
 2671TIP3   OH229571   0.540   4.611   8.196  0.1251  0.8011 -0.3680
 2671TIP3    H129572   0.470   4.676   8.200  1.4122  2.1930  1.4581
 2671TIP3    H229573   0.569   4.613   8.105 -2.9272 -0.7167 -1.4830
 2672TIP3   OH229574   4.265   3.370   7.236 -0.0453  0.8584  0.3251
 2672TIP3    H129575   4.232   3.450   7.276  3.2397  2.4454  0.1931
 2672TIP3    H229576   4.360   3.373   7.251  0.1313 -3.7582  1.5928
 2673TIP3   OH229577   0.622   0.738   1.545  0.4049  0.5424 -0.1053
 2673TIP3    H129578   0.528   0.742   1.527 -0.0730 -1.9966  1.3465
 2673TIP3    H229579   0.653   0.664   1.492  1.7207  1.6114 -0.8900
 2674TIP3   OH229580   4.227   4.410   1.336 -0.1465 -0.1218  0.5799
 2674TIP3    H129581   4.232   4.503   1.315  0.3718 -0.0951  0.8206
 2674TIP3    H229582   4.224   4.367   1.250 -0.4949  0.1159  0.4679
 2675TIP3   OH229583   1.075   5.162   2.880 -0.4417  0.3198 -0.3580
 2675TIP3    H129584   0.984   5.155   2.851 -0.2468  0.1746 -0.9474
 2675TIP3    H229585   1.088   5.256   2.895 -0.4327  0.4530 -1.1334
 2676TIP3   OH229586   6.549   3.554   1.904  0.3563  0.4528 -0.5761
 2676TIP3    H129587   6.457   3.534   1.892  0.4559 -0.0262 -0.5416
 2676TIP3    H229588   6.550   3.619   1.974  0.1221 -0.3677  0.1997
 2677TIP3   OH229589   0.236   4.617   1.231 -0.0281 -0.7474  0.0002
 2677TIP3    H129590   0.275   4.536   1.265  0.8105 -0.2403  0.2766
 2677TIP3    H229591   0.142   4.600   1.231  0.1240 -1.6536  0.2328
 2678TIP3   OH229592   3.405   1.044   8.647 -0.3461 -0.1490  0.9083
 2678TIP3    H129593   3.378   1.132   8.620 -1.3869 -0.5856  0.4626
 2678TIP3    H229594   3.483   1.058   8.700  0.3283  0.9256 -0.3169
 2679TIP3   OH229595   0.934   4.735   0.319  0.2378  0.0766  0.7161
 2679TIP3    H129596   1.001   4.792   0.281 -0.3992 -0.2183 -0.9354
 2679TIP3    H229597   0.855   4.753   0.268 -0.0695 -2.0359  0.3408
 2680TIP3   OH229598   5.195   5.779   6.999  0.6652 -0.7114  0.3915
 2680TIP3    H129599   5.242   5.807   6.920 -0.9323 -0.2891 -0.4470
 2680TIP3    H229600   5.132   5.849   7.015 -0.1465 -1.5802  1.0734
 2681TIP3   OH229601   6.674   6.424   0.322  0.3216 -0.0579 -0.0286
 2681TIP3    H129602   6.654   6.333   0.298 -0.5617 -0.0426  0.5680
 2681TIP3    H229603   6.588   6.464   0.335  0.7206  0.6348  0.5379
 2682TIP3   OH229604   5.428   1.374   2.332  0.5751 -0.0954 -0.1771
 2682TIP3    H129605   5.365   1.409   2.394  1.8039  1.2176  0.3795
 2682TIP3    H229606   5.504   1.432   2.339  1.0418 -0.3593 -2.3525
 2683TIP3   OH229607   4.917   3.173   0.687  0.0536 -0.2299 -0.2008
 2683TIP3    H129608   4.917   3.089   0.642 -0.3242 -0.8374  0.8985
 2683TIP3    H229609   4.892   3.153   0.777  0.5539  0.9801  0.2389
 2684TIP3   OH229610   4.211   5.992   0.957  0.0352 -0.4080  0.4734
 2684TIP3    H129611   4.200   5.973   0.864 -0.4381  0.6186  0.3044
 2684TIP3    H229612   4.196   5.908   1.001 -2.2365 -0.4149 -0.1927
 2685TIP3   OH229613   6.352   6.195   7.917  0.0150 -0.0036 -0.1718
 2685TIP3    H129614   6.415   6.230   7.981  0.0715 -0.7023  0.1588
 2685TIP3    H229615   6.325   6.272   7.867  2.2842  0.1154 -1.3443
 2686TIP3   OH229616   1.664   2.105   8.543 -0.0837 -0.1287  0.0304
 2686TIP3    H129617   1.671   2.010   8.534  0.7438  0.0763 -2.0294
 2686TIP3    H229618   1.649   2.136   8.454  0.4682  1.7293  0.5545
 2687TIP3   OH229619   6.723   1.684   1.058  0.4925  0.3273  0.3105
 2687TIP3    H129620   6.730   1.622   1.131  1.2578 -0.1581 -0.1619
 2687TIP3    H229621   6.730   1.770   1.100 -0.4205  0.1037  0.9502
 2688TIP3   OH229622   6.346   0.668   7.915 -0.6367  0.5061  0.2290
 2688TIP3    H129623   6.304   0.596   7.962 -0.0658  0.6699  1.0031
 2688TIP3    H229624   6.403   0.625   7.851  1.7656  0.1474  2.4396
 2689TIP3   OH229625   6.177   2.634   3.359 -0.1841  0.0050  0.5682
 2689TIP3    H129626   6.176   2.627   3.264  3.3257  0.2574  0.3830
 2689TIP3    H229627   6.183   2.544   3.390  1.3551  0.0048  0.3543
 2690TIP3   OH229628   3.655   6.010   8.703 -0.3584  0.7052  0.0197
 2690TIP3    H129629   3.669   6.100   8.674 -1.8532  1.3566  1.1840
 2690TIP3    H229630   3.626   6.018   8.794 -0.1141 -0.9885  0.2875
 2691TIP3   OH229631   3.645   4.110   2.867  0.3318 -0.4417 -0.2697
 2691TIP3    H129632   3.632   4.086   2.775  1.7781 -2.1762 -0.0578
 2691TIP3    H229633   3.740   4.109   2.879  0.1486 -0.6585  1.3483
 2692TIP3   OH229634   0.616   2.971   1.861 -0.0323  0.0217  0.3891
 2692TIP3    H129635   0.616   2.971   1.766  0.7144 -0.8606  0.3781
 2692TIP3    H229636   0.708   2.968   1.885 -0.2342 -2.6560  1.1019
 2693TIP3   OH229637   5.398   2.533   2.237 -0.2711 -0.5158 -0.3806
 2693TIP3    H129638   5.406   2.504   2.328  0.8883 -0.7145 -0.5385
 2693TIP3    H229639   5.313   2.498   2.209  0.1308 -1.9407  0.0822
 2694TIP3   OH229640   4.255   4.692   0.336  0.5048  0.0940 -0.5295
 2694TIP3    H129641   4.180   4.732   0.293  0.9153  0.5027 -0.8829
 2694TIP3    H229642   4.294   4.763   0.388  0.1047 -0.3562  0.3956
 2695TIP3   OH229643   1.123   3.786   8.015 -0.1489 -0.1045  0.5153
 2695TIP3    H129644   1.037   3.747   8.000  0.3676 -0.9970 -0.2128
 2695TIP3    H229645   1.180   3.746   7.948  1.3269 -1.1598  2.3019
 2696TIP3   OH229646   6.736   3.131   8.372  0.6105  0.0356  0.2547
 2696TIP3    H129647   6.737   3.080   8.453 -0.6354 -0.4797 -0.0302
 2696TIP3    H229648   6.652   3.177   8.374  0.4878 -0.1226 -0.8213
 2697TIP3   OH229649   5.178   2.576   2.059 -0.3633  0.2887  0.2646
 2697TIP3    H129650   5.092   2.559   2.097  0.5762 -1.6949  1.6912
 2697TIP3    H229651   5.201   2.663   2.092 -1.5541  0.5698  0.3901
 2698TIP3   OH229652   2.652   5.971   1.167 -0.3948  0.0540 -0.0484
 2698TIP3    H129653   2.673   5.985   1.075 -1.5626 -0.4661 -0.4119
 2698TIP3    H229654   2.557   5.985   1.172 -0.5642 -1.2401  0.8152
 2699TIP3   OH229655   3.713   6.106   8.976 -0.0297  0.1198 -0.2254
 2699TIP3    H129656   3.705   6.011   8.980 -0.8595  0.0351 -2.5352
 2699TIP3    H229657   3.750   6.131   9.061  0.7452 -2.2919  0.2015
 2700TIP3   OH229658   4.510   5.673   0.672  0.1996  0.2340  0.0512
 2700TIP3    H129659   4.497   5.692   0.579  1.6723  0.7283 -0.0703
 2700TIP3    H229660   4.533   5.758   0.710 -0.4533  0.0454  0.8925
 2701TIP3   OH229661   4.419   3.360   1.471 -0.0410  0.2252  0.5976
 2701TIP3    H129662   4.464   3.315   1.399 -0.0057 -0.9180  1.2981
 2701TIP3    H229663   4.327   3.359   1.446 -0.1455 -0.9998  0.9671
 2702TIP3   OH229664   3.420   6.329   2.564 -0.1426  0.1302 -0.1359
 2702TIP3    H129665   3.481   6.388   2.610  0.5342 -0.3391 -0.4118
 2702TIP3    H229666   3.476   6.280   2.503 -0.3121 -2.2204  1.4533
 2703TIP3   OH229667   1.008   5.399   0.931  0.4966  0.4617 -0.4717
 2703TIP3    H129668   0.925   5.423   0.972  0.9268 -0.4492  1.0248
 2703TIP3    H229669   1.041   5.481   0.895 -0.4797  1.0704 -0.0279
 2704TIP3   OH229670   6.500   5.282   1.151 -0.0900  0.4001 -0.2006
 2704TIP3    H129671   6.504   5.227   1.073 -0.3587  0.7285 -0.4447
 2704TIP3    H229672   6.426   5.247   1.201  0.2289  0.0362  0.0292
 2705TIP3   OH229673   3.063   1.639   2.523  0.3385 -0.1578  0.2461
 2705TIP3    H129674   2.983   1.671   2.563  0.2816  0.0296 -0.0168
 2705TIP3    H229675   3.128   1.707   2.541 -0.3062  1.2356 -2.2374
 2706TIP3   OH229676   0.714   1.515   3.051 -0.0665  0.3388 -0.2676
 2706TIP3    H129677   0.646   1.566   3.007  0.5173  0.8041 -0.6499
 2706TIP3    H229678   0.686   1.510   3.142 -1.1837 -0.4423 -0.6344
 2707TIP3   OH229679   4.048   5.907   3.167  0.1241  0.4720  0.4848
 2707TIP3    H129680   4.051   5.812   3.156  2.3256  0.4788  0.7238
 2707TIP3    H229681   4.138   5.937   3.153  0.0978  2.1986  3.1368
 2708TIP3   OH229682   2.931   0.756   2.098  0.4016 -0.1386 -0.5206
 2708TIP3    H129683   2.850   0.752   2.046  0.7836 -0.2745 -1.1209
 2708TIP3    H229684   2.901   0.766   2.188 -0.2998 -0.8366 -0.6642
 2709TIP3   OH229685   0.794   4.659   0.843 -0.4569 -0.2056 -0.4872
 2709TIP3    H129686   0.783   4.568   0.871 -2.2343  0.2530  0.4956
 2709TIP3    H229687   0.835   4.703   0.917 -1.7947  0.2549  0.0120
 2710TIP3   OH229688   1.025   4.073   8.859  0.2121 -0.3646 -0.3062
 2710TIP3    H129689   0.989   4.056   8.772  1.0019  0.2579 -0.7652
 2710TIP3    H229690   1.009   4.167   8.874  0.1902 -0.4407  0.1676
 2711TIP3   OH229691   0.894   3.713   7.919  0.0912 -0.0255  0.2583
 2711TIP3    H129692   0.893   3.619   7.901 -2.0751 -0.4282  2.1054
 2711TIP3    H229693   0.858   3.753   7.840  0.1125 -0.8132 -0.1540
 2712TIP3   OH229694   3.075   1.045   2.586 -0.2656 -0.0952 -0.0891
 2712TIP3    H129695   3.072   0.982   2.513 -0.1080 -0.4794  0.2327
 2712TIP3    H229696   3.165   1.077   2.586  0.1426 -1.1575  0.8144
 2713TIP3   OH229697   1.653   0.204   0.406 -0.2674 -0.3781  0.3824
 2713TIP3    H129698   1.696   0.156   0.335 -0.4095 -0.0899  0.1034
 2713TIP3    H229699   1.608   0.135   0.456  1.1145 -0.7765  1.1107
 2714TIP3   OH229700   5.529   6.123   7.297  0.2291  0.2952 -0.1597
 2714TIP3    H129701   5.536   6.085   7.210 -0.5118  0.4285 -0.2873
 2714TIP3    H229702   5.580   6.203   7.293  3.9892 -1.8278  0.8381
 2715TIP3   OH229703   1.908   4.732   7.580  0.1050 -0.3586  0.1327
 2715TIP3    H129704   1.997   4.698   7.571 -0.3100 -0.8232 -3.3491
 2715TIP3    H229705   1.851   4.659   7.557 -1.0688  0.6692 -0.3459
 2716TIP3   OH229706   6.547   5.941   2.237  0.5703 -0.5442  0.7252
 2716TIP3    H129707   6.464   5.977   2.207  1.5366  0.0749 -1.4382
 2716TIP3    H229708   6.523   5.868   2.294 -1.4211  0.1794  0.8888
 2717TIP3   OH229709   2.649   3.731   8.450  0.0304 -0.1336 -0.5597
 2717TIP3    H129710   2.678   3.722   8.359  0.4846  1.3423 -0.5910
 2717TIP3    H229711   2.709   3.796   8.487  0.6033 -1.5682  1.1425
 2718TIP3   OH229712   2.973   6.404   8.009  0.3817  0.1550 -0.4520
 2718TIP3    H129713   2.991   6.373   8.098  0.0057  0.2456 -0.3425
 2718TIP3    H229714   2.966   6.325   7.957 -2.2947 -0.0955  0.1345
 2719TIP3   OH229715   4.334   2.908   1.046 -0.4520 -0.2729 -0.3429
 2719TIP3    H129716   4.395   2.944   1.110 -0.0856 -0.3862 -0.6184
 2719TIP3    H229717   4.388   2.849   0.993 -0.2762  1.2314 -1.9633
 2720TIP3   OH229718   0.078   0.146   0.469 -0.0531  0.4435 -0.0743
 2720TIP3    H129719  -0.010   0.177   0.494 -0.6545 -0.0094 -1.5478
 2720TIP3    H229720   0.070   0.051   0.467  0.7868  0.3375  0.7945
 2721TIP3   OH229721   2.442   5.356   0.451 -0.3694  0.5855  0.1752
 2721TIP3    H129722   2.367   5.297   0.451 -0.4749  0.6582  1.9744
 2721TIP3    H229723   2.511   5.307   0.497 -0.2686  1.5868  1.1437
 2722TIP3   OH229724   2.215   3.706   0.199  0.4105  0.0615  0.1008
 2722TIP3    H129725   2.268   3.699   0.119 -0.3406  2.8068 -0.7404
 2722TIP3    H229726   2.259   3.649   0.262  2.1845 -0.6388 -1.6601
 2723TIP3   OH229727   3.408   3.716   0.417  0.2473  0.0824 -0.0435
 2723TIP3    H129728   3.417   3.621   0.420 -0.0790  0.0530  0.0522
 2723TIP3    H229729   3.497   3.749   0.410  0.6197 -0.0973  2.9407
 2724TIP3   OH229730   2.577   5.689   1.206  0.6945 -0.5537  0.4806
 2724TIP3    H129731   2.621   5.774   1.203 -0.6898  0.1708 -0.9413
 2724TIP3    H229732   2.512   5.693   1.136  0.2404 -2.6099  0.7113
 2725TIP3   OH229733   5.838   5.365   6.771  0.3579  0.0292  0.1982
 2725TIP3    H129734   5.811   5.451   6.802 -1.1782  0.1565 -1.3388
 2725TIP3    H229735   5.817   5.306   6.843 -0.1687  0.7224  0.6246
 2726TIP3   OH229736   0.333   3.976   7.993 -0.1417 -0.1888 -0.1033
 2726TIP3    H129737   0.397   3.978   8.064 -2.5944  2.3950  2.3405
 2726TIP3    H229738   0.292   3.890   7.999  1.5287 -1.0142 -0.2270
 2727TIP3   OH229739   4.434   1.374   1.200 -0.6521 -0.5813 -0.2265
 2727TIP3    H129740   4.394   1.461   1.204  1.3556  0.3454  1.3396
 2727TIP3    H229741   4.390   1.325   1.270 -1.4996 -0.7290 -0.8438
 2728TIP3   OH229742   5.131   2.787   0.339 -0.2975  0.2060 -0.4120
 2728TIP3    H129743   5.126   2.733   0.260 -0.8741 -1.0926  0.4861
 2728TIP3    H229744   5.149   2.875   0.306 -1.8496 -0.0407 -2.0956
 2729TIP3   OH229745   5.209   5.794   0.468 -0.3275 -0.0169 -0.5799
 2729TIP3    H129746   5.173   5.875   0.431 -0.9213 -0.1511 -0.3053
 2729TIP3    H229747   5.270   5.763   0.401  0.3995  0.9922 -0.4129
 2730TIP3   OH229748   4.159   1.577   2.292 -0.2367  0.2282 -0.6562
 2730TIP3    H129749   4.219   1.510   2.322  0.0927  0.1033 -1.5647
 2730TIP3    H229750   4.073   1.534   2.293  0.0611 -0.4482 -1.8873
 2731TIP3   OH229751   1.993   1.678   1.465 -0.3808 -0.3229  0.3163
 2731TIP3    H129752   1.928   1.731   1.419  0.0242  1.1180  1.3072
 2731TIP3    H229753   2.077   1.719   1.443 -0.2382  1.0371  2.9965
 2732TIP3   OH229754   3.473   1.049   0.875 -0.6706  0.4493 -0.3039
 2732TIP3    H129755   3.498   0.990   0.947 -0.8376  0.8851  0.1165
 2732TIP3    H229756   3.419   0.995   0.818 -0.3287  0.0264 -0.2374
 2733TIP3   OH229757   2.591   3.267   0.048  0.2479 -0.2865 -0.3232
 2733TIP3    H129758   2.538   3.196   0.012  0.9696 -0.6273 -0.7472
 2733TIP3    H229759   2.639   3.227   0.121  1.3058 -0.4913 -1.0958
 2734TIP3   OH229760   1.720   6.328   1.494 -0.6358 -0.5647  0.5854
 2734TIP3    H129761   1.719   6.410   1.445 -0.2078 -1.1297 -0.4116
 2734TIP3    H229762   1.813   6.308   1.507 -0.7405 -0.5123  1.4967
 2735TIP3   OH229763   0.889   2.746   7.368 -0.3398  0.1496 -0.0869
 2735TIP3    H129764   0.826   2.677   7.349 -0.7687  0.5240 -0.0324
 2735TIP3    H229765   0.838   2.813   7.414  0.2705  0.0908  0.6901
 2736TIP3   OH229766   1.078   3.814   0.600 -0.1618  0.1782  0.3508
 2736TIP3    H129767   1.047   3.863   0.676  2.3798  1.8795  0.4002
 2736TIP3    H229768   1.040   3.859   0.525  0.8400  1.2565  0.4694
 2737TIP3   OH229769   0.727   4.195   0.366 -0.4058 -0.1673  0.0325
 2737TIP3    H129770   0.680   4.255   0.423 -2.2616 -0.9637 -0.5994
 2737TIP3    H229771   0.814   4.186   0.406 -0.4749  1.9897  0.7681
 2738TIP3   OH229772   3.412   4.970   8.458 -0.0519 -0.6476 -0.1114
 2738TIP3    H129773   3.495   4.973   8.411 -0.1274 -0.2077 -0.2211
 2738TIP3    H229774   3.350   4.931   8.397  0.5687 -3.1604  0.7452
 2739TIP3   OH229775   1.589   1.290   2.851  0.0640  0.0509 -0.6443
 2739TIP3    H129776   1.596   1.259   2.941 -0.0705  0.5649 -0.4543
 2739TIP3    H229777   1.519   1.355   2.853  1.6966  1.9126 -0.6021
 2740TIP3   OH229778   2.411   5.927   0.768 -0.5242  0.3865  0.0479
 2740TIP3    H129779   2.334   5.916   0.712 -2.0558  0.9507  1.9130
 2740TIP3    H229780   2.484   5.897   0.715 -1.9089  0.6259 -2.1180
 2741TIP3   OH229781   6.753   3.930   2.511  0.3286 -0.0291  0.2341
 2741TIP3    H129782   6.719   3.846   2.541 -0.3444  0.6120  1.3671
 2741TIP3    H229783   6.776   3.977   2.592  0.4018  0.9934 -0.3585
 2742TIP3   OH229784   3.678   5.526   8.934 -1.0040 -0.1994  0.1508
 2742TIP3    H129785   3.639   5.440   8.919  1.6303 -1.2781 -1.0567
 2742TIP3    H229786   3.744   5.535   8.866 -0.5511  2.4080  0.8180
 2743TIP3   OH229787   6.395   3.064   1.635  0.5551 -0.1351 -0.1043
 2743TIP3    H129788   6.417   3.099   1.549  0.9824  0.9186  0.4117
 2743TIP3    H229789   6.471   3.012   1.660  0.8237  0.3033  0.0107
 2744TIP3   OH229790   5.989   4.553   0.373  0.5024 -0.6240 -0.1765
 2744TIP3    H129791   6.009   4.463   0.401 -0.6055 -0.7947  0.1349
 2744TIP3    H229792   5.896   4.563   0.393 -0.4085 -0.7151 -3.7157
 2745TIP3   OH229793   4.867   2.237   2.793  0.1892 -0.0190  0.6558
 2745TIP3    H129794   4.902   2.215   2.879 -0.1135 -0.0536  0.7708
 2745TIP3    H229795   4.882   2.158   2.740  1.7712  0.5298  0.2340
 2746TIP3   OH229796   2.889   2.737   8.100 -0.5480  0.4064 -0.0802
 2746TIP3    H129797   2.909   2.644   8.088 -1.0590  0.3051 -0.1631
 2746TIP3    H229798   2.832   2.758   8.026 -0.6284  0.7258  0.0746
 2747TIP3   OH229799   6.400   4.251   8.218  0.0079  0.2118  0.6825
 2747TIP3    H129800   6.333   4.315   8.191  0.6481  0.3506 -0.6594
 2747TIP3    H229801   6.447   4.231   8.137  1.5666  0.0794  1.6008
 2748TIP3   OH229802   5.214   6.223   1.322 -0.3235  0.4044 -0.0377
 2748TIP3    H129803   5.220   6.303   1.270 -0.3846 -0.4066 -1.3507
 2748TIP3    H229804   5.120   6.207   1.331 -0.3128  0.5691  0.3669
 2749TIP3   OH229805   0.467   2.989   7.764  0.4517  0.7629 -0.0295
 2749TIP3    H129806   0.379   3.026   7.774 -0.0014 -0.8125  2.8363
 2749TIP3    H229807   0.479   2.981   7.670 -2.0467  1.9625 -0.5405
 2750TIP3   OH229808   1.370   2.890   0.166  0.0514  0.1982 -0.3696
 2750TIP3    H129809   1.413   2.805   0.167 -0.0707  0.1411  0.2643
 2750TIP3    H229810   1.439   2.952   0.190 -0.4188 -0.0013  1.6616
 2751TIP3   OH229811   2.292   3.420   0.099 -0.0475  1.0126  0.1449
 2751TIP3    H129812   2.331   3.394   0.182  0.3236 -0.6555 -0.5060
 2751TIP3    H229813   2.347   3.492   0.068  2.7099 -1.2842 -0.7679
 2752TIP3   OH229814   4.305   4.651   1.193  0.2039  0.0869  0.7264
 2752TIP3    H129815   4.335   4.733   1.232  0.7945 -0.2545  1.0045
 2752TIP3    H229816   4.350   4.647   1.108 -0.8619  0.6920  0.1139
 2753TIP3   OH229817   2.286   5.133   0.050  0.4972  0.3433 -0.3144
 2753TIP3    H129818   2.226   5.142   0.123 -0.6879 -0.3432 -1.1702
 2753TIP3    H229819   2.247   5.066  -0.006  0.9694  1.3323 -1.9310
 2754TIP3   OH229820   4.183   3.467   1.959 -0.0338  0.3865  0.4086
 2754TIP3    H129821   4.235   3.505   1.887 -0.0655  0.6672  0.5330
 2754TIP3    H229822   4.100   3.444   1.918 -0.4183  1.4574  0.5632
 2755TIP3   OH229823   1.089   4.458   7.976 -0.2766 -0.8696 -0.4157
 2755TIP3    H129824   1.117   4.547   7.996 -1.4139 -0.5326 -0.2753
 2755TIP3    H229825   1.170   4.413   7.950  0.1279  0.4898 -1.6302
 2756TIP3   OH229826   3.613   1.760   3.352  0.6656  0.0236 -0.2579
 2756TIP3    H129827   3.662   1.691   3.396  0.9750  0.8921  0.8032
 2756TIP3    H229828   3.529   1.763   3.396  0.7740  0.5357 -0.0719
 2757TIP3   OH229829   3.043   3.662   8.548 -0.2557  0.0203  0.2175
 2757TIP3    H129830   2.989   3.689   8.474  0.7918  0.3965 -0.4341
 2757TIP3    H229831   3.004   3.581   8.579 -2.2749  1.1818  0.9196
 2758TIP3   OH229832   4.412   0.035   1.845  0.0331 -0.3459 -0.5301
 2758TIP3    H129833   4.364   0.034   1.762 -0.0587 -0.3637 -0.4764
 2758TIP3    H229834   4.360  -0.019   1.904 -0.7194  0.9074  0.0020
 2759TIP3   OH229835   3.249   0.717   2.256  0.0130  0.0320  0.0497
 2759TIP3    H129836   3.335   0.729   2.297 -0.1402 -1.6877  0.9652
 2759TIP3    H229837   3.191   0.775   2.305  0.4440  0.3952  0.1406
 2760TIP3   OH229838   2.098   2.714   2.831 -0.8525  0.3377  0.4928
 2760TIP3    H129839   2.171   2.721   2.892 -1.4527  1.1718  1.1335
 2760TIP3    H229840   2.061   2.627   2.849  0.2623 -0.3093 -0.1923
 2761TIP3   OH229841   4.622   0.919   8.386  0.2026 -0.6041 -0.1977
 2761TIP3    H129842   4.575   0.894   8.465 -0.6462  0.5848 -0.2866
 2761TIP3    H229843   4.558   0.909   8.316  0.4382 -0.1068 -0.4922
 2762TIP3   OH229844   5.136   4.980   8.360  0.1779  0.1052  0.2653
 2762TIP3    H129845   5.187   4.955   8.283  0.8068  0.7416  0.4652
 2762TIP3    H229846   5.096   5.064   8.335  0.4002  0.3249  0.6313
 2763TIP3   OH229847   0.277   1.599   1.359 -0.0855  0.1239  0.6983
 2763TIP3    H129848   0.327   1.526   1.321 -2.2000 -0.4341 -1.2019
 2763TIP3    H229849   0.344   1.655   1.398  1.9167 -1.2380 -0.5659
 2764TIP3   OH229850   6.498   5.064   8.624 -0.5271  0.2835  0.0245
 2764TIP3    H129851   6.413   5.069   8.668 -0.0609 -0.5303  1.0852
 2764TIP3    H229852   6.545   4.996   8.673  0.0894 -0.5450 -1.6585
 2765TIP3   OH229853   1.746   5.009   8.509  0.1935 -0.0594 -0.5436
 2765TIP3    H129854   1.700   5.020   8.426  0.5388 -1.4733 -0.9515
 2765TIP3    H229855   1.825   4.960   8.487  0.2066 -0.6090  0.6376
 2766TIP3   OH229856   0.111   3.280   2.530  0.4193  0.5571 -0.6510
 2766TIP3    H129857   0.077   3.287   2.619 -1.4034  1.7564 -1.3684
 2766TIP3    H229858   0.194   3.327   2.532  1.1118 -0.6719  0.7247
 2767TIP3   OH229859   2.871   0.816   2.343  0.4512 -0.2314 -0.1747
 2767TIP3    H129860   2.935   0.768   2.396 -0.4997 -1.9175 -0.5016
 2767TIP3    H229861   2.806   0.847   2.407 -0.2939 -1.6174 -0.2246
 2768TIP3   OH229862   6.765   5.402   0.597  0.6878 -0.1445 -0.2332
 2768TIP3    H129863   6.803   5.364   0.676 -0.8079 -2.3794 -0.4838
 2768TIP3    H229864   6.691   5.454   0.629  1.7117  1.2140 -0.0086
 2769TIP3   OH229865   1.102   3.519   1.763  0.0731  0.2315 -0.3228
 2769TIP3    H129866   1.012   3.548   1.751  0.3932  1.2729 -0.3701
 2769TIP3    H229867   1.155   3.596   1.739  0.9227  0.1915  1.2989
 2770TIP3   OH229868   6.239   0.455   1.215 -0.1174  0.0057 -0.5378
 2770TIP3    H129869   6.297   0.380   1.231  0.7701  0.7451 -0.1874
 2770TIP3    H229870   6.153   0.426   1.244  0.5355 -0.3168  1.1712
 2771TIP3   OH229871   0.367   5.306   0.266  0.2417  0.4161 -0.3012
 2771TIP3    H129872   0.352   5.229   0.210 -1.7303  0.0800  0.6149
 2771TIP3    H229873   0.310   5.374   0.229  0.4333  0.7974  0.0982
 2772TIP3   OH229874   5.648   3.747   1.840  1.0987 -0.2355 -0.3286
 2772TIP3    H129875   5.602   3.663   1.838  1.6848 -0.5746  0.1261
 2772TIP3    H229876   5.726   3.734   1.787  0.6561  0.3581 -1.1468
 2773TIP3   OH229877   6.432   0.365   1.553  0.3266  0.3766  0.5424
 2773TIP3    H129878   6.432   0.403   1.641  0.9421  0.0942  0.6710
 2773TIP3    H229879   6.524   0.345   1.535  0.2326  0.6181 -0.2507
 2774TIP3   OH229880   0.317   3.472   2.579 -0.3989 -0.0985  0.5523
 2774TIP3    H129881   0.321   3.547   2.638 -0.6373  0.6313 -0.3394
 2774TIP3    H229882   0.362   3.501   2.500  1.9662 -1.8333  1.1629
 2775TIP3   OH229883   4.120   6.572   1.833  0.6086  0.1777  0.4995
 2775TIP3    H129884   4.071   6.632   1.889 -0.0858 -1.6926  2.0181
 2775TIP3    H229885   4.177   6.524   1.894  0.7065 -1.0921 -0.5574
 2776TIP3   OH229886   5.690   2.714   1.694  0.6760  0.0929  0.1611
 2776TIP3    H129887   5.685   2.640   1.754  2.1465 -0.1466  0.0190
 2776TIP3    H229888   5.615   2.769   1.716 -0.2907 -1.2984  0.4487
 2777TIP3   OH229889   5.861   1.994   0.685  0.3595  0.3653  0.6535
 2777TIP3    H129890   5.891   2.039   0.764 -1.8331  2.4604  0.4047
 2777TIP3    H229891   5.770   1.973   0.703  0.8041 -2.5062  0.0287
 2778TIP3   OH229892   2.108   2.821   0.340 -0.1426 -0.0496 -1.0672
 2778TIP3    H129893   2.033   2.874   0.368  1.1454  1.2020  0.2108
 2778TIP3    H229894   2.106   2.824   0.245 -1.1616  0.7691 -1.0371
 2779TIP3   OH229895   6.315   3.745   1.250  0.4572  0.0526  0.1958
 2779TIP3    H129896   6.268   3.735   1.167 -0.5067  1.6892  0.4986
 2779TIP3    H229897   6.406   3.724   1.229  0.1541  0.0099 -1.1823
 2780TIP3   OH229898   3.249   5.727   8.871 -0.1808 -0.0850  0.3975
 2780TIP3    H129899   3.181   5.697   8.811 -1.4577 -0.2971  1.8688
 2780TIP3    H229900   3.306   5.783   8.819 -0.5783 -1.1493 -1.2466
 2781TIP3   OH229901   5.026   4.995   0.357 -0.6189 -0.5158  0.1144
 2781TIP3    H129902   5.030   4.934   0.431  0.3168 -0.8840 -0.2187
 2781TIP3    H229903   4.982   4.945   0.288 -0.4698 -0.5813  0.0647
 2782TIP3   OH229904   0.501   2.295   7.321 -0.1184  0.2617 -0.6398
 2782TIP3    H129905   0.481   2.357   7.251 -0.7913  0.1509 -0.5499
 2782TIP3    H229906   0.416   2.262   7.349  0.0933  0.6721  0.5643
 2783TIP3   OH229907   4.639   0.018   0.287  0.3335 -0.1450 -0.4303
 2783TIP3    H129908   4.598  -0.004   0.204  1.7904 -0.6751 -1.0483
 2783TIP3    H229909   4.590  -0.032   0.353 -0.6007  0.0032 -0.9961
 2784TIP3   OH229910   3.077   5.442   0.048 -0.5352 -0.1634  0.0740
 2784TIP3    H129911   3.172   5.453   0.061 -0.5162  0.5950 -0.6084
 2784TIP3    H229912   3.067   5.434  -0.046 -0.8599 -3.4593  0.2842
 2785TIP3   OH229913   5.250   6.480   1.896 -0.0619 -0.5257 -0.5352
 2785TIP3    H129914   5.286   6.501   1.983  0.9162 -0.7297 -0.8836
 2785TIP3    H229915   5.169   6.532   1.891  0.5603  0.5353 -0.0293
 2786TIP3   OH229916   3.371   1.601   0.103  0.0392  0.0660 -0.1993
 2786TIP3    H129917   3.279   1.627   0.094 -0.0146  0.1494  0.5044
 2786TIP3    H229918   3.368   1.507   0.119 -0.0998  0.4064  2.1237
 2787TIP3   OH229919   3.964   4.258   0.305  0.8253 -0.2313 -0.5290
 2787TIP3    H129920   3.871   4.243   0.286  0.8328 -0.1635 -0.6210
 2787TIP3    H229921   4.008   4.181   0.270  0.6516 -1.0046  0.8781
 2788TIP3   OH229922   2.527   3.103   8.340  0.1780  0.0329 -0.1577
 2788TIP3    H129923   2.623   3.103   8.338  0.1730 -0.0929 -1.2290
 2788TIP3    H229924   2.505   3.123   8.431  1.2162 -1.7756  0.5524
 2789TIP3   OH229925   1.503   2.340   0.537 -0.3828  0.2074  0.4402
 2789TIP3    H129926   1.537   2.360   0.450 -0.6620 -1.0936  0.0050
 2789TIP3    H229927   1.497   2.425   0.580 -0.3026  0.8935 -0.8320
 2790TIP3   OH229928   1.128   5.100   8.877  0.4219 -0.0531 -0.1577
 2790TIP3    H129929   1.160   5.190   8.880  1.4240 -0.4203  1.0345
 2790TIP3    H229930   1.175   5.060   8.804 -1.4229  0.8419 -1.9481
 2791TIP3   OH229931   1.419   4.151   0.817  0.4301  0.1769 -0.3699
 2791TIP3    H129932   1.466   4.188   0.892  0.3763  2.7192 -1.4722
 2791TIP3    H229933   1.364   4.223   0.786  0.4338 -0.7838 -2.8303
 2792TIP3   OH229934   3.136   0.683   1.514 -0.2677  0.1624  0.4946
 2792TIP3    H129935   3.133   0.588   1.528 -0.6550  0.4751  3.1493
 2792TIP3    H229936   3.056   0.716   1.557 -0.7779  1.6215 -1.4307
 2793TIP3   OH229937   2.796   2.898   7.903 -0.0959  0.6087 -0.3331
 2793TIP3    H129938   2.869   2.935   7.853 -0.6671  1.9007 -0.2518
 2793TIP3    H229939   2.781   2.961   7.973  0.6778 -1.1728  1.5032
 2794TIP3   OH229940   3.338   5.767   8.090 -0.2173  0.0739 -0.1162
 2794TIP3    H129941   3.288   5.841   8.056 -0.4555 -0.0244  0.0258
 2794TIP3    H229942   3.300   5.690   8.049 -1.6970 -0.2375  1.7088
 2795TIP3   OH229943   0.070   3.512   7.978  0.2027 -0.6469  0.7533
 2795TIP3    H129944  -0.009   3.464   7.952 -1.1443  1.7488  0.0997
 2795TIP3    H229945   0.068   3.510   8.074 -0.6003 -0.6907  0.7444
 2796TIP3   OH229946   3.002   3.268   1.123 -0.8311 -0.3031 -0.2472
 2796TIP3    H129947   3.058   3.289   1.048 -0.3099 -1.7096 -0.2815
 2796TIP3    H229948   2.937   3.207   1.087 -1.1873 -0.2055  0.2282
 2797TIP3   OH229949   4.910   3.872   7.229  0.6360 -0.1484  0.1493
 2797TIP3    H129950   4.843   3.822   7.182 -0.5427  1.2209  0.3136
 2797TIP3    H229951   4.964   3.910   7.160  0.9039 -0.7878 -0.0002
 2798TIP3   OH229952   0.579   4.341   8.159 -0.2217  0.5298 -0.1250
 2798TIP3    H129953   0.546   4.425   8.128  0.6143  0.4978 -1.1362
 2798TIP3    H229954   0.662   4.328   8.112 -1.0154 -1.5256 -1.0654
 2799TIP3   OH229955   2.592   0.554   1.460  0.0043  0.0109 -0.4069
 2799TIP3    H129956   2.618   0.615   1.391 -0.4862  0.4254 -0.2319
 2799TIP3    H229957   2.601   0.604   1.541  0.5263 -0.4559 -0.1647
 2800TIP3   OH229958   0.554   6.169   0.406  0.2835  0.0057  0.1819
 2800TIP3    H129959   0.578   6.223   0.480  2.8774  1.1082 -1.3277
 2800TIP3    H229960   0.550   6.080   0.441  1.9555  0.4295  1.5638
 2801TIP3   OH229961   5.444   0.753   8.569  0.0406  0.8320  0.3263
 2801TIP3    H129962   5.494   0.826   8.533  1.0052 -0.9942 -2.3674
 2801TIP3    H229963   5.445   0.767   8.664  3.2230  2.4203  0.1838
 2802TIP3   OH229964   2.857   0.799   0.408 -0.4613  0.1627 -0.1815
 2802TIP3    H129965   2.873   0.707   0.388 -1.2900 -0.1100  0.3219
 2802TIP3    H229966   2.914   0.818   0.482 -1.9548 -0.6395  1.2441
 2803TIP3   OH229967   0.045   2.568   7.871 -0.5804  0.8261 -0.2183
 2803TIP3    H129968  -0.019   2.529   7.812  0.1858 -0.9627  0.0583
 2803TIP3    H229969   0.067   2.498   7.933  1.9168  1.1933 -0.5531
 2804TIP3   OH229970   2.705   1.715   2.578 -0.9200 -0.0044 -0.1330
 2804TIP3    H129971   2.739   1.763   2.503  2.9285 -1.0473  0.7595
 2804TIP3    H229972   2.696   1.625   2.548  0.3169 -0.3618  0.4935
 2805TIP3   OH229973   0.617   3.839   2.398 -0.1677 -0.5795  0.4675
 2805TIP3    H129974   0.528   3.859   2.370  0.1722 -0.1086 -0.3134
 2805TIP3    H229975   0.671   3.854   2.320  0.3301 -3.0339  0.2716
 2806TIP3   OH229976   3.349   2.942   8.434  0.2896 -0.2952  0.1115
 2806TIP3    H129977   3.335   2.894   8.516  1.2922 -2.1756 -0.7591
 2806TIP3    H229978   3.357   2.874   8.368  1.2463  1.1108 -1.2844
 2807TIP3   OH229979   1.733   2.550   8.615  0.0002 -0.0462 -0.3297
 2807TIP3    H129980   1.791   2.539   8.690  0.1861 -1.1938 -0.6198
 2807TIP3    H229981   1.790   2.537   8.539 -0.0497  1.7205 -0.7240
 2808TIP3   OH229982   2.536   1.511   2.875 -0.6225 -0.2625 -0.4610
 2808TIP3    H129983   2.508   1.514   2.967  2.8856  0.0280  0.7359
 2808TIP3    H229984   2.567   1.422   2.862  2.4606  0.6626 -0.0781
 2809TIP3   OH229985   4.877   1.261   1.474 -0.3228 -0.8669  0.1124
 2809TIP3    H129986   4.838   1.232   1.557 -1.5680 -2.2292 -0.9057
 2809TIP3    H229987   4.970   1.272   1.494 -0.3091 -2.7682  1.3054
 2810TIP3   OH229988   2.087   4.210   0.711  0.1211 -0.6301 -0.5526
 2810TIP3    H129989   2.091   4.150   0.785 -0.6302 -0.9423 -0.7535
 2810TIP3    H229990   2.178   4.234   0.695  0.5360 -2.3216 -0.9646
 2811TIP3   OH229991   1.984   3.223   0.346 -0.6563  0.3289  0.1968
 2811TIP3    H129992   2.062   3.265   0.382  1.0031 -1.6923 -0.8722
 2811TIP3    H229993   1.959   3.280   0.273  0.2933  0.6100  0.0689
 2812TIP3   OH229994   6.495   3.219   2.353 -0.4130 -0.0344  0.2655
 2812TIP3    H129995   6.480   3.272   2.275  2.7503 -0.3133 -0.6950
 2812TIP3    H229996   6.539   3.279   2.414 -1.2790 -0.2840  1.1571
 2813TIP3   OH229997   6.520   4.805   1.713  0.1102  0.5578  0.2610
 2813TIP3    H129998   6.568   4.723   1.717  0.1257  0.5972  2.7584
 2813TIP3    H229999   6.430   4.779   1.692 -0.0305 -0.2093  1.7018
 2814TIP3   OH230000   2.759   0.343   1.381  0.3955 -0.2977 -0.5765
 2814TIP3    H130001   2.710   0.424   1.396 -0.3938 -0.7062 -0.8703
 2814TIP3    H230002   2.691   0.276   1.369  1.0178 -1.3479  1.3559
 2815TIP3   OH230003   6.710   0.130   3.090  0.1785 -0.2832  0.2320
 2815TIP3    H130004   6.637   0.073   3.066  0.4287 -0.8875  0.8762
 2815TIP3    H230005   6.669   0.212   3.116 -0.2826 -0.6257  0.6045
 2816TIP3   OH230006   4.226   5.945   0.683  0.0314  0.4494  0.0980
 2816TIP3    H130007   4.195   5.902   0.603 -1.7997  0.1431  0.9385
 2816TIP3    H230008   4.235   6.037   0.658 -0.6738  0.3865 -0.4260
 2817TIP3   OH230009   6.591   0.574   2.070 -0.6558 -0.1958  0.4423
 2817TIP3    H130010   6.511   0.522   2.077 -1.9364  1.6437  0.0757
 2817TIP3    H230011   6.658   0.511   2.044 -1.9439 -1.8052  0.8661
 2818TIP3   OH230012   1.160   3.458   7.569  0.0756  0.0401 -0.1790
 2818TIP3    H130013   1.178   3.372   7.609 -0.5029  0.0484  0.1253
 2818TIP3    H230014   1.093   3.439   7.503  0.4334  0.1568 -0.5740
 2819TIP3   OH230015   4.766   5.839   0.472 -0.0203 -0.0966 -0.6326
 2819TIP3    H130016   4.708   5.812   0.401 -1.0319 -2.9566  1.0919
 2819TIP3    H230017   4.819   5.761   0.489  1.6929  1.2234  0.3838
 2820TIP3   OH230018   2.763   5.071   0.368  0.2407  0.3338  0.0126
 2820TIP3    H130019   2.669   5.073   0.354  0.1193  0.6283  0.8347
 2820TIP3    H230020   2.783   4.979   0.388 -0.0724  0.5018  1.1320
 2821TIP3   OH230021   5.075   0.929   7.182  0.1230  0.2050  0.2572
 2821TIP3    H130022   5.152   0.911   7.236 -0.8623 -1.3688  1.2400
 2821TIP3    H230023   5.040   1.011   7.218  0.1939 -0.1578  1.2011
 2822TIP3   OH230024   0.707   1.825   8.436  0.1030 -0.8929  0.2969
 2822TIP3    H130025   0.776   1.840   8.501 -0.0897  0.7947  0.1607
 2822TIP3    H230026   0.686   1.732   8.444  0.8805 -0.9675  1.8530
 2823TIP3   OH230027   4.412   3.481   2.136 -0.1634  0.1224 -0.3014
 2823TIP3    H130028   4.457   3.422   2.075 -3.0144 -2.4082 -0.2039
 2823TIP3    H230029   4.346   3.526   2.082 -0.4308  0.4495  0.2889
 2824TIP3   OH230030   3.777   2.269   1.684 -0.4229 -0.1687 -0.1490
 2824TIP3    H130031   3.739   2.276   1.772 -0.4944 -3.0622  0.1683
 2824TIP3    H230032   3.723   2.203   1.640  0.8440 -0.2486 -1.6771
 2825TIP3   OH230033   4.105   3.618   8.636  0.0181 -0.1285 -0.3518
 2825TIP3    H130034   4.133   3.695   8.587  0.3509  0.7341  1.1535
 2825TIP3    H230035   4.172   3.605   8.703 -1.0127 -0.5622  0.6290
 2826TIP3   OH230036   0.168   1.793   7.360 -0.3864  0.5253  0.7123
 2826TIP3    H130037   0.181   1.711   7.408  1.6050 -0.3939 -1.2170
 2826TIP3    H230038   0.083   1.782   7.316  0.3313 -1.0337 -0.3933
 2827TIP3   OH230039   4.778   0.514   2.195 -0.1279 -1.0741  0.2461
 2827TIP3    H130040   4.686   0.493   2.179  0.1166 -2.4010  0.4119
 2827TIP3    H230041   4.777   0.597   2.241 -1.1883 -0.5982 -0.6019
 2828TIP3   OH230042   6.064   1.499   2.078  0.3363 -0.1337  0.1767
 2828TIP3    H130043   5.980   1.542   2.062 -0.4393 -1.9629 -1.0988
 2828TIP3    H230044   6.122   1.532   2.009 -0.4229 -1.4504 -1.1560
 2829TIP3   OH230045   1.788   6.769   1.245  0.1012 -0.4187 -0.0823
 2829TIP3    H130046   1.820   6.787   1.157  0.1074 -1.0177 -0.2033
 2829TIP3    H230047   1.866   6.777   1.301 -0.2908  2.2223  0.2130
 2830TIP3   OH230048   2.459   6.642   1.012  0.2328 -0.3856  0.5122
 2830TIP3    H130049   2.391   6.709   1.017  0.7100  0.2915 -1.2924
 2830TIP3    H230050   2.465   6.607   1.101 -2.4960 -0.5211  0.7295
 2831TIP3   OH230051   3.697   0.888   7.650 -0.4913 -0.6322  0.3371
 2831TIP3    H130052   3.745   0.826   7.596 -1.0016 -0.6439 -0.1115
 2831TIP3    H230053   3.682   0.963   7.593 -1.1620 -0.7073  0.4048
 2832TIP3   OH230054   1.759   2.341   1.516 -0.5517  0.1075  0.2236
 2832TIP3    H130055   1.707   2.295   1.582 -0.7397  0.8251  0.5879
 2832TIP3    H230056   1.702   2.349   1.440 -0.4461 -0.4323  0.0791
 2833TIP3   OH230057   2.953   2.773   0.617 -0.0773 -0.1193 -0.6336
 2833TIP3    H130058   2.954   2.803   0.526 -0.9543  1.0749 -0.2672
 2833TIP3    H230059   2.964   2.852   0.669 -1.1895 -0.5654  0.3311
 2834TIP3   OH230060   5.578   0.015   8.004  0.5861 -0.2695  0.3651
 2834TIP3    H130061   5.648  -0.047   8.028  0.2762 -0.8880 -0.2970
 2834TIP3    H230062   5.612   0.100   8.031  2.0664 -0.4118 -0.8748
 2835TIP3   OH230063   5.727   4.713   1.193  0.4162  0.3745 -0.2417
 2835TIP3    H130064   5.697   4.782   1.252 -0.2224  1.0331 -1.3209
 2835TIP3    H230065   5.647   4.679   1.153  0.5684 -1.9293  1.2268
 2836TIP3   OH230066   4.419   6.246   1.709  0.0700 -0.1268 -0.2156
 2836TIP3    H130067   4.489   6.186   1.735  1.9660  2.1358  0.2258
 2836TIP3    H230068   4.352   6.236   1.776  0.7992 -0.9743  0.4075
 2837TIP3   OH230069   4.390   1.339   2.098 -0.3406  0.0390  0.3573
 2837TIP3    H130070   4.400   1.259   2.046 -1.6391 -0.2677  0.5384
 2837TIP3    H230071   4.455   1.399   2.063 -0.0426 -0.7424 -0.4758
 2838TIP3   OH230072   3.789   0.037   0.184 -0.1400  0.0852 -0.2791
 2838TIP3    H130073   3.834   0.121   0.184  2.4996 -1.2284 -0.4602
 2838TIP3    H230074   3.779   0.014   0.276  1.9649 -0.7482 -0.2120
 2839TIP3   OH230075   0.553   4.654   1.135  0.1843 -0.6089 -0.4022
 2839TIP3    H130076   0.499   4.730   1.114  1.2343  0.7095  1.3794
 2839TIP3    H230077   0.632   4.665   1.082  0.9981  0.4305  0.9556
 2840TIP3   OH230078   4.417   2.227   1.080 -0.5685 -0.8344  0.1339
 2840TIP3    H130079   4.362   2.269   1.145 -0.3648  1.1537 -0.9000
 2840TIP3    H230080   4.501   2.272   1.086  0.4307 -2.6283  0.4871
 2841TIP3   OH230081   5.507   4.213   8.225  0.0789  0.3226 -0.5124
 2841TIP3    H130082   5.436   4.231   8.163 -0.4066  0.6133  0.1160
 2841TIP3    H230083   5.564   4.290   8.219  0.3200  0.1129 -0.9789
 2842TIP3   OH230084   2.326   5.999   8.855  0.3540 -0.1183  0.6166
 2842TIP3    H130085   2.318   5.915   8.901  0.0031  0.0176  0.8111
 2842TIP3    H230086   2.394   6.045   8.903 -0.5746  0.3473  1.5242
 2843TIP3   OH230087   1.784   2.919   1.154  0.2550 -0.1364  0.7059
 2843TIP3    H130088   1.837   2.968   1.217  1.2851  0.8162 -0.8308
 2843TIP3    H230089   1.708   2.975   1.139  1.4065  1.0712 -1.0098
 2844TIP3   OH230090   3.501   0.637   1.223  0.0780 -0.2158  0.3440
 2844TIP3    H130091   3.570   0.576   1.195  0.3300  0.1353  0.1932
 2844TIP3    H230092   3.534   0.675   1.305  1.4847  2.1906 -1.2037
 2845TIP3   OH230093   5.313   4.463   8.053 -0.0357 -0.2412  0.0744
 2845TIP3    H130094   5.243   4.521   8.023 -0.4331  0.1747  1.7309
 2845TIP3    H230095   5.389   4.488   8.001 -1.1259 -0.9096 -1.9991
 2846TIP3   OH230096   0.746   2.472   2.206  0.6352 -0.2745  0.4154
 2846TIP3    H130097   0.665   2.501   2.247  0.0485 -1.1637 -0.1028
 2846TIP3    H230098   0.756   2.381   2.234  1.5031 -0.1594  0.5353
 2847TIP3   OH230099   3.910   1.496   2.311 -0.6612  0.1229 -0.8999
 2847TIP3    H130100   3.859   1.577   2.314 -0.3413  0.3112  1.5264
 2847TIP3    H230101   3.882   1.452   2.231 -1.0753  2.4698 -2.1178
 2848TIP3   OH230102   0.149   1.108   0.294  0.1558  0.0980  0.4485
 2848TIP3    H130103   0.171   1.155   0.213 -0.2229 -0.3350  0.0903
 2848TIP3    H230104   0.166   1.172   0.364 -1.4398  1.1756 -0.0868
 2849TIP3   OH230105   2.029   5.382   0.095  0.1533  0.0387  0.2027
 2849TIP3    H130106   2.063   5.388   0.005 -0.9361 -0.7550 -0.2804
 2849TIP3    H230107   1.999   5.291   0.103 -1.2222  0.5280  0.8326
 2850TIP3   OH230108   3.114   1.301   0.215 -0.2188  0.4382  0.2415
 2850TIP3    H130109   3.024   1.296   0.246 -1.1916  4.2186 -1.5207
 2850TIP3    H230110   3.163   1.336   0.290 -0.1563 -1.3759  1.1117
 2851TIP3   OH230111   5.287   1.079   1.663  0.0496  0.2539  0.2974
 2851TIP3    H130112   5.262   1.167   1.636  0.2276  0.1341 -0.2878
 2851TIP3    H230113   5.377   1.088   1.694 -0.1218  0.3753  0.7633
 2852TIP3   OH230114   1.321   5.596   8.595  0.1511  0.4464  0.1560
 2852TIP3    H130115   1.307   5.515   8.546 -0.7070  1.2629 -0.9833
 2852TIP3    H230116   1.365   5.655   8.534 -0.5728  1.3510  0.4817
 2853TIP3   OH230117   4.569   2.207   2.058  0.5142 -0.3978 -0.3756
 2853TIP3    H130118   4.534   2.150   1.989 -2.3942  1.1919 -0.3834
 2853TIP3    H230119   4.525   2.176   2.138  0.1530  0.8026 -0.1008
 2854TIP3   OH230120   4.564   4.409   1.812  0.0535  0.5003 -0.3165
 2854TIP3    H130121   4.535   4.463   1.886  1.0252 -1.8501  1.9162
 2854TIP3    H230122   4.485   4.396   1.760 -1.0562  0.8668  1.2048
 2855TIP3   OH230123   3.060   0.010   1.149  0.0365 -1.0177  0.1368
 2855TIP3    H130124   2.973   0.021   1.110  0.9966  1.5809 -1.5049
 2855TIP3    H230125   3.084   0.098   1.178  2.6010 -1.4148 -0.5858
 2856TIP3   OH230126   5.315   2.365   1.918 -0.5394 -0.5827 -0.2911
 2856TIP3    H130127   5.396   2.394   1.961  0.1049 -1.0051 -1.1818
 2856TIP3    H230128   5.249   2.428   1.946  0.2146  0.0832  0.0342
 2857TIP3   OH230129   4.675   1.039   7.818 -0.0336  0.0807 -0.6187
 2857TIP3    H130130   4.583   1.062   7.807  0.2464  1.6023  0.1127
 2857TIP3    H230131   4.701   1.078   7.901  1.0677 -1.0458 -0.3927
 2858TIP3   OH230132   1.889   4.184   7.819 -0.5312  0.5008  0.7138
 2858TIP3    H130133   1.917   4.094   7.831 -0.6988  0.5468  1.5661
 2858TIP3    H230134   1.933   4.233   7.889 -0.0943  1.1611 -0.0028
 2859TIP3   OH230135   0.266   0.667   0.745 -0.7558  0.1606 -0.0471
 2859TIP3    H130136   0.232   0.636   0.829  0.5630 -1.0000  0.1038
 2859TIP3    H230137   0.359   0.683   0.762 -0.7544  1.2231 -0.9545
 2860TIP3   OH230138   2.960   4.569   2.135 -0.4565  0.5161  0.3675
 2860TIP3    H130139   2.989   4.548   2.223  0.8841 -0.5220 -0.2763
 2860TIP3    H230140   2.908   4.493   2.108 -0.3682  0.5616  0.0643
 2861TIP3   OH230141   5.769   2.691   2.022 -0.1515  0.1684  0.2310
 2861TIP3    H130142   5.799   2.677   2.111  0.0168 -0.1495  0.1229
 2861TIP3    H230143   5.815   2.626   1.970 -0.2643  0.3399 -0.0861
 2862TIP3   OH230144   1.973   0.341   0.972  0.3278 -0.0105  0.4029
 2862TIP3    H130145   2.068   0.331   0.977  0.1851 -1.9983 -0.3545
 2862TIP3    H230146   1.955   0.420   1.024  2.1712 -0.7926  2.3770
 2863TIP3   OH230147   1.534   1.558   8.696  0.0359 -0.8227 -0.6411
 2863TIP3    H130148   1.507   1.591   8.781  0.9257 -0.8265 -0.3445
 2863TIP3    H230149   1.453   1.550   8.646 -0.2862  1.0331 -0.4614
 2864TIP3   OH230150   4.819   2.111   2.055 -0.1523  0.0587  0.0318
 2864TIP3    H130151   4.743   2.169   2.061 -0.2471 -0.0007 -0.5767
 2864TIP3    H230152   4.786   2.031   2.014 -0.0063 -0.4092  0.7984
 2865TIP3   OH230153   4.995   3.362   1.278 -0.6972 -0.8407  0.1824
 2865TIP3    H130154   5.045   3.285   1.307  0.6327 -0.0778 -0.0087
 2865TIP3    H230155   4.968   3.405   1.359  2.8560  1.1911  0.5050
 2866TIP3   OH230156   3.209   3.526   1.821  0.1630 -0.4995  0.2728
 2866TIP3    H130157   3.295   3.510   1.860  0.1145  1.2593  1.1605
 2866TIP3    H230158   3.146   3.501   1.889 -0.0045 -0.6076  0.0808
 2867TIP3   OH230159   1.438   0.663   0.165 -0.1660 -0.8052  0.7564
 2867TIP3    H130160   1.421   0.746   0.210 -0.8383 -0.8510  0.5982
 2867TIP3    H230161   1.501   0.618   0.222  0.6076  0.0231  0.5895
 2868TIP3   OH230162   1.443   3.726   2.690  1.1086 -0.0989  0.5512
 2868TIP3    H130163   1.436   3.670   2.613  2.0438 -0.4960  0.7339
 2868TIP3    H230164   1.524   3.775   2.677  1.1286  0.0397  1.1424
 2869TIP3   OH230165   0.351   5.662   0.252 -0.2783  0.6503 -0.2678
 2869TIP3    H130166   0.293   5.736   0.232 -0.7253  0.5492  0.5911
 2869TIP3    H230167   0.399   5.647   0.171  0.1956  2.2176 -0.3178
 2870TIP3   OH230168   0.590   4.805   8.762  0.2879 -0.2026  0.2259
 2870TIP3    H130169   0.585   4.761   8.847  1.5081 -0.0975  0.3803
 2870TIP3    H230170   0.627   4.891   8.782 -0.4711  0.2473 -0.2805
 2871TIP3   OH230171   1.725   2.974   2.695 -0.1959  0.6037 -0.5707
 2871TIP3    H130172   1.709   2.948   2.604 -0.2489  1.0944 -0.7035
 2871TIP3    H230173   1.813   2.939   2.714 -0.5619 -0.3175 -0.4963
 2872TIP3   OH230174   2.523   2.906   2.971 -0.3383  1.3723  0.7966
 2872TIP3    H130175   2.484   2.819   2.975 -0.5652  1.4569  0.4556
 2872TIP3    H230176   2.609   2.895   3.012  1.7120 -0.1995 -3.2959
 2873TIP3   OH230177   3.246   0.762   0.312 -0.7404  0.2940 -0.3733
 2873TIP3    H130178   3.239   0.723   0.225  1.7549  0.0226 -0.5150
 2873TIP3    H230179   3.283   0.693   0.367  1.8337  1.7380 -0.1529
 2874TIP3   OH230180   2.509   6.466   2.253 -0.4206 -0.2401  0.1907
 2874TIP3    H130181   2.561   6.521   2.194 -1.5417  1.4886  0.7207
 2874TIP3    H230182   2.526   6.377   2.224 -1.1732  0.5205 -3.0282
 2875TIP3   OH230183   2.901   4.320   2.050  0.3310  0.3370 -0.4209
 2875TIP3    H130184   2.987   4.277   2.052 -0.2068 -0.7952 -0.6513
 2875TIP3    H230185   2.845   4.259   2.002 -0.6592  0.9597 -0.0879
 2876TIP3   OH230186   2.032   5.086   7.064  0.0251 -0.1353  0.3103
 2876TIP3    H130187   2.007   5.179   7.063 -2.0405 -0.5881 -2.9618
 2876TIP3    H230188   2.110   5.082   7.008 -0.4550 -0.4922 -0.3348
 2877TIP3   OH230189   1.469   5.604   2.491  0.4779 -0.1374 -0.5853
 2877TIP3    H130190   1.478   5.517   2.530 -1.2468  0.3152  0.9651
 2877TIP3    H230191   1.393   5.596   2.433  1.3302 -0.0470 -1.7726
 2878TIP3   OH230192   6.750   6.211   8.780  0.3283 -0.5981 -0.3930
 2878TIP3    H130193   6.715   6.166   8.703  0.4853  2.3648 -2.3693
 2878TIP3    H230194   6.680   6.204   8.846 -0.1113 -2.5763 -1.0100
 2879TIP3   OH230195   4.234   2.568   2.292 -0.0072  0.1237  0.0733
 2879TIP3    H130196   4.197   2.563   2.204 -2.1220  1.5449  0.7917
 2879TIP3    H230197   4.220   2.481   2.330  2.0888 -0.9122 -1.3392
 2880TIP3   OH230198   2.560   6.071   0.553  0.6537 -0.4300  0.1032
 2880TIP3    H130199   2.543   6.146   0.497 -2.3860  0.4939  2.0230
 2880TIP3    H230200   2.520   5.997   0.507 -0.4286  0.0234  0.2886
 2881TIP3   OH230201   4.703   5.991   8.002 -0.3070  0.0634  0.0156
 2881TIP3    H130202   4.628   5.979   7.944 -0.8993  1.1656  0.5234
 2881TIP3    H230203   4.688   5.929   8.074 -0.6267  0.1388  0.0128
 2882TIP3   OH230204   3.536   6.588   1.946  0.0935 -0.1407 -0.3387
 2882TIP3    H130205   3.626   6.614   1.926 -0.2675  0.2186 -1.5746
 2882TIP3    H230206   3.485   6.667   1.935 -0.2760 -0.1247  1.2662
 2883TIP3   OH230207   1.026   3.351   0.502  0.1698 -0.4139 -0.1115
 2883TIP3    H130208   1.052   3.437   0.536 -0.0229 -0.6747  0.6941
 2883TIP3    H230209   1.055   3.288   0.568  0.2454 -0.9680 -0.6635
 2884TIP3   OH230210   2.288   3.559   0.416 -0.2572 -0.2724 -0.1500
 2884TIP3    H130211   2.383   3.556   0.404  0.1039  1.6735  1.5828
 2884TIP3    H230212   2.270   3.488   0.477  0.2548 -0.0233  0.3031
 2885TIP3   OH230213   4.409   5.013   1.026  0.1018 -0.8324  0.1398
 2885TIP3    H130214   4.348   5.060   1.082  0.7786  0.3320 -0.0767
 2885TIP3    H230215   4.358   4.941   0.989 -1.0735 -0.0031  0.1148
 2886TIP3   OH230216   0.364   3.928   0.587  0.0878 -0.0537 -0.1448
 2886TIP3    H130217   0.432   3.861   0.574  1.0777  0.5031  1.7246
 2886TIP3    H230218   0.294   3.883   0.634 -0.6708 -0.4996 -1.6265
 2887TIP3   OH230219   6.535   6.345   2.201 -0.0772  0.1326 -0.4957
 2887TIP3    H130220   6.494   6.369   2.285  1.4171 -0.6341  0.4897
 2887TIP3    H230221   6.469   6.292   2.157  0.0089 -1.5994  1.3281
 2888TIP3   OH230222   2.663   0.048   8.303 -0.2543 -0.0597 -0.7882
 2888TIP3    H130223   2.730   0.025   8.238  0.3603  1.2249 -0.6592
 2888TIP3    H230224   2.695   0.012   8.385 -0.7349 -1.1753 -1.0779
 2889TIP3   OH230225   1.826   3.836   0.662  0.3447  0.3158  0.0137
 2889TIP3    H130226   1.789   3.832   0.750  0.2770 -0.8888 -0.0460
 2889TIP3    H230227   1.919   3.857   0.676  0.5324 -0.7218  0.4530
 2890TIP3   OH230228   0.118   6.626   1.019 -0.6168  0.2085  0.3045
 2890TIP3    H130229   0.206   6.623   0.983 -0.0992 -3.6518  1.4213
 2890TIP3    H230230   0.070   6.557   0.973 -2.2379  0.3950  1.5961
 2891TIP3   OH230231   1.018   0.143   8.472  0.5050  0.1462 -0.2768
 2891TIP3    H130232   0.993   0.150   8.564 -1.6501 -2.2093 -0.5689
 2891TIP3    H230233   1.098   0.091   8.472 -0.0512 -0.7268  0.2289
 2892TIP3   OH230234   4.542   3.151   3.253 -0.0956  0.5361 -0.1876
 2892TIP3    H130235   4.602   3.086   3.215 -0.7151 -0.1664  0.0190
 2892TIP3    H230236   4.560   3.148   3.347 -0.4045  0.3755 -0.1329
 2893TIP3   OH230237   1.365   2.962   1.527  0.1819  0.1337  0.0888
 2893TIP3    H130238   1.321   2.880   1.550 -0.1762  0.3128  0.0490
 2893TIP3    H230239   1.452   2.935   1.498 -0.3403 -0.3500 -1.1203
 2894TIP3   OH230240   6.094   0.300   2.252 -0.4646  0.0243 -0.3021
 2894TIP3    H130241   6.071   0.241   2.180  1.5522 -1.2004 -0.0375
 2894TIP3    H230242   6.101   0.243   2.328 -0.5346  0.9757  0.4304
 2895TIP3   OH230243   5.678   6.097   8.165  0.0765  0.8244  0.4160
 2895TIP3    H130244   5.754   6.040   8.148 -1.5270 -1.6327  0.9037
 2895TIP3    H230245   5.677   6.107   8.260  0.7179  2.2772  0.2870
 2896TIP3   OH230246   3.716   1.939   1.372  0.5073  0.0532 -0.5017
 2896TIP3    H130247   3.790   1.927   1.313  1.0570 -1.7595  0.4765
 2896TIP3    H230248   3.650   1.982   1.318  3.1352  4.4486 -0.6758
 2897TIP3   OH230249   0.474   4.516   1.382 -0.3722 -0.2537 -0.0333
 2897TIP3    H130250   0.450   4.583   1.445 -3.1095  0.4495 -1.6633
 2897TIP3    H230251   0.533   4.560   1.321 -2.2984  0.8310 -1.2021
 2898TIP3   OH230252   2.889   4.298   0.669  0.1957 -0.2788 -0.2938
 2898TIP3    H130253   2.879   4.208   0.636  1.6193 -0.4883 -0.2315
 2898TIP3    H230254   2.813   4.312   0.725 -0.0877 -1.4170 -0.3659
 2899TIP3   OH230255   3.373   1.504   1.221 -0.0833 -0.1516 -0.0632
 2899TIP3    H130256   3.346   1.559   1.147  0.3897  0.4091  0.1713
 2899TIP3    H230257   3.290   1.477   1.261 -0.3343  0.4314 -0.1627
 2900TIP3   OH230258   5.921   5.492   1.867 -0.3217  0.2366  0.0490
 2900TIP3    H130259   5.978   5.496   1.944 -0.7713 -0.8937  0.4630
 2900TIP3    H230260   5.855   5.560   1.883  0.0710  0.5771  0.2505
 2901TIP3   OH230261   2.555   2.456   2.330 -0.3881  0.5061 -0.2337
 2901TIP3    H130262   2.505   2.488   2.255  0.1235  0.1677 -0.7307
 2901TIP3    H230263   2.640   2.501   2.323  0.5242 -1.2478 -1.2152
 2902TIP3   OH230264   2.661   0.650   1.203  0.2280 -0.0392  0.2078
 2902TIP3    H130265   2.600   0.594   1.155 -0.9129  0.7551  0.6908
 2902TIP3    H230266   2.735   0.660   1.143 -0.0960 -1.0164 -0.4002
 2903TIP3   OH230267   2.394   5.246   8.412  0.5155  0.1795  0.0198
 2903TIP3    H130268   2.377   5.219   8.321  0.6947  0.0558  0.0192
 2903TIP3    H230269   2.453   5.178   8.445  0.1665  0.0313  0.3424
 2904TIP3   OH230270   0.304   3.349   0.228 -0.4379  0.3618  0.1601
 2904TIP3    H130271   0.384   3.382   0.270 -0.7534 -0.8312  1.7946
 2904TIP3    H230272   0.318   3.255   0.220 -1.0625  0.3564 -0.9937
 2905TIP3   OH230273   1.211   0.316   1.845  0.0999  0.1230  0.0238
 2905TIP3    H130274   1.217   0.316   1.749  0.9552 -2.5273 -0.0090
 2905TIP3    H230275   1.280   0.377   1.873 -0.8094  1.6929 -1.0069
 2906TIP3   OH230276   4.686   1.374   0.098  0.1395  0.2685  0.0192
 2906TIP3    H130277   4.632   1.314   0.047  0.3473 -0.5633  0.7413
 2906TIP3    H230278   4.714   1.322   0.174 -0.4902  1.5735  1.2013
 2907TIP3   OH230279   4.028   5.713   0.132  0.1390 -0.2678 -0.0302
 2907TIP3    H130280   4.106   5.707   0.187 -0.8673  0.4979  1.5591
 2907TIP3    H230281   4.059   5.752   0.050  1.3012  0.8971  0.9206
 2908TIP3   OH230282   1.330   3.801   0.482  0.1785 -0.3350  0.5675
 2908TIP3    H130283   1.361   3.890   0.495  0.3098  0.2517 -2.8278
 2908TIP3    H230284   1.241   3.800   0.517 -0.4248  1.6695 -0.7685
 2909TIP3   OH230285   0.923   1.489   1.143 -0.2724  0.3911  0.0919
 2909TIP3    H130286   0.836   1.456   1.121  0.1527 -0.3817 -0.4564
 2909TIP3    H230287   0.938   1.461   1.234 -0.4630  0.2413  0.0764
 2910TIP3   OH230288   5.544   5.048   0.502  0.6083 -0.3520  0.1053
 2910TIP3    H130289   5.546   5.144   0.501 -1.1374 -0.2602 -1.5787
 2910TIP3    H230290   5.556   5.023   0.410 -0.4104 -1.6572  0.3037
 2911TIP3   OH230291   5.315   5.834   7.709  0.1933 -0.2640 -0.0444
 2911TIP3    H130292   5.223   5.823   7.685  0.5514 -1.2679 -1.0627
 2911TIP3    H230293   5.327   5.928   7.718 -1.1472 -0.1632  1.0319
 2912TIP3   OH230294   4.567   0.836   8.107 -0.0404 -0.8736 -0.0806
 2912TIP3    H130295   4.663   0.833   8.111  0.0229  0.3843 -0.3975
 2912TIP3    H230296   4.541   0.744   8.108  1.0918 -1.2207  1.5579
 2913TIP3   OH230297   2.575   0.092   1.341 -0.3845 -0.5484 -0.5325
 2913TIP3    H130298   2.633   0.022   1.309 -1.2363 -1.2037 -0.6899
 2913TIP3    H230299   2.545   0.060   1.426  1.2103  0.8080  0.5953
 2914TIP3   OH230300   6.392   0.122   2.104  0.2903 -0.0436  0.0777
 2914TIP3    H130301   6.472   0.073   2.082 -0.3025 -0.1988 -1.9122
 2914TIP3    H230302   6.321   0.065   2.076 -0.4626  1.1159 -0.4316
 2915TIP3   OH230303   5.349   6.141   8.953 -0.3179 -0.7239 -0.0883
 2915TIP3    H130304   5.321   6.051   8.969  0.8902 -0.9485  0.8871
 2915TIP3    H230305   5.291   6.194   9.008 -1.1126 -0.8650 -0.7580
 2916TIP3   OH230306   1.301   3.412   8.053  0.3506 -0.2787 -0.2158
 2916TIP3    H130307   1.271   3.503   8.058  0.7604 -0.1402 -0.2471
 2916TIP3    H230308   1.341   3.404   7.967 -1.5178 -1.0704 -1.0655
 2917TIP3   OH230309   3.101   1.747   1.270  0.1969 -0.3657  0.0116
 2917TIP3    H130310   3.107   1.738   1.175  1.2174  2.1308 -0.2352
 2917TIP3    H230311   3.031   1.810   1.284  0.5757 -0.1162  0.8638
 2918TIP3   OH230312   2.360   6.746   8.881 -0.3938  0.3576  0.2083
 2918TIP3    H130313   2.439   6.748   8.827 -0.6048 -0.4786 -0.1535
 2918TIP3    H230314   2.293   6.788   8.828 -0.6586 -0.6689 -0.3077
 2919TIP3   OH230315   3.826   0.536   8.883  0.4000  0.3179 -0.5332
 2919TIP3    H130316   3.852   0.447   8.907 -0.3918  0.4404  0.9061
 2919TIP3    H230317   3.736   0.526   8.852 -0.0899  0.7447  0.7015
 2920TIP3   OH230318   0.387   5.956   7.382 -0.1392  0.3722  0.9336
 2920TIP3    H130319   0.338   5.988   7.306  0.1256  1.0644  1.0553
 2920TIP3    H230320   0.470   5.925   7.346 -0.3152 -0.0117  0.8449
 2921TIP3   OH230321   0.494   4.186   1.490 -0.6633 -0.1938  0.3111
 2921TIP3    H130322   0.423   4.144   1.441 -1.3288 -1.0750  1.9712
 2921TIP3    H230323   0.450   4.248   1.548 -0.0719 -0.5899  1.2044
 2922TIP3   OH230324   3.107   4.435   2.324  0.0836  0.2422 -0.6604
 2922TIP3    H130325   3.199   4.429   2.300  1.0853  0.1453  2.6916
 2922TIP3    H230326   3.108   4.457   2.417 -3.2741 -1.0390 -0.1756
 2923TIP3   OH230327   3.702   1.755   8.816  0.2003  0.1244  0.0948
 2923TIP3    H130328   3.713   1.781   8.725 -0.7696 -0.9572 -0.3622
 2923TIP3    H230329   3.619   1.707   8.818 -0.6938  1.6242  1.8944
 2924TIP3   OH230330   3.165   6.473   8.430  0.1160 -0.1182 -0.9115
 2924TIP3    H130331   3.181   6.503   8.340 -2.6973 -0.5522 -1.6462
 2924TIP3    H230332   3.179   6.551   8.483  1.5024  0.2319 -1.7213
 2925TIP3   OH230333   1.738   0.440   1.923 -0.0091  0.6183  0.4555
 2925TIP3    H130334   1.817   0.396   1.893  0.1014  1.1336 -0.0232
 2925TIP3    H230335   1.725   0.512   1.861 -0.5650  0.8465  0.8258
 2926TIP3   OH230336   0.436   1.854   2.197  0.4296  0.4038 -0.3391
 2926TIP3    H130337   0.470   1.904   2.123  0.9765  1.0036  0.3044
 2926TIP3    H230338   0.491   1.776   2.200  1.3641  1.0638  0.2989
 2927TIP3   OH230339   1.150   6.566   0.697 -0.2100 -0.6613  0.0638
 2927TIP3    H130340   1.074   6.533   0.648 -0.9729  0.7307  0.2708
 2927TIP3    H230341   1.193   6.487   0.729 -1.8125 -1.4942  0.3007
 2928TIP3   OH230342   6.586   5.556   8.365 -0.4804 -0.4090 -0.0636
 2928TIP3    H130343   6.669   5.561   8.318 -0.1696  0.8707  0.5896
 2928TIP3    H230344   6.611   5.555   8.458 -1.2287  2.4181  0.2369
 2929TIP3   OH230345   0.844   3.982   8.163  0.0757  0.1783  0.4877
 2929TIP3    H130346   0.812   3.942   8.082  0.5744 -0.1508  0.4507
 2929TIP3    H230347   0.908   4.047   8.134  0.8296 -0.4800  0.6478
 2930TIP3   OH230348   3.653   4.667   0.796 -0.4270 -0.3643  0.3148
 2930TIP3    H130349   3.578   4.686   0.739  0.3282  0.8223 -0.3290
 2930TIP3    H230350   3.679   4.578   0.771  0.3504  0.3829 -1.7847
 2931TIP3   OH230351   3.407   4.096   1.155 -0.0748  0.0334  0.1067
 2931TIP3    H130352   3.445   4.104   1.242 -0.6634 -0.6386  0.4318
 2931TIP3    H230353   3.421   4.004   1.131  0.7446  0.3783 -0.8247
 2932TIP3   OH230354   3.960   0.778   3.605  0.1640 -0.2540  0.5443
 2932TIP3    H130355   3.951   0.733   3.521 -0.8842  0.2138  0.3847
 2932TIP3    H230356   3.897   0.850   3.600 -0.1890 -0.4403  1.8701
 2933TIP3   OH230357   2.895   3.060   1.370  0.2960  0.2925 -0.0179
 2933TIP3    H130358   2.943   3.142   1.359  0.3361 -0.0044 -2.9049
 2933TIP3    H230359   2.950   3.007   1.429  0.0258  2.4127  2.2954
 2934TIP3   OH230360   1.397   1.334   7.799 -0.5800  0.3956  0.4420
 2934TIP3    H130361   1.454   1.408   7.819 -0.8481  0.9252 -0.6754
 2934TIP3    H230362   1.452   1.257   7.813  0.3100  0.8817 -0.2436
 2935TIP3   OH230363   1.012   0.004   0.391 -0.3920  0.5465 -0.1671
 2935TIP3    H130364   0.954   0.068   0.431 -1.4511 -0.7738  0.4922
 2935TIP3    H230365   0.953  -0.055   0.343  0.4103 -0.6834  0.3081
 2936TIP3   OH230366   2.561   5.303   1.894  0.5331  0.2975 -0.3462
 2936TIP3    H130367   2.534   5.367   1.960  1.0010  0.1549 -0.0073
 2936TIP3    H230368   2.596   5.230   1.945 -0.8542 -0.6456 -0.6838
 2937TIP3   OH230369   5.955   0.073   7.776  0.1217  0.0077  0.3313
 2937TIP3    H130370   6.025   0.087   7.840  1.2518  0.9746 -1.0516
 2937TIP3    H230371   5.886   0.134   7.803  0.1925 -0.2596  1.1524
 2938TIP3   OH230372   6.647   3.194   1.192  0.3894 -0.1473 -0.0334
 2938TIP3    H130373   6.724   3.224   1.240  1.0428 -1.0949 -0.4476
 2938TIP3    H230374   6.658   3.099   1.188 -1.2789 -0.4022  0.6979
 2939TIP3   OH230375   4.597   3.089   8.679 -0.1328  0.0382 -0.3702
 2939TIP3    H130376   4.544   3.092   8.599 -0.5271 -1.4938 -0.2100
 2939TIP3    H230377   4.653   3.012   8.667  0.5436  0.4011  0.3834
 2940TIP3   OH230378   1.160   0.798   8.239 -0.2709 -0.0354 -0.1323
 2940TIP3    H130379   1.120   0.868   8.189  1.0034  0.6153 -0.2674
 2940TIP3    H230380   1.191   0.736   8.173 -0.7989 -0.4112 -0.0368
 2941TIP3   OH230381   4.401   6.037   2.914  0.2956  0.0070 -0.1198
 2941TIP3    H130382   4.443   6.102   2.858  0.8031 -0.4905 -0.3325
 2941TIP3    H230383   4.367   5.971   2.853 -0.9140  0.4518  0.0384
 2942TIP3   OH230384   2.258   0.318   8.662 -0.1609 -0.1175 -0.1401
 2942TIP3    H130385   2.201   0.242   8.648  2.5664 -2.0973 -1.4403
 2942TIP3    H230386   2.222   0.386   8.605 -1.8353 -0.8706 -0.0472
 2943TIP3   OH230387   6.693   2.723   0.393  0.5315 -0.1728 -0.6589
 2943TIP3    H130388   6.703   2.666   0.470  0.2729  1.2882  0.4996
 2943TIP3    H230389   6.697   2.812   0.428 -0.9844  0.5395 -2.1559
 2944TIP3   OH230390   5.073   3.136   8.705 -0.1739 -0.0079  0.0345
 2944TIP3    H130391   5.135   3.090   8.761  0.5981  0.6439 -0.2597
 2944TIP3    H230392   5.071   3.225   8.739 -0.2836  0.1984 -0.5001
 2945TIP3   OH230393   4.569   1.995   8.627  0.0805 -0.6325  0.5008
 2945TIP3    H130394   4.619   2.009   8.707 -0.2881 -0.3675  0.6878
 2945TIP3    H230395   4.495   1.940   8.654 -1.4466  1.4777  0.8945
 2946TIP3   OH230396   0.733   2.826   2.054 -0.5937  0.2379 -0.0430
 2946TIP3    H130397   0.724   2.758   2.121 -0.5302 -0.0382 -0.3130
 2946TIP3    H230398   0.738   2.908   2.103 -1.4225  0.1209  0.2563
 2947TIP3   OH230399   4.285   4.130   1.813 -1.1163  0.8341  0.4431
 2947TIP3    H130400   4.281   4.201   1.749 -1.2695  1.4764  1.1445
 2947TIP3    H230401   4.365   4.147   1.863  0.2880 -0.9836 -1.0470
 2948TIP3   OH230402   2.249   5.733   2.483 -0.2539 -0.0681  0.8703
 2948TIP3    H130403   2.195   5.664   2.520 -1.0988  0.2218  0.2216
 2948TIP3    H230404   2.186   5.798   2.451  0.3381 -0.8027 -2.0771
 2949TIP3   OH230405   4.952   4.922   7.482 -0.5620 -0.0509  0.1429
 2949TIP3    H130406   4.976   4.831   7.497 -0.5676 -0.0942 -0.1187
 2949TIP3    H230407   4.946   4.931   7.387 -0.6987  0.1865  0.1730
 2950TIP3   OH230408   0.133   0.802   1.345  0.1629  0.0870 -0.5248
 2950TIP3    H130409   0.054   0.748   1.353  1.0098 -1.1429 -0.1130
 2950TIP3    H230410   0.116   0.876   1.403 -0.6939 -0.1603 -0.4372
 2951TIP3   OH230411   1.640   0.766   7.453 -0.6827  0.6614 -0.2712
 2951TIP3    H130412   1.668   0.675   7.445  1.8901  1.4639 -1.2748
 2951TIP3    H230413   1.681   0.796   7.534 -2.6987  0.6118  0.8397
 2952TIP3   OH230414   5.628   6.704   8.537 -0.0281  0.0076  0.5141
 2952TIP3    H130415   5.660   6.666   8.455  0.3623  1.5052 -0.0652
 2952TIP3    H230416   5.574   6.636   8.575 -0.1299 -0.7760 -0.9479
 2953TIP3   OH230417   2.377   2.243   0.702 -0.0469 -0.1477  0.2736
 2953TIP3    H130418   2.432   2.169   0.676 -1.2135 -0.3602 -1.7293
 2953TIP3    H230419   2.320   2.259   0.627  0.6205  3.2660  0.3197
 2954TIP3   OH230420   3.662   3.992   8.720  0.1493  0.7985  0.1151
 2954TIP3    H130421   3.646   4.084   8.696  0.5440  0.8007 -0.1517
 2954TIP3    H230422   3.755   3.978   8.699  1.2382  1.4824  3.8549
 2955TIP3   OH230423   4.665   4.926   0.920  0.0199  0.1070  0.1394
 2955TIP3    H130424   4.579   4.951   0.954 -0.6135 -0.8953 -0.6477
 2955TIP3    H230425   4.645   4.862   0.851  1.3994 -0.1103 -0.0790
 2956TIP3   OH230426   6.419   1.969   3.002  0.0375  0.2356 -0.0698
 2956TIP3    H130427   6.385   1.936   3.085 -0.1857  0.8855  0.1021
 2956TIP3    H230428   6.470   2.047   3.027 -0.9802  1.1113 -0.6497
 2957TIP3   OH230429   5.904   0.781   7.760  0.1429 -0.7765 -0.3554
 2957TIP3    H130430   5.839   0.819   7.700 -0.8270 -3.4435 -1.1332
 2957TIP3    H230431   5.855   0.716   7.811  1.8064 -1.4732  0.4447
 2958TIP3   OH230432   3.202   4.931   8.963 -0.2235 -0.2243 -0.3003
 2958TIP3    H130433   3.221   4.867   8.894 -3.1676  1.1938 -2.6658
 2958TIP3    H230434   3.108   4.922   8.978 -0.3982  2.3302  0.5231
 2959TIP3   OH230435   2.469   4.238   0.999 -0.1185 -0.1814 -0.2701
 2959TIP3    H130436   2.520   4.157   1.003  0.3995  0.1541 -0.0282
 2959TIP3    H230437   2.469   4.271   1.089 -0.8455 -0.2244 -0.2465
 2960TIP3   OH230438   3.468   4.993   6.576  0.1740  0.1457  0.1308
 2960TIP3    H130439   3.472   5.073   6.627  1.5488 -0.7836  1.5541
 2960TIP3    H230440   3.559   4.972   6.556 -0.2359 -0.4336 -1.2558
 2961TIP3   OH230441   1.109   6.077   8.423 -0.0221  0.7187 -0.4470
 2961TIP3    H130442   1.127   6.031   8.341  0.1198 -0.3740  0.1813
 2961TIP3    H230443   1.033   6.032   8.460  0.2009  0.8996  0.2449
 2962TIP3   OH230444   0.257   2.308   0.538 -0.5929  0.0320  0.5484
 2962TIP3    H130445   0.206   2.250   0.481 -0.7072 -0.7498  1.4223
 2962TIP3    H230446   0.228   2.396   0.515 -0.5164 -0.2513 -0.7164
 2963TIP3   OH230447   2.678   3.220   1.532 -0.0952  0.0957 -0.2877
 2963TIP3    H130448   2.747   3.195   1.471  1.5481  0.4636  1.3484
 2963TIP3    H230449   2.713   3.295   1.580  0.4471 -2.4656  3.8478
 2964TIP3   OH230450   5.931   6.389   1.752  0.2496  0.0301 -0.2910
 2964TIP3    H130451   6.024   6.367   1.767  0.1330 -1.1842 -1.2172
 2964TIP3    H230452   5.932   6.483   1.733  1.2519  0.1074  0.0535
 2965TIP3   OH230453   6.328   2.072   0.960  0.0895  0.2956 -0.0091
 2965TIP3    H130454   6.368   2.046   1.043 -0.1932  1.4048  0.4996
 2965TIP3    H230455   6.399   2.069   0.896  0.1641 -1.2219  0.1135
 2966TIP3   OH230456   6.140   0.828   1.099 -0.6597 -0.2631  0.6424
 2966TIP3    H130457   6.164   0.884   1.172 -0.3984  1.0964 -0.4472
 2966TIP3    H230458   6.056   0.862   1.068 -0.0572  0.1549 -0.6093
 2967TIP3   OH230459   4.656   1.154   1.716  0.2090  0.3336  0.4214
 2967TIP3    H130460   4.577   1.152   1.769 -1.2890 -0.0708 -1.6884
 2967TIP3    H230461   4.626   1.176   1.628  2.4563  0.1752 -0.4711
 2968TIP3   OH230462   2.000   6.753   0.618  0.0790 -0.1284 -0.0625
 2968TIP3    H130463   2.057   6.790   0.551 -1.5367 -1.1095 -2.0816
 2968TIP3    H230464   1.928   6.712   0.570 -0.5340 -2.0019  2.2174
 2969TIP3   OH230465   4.180   2.608   2.701  0.4298 -0.6323  0.0577
 2969TIP3    H130466   4.169   2.534   2.641 -1.1979 -2.1742  2.1098
 2969TIP3    H230467   4.272   2.633   2.692  0.8999 -2.5863 -1.0706
 2970TIP3   OH230468   0.539   4.991   0.088  0.5282  0.2318  0.1206
 2970TIP3    H130469   0.478   4.970   0.160 -1.4492  0.4530 -1.4109
 2970TIP3    H230470   0.545   4.910   0.037 -2.4135  1.4469 -2.4432
 2971TIP3   OH230471   5.739   6.661   1.453  0.6571 -0.0119 -0.6968
 2971TIP3    H130472   5.809   6.724   1.435  0.6726  1.1761  2.7465
 2971TIP3    H230473   5.785   6.579   1.473  0.8152 -0.2564 -1.9886
 2972TIP3   OH230474   3.487   3.165   7.564 -0.1121 -0.4569  0.3459
 2972TIP3    H130475   3.574   3.157   7.524 -0.7938 -0.9032 -1.1147
 2972TIP3    H230476   3.457   3.075   7.574 -0.1216 -0.3352  1.5379
 2973TIP3   OH230477   4.473   2.016   0.550  0.2867 -0.1897 -0.0727
 2973TIP3    H130478   4.541   2.056   0.605  0.8586 -0.3807 -0.6260
 2973TIP3    H230479   4.519   1.950   0.499 -0.5550 -1.1899  0.4337
 2974TIP3   OH230480   1.063   1.665   8.069  0.3149 -0.2179 -0.4524
 2974TIP3    H130481   1.085   1.596   8.006 -0.9629 -1.6590  0.6026
 2974TIP3    H230482   0.993   1.627   8.123  0.9347  1.1966  1.4473
 2975TIP3   OH230483   1.795   4.270   1.848  0.0906 -0.2341  0.4100
 2975TIP3    H130484   1.717   4.320   1.821 -0.5207 -0.6681  1.3027
 2975TIP3    H230485   1.792   4.271   1.944  1.0077 -0.5443  0.4522
 2976TIP3   OH230486   4.909   3.414   0.472 -0.5907  0.0502 -1.0743
 2976TIP3    H130487   5.002   3.424   0.449 -0.6556 -0.0341 -1.3654
 2976TIP3    H230488   4.878   3.504   0.483  0.0706  0.0496  1.2065
 2977TIP3   OH230489   0.904   2.145   1.883  0.2581  0.4036 -0.2955
 2977TIP3    H130490   0.883   2.058   1.850 -1.7713  0.3844  0.9284
 2977TIP3    H230491   0.960   2.183   1.815  0.7118 -1.6182 -1.1209
 2978TIP3   OH230492   0.464   2.780   8.204 -0.5058 -0.1474  0.2898
 2978TIP3    H130493   0.411   2.776   8.124 -1.7970 -0.3932  1.1354
 2978TIP3    H230494   0.421   2.720   8.264 -0.0670  0.7012  1.4803
 2979TIP3   OH230495   4.579   5.578   2.499  0.2643  1.2183 -0.5784
 2979TIP3    H130496   4.553   5.549   2.586  0.0486 -0.8732 -1.2866
 2979TIP3    H230497   4.500   5.618   2.462 -0.2808  0.2103 -0.5532
 2980TIP3   OH230498   5.574   5.890   2.007 -0.2763 -0.0273 -0.5916
 2980TIP3    H130499   5.655   5.935   2.032 -1.1348  2.2086 -1.6063
 2980TIP3    H230500   5.507   5.958   2.007 -1.6013 -1.2184 -2.4869
 2981TIP3   OH230501   5.380   5.701   1.917 -0.4201  0.1677  0.3825
 2981TIP3    H130502   5.446   5.744   1.971 -0.0926  0.2157 -0.0448
 2981TIP3    H230503   5.337   5.772   1.870  0.6330  0.0027 -0.8966
 2982TIP3   OH230504   4.220   5.458   8.804  0.5912  0.5005  0.6396
 2982TIP3    H130505   4.288   5.457   8.872 -0.9650  2.3695  2.3462
 2982TIP3    H230506   4.261   5.500   8.729  1.6495  0.5334  1.2211
 2983TIP3   OH230507   2.233   0.902   8.630  0.3036 -0.5828 -0.3404
 2983TIP3    H130508   2.300   0.967   8.609  0.9138 -0.1234  2.6438
 2983TIP3    H230509   2.272   0.819   8.603  2.0250 -0.3008  1.1143
 2984TIP3   OH230510   0.722   4.226   1.342 -0.1660  0.0064 -0.0337
 2984TIP3    H130511   0.647   4.212   1.400  0.4930 -0.6103  0.7069
 2984TIP3    H230512   0.768   4.301   1.379 -0.2930  0.2394 -0.3485
 2985TIP3   OH230513   5.101   1.607   8.245 -0.3384  0.1041 -0.7172
 2985TIP3    H130514   5.132   1.679   8.189 -0.7254  2.1185  1.4869
 2985TIP3    H230515   5.083   1.648   8.329  0.5084 -2.8229  1.0401
 2986TIP3   OH230516   3.499   3.075   2.539 -0.1993  0.3073 -0.3890
 2986TIP3    H130517   3.479   3.006   2.476 -1.9210 -0.2358  0.6865
 2986TIP3    H230518   3.436   3.144   2.521  0.9119  1.2438 -0.8424
 2987TIP3   OH230519   5.861   1.479   2.684  0.3534  0.7281 -0.9283
 2987TIP3    H130520   5.824   1.523   2.607 -0.2860 -0.1760 -1.1550
 2987TIP3    H230521   5.789   1.476   2.747  0.7313  1.0319 -0.4806
 2988TIP3   OH230522   1.993   3.926   0.238  0.1095  0.6716  0.1765
 2988TIP3    H130523   1.991   3.927   0.334 -0.2465 -0.1830  0.1856
 2988TIP3    H230524   2.064   3.866   0.216 -0.1144  0.5027 -0.0928
 2989TIP3   OH230525   4.574   2.980   2.456 -0.7656 -0.0537 -0.2960
 2989TIP3    H130526   4.607   3.068   2.470 -0.5602 -0.0611 -0.7230
 2989TIP3    H230527   4.647   2.923   2.479 -0.4138 -0.0655 -1.4066
 2990TIP3   OH230528   6.573   4.233   1.454  0.5862 -0.2134 -0.2763
 2990TIP3    H130529   6.605   4.313   1.495  0.2142 -0.5370  0.6832
 2990TIP3    H230530   6.650   4.192   1.414  0.7823  0.5856 -0.7260
 2991TIP3   OH230531   3.576   6.102   8.167  0.3955 -0.7011 -0.1979
 2991TIP3    H130532   3.583   6.197   8.174 -1.6463 -0.3440 -1.8323
 2991TIP3    H230533   3.649   6.076   8.112  0.9461 -0.0908  0.2296
 2992TIP3   OH230534   2.355   3.338   8.295  0.4724  0.1641  0.4001
 2992TIP3    H130535   2.394   3.253   8.273  1.3875  0.6846 -0.0693
 2992TIP3    H230536   2.397   3.399   8.234 -2.9118  0.4203 -1.9636
 2993TIP3   OH230537   2.258   3.823   7.606 -0.6301 -0.3115 -0.7370
 2993TIP3    H130538   2.324   3.759   7.583 -0.1287 -0.0732  0.0181
 2993TIP3    H230539   2.307   3.900   7.636 -1.2178  0.3705 -1.4614
 2994TIP3   OH230540   0.782   0.473   8.614  0.1804 -0.5069 -0.3692
 2994TIP3    H130541   0.858   0.484   8.556  1.7930 -1.1166  1.5312
 2994TIP3    H230542   0.752   0.562   8.631  0.8025 -0.2249 -0.7188
 2995TIP3   OH230543   5.790   1.569   0.979  0.1555  0.1966  0.1413
 2995TIP3    H130544   5.755   1.589   0.892 -0.0634 -1.7535 -0.2730
 2995TIP3    H230545   5.878   1.607   0.979 -0.1912  1.0389 -0.5655
 2996TIP3   OH230546   0.414   6.146   1.685  0.5231  0.2838  0.2880
 2996TIP3    H130547   0.501   6.108   1.699  1.4193  2.6990  1.8422
 2996TIP3    H230548   0.424   6.202   1.608  0.2714  0.3606  0.3089
 2997TIP3   OH230549   5.382   1.627   2.160  0.5390  0.1113 -0.4953
 2997TIP3    H130550   5.318   1.617   2.231  0.5615 -0.2927 -0.5325
 2997TIP3    H230551   5.345   1.696   2.105  0.6006  0.5468 -0.0026
 2998TIP3   OH230552   5.210   6.656   7.804  0.2638  0.6159  0.0720
 2998TIP3    H130553   5.262   6.674   7.726 -0.7551  1.5612 -0.4151
 2998TIP3    H230554   5.122   6.687   7.782 -0.3632 -0.3614  1.1073
 2999TIP3   OH230555   2.299   0.390   2.661 -0.2024  0.2386 -0.2455
 2999TIP3    H130556   2.302   0.409   2.754 -1.2346 -0.1548 -0.1121
 2999TIP3    H230557   2.382   0.423   2.626  0.1194  0.5349  0.7762
 3000TIP3   OH230558   4.892   4.492   8.574 -0.4262  0.0538  0.0457
 3000TIP3    H130559   4.830   4.564   8.564  0.2811  0.7371  0.4321
 3000TIP3    H230560   4.969   4.520   8.523  0.4022  0.2356  1.3421
 3001TIP3   OH230561   5.623   5.056   7.626 -0.0168 -0.0653 -0.1755
 3001TIP3    H130562   5.582   5.134   7.664 -0.9354 -0.4838 -0.2829
 3001TIP3    H230563   5.637   5.080   7.534  1.7201  0.7504  0.2457
 3002TIP3   OH230564   3.406   5.547   7.728 -0.2276 -0.3062 -0.0831
 3002TIP3    H130565   3.493   5.541   7.689  0.1562  0.8761  0.5467
 3002TIP3    H230566   3.406   5.631   7.773 -1.3922 -0.6999  0.6850
 3003TIP3   OH230567   4.384   0.023   8.055  0.2895  0.0583  0.0730
 3003TIP3    H130568   4.334   0.052   8.131  0.2005  0.7470 -0.2466
 3003TIP3    H230569   4.466  -0.011   8.092  0.4323  0.7936  0.4475
 3004TIP3   OH230570   4.251   3.182   8.606 -0.6386  0.0330  0.5748
 3004TIP3    H130571   4.308   3.222   8.672 -0.3088 -0.1057  0.3775
 3004TIP3    H230572   4.304   3.113   8.567 -0.5286  0.6517 -0.4221
 3005TIP3   OH230573   2.821   3.216   8.588 -0.5052 -0.1104  0.4104
 3005TIP3    H130574   2.863   3.291   8.630 -0.3365  0.2426 -0.3636
 3005TIP3    H230575   2.739   3.204   8.634 -0.3218  0.2671  0.8350
 3006TIP3   OH230576   0.495   5.155   8.684 -0.2268 -0.2846 -0.3365
 3006TIP3    H130577   0.455   5.081   8.640  0.1818 -0.6104 -0.1710
 3006TIP3    H230578   0.476   5.230   8.628 -2.3161 -0.1659  0.4541
 3007TIP3   OH230579   3.466   2.466   8.718  0.3001 -0.5985 -0.0936
 3007TIP3    H130580   3.440   2.451   8.809 -0.9276  1.9115  0.0453
 3007TIP3    H230581   3.384   2.473   8.669  0.9371 -2.6190 -1.6081
 3008TIP3   OH230582   1.428   3.116   2.774  0.1883  0.1604  0.3083
 3008TIP3    H130583   1.498   3.054   2.754  0.2915 -0.0871  1.3944
 3008TIP3    H230584   1.471   3.202   2.776  0.1181  0.2428 -0.7907
 3009TIP3   OH230585   5.322   2.947   0.621  0.2239 -0.3541 -0.3744
 3009TIP3    H130586   5.235   2.905   0.619 -0.1642  0.2828  1.4904
 3009TIP3    H230587   5.351   2.937   0.712  1.6942  0.2856 -0.7547
 3010TIP3   OH230588   4.012   5.753   8.578 -0.5707 -0.3606 -0.0677
 3010TIP3    H130589   3.990   5.789   8.492 -0.6242  1.1695  0.5441
 3010TIP3    H230590   4.102   5.723   8.570 -0.5267 -0.0923 -0.6092
 3011TIP3   OH230591   1.683   4.023   1.833 -0.2221  0.1990 -0.5059
 3011TIP3    H130592   1.644   4.038   1.746  0.1080  1.3147 -0.4804
 3011TIP3    H230593   1.729   4.105   1.852 -0.5447  0.0706  0.8625
 3012TIP3   OH230594   4.565   2.523   0.877 -0.4900  0.7239  0.8280
 3012TIP3    H130595   4.617   2.501   0.799 -1.3101  1.5622  0.0279
 3012TIP3    H230596   4.605   2.470   0.947  0.5774  0.3263 -0.0382
 3013TIP3   OH230597   3.234   3.629   7.850  0.0109 -0.0019 -0.0236
 3013TIP3    H130598   3.305   3.620   7.786 -1.8853 -2.1109 -2.0282
 3013TIP3    H230599   3.260   3.574   7.923  1.9321  1.9613  0.8861
 3014TIP3   OH230600   4.426   1.544   1.757  0.3964  0.6555 -0.0733
 3014TIP3    H130601   4.505   1.564   1.706  0.4852  0.2744 -0.0945
 3014TIP3    H230602   4.402   1.455   1.730 -1.2131  1.4864 -1.5524
 3015TIP3   OH230603   6.138   1.526   1.798 -0.3525  0.1157  0.1626
 3015TIP3    H130604   6.232   1.517   1.786 -0.2266  2.3038 -0.8486
 3015TIP3    H230605   6.100   1.492   1.716 -0.3765  0.3758  0.0663
 3016TIP3   OH230606   4.272   4.915   2.557  0.1526  0.3136  0.1428
 3016TIP3    H130607   4.255   4.887   2.467 -0.6165  0.4210  0.2500
 3016TIP3    H230608   4.280   4.833   2.606 -1.7440  0.2481  0.3920
 3017TIP3   OH230609   0.948   6.446   0.551  0.3303  0.4201 -0.1046
 3017TIP3    H130610   0.895   6.526   0.549  0.7156  0.7152  0.7400
 3017TIP3    H230611   0.893   6.379   0.513 -0.3083  0.9133 -0.0641
 3018TIP3   OH230612   4.297   6.385   7.871 -0.6007 -0.1106  0.4692
 3018TIP3    H130613   4.262   6.327   7.803 -0.0625 -0.7673  0.7350
 3018TIP3    H230614   4.249   6.361   7.950 -0.4343 -0.1492  0.5608
 3019TIP3   OH230615   5.730   2.742   0.607 -0.0998 -0.7147  0.5324
 3019TIP3    H130616   5.728   2.689   0.527 -1.2701 -1.0051  0.7457
 3019TIP3    H230617   5.676   2.694   0.670 -1.5932  0.9691  0.5917
 3020TIP3   OH230618   6.569   0.436   0.119 -0.4489 -0.3489 -0.5171
 3020TIP3    H130619   6.584   0.493   0.044 -0.9058  1.4931  0.7234
 3020TIP3    H230620   6.578   0.493   0.195 -0.8097 -1.9702  0.8086
 3021TIP3   OH230621   4.502   0.407   1.152  0.1165  0.0239  0.0149
 3021TIP3    H130622   4.586   0.425   1.194  1.0626 -0.6184 -1.5240
 3021TIP3    H230623   4.483   0.486   1.101  0.3674 -0.2483 -0.5170
 3022TIP3   OH230624   0.631   3.329   2.455  0.2267  0.0888  0.5683
 3022TIP3    H130625   0.713   3.350   2.500 -1.2007 -0.0217  3.3876
 3022TIP3    H230626   0.600   3.414   2.423  0.1833  0.5564  1.7964
 3023TIP3   OH230627   1.205   3.270   1.745  0.0358  0.0819  0.1613
 3023TIP3    H130628   1.242   3.247   1.660  0.8702  1.0979  0.2276
 3023TIP3    H230629   1.192   3.365   1.741 -3.1136 -0.2417 -0.0443
 3024TIP3   OH230630   3.831   4.056   7.948 -0.4044 -0.0780  0.2364
 3024TIP3    H130631   3.779   4.060   8.029  0.6651  1.4498  0.8975
 3024TIP3    H230632   3.816   3.968   7.914 -0.3823 -0.9977  2.4443
 3025TIP3   OH230633   5.898   1.054   7.436  0.0196  0.0766 -0.3262
 3025TIP3    H130634   5.981   1.079   7.476 -0.1156 -0.0192  0.0136
 3025TIP3    H230635   5.876   0.970   7.477 -0.2366  0.0931 -0.4303
 3026TIP3   OH230636   1.062   6.070   1.116  0.2412  0.0212 -0.4600
 3026TIP3    H130637   1.061   6.152   1.167  0.2183  0.5052 -1.2211
 3026TIP3    H230638   1.066   6.001   1.182  0.2973  0.6383  0.1981
 3027TIP3   OH230639   1.492   5.795   8.730 -0.3025  0.0387  0.1077
 3027TIP3    H130640   1.466   5.804   8.821  1.1057 -2.0375  0.7981
 3027TIP3    H230641   1.529   5.707   8.724 -0.6264 -0.0112 -2.5544
 3028TIP3   OH230642   1.345   3.839   2.113 -0.5316  0.5711  0.0553
 3028TIP3    H130643   1.412   3.802   2.170 -0.0824 -0.9176 -1.3489
 3028TIP3    H230644   1.308   3.763   2.068 -1.7902  1.5634 -0.6608
 3029TIP3   OH230645   5.565   4.965   0.796  0.2597  0.0343  0.3994
 3029TIP3    H130646   5.540   5.037   0.739 -0.5268 -0.4052  0.1782
 3029TIP3    H230647   5.544   4.886   0.746  0.7666 -0.3537  0.7852
 3030TIP3   OH230648   2.539   0.894   3.056 -0.3808  0.1326 -0.3389
 3030TIP3    H130649   2.530   0.960   3.125 -0.6269  1.2235 -1.3689
 3030TIP3    H230650   2.614   0.924   3.005 -0.0877 -0.7578 -0.4330
 3031TIP3   OH230651   0.814   3.525   1.637 -0.3505 -0.2613  0.0570
 3031TIP3    H130652   0.746   3.579   1.596 -0.0886  1.1645  1.3793
 3031TIP3    H230653   0.766   3.459   1.687 -0.7199 -0.3416 -0.3989
 3032TIP3   OH230654   3.722   0.457   7.296  0.1023  0.1593  0.4691
 3032TIP3    H130655   3.816   0.456   7.280  0.4141 -0.4378  2.1698
 3032TIP3    H230656   3.685   0.405   7.225  1.1085 -0.1379  0.1469
 3033TIP3   OH230657   3.731   5.006   1.109 -0.1421 -0.5624  0.5417
 3033TIP3    H130658   3.671   5.061   1.060  0.6089 -1.3175 -1.2901
 3033TIP3    H230659   3.763   4.941   1.046  3.5107  0.5072  1.0400
 3034TIP3   OH230660   3.011   0.865   8.610  0.1601 -0.4315 -0.4480
 3034TIP3    H130661   3.076   0.835   8.675 -1.4084 -1.6799  0.6394
 3034TIP3    H230662   3.038   0.954   8.588  1.2432 -0.2808  1.2994
 3035TIP3   OH230663   6.649   3.521   8.389  0.0288 -0.7148  0.1790
 3035TIP3    H130664   6.568   3.572   8.391  0.6289  0.2442  1.0923
 3035TIP3    H230665   6.623   3.434   8.418 -1.0046 -0.9635 -1.3722
 3036TIP3   OH230666   2.978   0.949   2.827  0.4553 -0.4914  0.2665
 3036TIP3    H130667   2.990   0.987   2.740 -0.0908  0.7054  0.6967
 3036TIP3    H230668   3.067   0.937   2.860  0.6506  1.0886  0.3952
 3037TIP3   OH230669   2.487   2.161   0.131 -0.2735  0.4600 -0.1815
 3037TIP3    H130670   2.402   2.188   0.095 -0.4494 -0.0029 -0.1162
 3037TIP3    H230671   2.487   2.196   0.220  0.0428  1.3615 -0.5198
 3038TIP3   OH230672   1.480   1.035   8.266  0.3992  0.1361  0.1447
 3038TIP3    H130673   1.417   1.087   8.317 -0.4334 -1.3534  0.7017
 3038TIP3    H230674   1.566   1.061   8.300 -0.0912 -0.0557  1.5944
 3039TIP3   OH230675   0.778   4.216   8.568 -0.4556 -0.1675  0.5308
 3039TIP3    H130676   0.781   4.273   8.645  1.2521 -0.8770  1.0218
 3039TIP3    H230677   0.788   4.276   8.493 -3.2613  0.6697  0.7045
 3040TIP3   OH230678   4.832   2.461   0.823  0.3629  0.1121  0.3858
 3040TIP3    H130679   4.789   2.544   0.803 -1.9223 -0.7546  1.4808
 3040TIP3    H230680   4.844   2.462   0.918 -0.0591 -0.9695  0.4620
 3041TIP3   OH230681   0.940   2.291   2.722 -0.0686 -0.9552  0.1837
 3041TIP3    H130682   0.870   2.274   2.786 -0.1858 -2.2422 -0.2678
 3041TIP3    H230683   0.985   2.207   2.712 -0.3252 -0.9072 -1.7553
 3042TIP3   OH230684   5.175   2.186   8.697  0.4404  0.3872 -0.3847
 3042TIP3    H130685   5.200   2.132   8.773 -1.7794  2.2172  1.8294
 3042TIP3    H230686   5.197   2.275   8.723 -0.5925  1.0887 -1.8103
 3043TIP3   OH230687   3.432   4.049   8.012 -0.3854  0.2971  0.1793
 3043TIP3    H130688   3.337   4.038   8.001 -0.2741  0.2631 -0.8489
 3043TIP3    H230689   3.446   4.143   7.998 -0.2864  0.3305  0.5032
 3044TIP3   OH230690   4.012   3.165   0.785  0.1951 -0.8818 -0.6229
 3044TIP3    H130691   4.024   3.097   0.719 -0.6568 -1.4445 -0.2160
 3044TIP3    H230692   4.030   3.120   0.868  0.5938 -0.3508 -0.4123
 3045TIP3   OH230693   2.732   4.403   0.979 -0.2756 -0.4758  0.2825
 3045TIP3    H130694   2.641   4.382   0.956 -0.9553  3.2064 -1.0451
 3045TIP3    H230695   2.737   4.388   1.073 -2.7977  0.7014  0.6891
 3046TIP3   OH230696   6.611   3.582   8.904 -0.4071 -0.1957  0.5949
 3046TIP3    H130697   6.656   3.638   8.968  0.4608  0.7703 -0.8057
 3046TIP3    H230698   6.616   3.630   8.822  1.6548 -2.8950 -1.0440
 3047TIP3   OH230699   2.725   6.189   7.551 -0.0762 -0.0001  0.0323
 3047TIP3    H130700   2.640   6.230   7.561 -0.6131 -1.0101 -0.2502
 3047TIP3    H230701   2.732   6.168   7.458 -0.1046 -1.0971  0.2544
 3048TIP3   OH230702   6.466   3.683   0.526  0.0358  0.4892  0.5699
 3048TIP3    H130703   6.536   3.625   0.496 -1.8523 -1.0477 -1.1957
 3048TIP3    H230704   6.498   3.771   0.507  1.0872 -0.2139 -1.1777
 3049TIP3   OH230705   6.340   0.516   2.454 -0.3727 -0.2870  0.0354
 3049TIP3    H130706   6.317   0.567   2.376  0.2738  0.4271  0.2996
 3049TIP3    H230707   6.354   0.427   2.422 -1.3786 -0.2900 -0.4586
 3050TIP3   OH230708   1.086   3.186   1.136 -0.0421 -0.0862  0.1780
 3050TIP3    H130709   1.082   3.163   1.043 -2.4327  0.7126  0.0242
 3050TIP3    H230710   1.059   3.107   1.182 -1.5917  0.3295  0.0169
 3051TIP3   OH230711   4.211   6.297   3.024  0.1650  0.2144  0.2330
 3051TIP3    H130712   4.203   6.213   3.071 -0.6369 -0.1232 -0.4841
 3051TIP3    H230713   4.304   6.318   3.028  0.3132 -0.5107  0.7735
 3052TIP3   OH230714   0.386   2.788   7.921 -0.0186  0.1580 -0.5574
 3052TIP3    H130715   0.445   2.841   7.868  0.4148 -0.9539 -1.2357
 3052TIP3    H230716   0.301   2.831   7.915  0.1514  0.3596 -1.6942
 3053TIP3   OH230717   2.538   1.971   1.577  0.3238 -0.4640 -0.8430
 3053TIP3    H130718   2.574   1.996   1.492  1.3181 -1.5525 -0.7786
 3053TIP3    H230719   2.603   2.000   1.641 -0.5442  0.5906 -0.4044
 3054TIP3   OH230720   5.666   4.451   8.192  0.1842 -0.2685  0.0435
 3054TIP3    H130721   5.650   4.445   8.098 -2.6600 -0.5178  0.4766
 3054TIP3    H230722   5.702   4.539   8.204 -0.2794  0.1090 -1.1572
 3055TIP3   OH230723   2.134   5.917   7.568 -0.3242  0.8079 -0.1275
 3055TIP3    H130724   2.210   5.975   7.574  1.3216 -1.1345 -0.9189
 3055TIP3    H230725   2.168   5.838   7.527 -2.3493 -0.9033  1.2814
 3056TIP3   OH230726   0.959   0.508   2.401  0.6600  0.3385  0.0575
 3056TIP3    H130727   1.048   0.473   2.394  0.8680  0.4228  1.8351
 3056TIP3    H230728   0.912   0.445   2.455  0.3489  1.5354  1.2343
 3057TIP3   OH230729   1.628   2.108   8.267  0.2216  0.9643 -0.0131
 3057TIP3    H130730   1.559   2.120   8.202 -0.5684  1.1374  0.8232
 3057TIP3    H230731   1.669   2.025   8.244 -2.2327 -0.6945  1.1607
 3058TIP3   OH230732   1.410   5.233   8.223 -0.2499 -0.8570 -0.6355
 3058TIP3    H130733   1.353   5.159   8.243  0.0274 -1.2745 -1.3259
 3058TIP3    H230734   1.389   5.255   8.132  0.0362 -0.4220 -0.5970
 3059TIP3   OH230735   2.417   1.038   8.126  0.3329  0.6384 -0.0304
 3059TIP3    H130736   2.361   1.113   8.106 -0.2512  0.3201  0.4098
 3059TIP3    H230737   2.467   1.023   8.046 -1.6135 -0.3146 -1.1271
 3060TIP3   OH230738   3.457   2.996   0.960 -0.0495 -0.2579 -0.1368
 3060TIP3    H130739   3.456   2.921   1.019 -1.1457 -0.3492 -0.2543
 3060TIP3    H230740   3.541   3.038   0.977 -0.2877 -0.3313  1.4403
 3061TIP3   OH230741   0.007   2.817   7.791 -0.2056  0.0408 -0.0225
 3061TIP3    H130742   0.023   2.735   7.838  1.1599  0.9116  1.1321
 3061TIP3    H230743  -0.087   2.834   7.804  0.0673  0.1168  2.2837
 3062TIP3   OH230744   0.871   5.088   2.584 -0.2849  0.1887  0.4556
 3062TIP3    H130745   0.965   5.098   2.576 -0.3670 -0.1334 -1.1784
 3062TIP3    H230746   0.835   5.154   2.524 -1.1274  0.7007  1.4801
 3063TIP3   OH230747   1.734   3.115   8.826 -0.4247  0.3638  0.3780
 3063TIP3    H130748   1.800   3.050   8.802 -1.2423 -0.3550  0.0280
 3063TIP3    H230749   1.776   3.168   8.894  0.1478 -0.7494  0.9201
 3064TIP3   OH230750   2.442   1.097   1.587 -0.2466  0.0844 -0.2422
 3064TIP3    H130751   2.407   1.070   1.503 -0.3455  1.3793 -0.6318
 3064TIP3    H230752   2.427   1.192   1.591  1.0371  0.2820  0.6051
 3065TIP3   OH230753   4.579   2.886   2.954  0.0149  0.1638 -0.3919
 3065TIP3    H130754   4.639   2.912   3.024 -0.9193 -0.2226  0.5923
 3065TIP3    H230755   4.586   2.790   2.951 -0.2282  0.1504 -0.5602
 3066TIP3   OH230756   4.133   2.378   2.507 -0.4464  0.0966 -0.2615
 3066TIP3    H130757   4.052   2.340   2.542  0.6506 -0.1965  2.1307
 3066TIP3    H230758   4.157   2.320   2.435 -2.0017 -0.1832 -0.5929
 3067TIP3   OH230759   5.607   0.465   3.443  0.4244 -0.3415  0.2301
 3067TIP3    H130760   5.632   0.424   3.360  1.0740 -0.4017  0.4449
 3067TIP3    H230761   5.674   0.533   3.456 -0.7790  0.9758 -0.2458
 3068TIP3   OH230762   2.591   3.775   1.011 -0.1081  0.0379  0.1519
 3068TIP3    H130763   2.642   3.849   0.978  0.3668  0.0739  0.9171
 3068TIP3    H230764   2.653   3.728   1.067 -0.1713 -1.3862 -0.9273
 3069TIP3   OH230765   5.748   6.311   0.582 -0.5304  0.0316 -0.1148
 3069TIP3    H130766   5.752   6.380   0.648 -0.3930  0.0823 -0.1770
 3069TIP3    H230767   5.732   6.231   0.632  0.4370 -0.0649  0.0647
 3070TIP3   OH230768   0.892   2.474   2.484  0.5147 -0.4065  0.0913
 3070TIP3    H130769   0.923   2.395   2.442 -0.9125 -0.7888 -0.2975
 3070TIP3    H230770   0.800   2.480   2.460  0.4469  1.0685  0.5811
 3071TIP3   OH230771   4.533   2.053   1.823  0.0816 -0.4336  0.2872
 3071TIP3    H130772   4.583   1.974   1.844  0.7222  0.0335  0.5838
 3071TIP3    H230773   4.443   2.024   1.816  0.5890 -1.7137 -2.3512
 3072TIP3   OH230774   2.434   5.981   2.464  0.0882 -0.1183 -0.1120
 3072TIP3    H130775   2.424   6.003   2.556  0.9546  3.1763 -0.6540
 3072TIP3    H230776   2.368   6.035   2.420  0.8874 -0.2431 -1.5302
 3073TIP3   OH230777   4.129   4.226   7.583 -0.0278  0.5699 -0.0150
 3073TIP3    H130778   4.187   4.158   7.548  1.4434  1.6321  0.2461
 3073TIP3    H230779   4.122   4.206   7.676 -0.2265  0.3409 -0.0786
 3074TIP3   OH230780   3.363   2.173   1.490  0.0289 -0.5271 -0.2188
 3074TIP3    H130781   3.376   2.263   1.519  1.2314  0.1130 -2.5297
 3074TIP3    H230782   3.368   2.177   1.394 -1.9402 -2.7579 -0.5089
 3075TIP3   OH230783   3.623   2.226   7.473 -0.0419 -0.3201  0.2458
 3075TIP3    H130784   3.605   2.302   7.528 -1.6105 -1.1103  0.8961
 3075TIP3    H230785   3.684   2.258   7.407 -0.2326  1.3543  0.8346
 3076TIP3   OH230786   0.759   5.242   0.576 -0.4944  0.0437 -0.3696
 3076TIP3    H130787   0.841   5.203   0.547  0.0484  0.7744  0.1483
 3076TIP3    H230788   0.715   5.268   0.495  0.3879  0.8342 -0.6140
 3077TIP3   OH230789   0.504   2.477   1.435  0.3954 -0.5919 -0.2984
 3077TIP3    H130790   0.482   2.430   1.516  0.3166 -1.8299 -1.0082
 3077TIP3    H230791   0.431   2.459   1.376  0.3409  0.4962 -0.5747
 3078TIP3   OH230792   3.955   5.359   0.648 -0.2425 -0.5051  0.0438
 3078TIP3    H130793   4.050   5.357   0.641 -0.1667 -1.2534  1.0262
 3078TIP3    H230794   3.924   5.366   0.558  0.7453  0.3948 -0.2455
 3079TIP3   OH230795   0.001   6.273   7.834  0.2394 -0.3365 -0.1874
 3079TIP3    H130796  -0.079   6.282   7.886  0.9642  0.7364  0.7833
 3079TIP3    H230797   0.007   6.179   7.815 -2.0542 -0.2626 -1.6116
 3080TIP3   OH230798   3.757   0.242   2.410  0.4792  0.7077  0.0242
 3080TIP3    H130799   3.771   0.150   2.433 -0.0595  0.5306 -0.3428
 3080TIP3    H230800   3.793   0.290   2.484 -0.6288  0.1660  0.9592
 3081TIP3   OH230801   0.033   4.210   2.228 -0.4169 -0.3872  0.1908
 3081TIP3    H130802  -0.061   4.198   2.213  0.1035 -3.2797 -1.6364
 3081TIP3    H230803   0.045   4.304   2.233 -3.8021  0.1004  3.6973
 3082TIP3   OH230804   2.458   2.502   0.879 -0.1667  0.1411 -0.5117
 3082TIP3    H130805   2.366   2.530   0.882 -0.8497 -1.7714 -1.6853
 3082TIP3    H230806   2.465   2.454   0.796  1.8124 -0.0576 -0.2615
 3083TIP3   OH230807   2.464   2.533   8.415 -0.0433  0.0905 -0.1395
 3083TIP3    H130808   2.484   2.625   8.397 -0.6613  0.3425  0.4218
 3083TIP3    H230809   2.449   2.494   8.329 -1.4370  0.9171 -0.2992
 3084TIP3   OH230810   4.611   2.079   0.092 -0.0326 -0.1438  0.1595
 3084TIP3    H130811   4.535   2.020   0.089  0.8196 -1.2694  0.1274
 3084TIP3    H230812   4.665   2.045   0.164  0.3956  0.7175  0.2604
 3085TIP3   OH230813   3.512   1.864   8.308 -0.2636 -0.0442  0.1361
 3085TIP3    H130814   3.419   1.861   8.284 -0.8289 -1.4670  2.2073
 3085TIP3    H230815   3.519   1.937   8.368 -0.2523 -0.5009  0.6992
 3086TIP3   OH230816   6.140   1.894   0.899  0.2857  0.7378  0.2975
 3086TIP3    H130817   6.199   1.968   0.915 -0.2690  1.2927 -0.1891
 3086TIP3    H230818   6.066   1.909   0.958  1.0314 -0.4398  1.5708
 3087TIP3   OH230819   4.670   3.101   1.499  0.0313  0.1285  0.2568
 3087TIP3    H130820   4.753   3.148   1.507  0.5086 -0.6154 -0.2175
 3087TIP3    H230821   4.694   3.008   1.508 -0.9634 -0.0238  1.8153
 3088TIP3   OH230822   3.266   6.232   8.263 -0.0258 -0.1141  0.0699
 3088TIP3    H130823   3.334   6.188   8.213 -0.9755 -0.8421 -0.6189
 3088TIP3    H230824   3.314   6.285   8.327  1.2063  0.3296 -1.1587
 3089TIP3   OH230825   4.417   6.695   8.330 -0.3787  0.3386 -0.2730
 3089TIP3    H130826   4.391   6.771   8.382 -0.7266 -0.9484  1.5407
 3089TIP3    H230827   4.489   6.656   8.380  0.5255  0.0674 -1.7391
 3090TIP3   OH230828   0.735   2.027   1.421  0.2432 -0.4770 -0.6081
 3090TIP3    H130829   0.817   1.979   1.431  0.1578 -0.7870 -1.3529
 3090TIP3    H230830   0.727   2.077   1.502  1.9150  0.7094 -1.1051
 3091TIP3   OH230831   6.280   6.045   2.525 -0.3537  0.0584 -0.4179
 3091TIP3    H130832   6.272   5.950   2.523 -1.6547  0.1583 -1.4329
 3091TIP3    H230833   6.241   6.070   2.609 -1.3532 -0.2256 -0.7781
 3092TIP3   OH230834   6.110   4.294   2.912 -0.6920  0.4398 -0.1948
 3092TIP3    H130835   6.106   4.199   2.900  2.3500  0.2291 -0.1277
 3092TIP3    H230836   6.064   4.329   2.836 -0.6584 -1.0728 -0.9652
 3093TIP3   OH230837   5.158   0.499   2.526  0.4646  0.2318 -0.0781
 3093TIP3    H130838   5.106   0.564   2.573 -0.1505  0.6828 -1.3590
 3093TIP3    H230839   5.109   0.480   2.447  0.6100 -1.8480  0.2575
 3094TIP3   OH230840   3.639   6.379   8.113  0.2769 -0.0349 -0.6656
 3094TIP3    H130841   3.668   6.410   8.199 -1.4648  1.0002 -0.3953
 3094TIP3    H230842   3.568   6.438   8.090 -1.1986 -2.0458 -1.5366
 3095TIP3   OH230843   5.978   1.155   0.241  0.6476  0.0795 -0.1077
 3095TIP3    H130844   6.069   1.163   0.212  0.3262  1.5018 -0.8336
 3095TIP3    H230845   5.948   1.245   0.252 -0.3600 -0.3866  1.1913
 3096TIP3   OH230846   5.930   0.210   2.822  0.6347  0.1054 -0.0882
 3096TIP3    H130847   5.918   0.253   2.737  0.9171  2.3456  0.9360
 3096TIP3    H230848   5.843   0.182   2.848  0.5605 -0.7166 -1.1331
 3097TIP3   OH230849   2.582   4.740   0.001 -0.2733 -0.2730 -0.3103
 3097TIP3    H130850   2.623   4.659  -0.029  1.6787 -0.6488  2.8807
 3097TIP3    H230851   2.546   4.719   0.087  0.6344  2.2691  0.8151
 3098TIP3   OH230852   0.666   1.376   1.000 -0.0552  0.3187  0.0469
 3098TIP3    H130853   0.613   1.439   0.951 -1.7890 -1.4630 -0.4915
 3098TIP3    H230854   0.675   1.301   0.941  0.0107 -0.8567  1.4921
 3099TIP3   OH230855   6.635   0.689   7.498 -0.5903  0.4603 -0.2785
 3099TIP3    H130856   6.590   0.742   7.432  0.4649 -0.1177 -1.5007
 3099TIP3    H230857   6.636   0.600   7.461  0.9437  0.3344  0.0105
 3100TIP3   OH230858   4.995   3.375   8.564  0.3392 -0.2075  0.2167
 3100TIP3    H130859   4.929   3.380   8.495  2.9037  0.3402 -2.4159
 3100TIP3    H230860   5.024   3.284   8.563  1.3925  0.1100 -0.5482
 3101TIP3   OH230861   5.745   5.076   8.665 -0.2535  0.0891 -0.2944
 3101TIP3    H130862   5.653   5.095   8.684 -0.2927 -2.0346  2.0804
 3101TIP3    H230863   5.745   4.985   8.636  1.0341  0.3229 -1.1073
 3102TIP3   OH230864   2.144   4.988   1.925 -0.2895  0.2084  0.2163
 3102TIP3    H130865   2.078   5.037   1.974 -0.9590  0.5278 -0.9629
 3102TIP3    H230866   2.208   5.054   1.897 -0.5932  0.2384 -0.4182
 3103TIP3   OH230867   2.650   2.975   2.064  0.1818  0.2344 -0.5251
 3103TIP3    H130868   2.607   2.982   1.978 -1.6346 -0.5316  0.2661
 3103TIP3    H230869   2.663   2.881   2.076  0.3020  0.3251  0.0965
 3104TIP3   OH230870   4.506   4.564   2.007  0.3185 -0.0028  0.9221
 3104TIP3    H130871   4.591   4.607   2.017  0.3917 -0.1384  0.8764
 3104TIP3    H230872   4.466   4.571   2.094  0.6383 -0.5023  1.1098
 3105TIP3   OH230873   1.329   1.505   7.411 -0.1316  0.8675 -0.1425
 3105TIP3    H130874   1.327   1.597   7.438  1.2146  0.3227  2.1030
 3105TIP3    H230875   1.256   1.464   7.459  0.7311  0.3448  0.7521
 3106TIP3   OH230876   3.848   4.002   1.375 -1.1005  0.4267  0.7502
 3106TIP3    H130877   3.887   4.061   1.310 -0.5498  1.3363  1.8627
 3106TIP3    H230878   3.887   4.029   1.458 -1.4645 -0.9875  1.4159
 3107TIP3   OH230879   0.008   6.016   8.208 -0.2560 -0.0862 -0.0537
 3107TIP3    H130880   0.048   6.073   8.273  1.7444 -0.9566 -0.4452
 3107TIP3    H230881   0.080   5.989   8.152 -1.2114 -2.5690 -0.2088
 3108TIP3   OH230882   1.044   5.198   0.539 -0.3763 -0.2436  0.4887
 3108TIP3    H130883   1.135   5.224   0.524  0.0459 -1.2016  1.2620
 3108TIP3    H230884   1.024   5.230   0.626 -0.9934  0.4883  0.0907
 3109TIP3   OH230885   2.203   5.736   1.222 -0.4418 -0.1741  0.1290
 3109TIP3    H130886   2.275   5.697   1.271 -0.1797  0.7149  0.4791
 3109TIP3    H230887   2.143   5.769   1.289 -1.5855 -1.5744 -0.1435
 3110TIP3   OH230888   3.996   1.386   3.141  0.1472 -0.4677  0.3342
 3110TIP3    H130889   3.930   1.418   3.203 -0.5073 -1.6206  0.2593
 3110TIP3    H230890   4.054   1.331   3.193 -0.0915 -1.0122  0.0334
 3111TIP3   OH230891   2.744   1.809   1.063  0.5412  0.2905  0.0914
 3111TIP3    H130892   2.771   1.898   1.086 -0.4858  0.9037 -0.9570
 3111TIP3    H230893   2.747   1.807   0.968 -0.8720 -0.3092  0.0345
 3112TIP3   OH230894   1.002   1.880   1.410 -0.4403  0.3988 -0.0639
 3112TIP3    H130895   1.044   1.910   1.329 -0.6145  2.4952  0.5508
 3112TIP3    H230896   1.050   1.925   1.479 -2.3377  1.2240  0.7798
 3113TIP3   OH230897   4.440   0.035   1.379  0.5724 -0.1400  0.2223
 3113TIP3    H130898   4.366   0.017   1.437  1.2940 -1.8787  0.6515
 3113TIP3    H230899   4.492   0.101   1.426 -0.1206  0.2911  0.4002
 3114TIP3   OH230900   3.030   6.632   1.519  0.5803  0.1245 -0.3438
 3114TIP3    H130901   3.041   6.571   1.592  1.6424  0.2751 -0.3678
 3114TIP3    H230902   3.118   6.644   1.484  0.0989  0.1031 -1.6238
 3115TIP3   OH230903   1.603   0.154   8.492 -0.4028 -0.7653 -0.3848
 3115TIP3    H130904   1.561   0.124   8.573 -0.1013  1.2423  0.5853
 3115TIP3    H230905   1.537   0.142   8.424 -2.1856  1.1727  0.8797
 3116TIP3   OH230906   6.577   5.113   8.127 -0.3105 -0.5866 -0.3338
 3116TIP3    H130907   6.538   5.104   8.040  0.6146  1.1503 -0.9844
 3116TIP3    H230908   6.505   5.139   8.183 -0.5852  0.0955 -0.9843
 3117TIP3   OH230909   4.256   2.270   3.026  0.4845  0.0976  0.1450
 3117TIP3    H130910   4.198   2.340   3.057 -1.5026 -1.6504  0.6512
 3117TIP3    H230911   4.264   2.212   3.101  2.8456  0.1900  0.0140
 3118TIP3   OH230912   1.531   2.742   8.169 -0.3020 -0.3955 -0.1887
 3118TIP3    H130913   1.582   2.813   8.208  0.1339 -0.5652 -0.4353
 3118TIP3    H230914   1.516   2.770   8.079 -4.0698  1.4968  0.8421
 3119TIP3   OH230915   0.737   4.006   1.607 -0.2418 -0.5704  1.0302
 3119TIP3    H130916   0.651   4.030   1.641 -0.4105 -0.3591  0.4632
 3119TIP3    H230917   0.787   4.087   1.607 -0.7865 -0.1882 -0.8115
 3120TIP3   OH230918   0.561   3.614   2.739  0.1855  0.2873  0.5267
 3120TIP3    H130919   0.541   3.561   2.816 -0.8557  1.5257  1.1491
 3120TIP3    H230920   0.560   3.704   2.771  3.1034  0.6872 -0.2437
 3121TIP3   OH230921   6.174   2.554   0.496  0.4022 -0.3212  0.0607
 3121TIP3    H130922   6.121   2.523   0.422 -1.0414 -2.3399  1.8351
 3121TIP3    H230923   6.117   2.615   0.543  0.8441 -0.0466  0.2547
 3122TIP3   OH230924   4.318   3.963   8.013 -0.1107 -0.2315  0.4805
 3122TIP3    H130925   4.348   3.988   8.101 -0.0467  1.4688  0.0167
 3122TIP3    H230926   4.238   3.912   8.028 -1.0316  1.4141  1.5098
 3123TIP3   OH230927   3.282   6.458   0.592  0.0548 -0.8862 -0.4495
 3123TIP3    H130928   3.238   6.445   0.509 -0.5763 -0.4860 -0.1772
 3123TIP3    H230929   3.253   6.385   0.646  0.2659 -1.0022 -0.4885
 3124TIP3   OH230930   1.149   2.293   8.359 -0.0297 -0.4238 -0.2635
 3124TIP3    H130931   1.151   2.278   8.265  0.8775 -1.0315 -0.1544
 3124TIP3    H230932   1.211   2.231   8.395  1.0463  1.0592  0.5625
 3125TIP3   OH230933   2.734   0.911   0.953 -0.1328 -0.0598  0.2410
 3125TIP3    H130934   2.824   0.887   0.932 -0.5715 -1.9253  0.3131
 3125TIP3    H230935   2.683   0.881   0.878 -0.7366  0.7669  0.3067
 3126TIP3   OH230936   0.902   3.488   0.823 -0.2159  0.6984 -0.3940
 3126TIP3    H130937   0.819   3.440   0.833 -0.1799 -0.1045 -3.1485
 3126TIP3    H230938   0.890   3.541   0.744  1.3526  1.8197  0.0712
 3127TIP3   OH230939   5.380   2.668   8.062  0.2862  0.2881 -0.2602
 3127TIP3    H130940   5.431   2.724   8.003  1.4045 -0.4867 -0.0771
 3127TIP3    H230941   5.341   2.728   8.125  1.1925  0.8907 -0.2546
 3128TIP3   OH230942   2.798   2.058   1.009  0.9471 -0.0857  0.0608
 3128TIP3    H130943   2.815   2.042   0.916 -1.8368 -0.9975 -0.3866
 3128TIP3    H230944   2.822   2.149   1.023 -0.4337  0.6792 -2.0845
 3129TIP3   OH230945   5.373   0.906   1.493 -0.5467 -0.4434 -0.5228
 3129TIP3    H130946   5.407   0.875   1.577  0.7948  1.4314 -0.2960
 3129TIP3    H230947   5.311   0.975   1.517 -1.0028 -0.6711 -1.0498
 3130TIP3   OH230948   1.591   3.710   2.221 -0.3107 -0.6836  0.1999
 3130TIP3    H130949   1.642   3.678   2.147  0.1776 -0.7022  0.5396
 3130TIP3    H230950   1.618   3.656   2.295 -0.3237 -0.2507  0.5295
 3131TIP3   OH230951   1.887   3.705   0.945  0.2344 -0.4164 -0.5553
 3131TIP3    H130952   1.947   3.719   1.017  0.6146  1.7413 -1.2118
 3131TIP3    H230953   1.922   3.629   0.898  1.4400 -0.2656  0.0660
 3132TIP3   OH230954   3.080   4.409   8.820 -0.5999 -0.4453 -0.1250
 3132TIP3    H130955   3.169   4.388   8.792  1.0355  3.6210  1.2884
 3132TIP3    H230956   3.073   4.369   8.907  0.4091  0.2456  0.3011
 3133TIP3   OH230957   6.511   6.574   2.636 -0.1297  0.4417  0.1544
 3133TIP3    H130958   6.457   6.636   2.686  0.3984  1.5717 -0.6220
 3133TIP3    H230959   6.479   6.583   2.546  0.9642  0.7154 -0.2200
 3134TIP3   OH230960   3.130   2.526   0.866  1.0037  0.4056 -0.1916
 3134TIP3    H130961   3.138   2.618   0.893 -0.9186  0.5577  0.0273
 3134TIP3    H230962   3.118   2.531   0.771  1.0567  0.3698 -0.1999
 3135TIP3   OH230963   3.202   0.503   2.083 -0.8647 -0.1762 -0.4582
 3135TIP3    H130964   3.108   0.483   2.089 -0.9844  0.5738  0.4951
 3135TIP3    H230965   3.213   0.580   2.139  0.3468 -0.3331 -0.4629
 3136TIP3   OH230966   3.474   1.951   0.836  0.0891  0.3920 -0.0830
 3136TIP3    H130967   3.402   1.957   0.774  0.7015  1.4214 -0.7323
 3136TIP3    H230968   3.437   1.908   0.913 -1.2817  1.1366 -0.3043
 3137TIP3   OH230969   5.713   1.512   2.910 -0.4658 -0.8585  0.1262
 3137TIP3    H130970   5.621   1.528   2.888 -0.0121  0.0585 -1.2457
 3137TIP3    H230971   5.711   1.476   2.999 -2.1264 -0.6374  0.2037
 3138TIP3   OH230972   0.728   4.316   7.824 -0.2372  0.1652  0.6516
 3138TIP3    H130973   0.721   4.368   7.744 -0.8152  0.4523  0.8807
 3138TIP3    H230974   0.728   4.225   7.794  1.2563  0.2915  0.2152
 3139TIP3   OH230975   6.740   0.350   1.960  0.3594  0.1421  0.5500
 3139TIP3    H130976   6.756   0.364   1.867  0.8875  0.7027  0.7194
 3139TIP3    H230977   6.733   0.255   1.970  2.9182 -0.1409  0.3485
 3140TIP3   OH230978   4.300   1.306   0.027  0.6227  0.3284 -0.0693
 3140TIP3    H130979   4.367   1.253  -0.016 -0.1903 -0.1425 -0.7787
 3140TIP3    H230980   4.229   1.311  -0.036 -0.1573  0.5303  0.8004
 3141TIP3   OH230981   2.939   2.846   0.353 -0.1797  0.1226 -0.6435
 3141TIP3    H130982   2.893   2.861   0.270 -0.2834 -0.3902 -0.6837
 3141TIP3    H230983   3.015   2.792   0.329  0.5682  1.1433 -0.6075
 3142TIP3   OH230984   4.167   3.795   1.688 -0.0230  0.9159  0.7359
 3142TIP3    H130985   4.177   3.847   1.767  2.4130  0.4516  0.8079
 3142TIP3    H230986   4.231   3.831   1.627  2.1356 -2.1395  0.9407
 3143TIP3   OH230987   5.490   2.727   2.069 -0.2508 -0.5311 -0.3737
 3143TIP3    H130988   5.443   2.663   2.123 -1.5907 -0.5332 -1.4759
 3143TIP3    H230989   5.582   2.713   2.090 -0.6878 -0.5981  1.8297
 3144TIP3   OH230990   4.317   3.176   0.086 -0.0973  0.4510  0.1197
 3144TIP3    H130991   4.393   3.121   0.104  0.7488  1.0734 -1.3400
 3144TIP3    H230992   4.332   3.208  -0.003 -0.3740  3.3366  1.0125
 3145TIP3   OH230993   6.307   1.246   2.596 -0.0029  0.1489  0.6054
 3145TIP3    H130994   6.289   1.213   2.507 -2.7453 -0.9819  1.4682
 3145TIP3    H230995   6.246   1.320   2.606  0.7786  0.7085  1.3295
 3146TIP3   OH230996   0.935   1.398   1.710  0.0629 -0.1179 -0.6742
 3146TIP3    H130997   1.011   1.361   1.756 -0.5093  0.9669  1.2657
 3146TIP3    H230998   0.968   1.480   1.673 -0.2192  0.5921  0.5726
 3147TIP3   OH230999   3.653   4.691   1.098 -0.3456  0.3227  0.2742
 3147TIP3    H131000   3.663   4.687   1.002  0.5644  0.0091  0.3786
 3147TIP3    H231001   3.590   4.622   1.118 -0.4511  0.3121 -0.0867
 3148TIP3   OH231002   6.355   0.416   2.091  0.3598 -0.5014  0.3010
 3148TIP3    H131003   6.295   0.411   2.166 -0.0836 -0.7383 -0.0601
 3148TIP3    H231004   6.383   0.326   2.076  1.0004 -0.3592  0.6145
 3149TIP3   OH231005   0.362   1.130   0.069  0.1315  0.1811  0.4204
 3149TIP3    H131006   0.369   1.037   0.088 -0.7255  0.1753  0.7465
 3149TIP3    H231007   0.291   1.136   0.004  0.0659  0.6184  0.5265
 3150TIP3   OH231008   2.221   0.094   1.036  0.2870  0.0211 -0.5456
 3150TIP3    H131009   2.300   0.125   1.082  0.1938 -0.8463  0.2319
 3150TIP3    H231010   2.214   0.151   0.960 -0.4582  2.6006  1.3261
 3151TIP3   OH231011   5.761   0.369   2.508 -0.2614 -0.0395 -0.7039
 3151TIP3    H131012   5.710   0.416   2.574 -1.0846  0.7287 -1.8499
 3151TIP3    H231013   5.845   0.415   2.506 -0.0772 -0.3201  0.0717
 3152TIP3   OH231014   5.902   2.624   2.640  0.0681  0.2429  0.3344
 3152TIP3    H131015   5.825   2.596   2.689 -0.0504  0.8341  0.4918
 3152TIP3    H231016   5.914   2.716   2.664 -0.7592  0.9619 -1.7087
 3153TIP3   OH231017   6.411   4.911   0.519  0.0368 -0.3504 -0.1559
 3153TIP3    H131018   6.439   4.833   0.472  0.8899 -0.1682  0.0411
 3153TIP3    H231019   6.371   4.878   0.599 -0.3101 -0.6127 -0.4356
 3154TIP3   OH231020   3.206   6.231   0.435 -0.0939  0.1673 -0.1523
 3154TIP3    H131021   3.258   6.205   0.511  0.6434  0.5655 -0.5066
 3154TIP3    H231022   3.258   6.300   0.393 -0.7480  0.3286 -0.7147
 3155TIP3   OH231023   0.459   3.092   3.029  0.1629 -0.6130  0.5264
 3155TIP3    H131024   0.418   3.112   3.113  1.2849 -0.0699  0.9635
 3155TIP3    H231025   0.545   3.057   3.052  1.0073  0.7801 -0.4073
 3156TIP3   OH231026   1.310   3.202   3.313 -0.2667 -0.5113  0.7296
 3156TIP3    H131027   1.303   3.246   3.397 -1.7656 -1.4395  1.1363
 3156TIP3    H231028   1.251   3.251   3.255 -0.2527 -0.6665  0.5827
 3157TIP3   OH231029   6.499   1.001   0.920 -0.3019  0.2384  0.0499
 3157TIP3    H131030   6.485   1.023   0.828 -1.5568 -1.7612 -0.2967
 3157TIP3    H231031   6.552   0.922   0.919  2.0181  1.6726  1.1731
 3158TIP3   OH231032   2.049   0.209   8.218 -0.3947  0.3567  0.3186
 3158TIP3    H131033   2.101   0.136   8.184 -1.3497  0.3657 -1.2282
 3158TIP3    H231034   1.966   0.203   8.171 -0.4610  2.4996  0.0962
 3159TIP3   OH231035   0.151   1.483   3.026  0.1554 -0.2840 -0.1596
 3159TIP3    H131036   0.164   1.418   3.095 -0.5332 -1.6616 -1.2578
 3159TIP3    H231037   0.234   1.484   2.979  0.3490  0.0438  0.1845
 3160TIP3   OH231038   0.622   3.713   8.065 -0.4524  0.1926 -0.4065
 3160TIP3    H131039   0.626   3.650   8.137  0.2309  1.0470  0.3450
 3160TIP3    H231040   0.637   3.661   7.986  1.3059 -0.4248  0.2919
 3161TIP3   OH231041   6.079   5.039   0.915 -0.0813  0.2507 -0.0170
 3161TIP3    H131042   6.076   5.029   0.819  1.0708 -0.3434 -0.0119
 3161TIP3    H231043   5.991   5.015   0.944 -0.6981  1.2538 -0.9876
 3162TIP3   OH231044   6.605   3.502   1.065  0.0098  0.0505  0.0160
 3162TIP3    H131045   6.678   3.442   1.050  1.2724  1.2521  1.0897
 3162TIP3    H231046   6.542   3.480   0.997  0.5642 -2.2559  0.1688
 3163TIP3   OH231047   5.018   2.053   2.944 -0.4126 -0.1679 -0.3657
 3163TIP3    H131048   4.994   1.974   2.992  0.8100 -0.6201 -0.4708
 3163TIP3    H231049   5.109   2.039   2.918 -0.3158  1.0850 -0.7740
 3164TIP3   OH231050   4.323   4.636   2.206 -0.2423 -0.7186  0.1865
 3164TIP3    H131051   4.385   4.656   2.277  0.1894  0.2321 -0.4332
 3164TIP3    H231052   4.276   4.718   2.193  0.4155 -0.5514 -1.3246
 3165TIP3   OH231053   2.112   0.089   8.792 -0.3466 -0.1063 -0.0607
 3165TIP3    H131054   2.062   0.007   8.793 -1.0420  0.2772 -1.1301
 3165TIP3    H231055   2.046   0.157   8.777  0.1581  0.7151  1.3074
 3166TIP3   OH231056   1.422   3.783   8.967 -0.3927  0.3573  0.3015
 3166TIP3    H131057   1.362   3.714   8.937  1.3027 -0.3891 -1.5632
 3166TIP3    H231058   1.395   3.800   9.057 -2.8462 -0.5369 -0.1817
 3167TIP3   OH231059   1.524   0.110   8.169 -0.1775  0.0001 -0.8996
 3167TIP3    H131060   1.519   0.131   8.076 -1.1879 -0.5297 -0.9719
 3167TIP3    H231061   1.433   0.097   8.196  0.0796  0.4079  0.2271
 3168TIP3   OH231062   1.614   0.648   0.600 -0.0910  0.1684 -0.1071
 3168TIP3    H131063   1.671   0.584   0.643  0.2132  0.0676 -0.6494
 3168TIP3    H231064   1.663   0.730   0.602 -0.2249  0.2449  0.0498
 3169TIP3   OH231065   3.068   1.615   8.396  0.3569 -0.2090  0.0135
 3169TIP3    H131066   3.159   1.628   8.368  0.1612  1.5639  0.0843
 3169TIP3    H231067   3.047   1.693   8.446 -1.1983 -0.6351  0.0796
 3170TIP3   OH231068   6.051   6.268   6.847 -0.5583  0.0643  0.7409
 3170TIP3    H131069   6.132   6.240   6.889  0.8141  1.2439 -0.9833
 3170TIP3    H231070   6.018   6.189   6.805  0.3222 -0.1895  0.5032
 3171TIP3   OH231071   3.605   3.992   0.193 -0.1489 -0.3868  0.3304
 3171TIP3    H131072   3.610   4.060   0.125 -0.5816  0.2506  0.9281
 3171TIP3    H231073   3.559   4.033   0.265  0.8560 -0.8609  1.2675
 3172TIP3   OH231074   4.033   0.149   7.783 -0.5110  0.2924  0.2754
 3172TIP3    H131075   4.092   0.221   7.808 -1.4121  0.7295  1.2173
 3172TIP3    H231076   4.008   0.170   7.693 -2.3996  2.3737  1.1818
 3173TIP3   OH231077   6.740   0.870   0.364 -0.0952 -0.1032 -0.0917
 3173TIP3    H131078   6.755   0.834   0.451 -1.9889  0.2302  0.4124
 3173TIP3    H231079   6.800   0.943   0.357  1.3795 -1.2427  0.1877
 3174TIP3   OH231080   4.910   5.639   2.406  0.8278  0.6559 -0.3387
 3174TIP3    H131081   4.872   5.612   2.489  2.5528 -1.4138 -0.1191
 3174TIP3    H231082   4.851   5.601   2.340  1.6014 -1.2409 -0.0078
 3175TIP3   OH231083   3.277   3.396   1.578  0.0366  0.4179  0.1225
 3175TIP3    H131084   3.314   3.477   1.543  0.0690  0.4373  0.2008
 3175TIP3    H231085   3.265   3.413   1.671 -1.8708  1.0632 -0.1886
 3176TIP3   OH231086   0.966   5.846   3.147 -0.0228 -0.2484 -1.0116
 3176TIP3    H131087   0.911   5.833   3.225  0.3133 -0.4958 -0.8113
 3176TIP3    H231088   0.935   5.928   3.109  2.2584  1.9631  1.4901
 3177TIP3   OH231089   5.962   6.582   1.081  0.2198 -0.3286 -0.2761
 3177TIP3    H131090   5.996   6.494   1.071  0.5070 -0.4811  1.7303
 3177TIP3    H231091   5.868   6.571   1.096 -0.0809 -0.1456 -1.8351
 3178TIP3   OH231092   3.476   5.804   8.732 -0.0883  0.5328 -0.1551
 3178TIP3    H131093   3.508   5.727   8.684 -1.6601 -0.1081 -0.2165
 3178TIP3    H231094   3.501   5.878   8.676 -0.2227 -0.0702 -1.0391
 3179TIP3   OH231095   0.416   3.082   0.243 -0.4346 -0.1392 -0.1184
 3179TIP3    H131096   0.491   3.140   0.258 -0.6129 -0.4009  2.2062
 3179TIP3    H231097   0.452   2.994   0.251 -0.8636 -0.2761  0.3364
 3180TIP3   OH231098   3.249   0.865   8.772  0.2175 -0.0162 -0.1347
 3180TIP3    H131099   3.287   0.935   8.718  0.6839 -0.2949 -0.1704
 3180TIP3    H231100   3.270   0.784   8.725 -1.6698 -0.1040 -0.9148
 3181TIP3   OH231101   1.430   6.318   3.246 -0.0232 -0.4209 -0.2682
 3181TIP3    H131102   1.437   6.256   3.173 -0.2856  0.6646 -1.2486
 3181TIP3    H231103   1.340   6.309   3.277  0.3570 -1.5631  0.5726
 3182TIP3   OH231104   3.596   4.696   1.420 -0.2764 -0.0449 -0.0726
 3182TIP3    H131105   3.502   4.696   1.438 -0.0014 -1.8381  1.6005
 3182TIP3    H231106   3.635   4.745   1.493  0.1708 -0.1955 -0.2028
 3183TIP3   OH231107   3.964   3.816   0.817 -0.0691  0.8716  0.2610
 3183TIP3    H131108   3.968   3.897   0.868 -2.8532  0.7237  0.8871
 3183TIP3    H231109   3.875   3.815   0.781  0.0090 -1.7382 -0.0233
 3184TIP3   OH231110   1.630   6.268   8.504 -1.1083 -0.4803 -0.0296
 3184TIP3    H131111   1.677   6.267   8.421 -0.4224 -1.7883  0.3341
 3184TIP3    H231112   1.575   6.189   8.502 -1.6358 -0.1341  0.4509
 3185TIP3   OH231113   3.216   5.471   1.668  0.1547 -0.1367 -0.2532
 3185TIP3    H131114   3.300   5.430   1.690 -0.8454 -2.2646 -0.1287
 3185TIP3    H231115   3.200   5.443   1.578  0.2131  1.4498 -0.7833
 3186TIP3   OH231116   5.642   3.596   0.680 -0.6161  0.0707  0.3128
 3186TIP3    H131117   5.703   3.527   0.703 -1.3368 -0.9202 -0.6396
 3186TIP3    H231118   5.676   3.674   0.724  0.2415 -0.8646  1.3689
 3187TIP3   OH231119   5.330   3.364   8.944 -0.6647 -0.2169  0.5969
 3187TIP3    H131120   5.344   3.415   9.023 -1.1719  0.8217  0.0396
 3187TIP3    H231121   5.364   3.277   8.965 -0.0190  0.2705  1.6547
 3188TIP3   OH231122   5.393   3.481   6.779 -0.3164 -0.0899 -0.7060
 3188TIP3    H131123   5.363   3.406   6.830 -1.9304  0.4723 -0.7714
 3188TIP3    H231124   5.424   3.544   6.844 -0.1379 -0.3058 -0.5805
 3189TIP3   OH231125   3.724   4.082   0.914  0.4444 -0.1916 -0.0363
 3189TIP3    H131126   3.716   4.025   0.991 -0.6020  0.0974  0.0893
 3189TIP3    H231127   3.704   4.026   0.840 -4.5485  0.6805  0.3139
 3190TIP3   OH231128   5.749   2.327   7.350  0.2981  0.2461  0.3856
 3190TIP3    H131129   5.692   2.274   7.294  0.7190 -0.4159  0.5751
 3190TIP3    H231130   5.709   2.414   7.349 -0.1377  0.0464 -0.3084
 3191TIP3   OH231131   3.931   5.748   0.767  0.3623  0.1646 -0.0940
 3191TIP3    H131132   3.911   5.655   0.772  1.0552 -0.1300 -2.0559
 3191TIP3    H231133   4.026   5.753   0.764  0.3878  1.0464  1.1728
 3192TIP3   OH231134   5.965   4.705   7.483 -0.3588  0.1281  0.0247
 3192TIP3    H131135   6.016   4.749   7.550 -0.6853  0.2484  0.1945
 3192TIP3    H231136   5.874   4.710   7.514 -0.4705 -0.1147 -0.2556
 3193TIP3   OH231137   6.218   4.503   0.799  0.0325 -0.6106 -0.5422
 3193TIP3    H131138   6.178   4.488   0.885  1.4317 -0.6503  0.1278
 3193TIP3    H231139   6.188   4.430   0.745  1.4364 -2.2590  0.7729
 3194TIP3   OH231140   1.672   4.870   0.470 -0.3890 -0.4877 -0.2671
 3194TIP3    H131141   1.669   4.778   0.446 -0.5727 -0.5209 -0.1251
 3194TIP3    H231142   1.660   4.870   0.565  1.5593 -0.4510  0.0207
 3195TIP3   OH231143   2.178   0.110   2.039  0.4637  0.3743 -0.5739
 3195TIP3    H131144   2.227   0.148   1.966  0.2154 -0.5034 -1.2155
 3195TIP3    H231145   2.087   0.106   2.008  0.1611  0.9296  0.1791
 3196TIP3   OH231146   4.646   5.248   8.448  0.5383  0.5342 -0.2092
 3196TIP3    H131147   4.640   5.324   8.505  0.5476 -0.6429  1.4213
 3196TIP3    H231148   4.556   5.229   8.422  0.2825 -0.0770  1.0410
 3197TIP3   OH231149   2.184   3.455   1.258  0.0842  0.3598 -0.4268
 3197TIP3    H131150   2.104   3.425   1.301  0.1900 -0.6686 -0.9116
 3197TIP3    H231151   2.215   3.528   1.312 -0.3938 -0.1682  0.5847
 3198TIP3   OH231152   3.372   5.082   8.708 -0.5317  0.3162 -0.1148
 3198TIP3    H131153   3.382   5.033   8.626 -0.2927 -0.2293  0.2301
 3198TIP3    H231154   3.462   5.102   8.735 -0.3970 -1.9635  1.4409
 3199TIP3   OH231155   4.509   2.789   0.242 -0.5750  0.3157 -0.1038
 3199TIP3    H131156   4.448   2.733   0.290 -0.5737  0.3232 -0.0934
 3199TIP3    H231157   4.527   2.741   0.162 -0.0507 -0.0061  0.2063
 3200TIP3   OH231158   6.014   1.902   7.977  0.1693 -0.1355  0.4849
 3200TIP3    H131159   5.957   1.831   7.946  0.6926 -0.2131 -0.3579
 3200TIP3    H231160   6.101   1.861   7.983  0.5881  0.5639 -0.5637
 3201TIP3   OH231161   0.796   4.095   0.075  0.2287 -0.0957 -0.1666
 3201TIP3    H131162   0.851   4.141   0.137  0.8006 -1.2629  0.2308
 3201TIP3    H231163   0.748   4.163   0.029  0.6152  0.8396  0.7927
 3202TIP3   OH231164   6.329   2.373   1.686 -0.2755 -0.0775 -0.3020
 3202TIP3    H131165   6.300   2.298   1.739 -2.6592 -0.3186 -1.8021
 3202TIP3    H231166   6.298   2.352   1.597  1.6096  1.3514 -1.3457
 3203TIP3   OH231167   3.688   4.770   1.953  0.1206 -0.3437 -0.1755
 3203TIP3    H131168   3.605   4.758   1.906  0.0064 -0.5160  0.0694
 3203TIP3    H231169   3.662   4.791   2.042  0.3295  0.5961 -0.3259
 3204TIP3   OH231170   4.792   0.115   8.034 -0.3829  0.4371 -0.7587
 3204TIP3    H131171   4.780   0.201   7.995  0.9042  1.0192  0.0578
 3204TIP3    H231172   4.858   0.073   7.978  0.7111  0.8912  0.1383
 3205TIP3   OH231173   1.363   4.080   0.521  0.4848 -0.0254  0.1268
 3205TIP3    H131174   1.410   4.101   0.602  0.8572  0.6613 -0.2634
 3205TIP3    H231175   1.303   4.153   0.508  0.7970  0.1241 -0.5004
 3206TIP3   OH231176   5.654   4.394   0.866  0.0706 -0.2983  0.0827
 3206TIP3    H131177   5.699   4.378   0.784  1.6295 -1.0008  1.0295
 3206TIP3    H231178   5.722   4.383   0.933 -1.6396 -2.1246  1.6403
 3207TIP3   OH231179   4.764   1.033   0.860 -0.2450  0.3170  0.2519
 3207TIP3    H131180   4.815   1.111   0.883 -0.0274 -0.1443  1.3644
 3207TIP3    H231181   4.807   1.000   0.781  0.8707  0.2351  0.8654
 3208TIP3   OH231182   3.687   3.955   1.152  0.9008  0.1192 -0.0327
 3208TIP3    H131183   3.696   3.978   1.244 -2.2436  1.2529  0.1107
 3208TIP3    H231184   3.681   3.860   1.152 -2.7727  0.1661  1.5504
 3209TIP3   OH231185   1.335   0.034   2.012  0.5777 -0.3887  0.0490
 3209TIP3    H131186   1.417  -0.005   1.982  0.4074 -0.4223 -0.3956
 3209TIP3    H231187   1.272  -0.039   2.012  0.3846 -0.2287 -0.2865
 3210TIP3   OH231188   4.706   6.278   2.487 -0.4166  0.4766  0.1477
 3210TIP3    H131189   4.660   6.194   2.482 -0.6654  0.5470  1.0632
 3210TIP3    H231190   4.646   6.334   2.536  0.0348  1.0017  0.1010
 3211TIP3   OH231191   1.479   4.913   0.264 -0.1504 -0.1768  0.3992
 3211TIP3    H131192   1.535   4.938   0.338  1.7812  1.6777 -1.5235
 3211TIP3    H231193   1.499   4.977   0.196 -2.8652 -0.9573 -1.3020
 3212TIP3   OH231194   4.773   0.958   1.981  0.3151  0.0422  0.5742
 3212TIP3    H131195   4.836   0.991   2.045 -0.0802  1.5815  0.2192
 3212TIP3    H231196   4.813   0.979   1.896 -1.3560  2.6664  0.3037
 3213TIP3   OH231197   0.826   2.708   8.536 -0.0703 -0.3969 -0.8644
 3213TIP3    H131198   0.778   2.742   8.460  0.1701 -1.0579 -1.3132
 3213TIP3    H231199   0.769   2.640   8.571  0.4675 -1.0907 -1.3176
 3214TIP3   OH231200   1.831   2.757   8.802 -0.4310 -0.3715  0.0403
 3214TIP3    H131201   1.868   2.841   8.774  0.3945 -0.7733 -0.0920
 3214TIP3    H231202   1.865   2.744   8.890 -2.3871  0.5067  0.9746
 3215TIP3   OH231203   2.539   0.309   0.592 -0.0173  0.4920 -0.2104
 3215TIP3    H131204   2.578   0.381   0.641  0.3348 -0.1423  0.4624
 3215TIP3    H231205   2.614   0.258   0.560 -0.2434  0.9124 -1.4450
 3216TIP3   OH231206   3.666   5.497   7.621  0.2722  0.4727  0.0165
 3216TIP3    H131207   3.664   5.418   7.566 -0.2734 -0.1712  0.9441
 3216TIP3    H231208   3.734   5.480   7.686 -1.1828 -0.0991  1.4503
 3217TIP3   OH231209   4.650   1.042   1.386 -0.8242  0.5738 -0.2044
 3217TIP3    H131210   4.585   1.108   1.410 -0.5765  0.3104  1.3230
 3217TIP3    H231211   4.642   0.975   1.453  3.4755  2.2622  2.4549
 3218TIP3   OH231212   1.573   6.543   0.363  0.2656 -0.2608 -0.4393
 3218TIP3    H131213   1.516   6.466   0.358 -1.6721  1.1426 -0.9669
 3218TIP3    H231214   1.584   6.571   0.272  1.3970 -0.2101 -0.2987
 3219TIP3   OH231215   2.023   0.374   1.904 -0.1723  0.1647  0.1709
 3219TIP3    H131216   2.014   0.469   1.908  0.5881  0.2269  0.5692
 3219TIP3    H231217   2.117   0.359   1.895 -0.2036 -0.5676  0.9494
 3220TIP3   OH231218   0.086   5.392   8.381 -0.2329  0.5097  0.5293
 3220TIP3    H131219   0.003   5.349   8.405  0.2916 -1.4511 -0.8839
 3220TIP3    H231220   0.122   5.337   8.311  2.2129  1.3811  1.0058
 3221TIP3   OH231221   0.550   4.893   1.420 -0.9852  0.2812  0.7575
 3221TIP3    H131222   0.536   4.966   1.360 -0.2226  0.7575  1.1487
 3221TIP3    H231223   0.470   4.841   1.413 -1.7985  1.4685  0.9171
 3222TIP3   OH231224   1.999   6.502   1.941 -0.5326  0.4239  0.6488
 3222TIP3    H131225   1.960   6.521   1.856 -0.2273  1.9849  0.8252
 3222TIP3    H231226   1.956   6.563   2.001 -1.1817 -1.0598  1.7639
 3223TIP3   OH231227   4.100   0.529   2.936  0.2236 -0.0349 -0.1064
 3223TIP3    H131228   4.043   0.549   3.011  1.2466  3.0984 -0.0420
 3223TIP3    H231229   4.054   0.564   2.860  1.1448  0.7933 -0.3085
 3224TIP3   OH231230   5.896   0.588   8.727  0.1668  0.3805 -0.3831
 3224TIP3    H131231   5.926   0.528   8.796 -1.0381 -0.8248 -0.8489
 3224TIP3    H231232   5.942   0.559   8.648 -1.1441 -0.6313 -0.8205
 3225TIP3   OH231233   1.942   2.405   0.047 -0.3115 -0.0205  0.4782
 3225TIP3    H131234   1.916   2.365   0.130  0.5744 -1.8571 -0.0820
 3225TIP3    H231235   2.035   2.427   0.060 -0.8553  2.2745  0.8911
 3226TIP3   OH231236   5.554   3.380   7.244  0.2442 -0.4990  0.2650
 3226TIP3    H131237   5.532   3.447   7.179 -1.4174 -0.2890  1.0044
 3226TIP3    H231238   5.605   3.427   7.310  0.9550 -0.4641 -0.2953
 3227TIP3   OH231239   5.196   3.371   0.328  0.2915  0.0159  0.4290
 3227TIP3    H131240   5.173   3.283   0.358  0.9598 -0.1851  0.3744
 3227TIP3    H231241   5.204   3.422   0.409 -0.3811  0.1021  0.4449
 3228TIP3   OH231242   2.010   5.101   0.140 -0.3731  0.2148 -0.5115
 3228TIP3    H131243   1.956   5.084   0.063 -1.8421  0.9335  0.3020
 3228TIP3    H231244   1.971   5.045   0.208 -1.0256  1.7872  0.4554
 3229TIP3   OH231245   1.050   1.957   0.019  0.4542 -0.0467  0.3501
 3229TIP3    H131246   1.078   2.047   0.037  0.8274  0.3243 -1.7405
 3229TIP3    H231247   1.132   1.906   0.018  0.3770 -0.1712  0.3432
 3230TIP3   OH231248   2.402   5.290   7.747  0.2347 -0.2619  0.1482
 3230TIP3    H131249   2.457   5.367   7.753  1.8997 -1.3583 -0.3064
 3230TIP3    H231250   2.325   5.319   7.699  1.2258  0.9045 -0.7953
 3231TIP3   OH231251   3.091   2.586   1.538  0.0603 -0.0125 -0.2376
 3231TIP3    H131252   3.041   2.579   1.456 -0.6871 -2.0664  0.3117
 3231TIP3    H231253   3.150   2.511   1.536 -0.7382 -0.7555  1.5499
 3232TIP3   OH231254   6.038   1.589   8.486 -0.4787  0.4415 -0.1473
 3232TIP3    H131255   5.945   1.590   8.464 -0.5345 -1.4542 -0.1855
 3232TIP3    H231256   6.082   1.571   8.403 -0.1590  0.3113  0.0492
 3233TIP3   OH231257   2.091   4.608   0.334  0.1279  0.2393 -0.5616
 3233TIP3    H131258   2.116   4.687   0.382 -0.7590  0.3486 -0.2659
 3233TIP3    H231259   2.057   4.640   0.251 -0.2158  0.1767 -0.4489
 3234TIP3   OH231260   0.032   3.643   8.608 -0.4588 -0.6101 -0.2687
 3234TIP3    H131261  -0.035   3.594   8.561  0.5008 -0.0606 -2.3163
 3234TIP3    H231262  -0.017   3.696   8.672 -1.9798 -0.2826 -1.6467
 3235TIP3   OH231263   2.978   3.140   8.356  0.5075 -0.0117  0.1544
 3235TIP3    H131264   2.949   3.220   8.400  1.4360 -0.3406  1.4195
 3235TIP3    H231265   2.964   3.071   8.420 -1.5670 -1.1458 -1.3874
 3236TIP3   OH231266   3.000   6.207   7.261  0.1617 -0.6343 -0.7195
 3236TIP3    H131267   2.905   6.209   7.271  0.1426 -1.2438 -0.7335
 3236TIP3    H231268   3.027   6.299   7.262 -0.3047 -0.4965  0.4228
 3237TIP3   OH231269   1.536   1.782   0.140  0.4951  0.7673 -0.2000
 3237TIP3    H131270   1.483   1.816   0.068  1.2745 -0.6374 -1.4767
 3237TIP3    H231271   1.577   1.859   0.178 -1.2563  1.7303 -0.1267
 3238TIP3   OH231272   0.454   0.240   0.946 -0.8332 -0.8689  0.2385
 3238TIP3    H131273   0.447   0.291   1.027 -2.3579 -1.5930  0.5951
 3238TIP3    H231274   0.527   0.180   0.961  1.3305  1.4207 -0.3664
 3239TIP3   OH231275   6.453   3.389   7.216 -0.0220  0.3662 -0.7746
 3239TIP3    H131276   6.385   3.456   7.209 -2.5771 -1.7953  0.8780
 3239TIP3    H231277   6.464   3.358   7.126 -1.0222  0.9942 -1.1368
 3240TIP3   OH231278   5.019   0.939   2.789  0.4737 -0.5479  0.2805
 3240TIP3    H131279   4.985   0.984   2.867 -1.1453 -0.2225 -0.5647
 3240TIP3    H231280   5.073   1.005   2.746  1.3962 -0.7369  1.1297
 3241TIP3   OH231281   4.237   0.266   2.835  0.2432  0.1962 -0.2267
 3241TIP3    H131282   4.163   0.239   2.781  0.6887 -0.0390 -0.7240
 3241TIP3    H231283   4.313   0.223   2.796  0.5320 -0.2223  0.7655
 3242TIP3   OH231284   3.272   2.868   8.704  0.6048 -0.2511  0.5431
 3242TIP3    H131285   3.187   2.844   8.741 -1.7301  1.4004 -3.1440
 3242TIP3    H231286   3.322   2.786   8.704 -1.6539 -1.7397  1.2047
 3243TIP3   OH231287   0.341   4.860   1.126 -0.0032  0.0932 -0.3964
 3243TIP3    H131288   0.316   4.774   1.160 -1.1433 -0.8719 -3.4033
 3243TIP3    H231289   0.269   4.917   1.153 -0.7245 -0.5668 -0.8759
 3244TIP3   OH231290   1.581   4.233   7.800 -0.7197  0.1049  0.2676
 3244TIP3    H131291   1.665   4.189   7.809 -1.0811 -0.5374  0.5706
 3244TIP3    H231292   1.599   4.309   7.745  0.2830  0.5796  1.2275
 3245TIP3   OH231293   1.538   2.768   0.465  0.0091 -0.2920 -0.1389
 3245TIP3    H131294   1.617   2.765   0.519  0.0325 -0.0129 -0.1566
 3245TIP3    H231295   1.467   2.789   0.526  0.1929  1.0735 -0.3820
 3246TIP3   OH231296   2.406   3.785   7.881 -0.2798 -0.1874 -0.3711
 3246TIP3    H131297   2.319   3.772   7.918 -1.1648 -1.0202 -2.5351
 3246TIP3    H231298   2.414   3.717   7.814  0.9020  1.5563 -2.1293
 3247TIP3   OH231299   2.486   6.541   1.264 -0.0655  0.2310  0.5243
 3247TIP3    H131300   2.465   6.484   1.338 -0.7993 -0.8143 -0.4528
 3247TIP3    H231301   2.569   6.506   1.230 -1.6047 -1.7608 -1.4372
 3248TIP3   OH231302   3.646   0.761   0.917 -0.5130  0.2383  0.1840
 3248TIP3    H131303   3.734   0.799   0.909 -0.4944  0.0235 -0.6396
 3248TIP3    H231304   3.601   0.819   0.978  0.5278 -0.2424  1.4647
 3249TIP3   OH231305   5.294   5.036   8.122 -0.1245  0.3881  0.0623
 3249TIP3    H131306   5.287   5.015   8.029 -0.8315  1.2254 -0.0799
 3249TIP3    H231307   5.257   5.124   8.130 -2.6296 -0.6917  1.5435
 3250TIP3   OH231308   5.296   4.730   8.300  0.0575 -0.7609  0.7127
 3250TIP3    H131309   5.338   4.644   8.298  0.0574 -0.7525 -0.2285
 3250TIP3    H231310   5.351   4.782   8.359  0.0199 -1.4185  1.3318
 3251TIP3   OH231311   2.218   2.675   1.338  0.4292 -0.0164 -0.4105
 3251TIP3    H131312   2.146   2.630   1.382 -0.8635  1.9591 -0.3642
 3251TIP3    H231313   2.258   2.609   1.283 -1.2813 -1.2367 -0.2520
 3252TIP3   OH231314   2.862   2.378   1.679  0.1561  0.1147  0.5646
 3252TIP3    H131315   2.848   2.470   1.657 -1.8458  0.2063  1.9997
 3252TIP3    H231316   2.875   2.335   1.595 -2.6945  1.1350 -0.5080
 3253TIP3   OH231317   0.418   0.988   2.417 -0.2030  0.2033 -0.1471
 3253TIP3    H131318   0.439   1.081   2.424  0.9933 -0.1649  1.9092
 3253TIP3    H231319   0.432   0.968   2.324  1.4038  1.6592 -0.2849
 3254TIP3   OH231320   2.294   2.651   2.153 -0.4933 -0.2430 -0.6482
 3254TIP3    H131321   2.331   2.569   2.120 -0.1318 -1.2063  1.9412
 3254TIP3    H231322   2.345   2.720   2.110  3.1283 -1.4886  1.2812
 3255TIP3   OH231323   1.062   6.411   1.694  0.0351 -0.6011  0.3968
 3255TIP3    H131324   1.140   6.465   1.681 -1.1862  0.9067 -1.3198
 3255TIP3    H231325   1.010   6.459   1.758 -0.9333  0.1856 -0.9304
 3256TIP3   OH231326   0.435   5.117   1.310 -0.0110  0.1513 -0.0440
 3256TIP3    H131327   0.474   5.187   1.363  1.3893 -0.6261  0.0024
 3256TIP3    H231328   0.351   5.153   1.281  1.0270  2.1865 -0.7203
 3257TIP3   OH231329   0.373   6.006   1.261 -0.2142  0.2403  0.1222
 3257TIP3    H131330   0.299   6.024   1.319  0.0724 -1.4594  1.0771
 3257TIP3    H231331   0.347   5.928   1.212  1.2313 -0.8778  1.0652
 3258TIP3   OH231332   2.723   5.353   8.490  0.0054 -0.1894  0.1919
 3258TIP3    H131333   2.689   5.422   8.433 -1.4380  0.1760  1.4156
 3258TIP3    H231334   2.747   5.282   8.430 -2.4372 -0.2494 -0.8623
 3259TIP3   OH231335   2.500   1.495   0.946 -0.5042 -0.0814  0.6435
 3259TIP3    H131336   2.588   1.484   0.984  0.3301 -1.7206 -1.5561
 3259TIP3    H231337   2.443   1.509   1.022  1.8277  2.8183  2.0656
 3260TIP3   OH231338   5.218   3.369   7.014  0.0955  1.0110  0.4309
 3260TIP3    H131339   5.243   3.314   7.088  0.8374  1.0493  0.2182
 3260TIP3    H231340   5.132   3.335   6.987  0.8391 -0.5067 -0.1417
 3261TIP3   OH231341   4.750   4.478   1.609  0.8962  0.0977 -0.0085
 3261TIP3    H131342   4.701   4.424   1.670 -1.8844  1.4734 -0.8803
 3261TIP3    H231343   4.748   4.565   1.647  1.4774  0.4533 -0.7539
 3262TIP3   OH231344   3.185   4.700   2.361  0.2108 -0.7090 -0.2373
 3262TIP3    H131345   3.143   4.786   2.355 -2.0002 -1.6522  0.6024
 3262TIP3    H231346   3.273   4.714   2.326  0.0391  1.9515  0.1482
 3263TIP3   OH231347   6.703   3.605   1.466  0.2827 -0.0112 -0.1105
 3263TIP3    H131348   6.660   3.644   1.389 -1.4201 -0.7917  0.4071
 3263TIP3    H231349   6.714   3.678   1.527 -0.5015  0.1628 -0.1716
 3264TIP3   OH231350   6.714   2.335   1.743  0.2326  0.3530  0.5694
 3264TIP3    H131351   6.664   2.412   1.772  2.1772  1.5147  1.0835
 3264TIP3    H231352   6.759   2.364   1.664 -0.5710 -0.9522 -0.3932
 3265TIP3   OH231353   6.205   6.187   8.592 -0.4303  0.3946 -0.0738
 3265TIP3    H131354   6.149   6.138   8.652  0.2645  0.1647  0.3978
 3265TIP3    H231355   6.288   6.198   8.639  0.2324 -0.0472 -1.0805
 3266TIP3   OH231356   1.229   4.663   8.769  0.0131 -0.1171 -0.5235
 3266TIP3    H131357   1.297   4.699   8.826 -0.8621 -0.2914  0.6782
 3266TIP3    H231358   1.149   4.709   8.795 -0.5644 -0.7910 -1.0499
 3267TIP3   OH231359   4.964   0.304   0.852  0.1391  0.0952 -0.2180
 3267TIP3    H131360   4.912   0.326   0.774  0.4849 -1.3085 -0.8711
 3267TIP3    H231361   4.941   0.372   0.915  2.0614  3.1129 -2.4542
 3268TIP3   OH231362   4.160   5.247   0.871 -0.0044 -0.2760 -0.7992
 3268TIP3    H131363   4.111   5.167   0.853  0.1027 -0.6834  0.6054
 3268TIP3    H231364   4.196   5.234   0.959 -1.0543  1.8473  0.0214
 3269TIP3   OH231365   5.076   2.989   2.314  0.1844 -0.8570  0.0121
 3269TIP3    H131366   5.116   3.015   2.397 -0.9183 -0.6914  0.5112
 3269TIP3    H231367   5.094   3.062   2.255  0.3783 -0.6661  0.3043
 3270TIP3   OH231368   0.085   2.524   0.819 -0.1177 -0.2437 -0.2713
 3270TIP3    H131369   0.149   2.453   0.807  0.2222 -0.1255  0.7444
 3270TIP3    H231370   0.013   2.501   0.760  0.4371 -0.8899 -0.7209
 3271TIP3   OH231371   1.837   1.205   0.839 -0.3358  0.2729  0.2357
 3271TIP3    H131372   1.880   1.290   0.830 -3.0449  1.8627  1.1297
 3271TIP3    H231373   1.856   1.159   0.757  3.4008  0.5520  0.7728
 3272TIP3   OH231374   3.064   4.656   1.308 -0.3026 -1.2609  0.0098
 3272TIP3    H131375   3.032   4.712   1.379  0.3536 -1.8597  0.7926
 3272TIP3    H231376   3.069   4.569   1.346 -0.6987 -1.7509 -1.0085
 3273TIP3   OH231377   0.991   4.045   2.398  0.1373 -0.1103  0.2853
 3273TIP3    H131378   0.970   3.988   2.472  0.0425 -0.5490 -0.0758
 3273TIP3    H231379   1.011   3.985   2.326 -1.4568  0.2970 -0.5448
 3274TIP3   OH231380   1.650   3.218   0.128  0.0136 -0.4400 -0.1338
 3274TIP3    H131381   1.716   3.285   0.111  0.4725 -0.8953 -0.2066
 3274TIP3    H231382   1.662   3.154   0.057 -1.2590  0.0218 -0.7789
 3275TIP3   OH231383   4.989   6.221   2.119  0.4087 -0.0230  0.2004
 3275TIP3    H131384   5.031   6.252   2.200 -0.1367  0.8447  0.1588
 3275TIP3    H231385   5.033   6.138   2.100 -0.2881 -0.8850  2.0634
 3276TIP3   OH231386   4.864   4.337   8.805 -0.3278  0.0945 -0.1868
 3276TIP3    H131387   4.935   4.374   8.857 -0.7259 -0.6767  0.9270
 3276TIP3    H231388   4.858   4.396   8.729  3.1002 -1.1590 -1.6375
 3277TIP3   OH231389   5.995   3.137   8.825  0.5179 -0.2949 -0.6489
 3277TIP3    H131390   6.090   3.133   8.837  0.2293 -0.8123  1.9226
 3277TIP3    H231391   5.963   3.053   8.858 -0.9219  0.1834 -0.7633
 3278TIP3   OH231392   4.570   3.344   8.297  0.5298  0.3953  0.0935
 3278TIP3    H131393   4.488   3.305   8.266  0.9700  0.0593 -0.6785
 3278TIP3    H231394   4.549   3.435   8.313 -0.0243  0.2840  0.0058
 3279TIP3   OH231395   4.684   6.174   7.333  0.4146  0.1374 -0.0310
 3279TIP3    H131396   4.687   6.083   7.363  0.7644  0.4860  1.0424
 3279TIP3    H231397   4.749   6.178   7.262 -0.3506 -0.6786 -0.8022
 3280TIP3   OH231398   4.617   2.333   8.223 -0.3420 -0.6516  0.0132
 3280TIP3    H131399   4.698   2.322   8.172 -1.1753 -1.4927 -1.1866
 3280TIP3    H231400   4.622   2.264   8.290  0.1551 -0.3901  0.2466
 3281TIP3   OH231401   3.380   3.797   1.096 -0.4097  0.1512  0.7261
 3281TIP3    H131402   3.436   3.773   1.170  0.5081 -0.5585 -0.1579
 3281TIP3    H231403   3.299   3.747   1.110  0.5974 -1.7397  0.1394
 3282TIP3   OH231404   5.406   2.286   0.957  0.0598 -0.5193  0.0280
 3282TIP3    H131405   5.358   2.349   1.010 -0.9344 -0.3698 -1.0057
 3282TIP3    H231406   5.339   2.227   0.923  0.8523 -1.5192  0.1273
 3283TIP3   OH231407   6.667   2.371   0.057 -0.6806 -0.1695 -0.2812
 3283TIP3    H131408   6.733   2.436   0.036  1.2009 -1.7310  0.5155
 3283TIP3    H231409   6.592   2.393   0.001  0.7490  1.2296 -1.7281
 3284TIP3   OH231410   6.098   3.600   0.285 -0.1322 -0.3871 -0.1053
 3284TIP3    H131411   6.045   3.669   0.245 -0.1387  1.3635  2.6286
 3284TIP3    H231412   6.188   3.635   0.283 -0.4404  1.1324  3.5800
 3285TIP3   OH231413   0.421   1.068   0.683 -0.3815  0.1482 -0.0974
 3285TIP3    H131414   0.360   1.017   0.629  1.1345 -2.8347  0.7753
 3285TIP3    H231415   0.405   1.036   0.772 -0.1063  2.1033  0.6994
 3286TIP3   OH231416   2.877   2.259   2.345 -0.2598 -0.2273  0.8247
 3286TIP3    H131417   2.792   2.255   2.302 -0.4607 -0.8491  1.2739
 3286TIP3    H231418   2.928   2.320   2.291 -0.8313 -0.2120  0.2911
 3287TIP3   OH231419   2.416   3.470   1.738  0.1480 -0.1410  0.6048
 3287TIP3    H131420   2.327   3.437   1.721  0.5663  0.0900 -2.5896
 3287TIP3    H231421   2.410   3.564   1.724  0.8631 -0.0806  0.6761
 3288TIP3   OH231422   5.260   6.123   8.537  0.2584  0.1243 -0.0429
 3288TIP3    H131423   5.259   6.139   8.443  1.9664 -1.4053 -0.3875
 3288TIP3    H231424   5.187   6.174   8.571 -0.6089  0.4586 -2.2278
 3289TIP3   OH231425   4.201   2.816   7.400  0.4170  0.0806  0.0716
 3289TIP3    H131426   4.194   2.787   7.308 -0.9267 -0.1624  0.2346
 3289TIP3    H231427   4.191   2.911   7.396 -1.1223 -0.0643  0.0903
 3290TIP3   OH231428   1.859   3.853   8.290  0.1712 -0.0110  0.5689
 3290TIP3    H131429   1.867   3.850   8.385  2.1627 -2.0201  0.4431
 3290TIP3    H231430   1.810   3.774   8.267  0.4625 -0.0086 -0.1025
 3291TIP3   OH231431   4.529   4.556   7.829 -0.2787  0.6528 -0.1824
 3291TIP3    H131432   4.501   4.637   7.786 -0.6570  0.4332 -0.3533
 3291TIP3    H231433   4.497   4.564   7.918 -1.8682 -0.0728 -0.6584
 3292TIP3   OH231434   4.757   2.051   8.817 -0.0661  0.4750 -0.4042
 3292TIP3    H131435   4.746   2.146   8.809  3.4953  1.1486  0.8186
 3292TIP3    H231436   4.730   2.031   8.907 -3.0069 -0.2116 -1.3220
 3293TIP3   OH231437   3.341   0.855   2.012 -0.3472  0.0376  0.1506
 3293TIP3    H131438   3.310   0.820   2.096 -1.4706 -0.9562 -0.6422
 3293TIP3    H231439   3.292   0.805   1.946  2.9879 -1.7154 -1.2365
 3294TIP3   OH231440   5.532   0.334   0.750  0.1234  0.1204  0.1486
 3294TIP3    H131441   5.437   0.322   0.747  0.3328 -1.9210  0.2115
 3294TIP3    H231442   5.555   0.370   0.664 -0.7598  1.4822  0.4426
 3295TIP3   OH231443   2.925   2.358   8.362  0.3116  0.0414 -0.2723
 3295TIP3    H131444   2.853   2.391   8.308  1.4688  3.0811 -0.1082
 3295TIP3    H231445   2.991   2.426   8.359  2.4082 -1.7894  1.2014
 3296TIP3   OH231446   2.927   2.603   8.964 -0.1981  0.3099 -0.0609
 3296TIP3    H131447   2.909   2.538   8.896  2.0837  0.1655 -0.6012
 3296TIP3    H231448   3.016   2.632   8.947 -0.6058  2.5148  1.0699
 3297TIP3   OH231449   5.066   2.291   8.944  0.5401 -0.8459 -0.4577
 3297TIP3    H131450   5.031   2.229   8.880  1.2869 -1.4974 -0.2638
 3297TIP3    H231451   5.002   2.292   9.015  0.1880 -0.8727 -0.7769
 3298TIP3   OH231452   4.713   2.291   2.580  0.3448 -0.5945 -0.3719
 3298TIP3    H131453   4.798   2.290   2.624  0.3791 -1.1608 -0.4484
 3298TIP3    H231454   4.668   2.212   2.611 -0.8915  0.6133  1.0728
 3299TIP3   OH231455   3.004   4.033   3.187  0.1548 -0.2136  0.6696
 3299TIP3    H131456   3.052   3.950   3.185 -0.2185 -0.4403 -1.3263
 3299TIP3    H231457   3.066   4.098   3.155  0.3024  0.2123  1.7899
 3300TIP3   OH231458   2.424   4.729   1.479 -0.1781  0.3905 -0.2437
 3300TIP3    H131459   2.336   4.692   1.475 -0.5106  1.1374  0.0796
 3300TIP3    H231460   2.454   4.710   1.568  0.2383 -0.4143 -0.5476
 3301TIP3   OH231461   4.327   5.244   2.766 -0.0781  0.1662  0.6089
 3301TIP3    H131462   4.263   5.195   2.817  0.3723 -0.1911  0.8344
 3301TIP3    H231463   4.307   5.224   2.675 -0.6610  0.5259  0.6552
 3302TIP3   OH231464   1.374   2.601   2.603  0.0535 -0.5062  0.3266
 3302TIP3    H131465   1.454   2.573   2.561 -0.2829 -1.2548  0.1716
 3302TIP3    H231466   1.403   2.660   2.673  0.5813  1.2600 -1.2982
 3303TIP3   OH231467   6.425   2.564   1.383 -0.0991  0.4115 -0.7306
 3303TIP3    H131468   6.485   2.530   1.316  0.5114 -0.2503  0.1291
 3303TIP3    H231469   6.339   2.531   1.356  0.1428  0.1279 -1.1815
 3304TIP3   OH231470   5.452   1.645   1.865 -1.0697 -0.7396 -0.5639
 3304TIP3    H131471   5.425   1.565   1.820  0.5411 -1.0480 -1.0233
 3304TIP3    H231472   5.462   1.620   1.957 -1.1963 -0.8942 -0.5926
 3305TIP3   OH231473   5.146   1.495   1.974  0.2419 -0.1265 -0.0257
 3305TIP3    H131474   5.116   1.508   1.884 -0.0461  0.2919  0.1264
 3305TIP3    H231475   5.182   1.580   1.999  1.2977 -0.5433 -0.1046
 3306TIP3   OH231476   4.198   3.425   8.470 -0.2364  0.1479 -0.2645
 3306TIP3    H131477   4.173   3.500   8.525 -0.4279  0.3677 -0.6476
 3306TIP3    H231478   4.230   3.360   8.532  0.8117  0.8869 -0.0050
 3307TIP3   OH231479   0.656   5.565   0.230  0.2656 -0.4010 -0.4819
 3307TIP3    H131480   0.713   5.529   0.163 -0.3064  1.2704 -1.9335
 3307TIP3    H231481   0.710   5.566   0.309  1.5614 -0.7165 -1.3354
 3308TIP3   OH231482   6.229   2.523   2.561  1.0514 -0.1390 -0.3230
 3308TIP3    H131483   6.228   2.618   2.556  0.2744 -0.0842  0.7422
 3308TIP3    H231484   6.241   2.503   2.654  1.7215 -1.0845 -0.5914
 3309TIP3   OH231485   5.425   3.173   0.153 -0.3811  0.2013  0.4405
 3309TIP3    H131486   5.360   3.122   0.201  0.6146 -0.4944  1.0751
 3309TIP3    H231487   5.472   3.223   0.220  1.2155 -1.0022  0.2774
 3310TIP3   OH231488   0.024   3.869   0.408  0.6824 -0.2021  0.6436
 3310TIP3    H131489  -0.055   3.878   0.356  0.3817 -0.3976  1.0586
 3310TIP3    H231490   0.088   3.926   0.365 -0.0978  1.0700  1.1188
 3311TIP3   OH231491   1.999   2.862   2.629  0.4874 -0.6364  0.0959
 3311TIP3    H131492   2.032   2.815   2.705 -1.0334 -1.6561  0.1775
 3311TIP3    H231493   1.973   2.793   2.568 -1.1607  0.0848 -0.0668
 3312TIP3   OH231494   3.190   0.179   1.709 -0.5715  0.5117  0.3054
 3312TIP3    H131495   3.257   0.185   1.640  0.8680 -1.9853  1.3613
 3312TIP3    H231496   3.110   0.156   1.662 -0.1432  1.0857 -0.7507
 3313TIP3   OH231497   6.566   1.669   8.853 -0.0166 -0.1217  0.0972
 3313TIP3    H131498   6.526   1.583   8.839 -1.7781  0.7070 -0.2260
 3313TIP3    H231499   6.646   1.650   8.902 -0.1788 -1.9710 -0.2618
 3314TIP3   OH231500   1.886   3.193   2.029 -0.2725 -0.4182  0.6559
 3314TIP3    H131501   1.800   3.209   1.990  0.0482 -0.2071  0.0194
 3314TIP3    H231502   1.873   3.208   2.122 -1.2232 -1.6344  0.7398
 3315TIP3   OH231503   2.118   3.406   8.847  0.3400 -0.5382  0.1700
 3315TIP3    H131504   2.095   3.498   8.859  0.2101 -0.5796  0.2425
 3315TIP3    H231505   2.159   3.381   8.930 -0.9003 -0.9280  0.6961
 3316TIP3   OH231506   1.393   1.384   7.165  0.0411  0.2671  0.4237
 3316TIP3    H131507   1.366   1.465   7.121 -1.0661 -0.3304 -0.0425
 3316TIP3    H231508   1.371   1.398   7.257  0.1830  0.6359  0.4024
 3317TIP3   OH231509   4.171   0.881   7.835 -0.0479 -0.0999 -0.4417
 3317TIP3    H131510   4.195   0.823   7.763  0.5282 -0.9190  0.3860
 3317TIP3    H231511   4.253   0.925   7.858  0.4691 -1.8896  1.4861
 3318TIP3   OH231512   5.054   6.711   2.902  0.2728  0.3439  0.0980
 3318TIP3    H131513   5.115   6.772   2.943 -0.4095  0.6787  0.6340
 3318TIP3    H231514   4.970   6.729   2.944 -0.3164  0.2580 -0.9946
 3319TIP3   OH231515   4.649   0.204   8.241  0.0531 -0.2443  0.0902
 3319TIP3    H131516   4.651   0.124   8.294 -1.1901  0.4061  1.1966
 3319TIP3    H231517   4.690   0.179   8.158  2.2450 -1.2595  1.3841
 3320TIP3   OH231518   2.709   2.707   0.463  0.1860  0.4921 -0.4815
 3320TIP3    H131519   2.716   2.696   0.369  0.1898 -0.6800 -0.3624
 3320TIP3    H231520   2.799   2.701   0.495  0.3712  2.4126 -0.5203
 3321TIP3   OH231521   1.023   0.757   0.414  0.2254  0.1733 -0.6581
 3321TIP3    H131522   1.111   0.724   0.400 -0.5227 -1.8607 -0.8116
 3321TIP3    H231523   0.975   0.731   0.336 -0.7565  0.3650 -0.1305
 3322TIP3   OH231524   3.343   2.641   2.164 -0.2888  0.5241 -0.2145
 3322TIP3    H131525   3.414   2.603   2.111 -0.9885 -0.4414 -0.4929
 3322TIP3    H231526   3.318   2.570   2.224 -0.0891  1.3214  0.8244
 3323TIP3   OH231527   2.883   5.427   8.717  0.5176 -0.0077  0.9400
 3323TIP3    H131528   2.852   5.411   8.628 -0.4383  2.0867  0.8268
 3323TIP3    H231529   2.842   5.359   8.770  0.0216 -0.4803 -0.0295
 3324TIP3   OH231530   1.693   6.671   8.054  0.3970 -0.4126 -0.1681
 3324TIP3    H131531   1.710   6.717   8.136  1.2241  0.3603 -0.7567
 3324TIP3    H231532   1.662   6.739   7.994  0.4853 -0.8361 -0.7026
 3325TIP3   OH231533   6.539   2.772   7.931 -0.3390 -0.5463  0.2574
 3325TIP3    H131534   6.467   2.810   7.880  0.8974  0.3481 -0.8760
 3325TIP3    H231535   6.577   2.846   7.978 -0.6556 -1.1524  1.4969
 3326TIP3   OH231536   2.642   1.709   8.277 -0.5231 -0.5040 -0.1825
 3326TIP3    H131537   2.591   1.785   8.249 -1.0474 -1.6286 -2.5559
 3326TIP3    H231538   2.593   1.673   8.351 -0.1376  1.5263  1.1436
 3327TIP3   OH231539   1.099   4.810   0.801  0.1679 -0.2334 -0.7097
 3327TIP3    H131540   1.015   4.854   0.815  1.0411  1.7156 -1.2187
 3327TIP3    H231541   1.098   4.784   0.709  0.2628  0.1204 -0.8119
 3328TIP3   OH231542   1.256   0.536   7.405  0.0681  0.0634  0.0224
 3328TIP3    H131543   1.322   0.594   7.368 -0.7799  0.7227 -0.4857
 3328TIP3    H231544   1.291   0.512   7.491  1.8349 -1.1021 -0.9754
 3329TIP3   OH231545   0.629   1.092   0.942 -0.0430  0.1424 -0.5366
 3329TIP3    H131546   0.544   1.137   0.942 -0.2843 -0.2576 -1.7759
 3329TIP3    H231547   0.624   1.034   0.866  2.0562  1.4504 -1.7592
 3330TIP3   OH231548   3.200   2.687   8.933  0.1059 -0.1391 -0.3354
 3330TIP3    H131549   3.186   2.767   8.983 -0.8593 -0.8565  0.5997
 3330TIP3    H231550   3.289   2.695   8.899 -0.3455  1.8234 -1.2139
 3331TIP3   OH231551   4.545   5.270   0.874  0.3313 -0.4185  0.3373
 3331TIP3    H131552   4.525   5.180   0.900 -1.5756 -0.4661 -1.0673
 3331TIP3    H231553   4.639   5.269   0.855  0.4785 -1.9227  1.0067
 3332TIP3   OH231554   0.733   0.372   7.792 -0.4343  0.9217  0.6520
 3332TIP3    H131555   0.817   0.359   7.837  1.3240 -2.9109 -3.0342
 3332TIP3    H231556   0.743   0.455   7.746  1.6334  0.3791  0.0015
 3333TIP3   OH231557   1.280   1.114   1.794  0.0746  0.4924  0.3832
 3333TIP3    H131558   1.287   1.199   1.837  0.9365 -0.2848  1.8497
 3333TIP3    H231559   1.218   1.064   1.848  0.5612 -0.2392  0.2811
 3334TIP3   OH231560   0.765   3.098   1.039  0.4720  0.4417 -0.2613
 3334TIP3    H131561   0.857   3.095   1.012  1.1827 -0.8801  2.0010
 3334TIP3    H231562   0.768   3.080   1.133 -2.1337  0.1228 -0.1856
 3335TIP3   OH231563   1.434   2.237   2.088 -0.5779  0.4753  0.0431
 3335TIP3    H131564   1.443   2.325   2.052 -0.3105  0.4239 -0.0196
 3335TIP3    H231565   1.380   2.191   2.025 -0.7523  0.6071  0.0958
 3336TIP3   OH231566   0.009   2.190   2.463  0.1386 -0.1605 -0.3413
 3336TIP3    H131567  -0.022   2.271   2.422  0.6947  1.0080  1.3956
 3336TIP3    H231568   0.103   2.205   2.477  0.2348 -1.0687  0.0647
 3337TIP3   OH231569   3.728   1.388   0.153 -0.2275 -0.0270 -0.2715
 3337TIP3    H131570   3.753   1.480   0.168  1.0633  0.1419 -2.8093
 3337TIP3    H231571   3.634   1.385   0.171 -0.1909  1.6705  0.3826
 3338TIP3   OH231572   4.710   0.007   0.586  0.2779  0.4993  0.4490
 3338TIP3    H131573   4.769   0.081   0.574 -1.0812  1.5422 -0.0235
 3338TIP3    H231574   4.749  -0.063   0.533  0.0156  1.8048 -1.6003
 3339TIP3   OH231575   2.147   3.394   3.034  0.3671  0.3880  0.6688
 3339TIP3    H131576   2.177   3.316   3.080 -1.2714 -0.5581  0.2189
 3339TIP3    H231577   2.106   3.448   3.103 -0.0204  0.0475  0.7077
 3340TIP3   OH231578   6.231   1.025   1.352 -0.0576  0.1617  0.3153
 3340TIP3    H131579   6.257   0.957   1.414 -0.2172 -0.8912 -0.7299
 3340TIP3    H231580   6.312   1.072   1.333  0.0402  0.3354  1.1170
 3341TIP3   OH231581   6.417   2.902   2.903  0.5524  0.1020 -0.8211
 3341TIP3    H131582   6.344   2.960   2.929  1.3705 -0.1740  2.6566
 3341TIP3    H231583   6.480   2.961   2.862 -0.0455  1.0586 -0.4302
 3342TIP3   OH231584   0.020   1.909   0.789  0.2184  0.6045 -0.4919
 3342TIP3    H131585   0.088   1.906   0.856  0.6160 -2.0287 -0.9286
 3342TIP3    H231586   0.065   1.888   0.707 -0.9917 -0.5198 -0.8979
 3343TIP3   OH231587   5.833   4.950   8.935  0.0289  0.2462  0.1501
 3343TIP3    H131588   5.924   4.973   8.914 -0.3252  1.2643 -0.3228
 3343TIP3    H231589   5.787   5.034   8.939 -0.7383 -0.2041  1.1789
 3344TIP3   OH231590   3.025   0.260   0.048 -0.1835 -0.2024 -0.6430
 3344TIP3    H131591   2.987   0.331   0.099 -0.5295  0.7509 -2.1650
 3344TIP3    H231592   2.954   0.195   0.041 -0.1667 -0.2933 -0.0376
 3345TIP3   OH231593   0.886   2.313   8.160 -0.4611 -0.3020 -0.0080
 3345TIP3    H131594   0.887   2.231   8.209 -0.9177  0.1757  0.8252
 3345TIP3    H231595   0.793   2.336   8.152 -0.3975 -0.4023 -1.1603
 3346TIP3   OH231596   3.439   3.137   2.016 -0.0180  0.2209  0.2826
 3346TIP3    H131597   3.458   3.208   1.956 -0.5659  0.6212  0.5768
 3346TIP3    H231598   3.516   3.133   2.073  0.2392  0.2323 -0.0586
 3347TIP3   OH231599   6.210   2.215   8.783 -0.3097  0.1539  0.2526
 3347TIP3    H131600   6.266   2.180   8.852  0.4959  0.7939 -0.0638
 3347TIP3    H231601   6.154   2.279   8.826  2.4355  3.0619 -0.1520
 3348TIP3   OH231602   0.140   3.000   2.591 -0.2647 -0.4635 -0.5076
 3348TIP3    H131603   0.207   3.026   2.653 -0.1189  0.1239 -0.9033
 3348TIP3    H231604   0.117   3.081   2.545 -0.4639 -0.8637 -1.1213
 3349TIP3   OH231605   3.226   5.250   0.859 -0.1426 -0.6584 -0.9880
 3349TIP3    H131606   3.234   5.194   0.936 -0.4275 -0.4032 -0.7675
 3349TIP3    H231607   3.167   5.320   0.887  0.7380  0.1310 -1.0349
 3350TIP3   OH231608   5.736   6.253   7.499 -0.3844 -0.4423 -0.2928
 3350TIP3    H131609   5.694   6.290   7.421 -0.7210  1.5653  0.7779
 3350TIP3    H231610   5.672   6.192   7.534 -0.9227 -0.1125 -0.6819
 3351TIP3   OH231611   2.083   2.472   8.076  0.1031 -0.6511 -0.4125
 3351TIP3    H131612   2.037   2.492   7.994 -0.6367  0.6961  0.2991
 3351TIP3    H231613   2.030   2.403   8.117 -1.4259  0.9774  0.4641
 3352TIP3   OH231614   0.230   1.274   1.964 -0.0346 -0.6129  0.3467
 3352TIP3    H131615   0.319   1.239   1.968  1.7934  3.4695  1.3988
 3352TIP3    H231616   0.221   1.305   1.874  0.3569  0.4146  0.6354
 3353TIP3   OH231617   1.020   2.296   0.020  0.2304  0.0270  0.0487
 3353TIP3    H131618   0.940   2.243   0.018  0.6914 -0.6728 -2.4278
 3353TIP3    H231619   0.992   2.379   0.061 -2.1105  0.2667 -1.7903
 3354TIP3   OH231620   5.640   1.572   1.378 -0.2836  0.3153 -0.2338
 3354TIP3    H131621   5.593   1.643   1.334  1.3557  1.5609 -0.0593
 3354TIP3    H231622   5.571   1.519   1.418 -1.6639  0.6828 -1.9951
 3355TIP3   OH231623   6.547   2.053   0.770 -0.2912  0.1190 -0.0578
 3355TIP3    H131624   6.633   2.012   0.779 -1.3262 -1.8718  1.7693
 3355TIP3    H231625   6.514   2.023   0.685  0.9643  1.3094 -1.0051
 3356TIP3   OH231626   5.504   5.863   1.331  0.3004  0.3230 -0.4620
 3356TIP3    H131627   5.468   5.942   1.289  2.2944  1.1701 -0.6702
 3356TIP3    H231628   5.555   5.896   1.405 -2.2259 -1.0760  2.1340
 3357TIP3   OH231629   1.075   3.863   2.200  0.3864  0.3402 -0.6929
 3357TIP3    H131630   1.162   3.900   2.192  0.2269  0.8725 -0.0183
 3357TIP3    H231631   1.086   3.785   2.254  0.7511 -0.7466 -2.2611
 3358TIP3   OH231632   1.898   1.272   2.201 -0.1019 -0.4068 -0.0850
 3358TIP3    H131633   1.909   1.331   2.275  1.4557 -1.4822  0.5924
 3358TIP3    H231634   1.943   1.191   2.227 -1.1872 -1.5001 -1.4304
 3359TIP3   OH231635   0.056   5.986   7.750 -0.5607  0.3724 -0.2626
 3359TIP3    H131636  -0.022   5.932   7.737  0.5303 -1.1647 -0.6138
 3359TIP3    H231637   0.100   5.985   7.665  1.1965 -0.9882  0.6030
 3360TIP3   OH231638   1.327   1.248   2.417 -0.3765 -0.1712  0.0671
 3360TIP3    H131639   1.334   1.184   2.488 -2.4390 -1.3726 -0.7559
 3360TIP3    H231640   1.338   1.197   2.337 -1.4781  0.5667 -0.5788
 3361TIP3   OH231641   4.608   6.267   8.096  0.2901 -0.1819  0.0695
 3361TIP3    H131642   4.674   6.336   8.089 -0.1033  0.4117  1.6526
 3361TIP3    H231643   4.654   6.186   8.075  1.1423  0.3879 -0.3046
 3362TIP3   OH231644   3.841   3.708   2.041  0.4240 -0.4405 -0.0896
 3362TIP3    H131645   3.908   3.771   2.016 -0.0255 -0.0910 -0.4192
 3362TIP3    H231646   3.805   3.676   1.958  0.1941 -0.6437  0.0841
 3363TIP3   OH231647   5.652   1.737   2.538  0.4852 -0.4036 -0.5665
 3363TIP3    H131648   5.630   1.648   2.564  2.4841 -0.6952  0.3065
 3363TIP3    H231649   5.633   1.740   2.444  1.2827 -2.0815 -0.8206
 3364TIP3   OH231650   6.105   1.486   0.767 -0.1386 -0.0166 -0.0739
 3364TIP3    H131651   6.148   1.425   0.707 -0.4481 -0.2177 -0.0980
 3364TIP3    H231652   6.013   1.459   0.766 -0.2305  0.2840  0.1216
 3365TIP3   OH231653   6.080   0.316   0.701 -0.1750 -0.1694 -0.4354
 3365TIP3    H131654   6.149   0.252   0.681  1.5300  0.8965  1.5868
 3365TIP3    H231655   6.093   0.337   0.794 -1.6045  2.0019 -0.6526
 3366TIP3   OH231656   6.018   1.006   2.310  0.3301 -0.4233 -0.2068
 3366TIP3    H131657   5.961   0.971   2.241  0.0072 -0.3183  0.0025
 3366TIP3    H231658   6.029   1.098   2.287 -1.0809  0.0113  0.7302
 3367TIP3   OH231659   2.455   3.451   7.812 -0.2284 -0.6555 -0.1100
 3367TIP3    H131660   2.360   3.457   7.821 -0.1937  0.7822 -0.3647
 3367TIP3    H231661   2.488   3.459   7.901 -0.3616 -2.6078  0.1561
 3368TIP3   OH231662   5.174   4.382   7.631  0.5318  0.1968 -0.0280
 3368TIP3    H131663   5.089   4.376   7.587 -0.2494 -3.6914  1.6415
 3368TIP3    H231664   5.236   4.399   7.560 -1.2478 -0.5194 -1.8495
 3369TIP3   OH231665   4.067   1.326   8.370 -0.4809  0.4144  0.3347
 3369TIP3    H131666   3.992   1.290   8.322 -0.5031  1.7107 -0.6560
 3369TIP3    H231667   4.138   1.327   8.306 -0.3328  1.5782  0.4930
 3370TIP3   OH231668   6.394   5.266   8.303 -0.1428 -0.1850  0.5329
 3370TIP3    H131669   6.391   5.345   8.249  2.2748 -0.5623 -0.2647
 3370TIP3    H231670   6.302   5.244   8.318 -0.8838  1.4072 -1.2546
 3371TIP3   OH231671   5.001   1.889   8.335 -0.3523 -0.2653 -0.0896
 3371TIP3    H131672   5.050   1.957   8.382 -0.5194 -0.5537  0.5139
 3371TIP3    H231673   5.026   1.901   8.244 -1.5721  1.6513 -0.2433
 3372TIP3   OH231674   3.890   1.813   7.937  0.1410 -0.1234 -0.0552
 3372TIP3    H131675   3.835   1.834   7.861  1.0898 -1.2797 -1.0894
 3372TIP3    H231676   3.841   1.746   7.984  0.8642 -1.5648 -1.2803
 3373TIP3   OH231677   4.807   3.603   8.942 -0.1180 -0.0236  0.2092
 3373TIP3    H131678   4.897   3.580   8.920  0.2903 -0.2804  2.0234
 3373TIP3    H231679   4.802   3.593   9.037 -1.7340  1.1633  0.2821
 3374TIP3   OH231680   3.513   3.094   0.134 -0.1704 -0.0886 -0.5650
 3374TIP3    H131681   3.594   3.069   0.089 -1.2469  0.7474 -3.1194
 3374TIP3    H231682   3.496   3.183   0.106  0.2242  1.4475  3.3841
 3375TIP3   OH231683   0.501   1.639   7.441 -0.6098 -0.3378  0.1637
 3375TIP3    H131684   0.481   1.547   7.459 -0.7409 -0.0411  1.7537
 3375TIP3    H231685   0.487   1.682   7.525  2.3111  0.6492  0.2437
 3376TIP3   OH231686   4.236   6.534   0.603  0.1850  0.4392 -0.4067
 3376TIP3    H131687   4.206   6.624   0.612 -1.8440 -0.2489  0.4957
 3376TIP3    H231688   4.188   6.501   0.527 -0.3472 -0.2938  0.2223
 3377TIP3   OH231689   2.520   4.225   0.483 -0.0524 -0.2830 -0.1593
 3377TIP3    H131690   2.513   4.132   0.502  1.4604 -0.2562  0.7849
 3377TIP3    H231691   2.485   4.268   0.561 -2.0694  0.0041 -1.1603
 3378TIP3   OH231692   1.517   3.561   1.545  0.4463  0.0938 -0.4011
 3378TIP3    H131693   1.514   3.598   1.457  1.8359 -0.9162 -0.8977
 3378TIP3    H231694   1.591   3.501   1.544 -0.6817 -1.4271  0.8798
 3379TIP3   OH231695   1.745   5.152   0.425 -0.1910 -0.0010 -0.1479
 3379TIP3    H131696   1.679   5.197   0.478  0.6630 -0.4069  1.2886
 3379TIP3    H231697   1.714   5.061   0.422 -0.8768  0.2452 -1.4098
 3380TIP3   OH231698   3.304   1.790   2.566  0.3735  0.5251  0.4558
 3380TIP3    H131699   3.325   1.880   2.589 -0.6382  0.4434  1.8456
 3380TIP3    H231700   3.347   1.737   2.633  0.6381 -0.0144 -0.1237
 3381TIP3   OH231701   2.678   5.380   0.302  0.9365  0.0561  0.1364
 3381TIP3    H131702   2.694   5.286   0.294  0.7656  0.0394 -0.0155
 3381TIP3    H231703   2.587   5.387   0.330  0.0706  0.2400 -2.4640
 3382TIP3   OH231704   6.456   1.123   0.676  1.1642  0.5146  0.3928
 3382TIP3    H131705   6.500   1.137   0.592 -0.1336  0.4118 -0.3356
 3382TIP3    H231706   6.399   1.199   0.686 -0.2261 -0.4545  0.1380
 3383TIP3   OH231707   3.783   3.533   2.238 -0.1157  0.3651 -0.6146
 3383TIP3    H131708   3.798   3.579   2.155 -0.9390 -0.8551 -1.4642
 3383TIP3    H231709   3.746   3.600   2.296 -1.0414  0.8725 -1.7460
 3384TIP3   OH231710   3.301   0.512   0.475  0.1721 -0.3691 -0.4021
 3384TIP3    H131711   3.274   0.469   0.556 -1.0026  0.4605 -0.3202
 3384TIP3    H231712   3.368   0.455   0.438 -0.2902 -1.4852  0.4395
 3385TIP3   OH231713   5.287   2.815   8.277 -0.1994  0.0431 -0.1512
 3385TIP3    H131714   5.349   2.809   8.350 -1.1652  0.2961  0.7166
 3385TIP3    H231715   5.298   2.904   8.244  1.7483 -0.7181 -1.7296
 3386TIP3   OH231716   6.566   5.141   1.848 -0.3280 -0.1782 -0.7670
 3386TIP3    H131717   6.482   5.184   1.828 -0.9854 -0.9299  0.2806
 3386TIP3    H231718   6.541   5.060   1.892  0.9474 -0.7315 -1.0410
 3387TIP3   OH231719   5.969   6.337   0.907  0.2878 -0.0059 -0.1239
 3387TIP3    H131720   5.891   6.375   0.866  1.3039  1.5336 -0.6930
 3387TIP3    H231721   6.042   6.383   0.867  1.4572 -0.5633  1.2937
 3388TIP3   OH231722   4.370   2.991   2.082 -0.4740  0.3425  0.1809
 3388TIP3    H131723   4.391   2.949   2.165 -1.2012 -1.3268 -0.4457
 3388TIP3    H231724   4.365   3.085   2.104  2.0784  0.2686  1.4096
 3389TIP3   OH231725   0.762   2.440   1.758  0.4572 -0.1571  0.0518
 3389TIP3    H131726   0.822   2.403   1.823  0.2615  1.1653  1.0227
 3389TIP3    H231727   0.732   2.365   1.707  0.9134 -1.1718  1.2487
 3390TIP3   OH231728   4.425   6.386   8.594 -0.6246 -0.3446 -0.2616
 3390TIP3    H131729   4.428   6.323   8.666  1.8196  0.5389  0.5061
 3390TIP3    H231730   4.403   6.333   8.518 -1.4273 -1.6355  0.8118
 3391TIP3   OH231731   4.405   1.967   3.067 -0.2414 -0.0622 -0.4372
 3391TIP3    H131732   4.349   2.029   3.113 -0.6473 -0.7374 -0.0015
 3391TIP3    H231733   4.378   1.881   3.100 -0.5438 -0.5735 -1.9099
 3392TIP3   OH231734   0.887   0.271   3.583 -0.1401  0.3822  0.1093
 3392TIP3    H131735   0.967   0.222   3.563 -0.5504 -0.2408 -0.0450
 3392TIP3    H231736   0.917   0.354   3.620  0.5708 -0.0784  0.5862
 3393TIP3   OH231737   0.370   5.529   1.179 -0.3662 -0.0540 -0.2413
 3393TIP3    H131738   0.457   5.554   1.148  0.2475 -0.5120  1.0224
 3393TIP3    H231739   0.326   5.492   1.102  0.5578  0.1590 -0.8882
 3394TIP3   OH231740   0.704   5.675   8.811  0.1189  0.2820  0.3331
 3394TIP3    H131741   0.779   5.727   8.783 -0.3827  1.4227  1.0617
 3394TIP3    H231742   0.700   5.686   8.906  0.1150 -1.2606  0.5438
 3395TIP3   OH231743   2.599   2.753   2.628 -0.4019 -0.2382 -0.1571
 3395TIP3    H131744   2.635   2.776   2.542 -1.2531 -1.8031 -0.9634
 3395TIP3    H231745   2.512   2.792   2.628 -0.1374  0.3817  0.3187
 3396TIP3   OH231746   2.744   2.635   0.198 -0.1569  0.1793 -0.5340
 3396TIP3    H131747   2.674   2.588   0.153  0.5513 -0.7279 -0.7214
 3396TIP3    H231748   2.804   2.662   0.128  2.0445 -3.0293 -0.1357
 3397TIP3   OH231749   6.070   1.379   7.331  0.1722 -0.1040  0.9532
 3397TIP3    H131750   6.117   1.415   7.257  0.5350 -1.3524  0.5463
 3397TIP3    H231751   6.002   1.324   7.292 -1.5742  1.5616  1.5311
 3398TIP3   OH231752   2.478   2.861   7.461  0.7658  0.7743  0.1056
 3398TIP3    H131753   2.402   2.868   7.518  0.2333 -2.2063 -0.0689
 3398TIP3    H231754   2.552   2.851   7.521  0.2987 -1.5840  0.3941
 3399TIP3   OH231755   2.971   0.259   2.300 -0.4022 -0.1657  0.5404
 3399TIP3    H131756   3.037   0.190   2.314  0.4606  0.4917 -0.1431
 3399TIP3    H231757   2.998   0.330   2.358 -2.4122 -1.0687  2.7510
 3400TIP3   OH231758   0.102   6.769   7.339  0.1608 -0.1286  0.4150
 3400TIP3    H131759   0.025   6.753   7.285  0.5593 -0.4826 -0.0627
 3400TIP3    H231760   0.079   6.733   7.425  0.3196 -1.5657 -0.1133
 3401TIP3   OH231761   5.596   0.970   8.910 -0.5889  0.7559  0.8729
 3401TIP3    H131762   5.547   0.945   8.832  0.8103  0.4021  0.0580
 3401TIP3    H231763   5.651   1.043   8.881 -1.2693  1.7342  1.9912
 3402TIP3   OH231764   6.229   4.537   1.916  0.7721  0.1735 -0.3659
 3402TIP3    H131765   6.135   4.554   1.915  0.7509  0.1720  0.5952
 3402TIP3    H231766   6.258   4.552   1.826 -0.0130  0.9327 -0.4972
 3403TIP3   OH231767   4.990   4.774   2.159 -0.7186  0.2851  0.0343
 3403TIP3    H131768   5.077   4.813   2.162  0.0972 -1.4954  0.9515
 3403TIP3    H231769   4.948   4.801   2.241 -0.4183 -0.1506  0.3373
 3404TIP3   OH231770   1.352   0.916   0.212  0.6317  0.3937  0.7772
 3404TIP3    H131771   1.282   0.920   0.147 -0.7528 -0.4925  2.1452
 3404TIP3    H231772   1.333   0.989   0.272 -0.6480 -1.3119  2.5565
 3405TIP3   OH231773   2.244   2.100   8.344 -0.0211  0.1996 -0.2661
 3405TIP3    H131774   2.296   2.158   8.288  0.6077 -2.0372 -2.1670
 3405TIP3    H231775   2.163   2.087   8.295 -1.8541  2.4477  1.9628
 3406TIP3   OH231776   3.708   0.119   7.459  0.1410 -0.1026 -0.3611
 3406TIP3    H131777   3.687   0.079   7.544  0.5456  0.7738  0.1684
 3406TIP3    H231778   3.715   0.045   7.399  1.5931 -0.9298  0.7401
 3407TIP3   OH231779   3.847   2.912   2.962  0.3465 -0.0772 -0.7697
 3407TIP3    H131780   3.881   2.980   3.020 -0.9864  0.2218 -0.3039
 3407TIP3    H231781   3.861   2.830   3.009  0.0981  0.0781 -0.4252
 3408TIP3   OH231782   1.240   3.794   0.859  0.3763 -0.0593  0.0192
 3408TIP3    H131783   1.173   3.862   0.873 -0.0202  0.0324 -2.0353
 3408TIP3    H231784   1.307   3.838   0.806  0.2797 -1.1485 -1.0431
 3409TIP3   OH231785   2.151   4.370   1.849 -0.0706 -0.9001  0.5791
 3409TIP3    H131786   2.074   4.421   1.824 -1.5169 -3.1295  0.2427
 3409TIP3    H231787   2.214   4.386   1.778 -0.7418 -0.1301  0.1421
 3410TIP3   OH231788   4.604   5.381   0.357  0.1551 -0.4474 -0.7080
 3410TIP3    H131789   4.588   5.408   0.447 -1.0697  0.6889 -1.2348
 3410TIP3    H231790   4.525   5.333   0.332 -0.7961  1.6698 -2.0370
 3411TIP3   OH231791   3.283   3.981   8.394 -0.0954 -0.1179  0.4995
 3411TIP3    H131792   3.239   4.059   8.360  0.3611 -0.1167 -0.1218
 3411TIP3    H231793   3.234   3.957   8.472 -0.5812  0.4643  0.3795
 3412TIP3   OH231794   1.468   1.012   3.777 -0.4559 -0.2783  0.1606
 3412TIP3    H131795   1.382   1.037   3.745 -0.5724  1.8414  1.8533
 3412TIP3    H231796   1.528   1.073   3.735 -0.2800  0.6731  1.7184
 3413TIP3   OH231797   3.503   0.253   2.604  0.0687 -0.3791  0.1805
 3413TIP3    H131798   3.553   0.251   2.522 -1.1497 -2.5621 -0.5782
 3413TIP3    H231799   3.445   0.178   2.598 -1.3454  0.4746  2.2734
 3414TIP3   OH231800   3.168   6.029   1.622  0.1466  0.4977  0.3413
 3414TIP3    H131801   3.082   5.991   1.641  0.2632  0.2388  0.3642
 3414TIP3    H231802   3.202   6.055   1.707  1.2728 -1.9600  0.7301
 3415TIP3   OH231803   0.483   2.097   0.302 -0.0082  0.7232  0.6564
 3415TIP3    H131804   0.491   2.190   0.283  0.9231  0.7136  0.9844
 3415TIP3    H231805   0.397   2.073   0.267 -0.3123  1.7281  0.6841
 3416TIP3   OH231806   0.071   5.546   2.493 -0.1478  0.0311  0.2936
 3416TIP3    H131807   0.051   5.598   2.570  0.0479  1.9293 -0.8801
 3416TIP3    H231808   0.166   5.532   2.496 -0.2450 -0.5869  0.7794
 3417TIP3   OH231809   2.230   5.454   2.026  0.1089 -0.1586 -0.0244
 3417TIP3    H131810   2.260   5.498   1.946 -0.1890 -0.1585 -0.1401
 3417TIP3    H231811   2.214   5.364   1.999  4.1500 -1.3742  0.9934
 3418TIP3   OH231812   5.249   1.191   8.306  0.0236  0.4540 -0.2691
 3418TIP3    H131813   5.159   1.166   8.329  0.0458  0.4584 -0.1778
 3418TIP3    H231814   5.286   1.112   8.267 -0.7529  1.1016 -2.4572
 3419TIP3   OH231815   6.081   3.819   2.138  0.5545  0.1253 -0.6939
 3419TIP3    H131816   5.985   3.818   2.135  0.5291 -2.0386 -0.5356
 3419TIP3    H231817   6.102   3.852   2.226 -0.0038  0.9986 -0.8710
 3420TIP3   OH231818   3.251   4.567   8.469  0.6449 -0.1979  0.2300
 3420TIP3    H131819   3.257   4.535   8.559 -0.5100  1.9220  1.1545
 3420TIP3    H231820   3.340   4.594   8.447  0.5724  1.2874  1.6029
 3421TIP3   OH231821   4.130   5.092   1.566 -0.2050 -0.4635  0.1506
 3421TIP3    H131822   4.166   5.115   1.651 -0.6858  1.5817 -0.1403
 3421TIP3    H231823   4.152   4.999   1.554 -0.4287 -0.8783  2.6118
 3422TIP3   OH231824   4.611   6.107   0.962 -0.1498  0.2681  0.3471
 3422TIP3    H131825   4.539   6.159   0.926 -0.2323 -0.2650 -0.2808
 3422TIP3    H231826   4.576   6.073   1.045 -0.9846 -0.7482 -0.3887
 3423TIP3   OH231827   1.709   1.513   2.695 -0.0198  0.1882  0.6671
 3423TIP3    H131828   1.684   1.483   2.608 -0.3528  0.8413  0.5364
 3423TIP3    H231829   1.677   1.444   2.754  1.2276 -0.8474  0.2017
 3424TIP3   OH231830   5.680   0.640   1.398  0.1918 -0.3375 -0.3724
 3424TIP3    H131831   5.693   0.615   1.489  3.1679 -2.5994 -1.2624
 3424TIP3    H231832   5.600   0.595   1.372 -0.8308  0.5346  1.1160
 3425TIP3   OH231833   3.013   5.227   6.974 -0.1182 -0.1713 -0.1236
 3425TIP3    H131834   3.074   5.194   7.039 -0.5685  0.0316  0.4100
 3425TIP3    H231835   2.927   5.195   7.002 -0.4248  0.5774 -0.1648
 3426TIP3   OH231836   0.046   1.322   2.449  0.3340 -0.1914  0.7721
 3426TIP3    H131837  -0.016   1.254   2.474  1.6111 -2.5233 -1.8180
 3426TIP3    H231838   0.107   1.327   2.524  0.7394 -2.6527  0.6917
 3427TIP3   OH231839   2.791   1.066   2.240  0.1053  0.3496  0.0146
 3427TIP3    H131840   2.836   0.982   2.246 -1.9622 -0.9944 -1.6244
 3427TIP3    H231841   2.765   1.072   2.148  0.3725  2.9189  0.0496
 3428TIP3   OH231842   5.382   6.052   7.892  0.1046  0.3363 -0.2210
 3428TIP3    H131843   5.464   6.048   7.941 -0.1826 -1.3996  0.1764
 3428TIP3    H231844   5.373   6.145   7.868  2.1304  0.5816 -0.2271
 3429TIP3   OH231845   2.535   2.545   0.012 -0.4166 -0.3963 -0.3369
 3429TIP3    H131846   2.542   2.594  -0.069 -1.8213 -0.0676 -0.2770
 3429TIP3    H231847   2.472   2.594   0.065 -0.7391 -1.4791  0.3117
 3430TIP3   OH231848   1.459   1.112   2.617 -0.4616 -0.0261  0.5264
 3430TIP3    H131849   1.457   1.152   2.704  0.7268 -1.3159  1.1788
 3430TIP3    H231850   1.551   1.091   2.602 -0.6832 -0.0694 -0.9524
 3431TIP3   OH231851   2.593   0.343   3.491  0.3957 -0.0236  0.0965
 3431TIP3    H131852   2.540   0.315   3.416 -0.0723  0.5552  0.2058
 3431TIP3    H231853   2.676   0.297   3.480 -0.1242 -0.9404 -0.0840
 3432TIP3   OH231854   5.935   6.072   0.943 -0.1172 -0.5455 -0.3353
 3432TIP3    H131855   5.953   6.049   1.034 -1.9093 -1.3792 -0.1526
 3432TIP3    H231856   5.957   6.165   0.937 -0.5699 -0.3195  1.1288
 3433TIP3   OH231857   2.612   6.708   8.630 -0.3100  0.5879  0.4041
 3433TIP3    H131858   2.682   6.748   8.681 -0.7126  2.1663 -0.2332
 3433TIP3    H231859   2.557   6.781   8.602 -0.6073 -0.3047 -1.5138
 3434TIP3   OH231860   6.145   1.346   1.311  0.0249  0.3384  0.0073
 3434TIP3    H131861   6.134   1.276   1.247 -1.5480 -1.5384  2.1764
 3434TIP3    H231862   6.063   1.396   1.305  0.4570  1.0083 -0.3903
 3435TIP3   OH231863   2.857   5.183   7.823  1.0143 -0.6349  0.0217
 3435TIP3    H131864   2.866   5.143   7.737  1.0468 -0.1154 -0.2239
 3435TIP3    H231865   2.763   5.185   7.839  1.0505 -1.4723  0.3603
 3436TIP3   OH231866   1.504   4.182   8.947 -0.0055  0.0197  0.0401
 3436TIP3    H131867   1.436   4.248   8.931 -0.4827 -0.4182  0.2467
 3436TIP3    H231868   1.502   4.167   9.041 -2.1530 -2.6257 -0.2920
 3437TIP3   OH231869   2.475   2.328   8.830 -0.6276 -0.6363 -0.0007
 3437TIP3    H131870   2.507   2.399   8.887 -1.2865  0.2055 -0.6518
 3437TIP3    H231871   2.495   2.248   8.879 -1.4814  0.0677  1.5949
 3438TIP3   OH231872   1.254   4.518   8.535  0.3816  0.5886  0.4013
 3438TIP3    H131873   1.221   4.564   8.612 -1.3971  0.5786 -0.3000
 3438TIP3    H231874   1.195   4.443   8.524  2.4028 -1.1455  0.7243
 3439TIP3   OH231875   5.435   3.147   2.924 -0.2413  0.2781 -0.0981
 3439TIP3    H131876   5.490   3.217   2.889 -1.0736  1.0547  0.1019
 3439TIP3    H231877   5.434   3.163   3.018 -0.4453 -0.0012 -0.0526
 3440TIP3   OH231878   0.007   5.456   2.022  0.2415 -0.1364  0.0080
 3440TIP3    H131879  -0.049   5.379   2.014  0.6328 -0.2115 -2.9127
 3440TIP3    H231880  -0.049   5.530   1.998  0.2866  0.3395  1.2843
 3441TIP3   OH231881   0.692   5.643   8.400 -0.0254 -0.6207  0.2712
 3441TIP3    H131882   0.707   5.549   8.399  0.8245 -0.5251  1.5628
 3441TIP3    H231883   0.731   5.675   8.319 -0.4027 -1.3819 -0.2198
 3442TIP3   OH231884   5.783   4.958   1.911  0.2129 -0.3156 -0.2028
 3442TIP3    H131885   5.768   4.971   2.004 -0.1541 -1.4875 -0.0863
 3442TIP3    H231886   5.773   4.864   1.897 -0.4826 -0.0757 -1.5481
 3443TIP3   OH231887   4.575   3.918   1.782  0.6953  0.2839 -0.3483
 3443TIP3    H131888   4.527   3.975   1.842  1.0648  0.0681  0.1703
 3443TIP3    H231889   4.667   3.933   1.804  0.7788 -0.9402  0.2142
 3444TIP3   OH231890   2.885   2.187   1.479 -0.0473  0.3943 -0.1135
 3444TIP3    H131891   2.793   2.189   1.454 -0.3912 -0.2121  1.0281
 3444TIP3    H231892   2.932   2.209   1.399 -1.0582 -1.8246 -1.4182
 3445TIP3   OH231893   2.696   4.804   1.096 -0.1532  0.5047 -0.0826
 3445TIP3    H131894   2.764   4.737   1.092 -0.6260  0.0694 -1.0689
 3445TIP3    H231895   2.677   4.813   1.189  2.5019  1.9385  0.4255
 3446TIP3   OH231896   6.239   0.622   0.632  0.1249  0.6273  0.2115
 3446TIP3    H131897   6.287   0.699   0.603 -1.2153  1.5617  0.3819
 3446TIP3    H231898   6.205   0.646   0.718  2.6978 -1.4996  2.0195
 3447TIP3   OH231899   5.029   5.099   1.612 -0.0800 -0.2358 -0.4763
 3447TIP3    H131900   5.013   5.162   1.682 -0.0851  0.3939 -1.0368
 3447TIP3    H231901   4.975   5.129   1.539 -0.9874 -1.5565 -0.3781
 3448TIP3   OH231902   3.962   5.640   7.026  0.2734 -0.1871 -0.3612
 3448TIP3    H131903   3.964   5.730   6.993  0.6421  0.0540  0.3010
 3448TIP3    H231904   3.887   5.638   7.085 -0.3319 -0.5923 -1.1316
 3449TIP3   OH231905   4.466   0.224   7.866 -0.2312 -0.2556 -0.2817
 3449TIP3    H131906   4.546   0.195   7.823  0.0080  1.4027 -1.0269
 3449TIP3    H231907   4.436   0.148   7.916  0.9378 -1.3920 -1.2594
 3450TIP3   OH231908   1.646   3.789   8.819 -0.1182 -0.0575 -0.4943
 3450TIP3    H131909   1.559   3.792   8.861 -0.2230  0.3758 -0.7450
 3450TIP3    H231910   1.705   3.826   8.885 -0.0468 -0.7811 -0.1415
 3451TIP3   OH231911   0.555   2.182   2.538 -0.8926 -0.2358 -0.3434
 3451TIP3    H131912   0.641   2.140   2.537 -0.5015  0.4572  0.9789
 3451TIP3    H231913   0.503   2.129   2.599 -0.6711  0.6168  0.6328
 3452TIP3   OH231914   6.506   5.549   1.167 -0.7692 -0.2773 -0.3265
 3452TIP3    H131915   6.500   5.454   1.163 -0.5912 -0.3025  0.0338
 3452TIP3    H231916   6.417   5.580   1.151 -0.8236 -0.5034 -0.4577
 3453TIP3   OH231917   5.069   4.642   1.597 -0.2104  0.5224  0.7517
 3453TIP3    H131918   5.150   4.597   1.621 -0.0356 -0.7660 -1.9479
 3453TIP3    H231919   5.004   4.572   1.591 -0.5873  0.9728 -0.8012
 3454TIP3   OH231920   2.167   6.271   0.223  0.0048  0.2600  0.4162
 3454TIP3    H131921   2.095   6.247   0.280 -1.9867  1.8344 -1.2453
 3454TIP3    H231922   2.139   6.244   0.135  1.5891  0.6297 -0.2539
 3455TIP3   OH231923   1.599   6.050   7.803 -0.1173  0.2177 -0.1896
 3455TIP3    H131924   1.571   6.040   7.713  0.6811  2.3853 -0.7596
 3455TIP3    H231925   1.584   5.965   7.843 -0.2657 -0.8769 -2.4192
 3456TIP3   OH231926   4.434   2.754   2.702 -0.2958 -0.6600  0.1859
 3456TIP3    H131927   4.502   2.708   2.653 -0.5213 -0.5697 -0.2198
 3456TIP3    H231928   4.461   2.747   2.794  0.3028 -0.5439  0.0217
 3457TIP3   OH231929   1.249   2.527   0.536 -0.4208  0.2694 -0.7313
 3457TIP3    H131930   1.258   2.619   0.508  1.2207  0.2002 -0.5308
 3457TIP3    H231931   1.234   2.533   0.630  0.3111  0.3337 -0.6100
 3458TIP3   OH231932   4.555   2.425   2.781  0.1664 -0.7977 -0.1111
 3458TIP3    H131933   4.510   2.468   2.708 -0.4443  0.6366  1.0608
 3458TIP3    H231934   4.647   2.423   2.755  0.5250  2.7689  0.4276
 3459TIP3   OH231935   2.222   1.842   0.546  0.6184  0.2410 -0.0746
 3459TIP3    H131936   2.213   1.754   0.510  0.2341 -0.1021  0.8353
 3459TIP3    H231937   2.316   1.854   0.556  0.6231 -0.7753  1.4568
 3460TIP3   OH231938   6.008   5.816   0.652 -0.1866  0.1324  0.2995
 3460TIP3    H131939   6.049   5.767   0.581 -0.3108 -0.7747  0.8408
 3460TIP3    H231940   5.921   5.837   0.619 -0.6014 -1.1451  0.5506
 3461TIP3   OH231941   2.385   5.135   0.973 -0.2454 -0.4527 -0.6632
 3461TIP3    H131942   2.376   5.111   1.065  0.3950 -1.4333 -0.8365
 3461TIP3    H231943   2.321   5.081   0.928 -0.5685  0.0385 -0.7971
 3462TIP3   OH231944   1.225   5.523   7.965  0.4915 -0.4300 -0.5679
 3462TIP3    H131945   1.194   5.482   8.046 -0.9943  0.9147 -0.4175
 3462TIP3    H231946   1.146   5.544   7.916  0.9739  3.6929  0.0848
 3463TIP3   OH231947   1.597   1.155   1.909  0.1165  0.2353 -0.3388
 3463TIP3    H131948   1.588   1.060   1.901 -1.1104  0.3506 -0.5892
 3463TIP3    H231949   1.691   1.171   1.896  0.4619 -0.9935  0.4353
 3464TIP3   OH231950   2.331   0.745   2.927 -0.3528 -0.1928  0.5702
 3464TIP3    H131951   2.299   0.797   2.854 -0.3105 -0.5581  0.2875
 3464TIP3    H231952   2.385   0.806   2.978 -3.6874  1.3053  2.6863
 3465TIP3   OH231953   5.569   0.122   8.855  0.5337  0.0503 -0.1997
 3465TIP3    H131954   5.634   0.157   8.794 -0.4625  0.6454 -0.9557
 3465TIP3    H231955   5.527   0.050   8.807  0.9040 -0.6017  0.4379
 3466TIP3   OH231956   6.238   2.797   2.535  0.2192  0.2089  0.0475
 3466TIP3    H131957   6.164   2.849   2.503 -0.4192 -0.7671 -0.1002
 3466TIP3    H231958   6.243   2.818   2.628  0.6062  1.2818 -0.1994
 3467TIP3   OH231959   1.370   0.500   7.665 -0.9704  0.3438 -0.1394
 3467TIP3    H131960   1.396   0.427   7.721 -1.2781 -0.0416 -0.4892
 3467TIP3    H231961   1.410   0.577   7.705  0.0910 -0.1303 -0.2508
 3468TIP3   OH231962   2.618   5.447   7.709  0.3612 -0.8229  0.6349
 3468TIP3    H131963   2.603   5.506   7.635 -2.3725  0.4324  2.0173
 3468TIP3    H231964   2.695   5.482   7.753 -0.4368  1.0159  0.6730
 3469TIP3   OH231965   2.073   6.256   2.290  0.7172 -0.2823 -0.1132
 3469TIP3    H131966   2.093   6.173   2.334 -1.2052 -0.6358  0.2082
 3469TIP3    H231967   2.020   6.230   2.214  1.4563  0.5508 -0.9319
 3470TIP3   OH231968   4.805   3.498   0.779  0.4591  0.2788 -0.2694
 3470TIP3    H131969   4.867   3.470   0.846 -0.4269  2.2225  1.4517
 3470TIP3    H231970   4.852   3.565   0.729  0.3259  0.4999 -0.0963
 3471TIP3   OH231971   0.963   3.010   8.913  0.4906 -0.8919 -0.5426
 3471TIP3    H131972   0.881   3.035   8.957  1.1042 -1.0548  0.7458
 3471TIP3    H231973   0.938   2.994   8.823 -0.5194  1.1935 -0.6943
 3472TIP3   OH231974   2.145   3.483   1.675  0.9763  0.7852  0.3232
 3472TIP3    H131975   2.118   3.402   1.718  0.2302  0.5767 -0.4945
 3472TIP3    H231976   2.069   3.541   1.686  1.4288  1.3136  0.7296
 3473TIP3   OH231977   1.972   0.164   0.371 -0.3015 -0.3213  0.3977
 3473TIP3    H131978   1.996   0.216   0.294  0.0374 -1.7980 -0.5290
 3473TIP3    H231979   1.887   0.126   0.348 -0.5406 -0.2009  1.0592
 3474TIP3   OH231980   2.918   2.338   0.219 -0.3455  0.6993 -0.4287
 3474TIP3    H131981   2.866   2.416   0.200 -0.1101  0.7958 -0.6678
 3474TIP3    H231982   2.926   2.337   0.315  0.7343  1.6555 -0.5044
 3475TIP3   OH231983   0.662   3.734   1.491  0.3266  0.5795 -0.8124
 3475TIP3    H131984   0.726   3.738   1.420  0.1932  1.5119 -0.9007
 3475TIP3    H231985   0.680   3.812   1.544 -0.9102  1.0288 -1.0049
 3476TIP3   OH231986   5.417   2.733   3.128 -0.4826 -0.0167  0.0973
 3476TIP3    H131987   5.398   2.823   3.153  1.0422  0.1704  0.6656
 3476TIP3    H231988   5.373   2.722   3.043 -0.6178  1.2751 -0.0165
 3477TIP3   OH231989   6.000   0.949   8.887 -0.4156  0.2755  0.1694
 3477TIP3    H131990   5.937   1.020   8.903  0.7755  1.8834 -1.7552
 3477TIP3    H231991   6.081   0.978   8.928 -0.6124 -1.3969  1.8975
 3478TIP3   OH231992   1.982   6.396   8.596 -0.2068 -0.2659 -0.4757
 3478TIP3    H131993   1.947   6.358   8.516 -1.9793 -0.2101  0.2141
 3478TIP3    H231994   2.027   6.476   8.568 -0.3546 -0.5198 -1.4623
 3479TIP3   OH231995   6.484   1.431   0.675  0.0045  0.0607 -0.3496
 3479TIP3    H131996   6.516   1.507   0.723  1.2180 -1.0926  0.7192
 3479TIP3    H231997   6.398   1.459   0.642 -0.7501  1.0413  2.1729
 3480TIP3   OH231998   4.286   3.443   7.970 -0.1343  0.6343  0.2088
 3480TIP3    H131999   4.367   3.394   7.982 -1.6334 -1.7911  1.2751
 3480TIP3    H232000   4.267   3.480   8.056 -1.2433 -0.7318  0.5967
 3481TIP3   OH232001   2.417   3.646   0.001  0.2169  0.3048  0.4920
 3481TIP3    H132002   2.471   3.723   0.020 -0.8905  1.2079  0.1255
 3481TIP3    H232003   2.399   3.653  -0.093 -0.8685  0.2737  0.6793
 3482TIP3   OH232004   1.942   5.110   2.060  0.0275  0.0336  0.2740
 3482TIP3    H132005   1.894   5.077   2.136  0.2970 -0.4459  0.2407
 3482TIP3    H232006   1.892   5.186   2.031 -0.6515 -0.3858  0.3140
 3483TIP3   OH232007   5.082   6.295   8.618 -0.4727 -0.5395 -0.2640
 3483TIP3    H132008   5.077   6.283   8.713 -0.3687 -1.6773 -0.3959
 3483TIP3    H232009   5.014   6.360   8.599 -1.2860 -1.1489  0.4482
 3484TIP3   OH232010   4.291   0.584   3.192  0.0564 -0.3231 -0.1899
 3484TIP3    H132011   4.382   0.604   3.214 -0.3608  1.0404  0.4136
 3484TIP3    H232012   4.241   0.657   3.228 -1.2583 -0.9112 -0.7500
 3485TIP3   OH232013   2.794   2.921   8.309 -0.3839 -0.0327  0.1874
 3485TIP3    H132014   2.834   2.863   8.244 -0.5923 -2.2061  1.9056
 3485TIP3    H232015   2.865   2.939   8.371 -0.5544  0.9123  0.1221
 3486TIP3   OH232016   0.528   1.455   1.250 -1.0052 -0.0792  0.1138
 3486TIP3    H132017   0.518   1.398   1.327  2.5203  1.0895  1.6234
 3486TIP3    H232018   0.568   1.400   1.184  0.0832 -0.0267  0.7082
 3487TIP3   OH232019   3.168   6.712   8.584 -0.2545 -0.1844  0.2568
 3487TIP3    H132020   3.097   6.774   8.599  1.5500  1.6022  2.1860
 3487TIP3    H232021   3.164   6.653   8.658  0.5057  0.2226  0.6375
 3488TIP3   OH232022   3.387   2.416   8.412 -0.0732  0.0583 -0.5200
 3488TIP3    H132023   3.463   2.471   8.394 -1.1050  1.4586 -0.7570
 3488TIP3    H232024   3.370   2.371   8.329 -0.1362  0.5550 -0.7809
 3489TIP3   OH232025   4.862   0.986   1.115 -0.2548  0.1241 -0.3819
 3489TIP3    H132026   4.791   0.976   1.051 -0.3621 -2.3480  0.0108
 3489TIP3    H232027   4.926   0.920   1.089  1.7609  2.0278 -0.4711
 3490TIP3   OH232028   3.169   2.476   2.826  0.1188  0.2448  0.2321
 3490TIP3    H132029   3.233   2.537   2.791  2.3274 -1.6708  0.7350
 3490TIP3    H232030   3.117   2.450   2.749  1.3195  0.2487 -0.6044
 3491TIP3   OH232031   1.755   2.680   1.003 -0.2890 -0.5896 -0.5797
 3491TIP3    H132032   1.661   2.680   0.988 -0.8777 -2.0158  2.4153
 3491TIP3    H232033   1.772   2.763   1.047 -0.6694 -1.4124  1.2032
 3492TIP3   OH232034   4.134   2.906   8.228 -0.4337 -0.1792  0.3962
 3492TIP3    H132035   4.210   2.862   8.190 -0.8811 -1.6906  1.1641
 3492TIP3    H232036   4.157   2.917   8.320 -0.0938  1.7951  0.1137
 3493TIP3   OH232037   0.619   1.701   1.550 -0.2552  0.4454  0.2029
 3493TIP3    H132038   0.648   1.754   1.624  1.0867  0.2280 -0.1370
 3493TIP3    H232039   0.614   1.612   1.585 -0.4750  0.4782  0.2539
 3494TIP3   OH232040   1.908   2.680   2.094 -0.5880 -0.0787  0.1201
 3494TIP3    H132041   1.878   2.703   2.006 -0.1467 -1.0855 -0.3139
 3494TIP3    H232042   1.949   2.760   2.127  3.2128 -0.7240 -2.3085
 3495TIP3   OH232043   1.859   4.486   2.848  0.9629  0.3628  0.6964
 3495TIP3    H132044   1.841   4.564   2.796 -0.0506  1.0722  2.0524
 3495TIP3    H232045   1.777   4.467   2.893  1.4290 -1.0026  1.0315
 3496TIP3   OH232046   2.440   0.911   2.119 -0.1290  0.2117  0.7731
 3496TIP3    H132047   2.527   0.879   2.139 -0.4975 -0.7765  0.8472
 3496TIP3    H232048   2.396   0.838   2.075 -0.9057  0.7074  0.6893
 3497TIP3   OH232049   1.291   6.076   0.264 -0.1859 -0.0056 -0.1114
 3497TIP3    H132050   1.277   6.023   0.186 -3.9697  0.6820 -0.1065
 3497TIP3    H232051   1.284   6.167   0.233  1.1140  0.3772  0.6416
 3498TIP3   OH232052   4.535   1.158   8.957  0.1141 -0.4992 -0.2511
 3498TIP3    H132053   4.551   1.067   8.979 -0.3211 -0.5986 -0.3428
 3498TIP3    H232054   4.506   1.157   8.866 -1.5333 -0.4461  0.2506
 3499TIP3   OH232055   6.728   5.775   0.693 -0.4357  0.3438  0.2425
 3499TIP3    H132056   6.719   5.788   0.787 -0.5067  1.3188  0.1074
 3499TIP3    H232057   6.708   5.682   0.679 -0.9548  0.3231  1.1143
 3500TIP3   OH232058   0.388   1.583   7.168  0.3718 -0.6263  0.4812
 3500TIP3    H132059   0.324   1.533   7.220  0.8010  0.0351  1.6925
 3500TIP3    H232060   0.337   1.656   7.132  0.4286 -0.0783  1.4755
 3501TIP3   OH232061   2.239   2.085   1.537  0.1105 -0.4485 -0.4016
 3501TIP3    H132062   2.238   2.180   1.529 -1.2961 -0.4207 -0.1599
 3501TIP3    H232063   2.328   2.064   1.566  1.2500  0.5469 -2.8933
 3502TIP3   OH232064   4.961   5.815   7.269 -0.7969 -0.6706 -0.4427
 3502TIP3    H132065   4.878   5.860   7.287 -0.4212  0.2332 -0.9253
 3502TIP3    H232066   5.007   5.873   7.208  1.2971  0.1087  1.7295
 3503TIP3   OH232067   4.917   1.364   8.219 -0.1446 -0.3566 -0.1429
 3503TIP3    H132068   4.994   1.419   8.237 -1.3915  1.1216  0.9964
 3503TIP3    H232069   4.877   1.350   8.305 -0.6035 -1.9702 -0.5848
 3504TIP3   OH232070   0.625   2.477   1.022 -0.5686  0.4524  0.2600
 3504TIP3    H132071   0.531   2.476   1.002 -0.2926  0.6898 -1.1723
 3504TIP3    H232072   0.666   2.500   0.939  0.8716 -1.1588  0.4788
 3505TIP3   OH232073   5.435   1.977   8.332 -0.8010  0.1936  0.1476
 3505TIP3    H132074   5.385   1.932   8.264 -1.9729  1.7883 -0.0904
 3505TIP3    H232075   5.468   2.056   8.289 -2.0749  1.5451  1.5557
 3506TIP3   OH232076   3.918   5.457   7.788 -0.3310 -0.5143 -0.3860
 3506TIP3    H132077   3.947   5.444   7.878  2.4236  0.1827 -1.0825
 3506TIP3    H232078   3.957   5.541   7.762 -0.9115 -0.7841 -2.2977
 3507TIP3   OH232079   4.806   6.582   2.517 -0.3841 -0.4371 -0.1157
 3507TIP3    H132080   4.788   6.607   2.607 -0.9838 -0.1985 -0.2981
 3507TIP3    H232081   4.821   6.487   2.521 -0.2932 -0.4069  0.2509
 3508TIP3   OH232082   1.572   4.222   2.305 -0.0981  0.8133 -0.1964
 3508TIP3    H132083   1.628   4.229   2.383 -0.0691 -1.0395 -0.0032
 3508TIP3    H232084   1.629   4.243   2.232  0.2094  1.3374  0.1941
 3509TIP3   OH232085   5.432   3.569   7.074  0.2407 -0.4492  0.1088
 3509TIP3    H132086   5.396   3.656   7.089 -0.5365 -0.6197 -0.6753
 3509TIP3    H232087   5.356   3.511   7.083  0.6212 -0.9736 -0.0634
 3510TIP3   OH232088   6.050   3.438   1.866 -0.3846  0.0460 -0.5901
 3510TIP3    H132089   6.037   3.343   1.863  2.3783 -0.4082 -0.6292
 3510TIP3    H232090   6.030   3.462   1.956  0.3787 -0.8466 -0.1726
 3511TIP3   OH232091   3.618   4.922   0.675  0.7610 -0.0646 -0.1000
 3511TIP3    H132092   3.645   4.954   0.589  0.6141  0.8629  0.1893
 3511TIP3    H232093   3.691   4.866   0.704  1.2840  0.4648 -0.3775
 3512TIP3   OH232094   5.504   2.274   8.516 -0.4073 -0.3486  0.1255
 3512TIP3    H132095   5.424   2.247   8.561  0.9444 -1.7750  1.8211
 3512TIP3    H232096   5.555   2.319   8.582  0.8537 -0.8278 -0.4864
 3513TIP3   OH232097   1.585   5.800   2.722 -0.1918 -0.5984  0.9847
 3513TIP3    H132098   1.571   5.877   2.777  0.1484 -0.7513  1.2946
 3513TIP3    H232099   1.515   5.740   2.746 -0.2538 -0.5230  0.9944
 3514TIP3   OH232100   2.856   3.793   0.140  0.5676  0.5227  0.6501
 3514TIP3    H132101   2.874   3.714   0.192  1.9022  0.0644 -0.4316
 3514TIP3    H232102   2.801   3.763   0.068 -0.8837  1.0668  1.4905
 3515TIP3   OH232103   2.518   3.720   1.854  0.6694  0.5324  0.2957
 3515TIP3    H132104   2.468   3.667   1.917  0.1991  1.4813  0.7356
 3515TIP3    H232105   2.609   3.716   1.886  0.4964  0.6860  0.8202
 3516TIP3   OH232106   2.612   6.254   8.356  0.0782 -0.1831 -0.3557
 3516TIP3    H132107   2.528   6.209   8.358  0.4542 -0.9280 -0.8455
 3516TIP3    H232108   2.676   6.186   8.377  0.5920  0.2874 -0.3759
 3517TIP3   OH232109   3.169   5.699   0.761  0.2954 -0.2223  0.0733
 3517TIP3    H132110   3.100   5.744   0.713 -0.4480 -2.9054 -1.6053
 3517TIP3    H232111   3.239   5.763   0.768 -0.5560  1.1178 -2.4151
 3518TIP3   OH232112   2.312   1.131   1.975 -0.0995 -0.0821 -0.2800
 3518TIP3    H132113   2.334   1.215   2.015  0.9726 -0.3704 -0.2246
 3518TIP3    H232114   2.364   1.067   2.024  1.5251 -0.4102 -2.3166
 3519TIP3   OH232115   6.248   3.634   0.686  0.1305 -0.2000 -0.0275
 3519TIP3    H132116   6.191   3.569   0.644  1.0218 -0.5041 -0.7826
 3519TIP3    H232117   6.323   3.642   0.627  2.0703 -1.5851  2.0834
 3520TIP3   OH232118   4.227   4.465   8.725  0.0135  0.2606  0.7824
 3520TIP3    H132119   4.282   4.503   8.794  1.2589  3.4125 -1.7567
 3520TIP3    H232120   4.150   4.522   8.721 -0.7183 -0.7214  0.4461
 3521TIP3   OH232121   0.839   4.688   8.977  0.2931 -0.6879  0.3677
 3521TIP3    H132122   0.898   4.762   8.986 -0.5117  0.1937 -1.1945
 3521TIP3    H232123   0.892   4.612   9.000  1.6972  0.1880  0.1396
 3522TIP3   OH232124   4.156   5.632   7.716 -0.1173  0.1561  0.3501
 3522TIP3    H132125   4.133   5.725   7.722  0.2703  0.3361 -0.7578
 3522TIP3    H232126   4.247   5.631   7.689  0.0216 -0.5590  0.8108
 3523TIP3   OH232127   5.923   1.053   1.346  0.2060 -0.1264  0.0154
 3523TIP3    H132128   5.876   1.131   1.316 -0.7259 -1.6651 -2.9238
 3523TIP3    H232129   6.015   1.079   1.349 -0.0436  1.0182 -1.3060
 3524TIP3   OH232130   3.144   1.755   1.687 -0.2001  0.3084  0.9024
 3524TIP3    H132131   3.115   1.678   1.735 -0.6684 -0.5091 -0.6351
 3524TIP3    H232132   3.070   1.816   1.691 -0.4098  0.0575  0.8057
 3525TIP3   OH232133   1.288   2.593   8.227  0.0796 -0.1519 -0.5979
 3525TIP3    H132134   1.225   2.608   8.156  0.4037  0.6265 -0.7330
 3525TIP3    H232135   1.358   2.657   8.210  0.7824 -0.8322 -0.3110
 3526TIP3   OH232136   6.458   0.977   7.903  0.6977  0.1051  0.8397
 3526TIP3    H132137   6.498   0.957   7.819 -0.1076  2.1588 -0.1003
 3526TIP3    H232138   6.527   0.960   7.967  2.8796  2.6014 -0.6434
 3527TIP3   OH232139   6.733   5.623   8.598  0.4493  0.0759  0.0997
 3527TIP3    H132140   6.812   5.570   8.586  1.7295  1.6394  1.2235
 3527TIP3    H232141   6.765   5.712   8.615 -1.6112  1.2385 -1.5695
 3528TIP3   OH232142   4.672   2.343   1.050 -0.5712 -0.2043  0.8697
 3528TIP3    H132143   4.708   2.359   1.137 -0.0221  1.3390  0.3748
 3528TIP3    H232144   4.712   2.261   1.022 -0.3648 -0.4511  1.8487
 3529TIP3   OH232145   3.687   2.807   1.137  0.2162  0.6937  0.2997
 3529TIP3    H132146   3.749   2.830   1.207  0.7919 -0.8351  0.3175
 3529TIP3    H232147   3.727   2.843   1.058  1.4213 -0.6984  0.2314
 3530TIP3   OH232148   5.875   1.906   1.013  0.3528  0.0665 -0.1076
 3530TIP3    H132149   5.782   1.895   1.033  0.4356 -1.4439 -0.4728
 3530TIP3    H232150   5.901   1.984   1.063 -1.2423  0.8892 -0.4965
 3531TIP3   OH232151   4.318   2.076   8.378 -0.3099  0.7808 -0.2931
 3531TIP3    H132152   4.317   2.163   8.418  0.4129  0.1053  1.2810
 3531TIP3    H232153   4.411   2.057   8.366 -0.2150 -0.9986  2.3458
 3532TIP3   OH232154   1.893   6.497   2.323  0.0368  0.3843 -0.1189
 3532TIP3    H132155   1.941   6.556   2.381 -1.5784  0.8137  0.8126
 3532TIP3    H232156   1.953   6.423   2.311  1.4727  1.4738 -0.0740
 3533TIP3   OH232157   1.680   5.448   2.375 -0.2657  0.0194 -0.4019
 3533TIP3    H132158   1.612   5.401   2.327  0.5062 -2.0350  0.4042
 3533TIP3    H232159   1.635   5.483   2.452 -0.6476 -0.2864 -0.4841
 3534TIP3   OH232160   5.597   6.130   1.829  0.2063 -0.7363  0.0154
 3534TIP3    H132161   5.608   6.153   1.921 -1.4817 -1.0624  0.3216
 3534TIP3    H232162   5.608   6.213   1.782 -0.3563 -0.3034  0.6375
 3535TIP3   OH232163   1.978   4.879   8.482 -0.2381  0.2272  0.3982
 3535TIP3    H132164   2.058   4.828   8.475  0.4526  1.3192 -0.0274
 3535TIP3    H232165   1.907   4.814   8.482  0.6291 -0.7352  0.4746
 3536TIP3   OH232166   4.863   0.750   2.990  0.0263 -0.1999 -0.6173
 3536TIP3    H132167   4.942   0.722   3.035 -0.5050  0.0765  0.5224
 3536TIP3    H232168   4.871   0.845   2.983  0.3024 -0.2820 -1.5056
 3537TIP3   OH232169   4.656   5.565   7.273  0.1055 -0.3075 -0.2577
 3537TIP3    H132170   4.748   5.572   7.248 -0.0741  0.4820 -0.7252
 3537TIP3    H232171   4.611   5.630   7.219 -0.6524 -0.3064  0.3536
 3538TIP3   OH232172   0.610   3.939   2.708  0.2275 -0.7631  0.2904
 3538TIP3    H132173   0.524   3.978   2.724  0.4909  0.0626 -0.2443
 3538TIP3    H232174   0.604   3.902   2.620  0.7349  0.2068 -0.1637
 3539TIP3   OH232175   3.553   2.596   0.565 -0.7963 -0.2121  0.0156
 3539TIP3    H132176   3.470   2.640   0.549 -2.3035 -1.9623  2.3205
 3539TIP3    H232177   3.571   2.613   0.658  0.7168 -1.0573 -0.0862
 3540TIP3   OH232178   2.505   1.868   7.895 -0.3947  0.0240  0.1563
 3540TIP3    H132179   2.514   1.960   7.872 -1.1077 -0.2360 -1.2730
 3540TIP3    H232180   2.594   1.837   7.909 -0.2220  1.3176  2.3880
 3541TIP3   OH232181   6.632   3.006   2.214 -0.5219  0.4074  0.8199
 3541TIP3    H132182   6.576   3.056   2.273  0.4220 -0.1764  2.2547
 3541TIP3    H232183   6.720   3.041   2.228 -0.2387  0.0567 -0.0179
 3542TIP3   OH232184   4.995   4.719   0.938 -0.1469 -0.2624  0.4636
 3542TIP3    H132185   5.007   4.718   1.033  0.1334  1.0957  0.4578
 3542TIP3    H232186   5.059   4.783   0.906 -0.9292  0.0403 -0.5387
 3543TIP3   OH232187   5.424   6.091   1.186 -0.2445 -0.1897 -0.0802
 3543TIP3    H132188   5.497   6.151   1.172 -0.2969  0.0942  0.8167
 3543TIP3    H232189   5.361   6.141   1.238  0.6907 -1.6436  2.7055
 3544TIP3   OH232190   2.708   4.804   2.490  0.0328  0.1540  0.9578
 3544TIP3    H132191   2.748   4.844   2.413 -1.4679 -1.2213 -0.6469
 3544TIP3    H232192   2.662   4.727   2.455 -0.3882 -0.7427  3.3068
 3545TIP3   OH232193   2.643   0.134   0.319 -0.3104  0.2132 -0.7131
 3545TIP3    H132194   2.629   0.097   0.232  0.8360 -1.2212 -0.3349
 3545TIP3    H232195   2.705   0.074   0.361 -3.0465 -0.9010  2.1912
 3546TIP3   OH232196   1.130   4.729   7.979  0.0175  0.4662  0.3723
 3546TIP3    H132197   1.222   4.757   7.972  0.2913  0.2487  2.5642
 3546TIP3    H232198   1.081   4.800   7.937  1.2132 -0.2117 -2.4328
 3547TIP3   OH232199   4.175   4.965   8.947  0.4651  0.3496 -0.2573
 3547TIP3    H132200   4.093   4.920   8.927 -0.6960  1.7549  1.1379
 3547TIP3    H232201   4.167   4.990   9.039  3.1446 -0.8228  0.3940
 3548TIP3   OH232202   3.817   3.732   1.310  0.2550 -0.1011 -0.7155
 3548TIP3    H132203   3.865   3.665   1.359 -0.9787 -0.6103 -0.1667
 3548TIP3    H232204   3.830   3.812   1.361  0.9492 -0.1136 -0.8611
 3549TIP3   OH232205   0.269   5.168   0.057 -0.0923 -0.7499 -0.4447
 3549TIP3    H132206   0.183   5.210   0.059 -0.5217 -1.6377  1.3344
 3549TIP3    H232207   0.302   5.185  -0.031 -1.2997  1.1717 -0.5840
 3550TIP3   OH232208   6.414   6.667   8.175 -0.0134 -0.0935 -0.4892
 3550TIP3    H132209   6.492   6.722   8.178  0.2080 -0.3448 -1.3495
 3550TIP3    H232210   6.356   6.704   8.241 -0.1077  1.5413 -1.4186
 3551TIP3   OH232211   0.664   6.371   2.362  0.4482 -0.5777 -0.2171
 3551TIP3    H132212   0.602   6.304   2.392 -0.8576  0.9570  0.7210
 3551TIP3    H232213   0.715   6.328   2.294 -0.7658 -2.3237 -0.0961
 3552TIP3   OH232214   4.987   6.050   7.946 -0.2242 -0.0174 -0.2061
 3552TIP3    H132215   4.893   6.057   7.964 -0.0588  0.5767  0.4089
 3552TIP3    H232216   5.029   6.106   8.010  0.4235  1.5600 -1.9158
 3553TIP3   OH232217   0.132   3.912   1.611  0.3933 -0.0457 -0.1421
 3553TIP3    H132218   0.120   3.906   1.706 -0.6061 -0.0392 -0.2605
 3553TIP3    H232219   0.219   3.873   1.596  0.4382 -0.3192  0.7396
 3554TIP3   OH232220   0.398   6.564   1.007 -0.6450  0.1645 -0.3609
 3554TIP3    H132221   0.408   6.628   1.078  1.0103  0.2265 -0.5936
 3554TIP3    H232222   0.465   6.498   1.024 -0.5563 -0.0931 -1.5738
 3555TIP3   OH232223   2.329   2.492   1.160  0.4558  0.3844 -0.7673
 3555TIP3    H132224   2.377   2.425   1.111  1.3567  0.4435  0.0237
 3555TIP3    H232225   2.285   2.543   1.092 -1.3607 -1.7794 -1.3584
 3556TIP3   OH232226   3.932   2.990   0.357  0.3715  0.0174  0.5171
 3556TIP3    H132227   3.906   2.908   0.314  0.0983  0.2271  0.2882
 3556TIP3    H232228   3.850   3.035   0.376  0.5284  0.3100  0.5072
 3557TIP3   OH232229   1.628   3.328   2.521 -0.2450  0.0623 -0.3724
 3557TIP3    H132230   1.667   3.274   2.453  1.6515 -0.0646  0.7450
 3557TIP3    H232231   1.644   3.418   2.493  0.9081  0.0113  0.0675
 3558TIP3   OH232232   5.125   4.238   8.580 -0.1802 -0.0410  0.1557
 3558TIP3    H132233   5.081   4.233   8.495 -0.7034 -0.5841  0.4466
 3558TIP3    H232234   5.205   4.185   8.568  0.2139  0.6326 -0.2602
 3559TIP3   OH232235   4.391   6.652   0.142  0.0637 -0.4884 -0.0006
 3559TIP3    H132236   4.331   6.634   0.214 -0.3526  1.3386  0.1633
 3559TIP3    H232237   4.341   6.708   0.083  1.6344  1.3247  0.2778
 3560TIP3   OH232238   6.584   4.901   1.141  0.0885  0.2284  0.3117
 3560TIP3    H132239   6.606   4.812   1.114 -2.1834 -0.0247 -0.9711
 3560TIP3    H232240   6.607   4.955   1.066 -1.1488  0.2955 -0.0435
 3561TIP3   OH232241   0.512   0.175   1.659 -0.0487 -0.0052  0.2802
 3561TIP3    H132242   0.605   0.173   1.680 -0.4065 -0.3062  1.9431
 3561TIP3    H232243   0.469   0.131   1.732 -1.3455 -2.0181 -1.5515
 3562TIP3   OH232244   4.553   3.061   0.177 -0.2694 -0.7716  0.2483
 3562TIP3    H132245   4.530   2.969   0.189  2.0423 -1.3895  0.5361
 3562TIP3    H232246   4.615   3.060   0.103 -0.8416  0.6683 -0.2794
 3563TIP3   OH232247   2.340   5.198   7.192  0.6444  0.0822 -0.2902
 3563TIP3    H132248   2.410   5.133   7.194  0.8115  0.2920  1.0950
 3563TIP3    H232249   2.363   5.256   7.120  2.3697  0.6521  0.6782
 3564TIP3   OH232250   4.966   2.771   8.031  0.0386 -0.4975 -0.5328
 3564TIP3    H132251   4.987   2.678   8.021  0.7586 -0.4053  0.0893
 3564TIP3    H232252   5.020   2.815   7.966  1.4463 -0.3086  0.7280
 3565TIP3   OH232253   6.759   1.991   7.921 -0.0935 -0.6506 -0.0975
 3565TIP3    H132254   6.706   1.945   7.856  0.3862 -0.9334 -0.2939
 3565TIP3    H232255   6.793   2.067   7.875 -0.3342 -0.4602  0.0338
 3566TIP3   OH232256   6.108   3.203   2.863  0.6337  0.2414 -0.7779
 3566TIP3    H132257   6.163   3.279   2.841  0.8615  0.9874  1.9510
 3566TIP3    H232258   6.019   3.231   2.841  0.8617  0.8234 -0.9911
 3567TIP3   OH232259   0.277   0.282   0.704  0.3269 -0.0529  0.1652
 3567TIP3    H132260   0.311   0.199   0.672  0.2738 -1.0652  2.5158
 3567TIP3    H232261   0.325   0.298   0.785 -1.5943  0.7922  1.2032
 3568TIP3   OH232262   2.497   3.440   0.292  0.1308 -0.0790 -0.6007
 3568TIP3    H132263   2.543   3.392   0.223 -1.2849 -2.6675  0.1449
 3568TIP3    H232264   2.478   3.375   0.358 -0.4446  1.9039  1.3066
 3569TIP3   OH232265   6.225   6.500   2.255 -0.0426  0.1641 -0.0078
 3569TIP3    H132266   6.303   6.469   2.302 -2.9709 -3.7755  3.0463
 3569TIP3    H232267   6.184   6.562   2.315 -1.1181 -0.8301  0.3423
 3570TIP3   OH232268   6.394   0.934   3.158  0.3483 -0.6945 -0.2243
 3570TIP3    H132269   6.415   0.957   3.248 -0.2897 -0.8615 -0.0264
 3570TIP3    H232270   6.319   0.989   3.136  0.6483 -0.4800 -0.7380
 3571TIP3   OH232271   2.124   0.994   3.269 -0.3081 -0.4902  0.1452
 3571TIP3    H132272   2.204   1.028   3.229 -0.3848 -0.7460 -0.2317
 3571TIP3    H232273   2.076   1.072   3.297  0.7908 -0.3648  1.8321
 3572TIP3   OH232274   5.596   4.458   7.920 -0.2507 -0.5470  0.1865
 3572TIP3    H132275   5.580   4.412   7.838 -1.0999 -0.4980  0.3225
 3572TIP3    H232276   5.626   4.545   7.892 -1.8313 -0.0708 -0.0918
 3573TIP3   OH232277   6.691   3.033   0.543  0.7915  0.3343 -0.4680
 3573TIP3    H132278   6.686   3.121   0.580  3.2860 -0.3975  1.9192
 3573TIP3    H232279   6.784   3.019   0.527  0.8211 -2.7442  1.6666
 3574TIP3   OH232280   2.820   4.722   7.425  0.8659  0.1327  0.2335
 3574TIP3    H132281   2.846   4.769   7.504  1.1473  0.2475  0.0720
 3574TIP3    H232282   2.737   4.679   7.449  1.2297 -0.2823  0.7710
 3575TIP3   OH232283   5.493   5.875   0.133  0.2548  0.3692 -0.2397
 3575TIP3    H132284   5.399   5.861   0.120  0.0455  0.2266  1.2561
 3575TIP3    H232285   5.534   5.798   0.095 -0.1930  0.6778 -1.3772
 3576TIP3   OH232286   1.449   4.284   1.068 -0.3040 -0.6514  0.2392
 3576TIP3    H132287   1.501   4.358   1.100 -1.4246 -0.7254  2.4853
 3576TIP3    H232288   1.478   4.210   1.121 -0.4202 -1.4267 -0.7633
 3577TIP3   OH232289   6.682   2.781   3.147  0.4374  0.3843 -0.0166
 3577TIP3    H132290   6.619   2.843   3.183  2.3384  0.9425  2.6398
 3577TIP3    H232291   6.639   2.695   3.158 -0.5156  0.8722  0.1847
 3578TIP3   OH232292   2.939   5.123   1.867 -0.6027  0.1738 -0.1547
 3578TIP3    H132293   2.978   5.126   1.955 -0.0585 -2.0993 -0.2400
 3578TIP3    H232294   2.846   5.111   1.883 -0.4350 -0.8223  0.1442
 3579TIP3   OH232295   1.746   2.330   7.585  0.0202  0.6504 -0.0274
 3579TIP3    H132296   1.834   2.323   7.622 -0.5448  1.6852  1.6216
 3579TIP3    H232297   1.707   2.243   7.598 -0.3559  1.1142  2.4621
 3580TIP3   OH232298   2.294   4.015   8.937 -0.0155 -0.1452  0.4207
 3580TIP3    H132299   2.371   3.987   8.888  0.2063  0.3152  0.5002
 3580TIP3    H232300   2.222   4.010   8.874  0.2336  0.2520  0.1051
 3581TIP3   OH232301   1.081   4.517   1.647 -0.3968  0.4697 -0.1408
 3581TIP3    H132302   1.057   4.595   1.698 -0.4820  0.8187 -0.7024
 3581TIP3    H232303   1.125   4.460   1.709 -2.8534 -0.2940  1.0055
 3582TIP3   OH232304   0.225   3.129   8.963  0.1567 -0.3989 -0.5771
 3582TIP3    H132305   0.166   3.179   9.020 -0.8899 -2.3492  0.1554
 3582TIP3    H232306   0.252   3.191   8.896 -2.5010  0.6949 -0.7490
 3583TIP3   OH232307   4.394   5.435   0.067 -0.0664 -0.0722  0.8680
 3583TIP3    H132308   4.467   5.466   0.013  1.0383 -1.2879  1.6082
 3583TIP3    H232309   4.366   5.512   0.116  0.1710  0.5971 -0.0315
 3584TIP3   OH232310   2.839   4.775   8.267 -0.7696 -0.2169 -0.0401
 3584TIP3    H132311   2.923   4.759   8.310 -0.2660 -0.6100 -1.1403
 3584TIP3    H232312   2.849   4.859   8.224 -0.8265 -0.4048 -0.4286
 3585TIP3   OH232313   1.977   4.238   8.069 -0.4413  0.1793 -0.1172
 3585TIP3    H132314   2.064   4.248   8.108 -0.7052  1.5031  0.1820
 3585TIP3    H232315   1.927   4.191   8.136  0.1109 -0.8911 -0.4268
 3586TIP3   OH232316   5.664   2.255   8.977  0.0910  0.5623 -0.2370
 3586TIP3    H132317   5.583   2.224   8.935  0.1398 -0.4960  0.4193
 3586TIP3    H232318   5.645   2.346   9.000 -1.4774 -0.0666  1.2155
 3587TIP3   OH232319   2.010   1.617   1.181 -0.2763  0.0820  0.3086
 3587TIP3    H132320   1.967   1.536   1.209  0.4016 -0.9864 -1.5854
 3587TIP3    H232321   1.938   1.678   1.165 -1.1128 -1.3295 -1.7547
 3588TIP3   OH232322   4.048   4.551   2.547 -0.9166  0.3974  0.5310
 3588TIP3    H132323   4.004   4.632   2.524 -0.0282  0.4602 -1.1478
 3588TIP3    H232324   4.098   4.572   2.626 -0.0462  1.7579 -0.3386
 3589TIP3   OH232325   5.847   0.752   2.468 -0.1156 -0.0522  0.1378
 3589TIP3    H132326   5.787   0.760   2.542  0.5870  1.3401  0.6088
 3589TIP3    H232327   5.908   0.683   2.495  0.0561  0.3496  0.8342
 3590TIP3   OH232328   0.363   4.912   1.762  0.1506 -0.2320  0.0047
 3590TIP3    H132329   0.282   4.865   1.783 -0.2120 -0.0902 -1.0415
 3590TIP3    H232330   0.336   4.979   1.699  0.9948  0.1782  0.0624
 3591TIP3   OH232331   0.244   6.432   0.844  0.7094 -0.1582 -0.3663
 3591TIP3    H132332   0.308   6.478   0.899  0.6459  1.1762 -1.3638
 3591TIP3    H232333   0.267   6.340   0.852  2.1181  0.2171  0.1040
 3592TIP3   OH232334   4.623   2.122   8.387  0.0933 -0.0997  0.7641
 3592TIP3    H132335   4.633   2.091   8.477  1.1870 -2.0321  0.0449
 3592TIP3    H232336   4.656   2.050   8.334 -0.2681  1.1124 -1.1861
 3593TIP3   OH232337   2.176   3.316   0.895 -0.1213 -0.5159  0.3721
 3593TIP3    H132338   2.109   3.383   0.883 -0.4211 -0.7182  0.8889
 3593TIP3    H232339   2.201   3.324   0.987  1.0647  0.0168  0.0281
 3594TIP3   OH232340   4.598   0.593   8.497  0.3818  0.3219 -0.4194
 3594TIP3    H132341   4.637   0.679   8.515 -0.4579  0.2916  1.8660
 3594TIP3    H232342   4.673   0.535   8.483  0.9980  1.1530 -0.6248
 3595TIP3   OH232343   1.880   2.452   2.252 -0.0468 -0.1889  0.7404
 3595TIP3    H132344   1.887   2.528   2.195  0.6696 -0.1752  0.8333
 3595TIP3    H232345   1.874   2.377   2.193 -2.2575  0.0159  0.6206
 3596TIP3   OH232346   3.869   3.931   0.184  0.4846 -0.1749 -0.2152
 3596TIP3    H132347   3.774   3.939   0.181  0.5594  1.2321  0.1609
 3596TIP3    H232348   3.887   3.843   0.154 -0.8587  0.0235 -1.7120
 3597TIP3   OH232349   2.527   2.706   8.785 -0.1344 -0.3618  0.1841
 3597TIP3    H132350   2.610   2.754   8.786 -1.0420  1.4183 -1.8837
 3597TIP3    H232351   2.461   2.773   8.771 -1.9879 -1.7371  1.8275
 3598TIP3   OH232352   0.264   1.308   8.693 -0.1985  0.2429 -0.3912
 3598TIP3    H132353   0.221   1.392   8.679 -0.8533  0.0884  0.5551
 3598TIP3    H232354   0.201   1.258   8.745  0.4266 -0.6173 -0.4424
 3599TIP3   OH232355   1.597   1.346   7.494  0.1938  0.4156 -0.3267
 3599TIP3    H132356   1.548   1.426   7.476 -0.3806  0.0047 -0.5960
 3599TIP3    H232357   1.641   1.364   7.578 -0.8005  0.6102  0.1741
 3600TIP3   OH232358   5.606   2.656   0.863  0.2773  0.3817  0.3633
 3600TIP3    H132359   5.555   2.638   0.942 -0.3159  1.4913  0.2666
 3600TIP3    H232360   5.685   2.603   0.872 -0.7289 -1.1264  0.6863
 3601TIP3   OH232361   3.595   2.831   8.140 -0.2529  0.6378 -0.4098
 3601TIP3    H132362   3.505   2.815   8.170  0.3287  0.1974  1.2041
 3601TIP3    H232363   3.599   2.790   8.053 -0.7533 -2.1431  0.7680
 3602TIP3   OH232364   4.907   4.347   2.515 -0.1754  0.9769  0.3462
 3602TIP3    H132365   4.920   4.275   2.577  0.9919  0.9057  0.0427
 3602TIP3    H232366   4.957   4.420   2.552 -2.0500  1.9564  1.1142
 3603TIP3   OH232367   0.994   5.113   1.047 -0.1530  0.1585  0.0541
 3603TIP3    H132368   1.034   5.199   1.039  1.7270 -0.8130 -1.9325
 3603TIP3    H232369   0.951   5.098   0.963  0.7151 -1.3491 -0.1657
 3604TIP3   OH232370   5.081   0.533   1.187  0.1316 -0.0628 -0.4923
 3604TIP3    H132371   5.152   0.471   1.203 -0.1526 -0.2521  0.0879
 3604TIP3    H232372   5.014   0.481   1.142  0.2617  0.0525 -0.8175
 3605TIP3   OH232373   5.283   6.408   7.592  0.1744 -0.2138 -0.0999
 3605TIP3    H132374   5.298   6.492   7.635  0.5454 -0.6480  0.6368
 3605TIP3    H232375   5.331   6.414   7.509  2.3147 -0.5834  1.0244
 3606TIP3   OH232376   5.800   3.396   7.753 -0.0714 -0.3583  0.0800
 3606TIP3    H132377   5.850   3.340   7.813 -0.8893 -0.5438  0.6117
 3606TIP3    H232378   5.730   3.340   7.721  0.2214 -0.1833 -0.8793
 3607TIP3   OH232379   0.193   6.310   8.591 -0.2204  0.3590  0.4243
 3607TIP3    H132380   0.140   6.332   8.668 -1.3623  1.0523 -0.5329
 3607TIP3    H232381   0.219   6.394   8.554  0.6375  0.0271  0.2319
 3608TIP3   OH232382   2.142   4.603   7.685 -0.2890 -0.0866 -0.2920
 3608TIP3    H132383   2.189   4.546   7.746  1.0938  0.3814 -0.8633
 3608TIP3    H232384   2.198   4.606   7.608 -1.9431 -0.5647 -1.5555
 3609TIP3   OH232385   3.037   2.134   1.919  0.0629 -0.5060 -0.3644
 3609TIP3    H132386   2.991   2.217   1.935 -0.3106 -0.6475 -0.6759
 3609TIP3    H232387   3.106   2.157   1.857 -0.6995 -0.6153 -1.2765
 3610TIP3   OH232388   5.197   2.314   1.187 -0.4369 -0.2944 -0.1584
 3610TIP3    H132389   5.235   2.269   1.263  0.8390 -0.5794 -0.9291
 3610TIP3    H232390   5.166   2.243   1.131  2.5549 -0.4115 -1.8894
 3611TIP3   OH232391   3.120   0.444   2.532 -0.1222  0.2662 -0.0646
 3611TIP3    H132392   3.123   0.378   2.601 -0.8082  1.1763  0.8764
 3611TIP3    H232393   3.211   0.473   2.521 -0.1019  0.6361  0.9960
 3612TIP3   OH232394   2.700   0.752   1.959 -0.6471 -0.4159  0.2351
 3612TIP3    H132395   2.665   0.830   1.916 -0.2968 -1.0644 -1.3170
 3612TIP3    H232396   2.640   0.682   1.935  1.2784 -1.4437 -2.0390
 3613TIP3   OH232397   2.259   0.016   2.522  0.6494 -0.0640 -0.2441
 3613TIP3    H132398   2.332   0.050   2.573  0.0235  1.2407 -0.1818
 3613TIP3    H232399   2.243   0.083   2.455 -1.1876  0.2156  0.4359
 3614TIP3   OH232400   6.020   4.331   0.120  0.0108 -0.2645 -0.7145
 3614TIP3    H132401   5.994   4.423   0.114 -1.7033 -0.7450 -1.2912
 3614TIP3    H232402   6.114   4.332   0.102 -0.2120  1.2259 -2.0272
 3615TIP3   OH232403   6.158   0.342   2.708  0.1908  0.4621  0.4456
 3615TIP3    H132404   6.144   0.287   2.630 -1.9630  0.3765  0.8397
 3615TIP3    H232405   6.212   0.288   2.766  3.0936  1.0691 -1.4896
 3616TIP3   OH232406   5.500   2.016   2.130  0.1307 -0.5722  0.1614
 3616TIP3    H132407   5.505   2.103   2.169  0.7842 -0.0277 -1.0912
 3616TIP3    H232408   5.445   2.028   2.052  0.1028 -1.3190  0.0563
 3617TIP3   OH232409   5.535   4.448   2.255  0.3997 -0.5884 -0.1210
 3617TIP3    H132410   5.541   4.541   2.232  0.5622 -0.5738 -0.0200
 3617TIP3    H232411   5.453   4.419   2.214  0.2181 -0.3426  0.0621
 3618TIP3   OH232412   6.533   1.466   2.611 -0.2760  0.8389  0.4211
 3618TIP3    H132413   6.617   1.510   2.618  0.7568 -0.9571  0.0397
 3618TIP3    H232414   6.509   1.444   2.701 -0.0336  0.8165  0.4785
 3619TIP3   OH232415   4.460   0.116   2.295  0.0390  0.2233  0.0128
 3619TIP3    H132416   4.395   0.148   2.233  0.1368 -0.0785 -0.2444
 3619TIP3    H232417   4.537   0.096   2.242  0.4841  0.9572  0.3677
 3620TIP3   OH232418   1.987   1.027   8.676 -0.0436  0.3469 -0.4557
 3620TIP3    H132419   2.070   0.991   8.645 -0.8593 -1.0432 -1.1272
 3620TIP3    H232420   1.997   1.034   8.771  1.1398  1.0666 -0.6102
 3621TIP3   OH232421   5.127   1.097   0.981  0.0258 -0.7415  0.0349
 3621TIP3    H132422   5.070   1.041   1.033 -1.3489  0.1128 -0.5102
 3621TIP3    H232423   5.187   1.135   1.045 -2.2802  1.0955  1.2360
 3622TIP3   OH232424   0.927   0.891   0.676 -0.8383  0.0371 -0.3383
 3622TIP3    H132425   0.833   0.892   0.694 -0.8348 -1.1766 -0.1908
 3622TIP3    H232426   0.937   0.828   0.605  0.0013 -0.8212  0.5192
 3623TIP3   OH232427   5.922   6.194   7.708 -0.3530 -0.0990  0.1891
 3623TIP3    H132428   5.998   6.181   7.652 -0.6260  0.8259 -0.4253
 3623TIP3    H232429   5.859   6.241   7.653 -0.3416  1.5190  1.4657
 3624TIP3   OH232430   1.577   6.714   1.911 -0.0357 -1.4177 -0.2372
 3624TIP3    H132431   1.623   6.662   1.845  1.2129  0.7119 -1.1178
 3624TIP3    H232432   1.646   6.745   1.969 -0.7315 -0.6169  0.1843
 3625TIP3   OH232433   5.359   5.863   6.798 -0.2489  0.4338  0.0118
 3625TIP3    H132434   5.398   5.847   6.712 -0.8762 -1.1159 -0.0161
 3625TIP3    H232435   5.378   5.955   6.816  2.7178 -0.0298 -0.3266
 3626TIP3   OH232436   4.777   4.539   7.753 -0.1487 -0.1014 -0.8178
 3626TIP3    H132437   4.682   4.537   7.764  0.0007 -2.8931  1.3143
 3626TIP3    H232438   4.791   4.555   7.660 -2.8238 -2.1255 -1.6856
 3627TIP3   OH232439   0.721   4.680   8.547 -0.6353 -0.3211  0.1566
 3627TIP3    H132440   0.717   4.688   8.642  0.9683 -0.1077  0.2277
 3627TIP3    H232441   0.647   4.623   8.524 -3.1206  2.2375  1.1763
 3628TIP3   OH232442   3.322   0.249   0.629  0.5992  0.2667  0.4867
 3628TIP3    H132443   3.267   0.202   0.691  0.9014  0.8488  1.2105
 3628TIP3    H232444   3.410   0.215   0.644  0.4037 -1.0630 -1.0449
 3629TIP3   OH232445   4.504   2.686   7.958  0.0370  0.3440 -0.1377
 3629TIP3    H132446   4.591   2.692   7.998 -1.0780 -0.1955  2.6643
 3629TIP3    H232447   4.508   2.610   7.901  0.7130 -1.4625  2.1497
 3630TIP3   OH232448   3.246   6.096   1.366  0.2597  0.4917 -0.7711
 3630TIP3    H132449   3.174   6.037   1.345  1.5205 -1.6040  0.4269
 3630TIP3    H232450   3.255   6.090   1.461  1.7398  1.0551 -0.8457
 3631TIP3   OH232451   1.751   2.666   2.661  0.1109  0.1211  0.1147
 3631TIP3    H132452   1.704   2.661   2.578  0.0918 -0.2749  0.1473
 3631TIP3    H232453   1.692   2.626   2.725  0.1236  0.4277  0.3231
 3632TIP3   OH232454   1.990   5.723   8.002 -0.5636 -0.2035  0.0947
 3632TIP3    H132455   1.908   5.677   8.019 -0.2769 -0.4867  0.7432
 3632TIP3    H232456   1.966   5.816   8.001 -0.9812 -0.3131 -0.2570
 3633TIP3   OH232457   6.734   0.909   0.715 -0.2350  0.0217 -0.6284
 3633TIP3    H132458   6.708   0.996   0.685 -0.7104  0.3494  0.7043
 3633TIP3    H232459   6.796   0.926   0.786 -0.9400 -0.7093  0.1796
 3634TIP3   OH232460   4.242   2.753   0.381 -0.8304  0.2879  0.8761
 3634TIP3    H132461   4.262   2.847   0.386 -0.5077  0.2360  0.5869
 3634TIP3    H232462   4.149   2.747   0.403 -1.1859  0.8193 -0.3902
 3635TIP3   OH232463   3.009   3.068   7.777  0.1898  0.2292  0.4279
 3635TIP3    H132464   3.077   3.123   7.817  0.1907  1.0162 -0.5967
 3635TIP3    H232465   2.968   3.125   7.711 -0.0884 -0.8669 -0.3766
 3636TIP3   OH232466   4.681   3.665   8.697 -0.1960  0.4291 -0.5235
 3636TIP3    H132467   4.727   3.613   8.763 -1.8368  0.5961  0.8064
 3636TIP3    H232468   4.605   3.701   8.743 -1.0614  1.0672 -2.3553
 3637TIP3   OH232469   6.631   3.400   7.858  0.0075  0.0368 -0.7065
 3637TIP3    H132470   6.556   3.407   7.917  0.4457  1.6075 -0.2866
 3637TIP3    H232471   6.592   3.390   7.771 -0.6464 -2.9109 -0.1921
 3638TIP3   OH232472   5.575   3.150   3.193 -0.0062  0.2085  0.1531
 3638TIP3    H132473   5.649   3.177   3.139 -0.0733  0.2889  0.1005
 3638TIP3    H232474   5.555   3.227   3.246  1.3033 -0.4623  1.7101
 3639TIP3   OH232475   5.314   0.080   8.188  0.2780  0.6757  0.0876
 3639TIP3    H132476   5.301  -0.014   8.178  0.3978  0.6771 -0.0709
 3639TIP3    H232477   5.398   0.089   8.233  0.8315  0.7437 -0.9359
 3640TIP3   OH232478   6.315   0.619   1.018  0.0021 -0.6354 -0.0967
 3640TIP3    H132479   6.251   0.683   1.050  0.6554 -0.3074  0.6021
 3640TIP3    H232480   6.336   0.566   1.095  0.1566 -1.0995 -0.4540
 3641TIP3   OH232481   0.092   0.171   8.521  0.3276 -0.9284  0.4445
 3641TIP3    H132482   0.186   0.171   8.540  0.6029 -0.0664 -0.7789
 3641TIP3    H232483   0.060   0.253   8.559  0.5532 -0.0524 -1.1729
 3642TIP3   OH232484   4.387   2.360   3.401 -0.0838  0.0163  0.5598
 3642TIP3    H132485   4.464   2.412   3.380  0.1422 -0.4383  0.2410
 3642TIP3    H232486   4.339   2.353   3.318 -0.5176  0.3751  0.7758
 3643TIP3   OH232487   5.943   2.763   1.405  0.2873 -0.0978 -0.3013
 3643TIP3    H132488   6.007   2.733   1.469  1.2123  0.5874 -0.8945
 3643TIP3    H232489   5.906   2.842   1.444 -1.4593 -1.3822  0.8174
 3644TIP3   OH232490   2.381   1.682   7.757 -0.3796 -0.0801 -0.5419
 3644TIP3    H132491   2.401   1.713   7.669 -1.0731  3.2041  0.3415
 3644TIP3    H232492   2.419   1.748   7.815 -3.4340  0.0682  1.4753
 3645TIP3   OH232493   1.701   2.189   0.756 -0.6990  0.2417 -0.1004
 3645TIP3    H132494   1.729   2.120   0.695 -1.3307 -2.0746  2.0424
 3645TIP3    H232495   1.606   2.188   0.751 -0.9274 -1.5851  2.3437
 3646TIP3   OH232496   4.617   6.622   1.432 -0.3699 -0.3402  0.1206
 3646TIP3    H132497   4.549   6.688   1.425  0.0398 -0.0288 -1.1497
 3646TIP3    H232498   4.605   6.584   1.519 -1.7119  0.1905  0.1837
 3647TIP3   OH232499   0.748   2.717   1.465  0.0749 -0.1993 -0.2824
 3647TIP3    H132500   0.736   2.661   1.388 -0.9526  0.6441 -0.7563
 3647TIP3    H232501   0.819   2.675   1.514 -0.1773 -1.5017 -0.9897
 3648TIP3   OH232502   4.385   1.939   1.527 -0.1278  0.0742 -0.0508
 3648TIP3    H132503   4.377   1.914   1.619  2.0734 -0.4527  0.0512
 3648TIP3    H232504   4.422   2.028   1.530 -0.1599  0.1024 -0.4214
 3649TIP3   OH232505   4.837   5.585   0.376  0.2186  0.0422  0.1133
 3649TIP3    H132506   4.787   5.505   0.388  0.0762  0.0834 -0.1914
 3649TIP3    H232507   4.908   5.580   0.440  1.4828 -1.3355 -1.2993
 3650TIP3   OH232508   1.809   2.895   2.368 -0.0493  0.6446  0.1095
 3650TIP3    H132509   1.888   2.876   2.318 -0.9544  1.6766 -1.8433
 3650TIP3    H232510   1.770   2.809   2.385  1.5100  0.1111  1.2524
 3651TIP3   OH232511   4.307   3.217   1.261 -1.0525 -0.6090 -0.1724
 3651TIP3    H132512   4.222   3.228   1.219 -1.6220  0.5657  1.1766
 3651TIP3    H232513   4.371   3.239   1.194 -1.9141  0.8664 -0.5499
 3652TIP3   OH232514   0.858   2.555   2.957 -0.5118 -0.6963  0.0568
 3652TIP3    H132515   0.855   2.626   3.021 -0.0652 -0.2046 -0.4600
 3652TIP3    H232516   0.827   2.478   3.005  0.0733 -0.3927  0.9309
 3653TIP3   OH232517   3.182   3.499   0.390  0.4228 -0.2724  0.3363
 3653TIP3    H132518   3.154   3.534   0.475 -0.0308 -0.4469  0.2617
 3653TIP3    H232519   3.246   3.430   0.412 -0.9472 -1.5034  0.6299
 3654TIP3   OH232520   0.481   6.666   2.107  0.7368 -0.5172  0.0960
 3654TIP3    H132521   0.478   6.699   2.017  2.4170 -1.0533 -0.1835
 3654TIP3    H232522   0.391   6.640   2.126  0.4524 -0.8673 -1.6086
 3655TIP3   OH232523   3.889   5.494   6.806  0.0953  0.0064 -0.3255
 3655TIP3    H132524   3.947   5.429   6.765 -0.4261 -1.0781  0.6056
 3655TIP3    H232525   3.942   5.534   6.875 -0.0404 -0.5188  0.0919
 3656TIP3   OH232526   2.217   0.616   7.444  0.6419  0.1988  0.1006
 3656TIP3    H132527   2.179   0.668   7.514 -0.4861 -0.0766 -0.2840
 3656TIP3    H232528   2.221   0.675   7.369  2.7495  0.7889  0.6087
 3657TIP3   OH232529   1.369   4.563   1.749 -0.1032 -0.1457  0.5114
 3657TIP3    H132530   1.350   4.655   1.768 -1.3315 -0.1912 -0.3838
 3657TIP3    H232531   1.375   4.559   1.654  0.3669 -0.9266  0.5665
 3658TIP3   OH232532   5.197   5.543   7.111 -0.1572 -0.2704  0.2023
 3658TIP3    H132533   5.190   5.478   7.042 -3.8495  2.3764 -2.3078
 3658TIP3    H232534   5.203   5.627   7.064 -1.2902  1.5689  3.0683
 3659TIP3   OH232535   3.335   6.235   7.928 -0.0275  0.2442  0.5450
 3659TIP3    H132536   3.355   6.328   7.921 -1.1483  0.3669 -2.2836
 3659TIP3    H232537   3.396   6.192   7.867  0.1350 -0.8431  1.4268
 3660TIP3   OH232538   3.102   6.583   1.792  0.1687  0.0767  0.0133
 3660TIP3    H132539   3.183   6.558   1.749 -0.2224  1.3107 -1.5029
 3660TIP3    H232540   3.120   6.571   1.886  2.2518  0.8146 -0.2522
 3661TIP3   OH232541   6.387   1.367   8.334 -0.1874 -0.3485 -0.4160
 3661TIP3    H132542   6.401   1.272   8.335 -0.2919 -0.3827 -1.2207
 3661TIP3    H232543   6.440   1.398   8.260 -2.2377 -0.1377 -1.8711
 3662TIP3   OH232544   5.395   6.368   2.452  0.7589  0.0445  0.2561
 3662TIP3    H132545   5.462   6.425   2.415  2.4449 -1.5806  0.6407
 3662TIP3    H232546   5.325   6.367   2.387  1.1544  1.6927 -0.2254
 3663TIP3   OH232547   0.574   6.511   8.337  0.1962 -0.1386  0.2735
 3663TIP3    H132548   0.652   6.537   8.286  0.2751 -1.4455 -0.2937
 3663TIP3    H232549   0.606   6.445   8.397 -0.8867 -2.6134 -1.6828
 3664TIP3   OH232550   5.195   0.439   0.203  0.2114 -0.0307  0.6448
 3664TIP3    H132551   5.280   0.407   0.175  0.1933 -0.4742  1.0981
 3664TIP3    H232552   5.181   0.401   0.290  0.0711  0.9745  1.0791
 3665TIP3   OH232553   1.206   1.231   1.354  0.1223 -0.4152 -0.1169
 3665TIP3    H132554   1.188   1.145   1.392 -0.5442 -0.5519 -0.7219
 3665TIP3    H232555   1.248   1.213   1.270  2.7823 -0.0953  1.0554
 3666TIP3   OH232556   5.063   0.702   7.779 -0.1462  0.4005  0.0181
 3666TIP3    H132557   5.054   0.632   7.714  0.1182  1.0292 -0.7228
 3666TIP3    H232558   4.973   0.726   7.802 -0.2596 -1.1668  1.4109
 3667TIP3   OH232559   0.526   2.181   2.907 -0.3609 -0.2174  0.0178
 3667TIP3    H132560   0.524   2.098   2.955  0.0461  0.7205  1.7570
 3667TIP3    H232561   0.434   2.205   2.896 -0.7056 -2.4838 -3.5754
 3668TIP3   OH232562   2.893   5.999   1.648  0.2114  0.1965  0.3053
 3668TIP3    H132563   2.862   6.070   1.591 -0.1303  0.3565  0.6911
 3668TIP3    H232564   2.867   6.025   1.736  0.8350 -0.0011  0.5587
 3669TIP3   OH232565   2.943   2.995   0.070  0.6113 -0.5100  0.8900
 3669TIP3    H132566   2.983   3.021  -0.013 -0.2053 -2.3894 -0.1665
 3669TIP3    H232567   3.014   3.001   0.133  1.5996 -0.2504 -0.1994
 3670TIP3   OH232568   1.842   4.980   7.813 -0.5344 -0.0415 -0.1282
 3670TIP3    H132569   1.921   4.927   7.813  0.6487  1.4975 -3.3884
 3670TIP3    H232570   1.774   4.922   7.779 -0.3480 -0.7423  0.6575
 3671TIP3   OH232571   3.306   1.768   2.957 -0.3367 -0.1410 -0.0020
 3671TIP3    H132572   3.302   1.728   3.044  1.9451 -1.8367 -0.5573
 3671TIP3    H232573   3.392   1.743   2.923 -0.6785  1.4470 -2.3039
 3672TIP3   OH232574   5.627   3.322   8.130 -0.3774 -0.1592 -0.3113
 3672TIP3    H132575   5.590   3.391   8.074  1.1481 -0.4146 -1.7055
 3672TIP3    H232576   5.648   3.251   8.070 -0.9438 -1.4558  0.9597
 3673TIP3   OH232577   1.459   2.656   2.230  0.0041 -0.2886  0.4522
 3673TIP3    H132578   1.368   2.627   2.224  0.2481 -1.6482  2.4557
 3673TIP3    H232579   1.507   2.596   2.173 -0.1331 -0.7058  0.7736
 3674TIP3   OH232580   0.765   5.382   8.433 -0.3615  0.2709  0.1059
 3674TIP3    H132581   0.811   5.379   8.517 -0.8916 -2.5912  0.4000
 3674TIP3    H232582   0.793   5.303   8.387 -2.1412  0.3692 -1.2641
 3675TIP3   OH232583   5.838   3.965   0.425 -0.1271  0.3933  0.0640
 3675TIP3    H132584   5.791   3.882   0.418  1.5460 -0.5862  0.1045
 3675TIP3    H232585   5.869   3.982   0.336 -2.0976  2.0307 -0.3968
 3676TIP3   OH232586   3.538   1.275   1.215 -0.4977  0.1683 -0.2909
 3676TIP3    H132587   3.484   1.198   1.235 -0.0895  0.3808  1.9212
 3676TIP3    H232588   3.476   1.348   1.211 -0.7569 -0.0948 -1.2975
 3677TIP3   OH232589   5.138   0.297   1.546 -0.0740  0.0054 -1.3101
 3677TIP3    H132590   5.177   0.271   1.462 -1.8391  1.3090 -2.6023
 3677TIP3    H232591   5.178   0.383   1.565  1.5275 -0.9722  0.0808
 3678TIP3   OH232592   2.293   2.734   3.029  0.0486  0.0748  0.6448
 3678TIP3    H132593   2.359   2.733   3.099  0.2069  2.0059  0.5744
 3678TIP3    H232594   2.223   2.790   3.063  0.4828  1.7023 -1.0064
 3679TIP3   OH232595   5.110   5.348   1.256 -0.0830 -0.3667  0.4621
 3679TIP3    H132596   5.100   5.255   1.235  2.1478 -0.6591  0.3998
 3679TIP3    H232597   5.125   5.391   1.172  1.8680 -0.4684  0.6931
 3680TIP3   OH232598   6.505   1.382   0.153  0.0723 -0.2993 -0.4713
 3680TIP3    H132599   6.501   1.456   0.092 -0.8609 -0.0095 -0.0819
 3680TIP3    H232600   6.546   1.418   0.232 -0.5981 -0.1118 -0.1943
 3681TIP3   OH232601   1.209   3.752   1.693 -0.2077 -0.4560 -0.2240
 3681TIP3    H132602   1.237   3.787   1.609 -1.3587  0.3900 -0.2780
 3681TIP3    H232603   1.263   3.798   1.758 -0.6851  0.3480 -0.3855
 3682TIP3   OH232604   1.366   6.428   1.075 -0.4385 -0.2573  0.3870
 3682TIP3    H132605   1.412   6.485   1.137 -0.6649  0.6497 -0.2620
 3682TIP3    H232606   1.390   6.340   1.102 -0.2914  0.1294  1.5801
 3683TIP3   OH232607   5.547   0.992   8.437  0.3234  0.1964 -0.0692
 3683TIP3    H132608   5.617   0.930   8.419 -1.4262 -1.2987 -2.3697
 3683TIP3    H232609   5.574   1.073   8.392  1.1296  0.0492  0.1436
 3684TIP3   OH232610   1.595   1.102   7.843 -0.3392 -0.3080 -0.1411
 3684TIP3    H132611   1.660   1.166   7.871 -0.2847 -0.1666 -0.5925
 3684TIP3    H232612   1.628   1.068   7.760 -0.0127 -1.4193  0.4109
 3685TIP3   OH232613   0.412   5.734   2.687 -0.2187 -0.8170  0.4755
 3685TIP3    H132614   0.495   5.709   2.728  0.0505 -1.5268 -0.4946
 3685TIP3    H232615   0.358   5.764   2.761  0.7833 -0.6271  1.1554
 3686TIP3   OH232616   5.252   0.275   0.817  0.5098 -0.2132  0.2462
 3686TIP3    H132617   5.160   0.253   0.829  0.3620  0.7161  0.9405
 3686TIP3    H232618   5.251   0.363   0.779  1.1085  0.2847  1.3348
 3687TIP3   OH232619   2.777   2.164   2.066 -0.2084 -0.3404  0.3527
 3687TIP3    H132620   2.707   2.112   2.026  0.6380 -0.7762 -0.6023
 3687TIP3    H232621   2.856   2.112   2.053  0.4133  0.4742  0.7868
 3688TIP3   OH232622   2.202   1.051   0.194  0.2799 -0.0253 -0.2611
 3688TIP3    H132623   2.278   1.005   0.161  0.3477  0.9333 -1.4985
 3688TIP3    H232624   2.239   1.123   0.246  0.1756 -1.0702  1.3426
 3689TIP3   OH232625   0.749   6.708   1.697 -0.5599  0.1760  0.3772
 3689TIP3    H132626   0.770   6.801   1.706 -1.7173  0.5473 -0.5689
 3689TIP3    H232627   0.829   6.663   1.724  0.8627  1.4770 -1.4175
 3690TIP3   OH232628   4.495   1.717   3.458  0.3331  0.2315  0.0779
 3690TIP3    H132629   4.524   1.656   3.526  0.2438 -0.5098 -0.5251
 3690TIP3    H232630   4.423   1.765   3.498  0.7566  0.3168  0.7448
 3691TIP3   OH232631   0.852   0.216   0.473 -0.2656 -0.1916 -0.2433
 3691TIP3    H132632   0.876   0.232   0.565 -1.6103 -0.0258  0.0949
 3691TIP3    H232633   0.759   0.234   0.469  0.1056  1.6034 -2.0713
 3692TIP3   OH232634   1.603   1.628   0.926  0.3266 -0.6443  0.2532
 3692TIP3    H132635   1.658   1.670   0.992 -0.6203  2.4746 -0.7547
 3692TIP3    H232636   1.513   1.651   0.952 -0.4214 -3.3462  0.3787
 3693TIP3   OH232637   0.526   0.583   8.411 -0.7313  0.2239 -0.2588
 3693TIP3    H132638   0.527   0.503   8.358 -0.4982  0.6729 -0.9459
 3693TIP3    H232639   0.514   0.654   8.348 -1.5994  0.6928  0.4071
 3694TIP3   OH232640   6.577   2.180   8.115 -0.1667 -0.3663 -0.0605
 3694TIP3    H132641   6.517   2.110   8.088 -0.2500 -0.6747  0.8731
 3694TIP3    H232642   6.534   2.261   8.089  0.1350 -0.6545 -1.5652
 3695TIP3   OH232643   1.748   4.985   8.969 -0.3335  0.4478 -0.2060
 3695TIP3    H132644   1.772   4.996   8.877  0.5033  0.6250  0.0189
 3695TIP3    H232645   1.659   5.017   8.975 -0.6908 -0.3144 -1.1156
 3696TIP3   OH232646   1.912   1.640   0.304 -0.3961  0.3879  0.1659
 3696TIP3    H132647   1.885   1.597   0.223 -0.9363  1.8958 -0.4790
 3696TIP3    H232648   2.008   1.641   0.300 -0.4174  0.3223 -0.3709
 3697TIP3   OH232649   1.073   2.547   1.795  0.4135 -0.6885 -0.2415
 3697TIP3    H132650   1.131   2.614   1.831  0.1452 -0.6178  0.0695
 3697TIP3    H232651   1.035   2.504   1.872 -0.2199 -0.4847 -0.4317
 3698TIP3   OH232652   2.430   6.127   2.701  0.2301  0.5509  0.1358
 3698TIP3    H132653   2.466   6.191   2.640 -0.8812 -0.5145 -1.7138
 3698TIP3    H232654   2.362   6.175   2.749  0.0480  1.0122 -0.5688
 3699TIP3   OH232655   0.188   4.484   8.814 -0.0701  0.2559 -0.3496
 3699TIP3    H132656   0.177   4.425   8.740 -0.7597 -1.5836  1.1388
 3699TIP3    H232657   0.265   4.536   8.792  0.6053 -1.2294 -1.7050
 3700TIP3   OH232658   5.986   0.229   1.572  0.0802  0.0957 -0.2660
 3700TIP3    H132659   5.992   0.144   1.529 -0.7773  0.6299 -1.4987
 3700TIP3    H232660   6.038   0.220   1.652 -0.1606 -1.6327 -0.2848
 3701TIP3   OH232661   4.452   4.625   1.502 -0.0377  0.0066 -0.2636
 3701TIP3    H132662   4.479   4.539   1.535  0.1030 -0.9485 -2.7059
 3701TIP3    H232663   4.509   4.641   1.427  1.1771  3.1011  1.1464
 3702TIP3   OH232664   6.739   2.315   8.494  0.3184  0.1682 -0.3395
 3702TIP3    H132665   6.658   2.348   8.456  0.4837  0.9649 -0.0171
 3702TIP3    H232666   6.752   2.367   8.573  0.8741 -0.3035 -0.1114
 3703TIP3   OH232667   6.367   3.955   1.914  0.0081 -0.9017  0.2179
 3703TIP3    H132668   6.409   3.966   1.828 -0.8269 -0.7659 -0.1844
 3703TIP3    H232669   6.278   3.924   1.893 -0.5681  0.1760  0.9795
 3704TIP3   OH232670   5.644   3.945   2.635 -0.5061  0.0609  0.3833
 3704TIP3    H132671   5.716   4.001   2.662 -0.1150 -0.2398 -0.0125
 3704TIP3    H232672   5.676   3.856   2.651 -0.7932 -0.0727  0.2226
 3705TIP3   OH232673   2.604   3.079   2.688  0.2372  0.4083 -0.0056
 3705TIP3    H132674   2.596   3.002   2.744  2.0633  0.0719 -0.1403
 3705TIP3    H232675   2.671   3.133   2.731 -0.3609  1.4905 -0.3979
 3706TIP3   OH232676   3.548   2.286   2.670 -0.2583  0.2840  0.2397
 3706TIP3    H132677   3.543   2.380   2.654 -0.4532  0.3876  0.8633
 3706TIP3    H232678   3.494   2.272   2.748 -0.1253 -0.3240  0.2311
 3707TIP3   OH232679   0.027   2.162   1.930  0.2233  0.4836  0.5486
 3707TIP3    H132680   0.004   2.236   1.874  1.5786  0.3885 -0.1910
 3707TIP3    H232681   0.066   2.202   2.008 -2.6719  0.6697  2.0465
 3708TIP3   OH232682   5.459   2.807   1.812 -0.5842 -0.1407  0.2568
 3708TIP3    H132683   5.366   2.823   1.799 -0.2010  1.9921 -0.2856
 3708TIP3    H232684   5.465   2.764   1.897 -2.0723 -0.8264  0.0534
 3709TIP3   OH232685   1.979   1.905   0.921  0.0499 -0.0765 -0.0934
 3709TIP3    H132686   2.030   1.831   0.954  0.5719 -0.0378 -0.8054
 3709TIP3    H232687   1.889   1.871   0.918  0.4350 -1.0976 -1.4993
 3710TIP3   OH232688   2.350   0.397   7.583  0.0258 -0.1406 -0.0288
 3710TIP3    H132689   2.270   0.379   7.631  0.2510  1.1291  0.8858
 3710TIP3    H232690   2.333   0.480   7.539  0.8132  0.1200  0.1436
 3711TIP3   OH232691   6.699   4.171   0.024  0.6409  0.9264  0.0455
 3711TIP3    H132692   6.743   4.218   0.096  0.1345  1.4826  0.0006
 3711TIP3    H232693   6.615   4.215   0.015 -0.4528 -0.8897  0.9353
 3712TIP3   OH232694   4.831   0.411   0.557 -0.7459  0.2156 -0.0781
 3712TIP3    H132695   4.786   0.344   0.505 -0.0264  0.0608 -0.5279
 3712TIP3    H232696   4.781   0.416   0.638 -1.8348  0.3841 -0.7393
 3713TIP3   OH232697   4.845   1.745   8.878 -0.5710 -0.9089  0.2627
 3713TIP3    H132698   4.902   1.802   8.930 -1.0061 -0.7550  0.5795
 3713TIP3    H232699   4.853   1.779   8.789 -0.8576 -0.3197  0.4566
 3714TIP3   OH232700   3.493   4.497   8.297 -0.1337 -0.7432 -0.2408
 3714TIP3    H132701   3.448   4.536   8.222  0.9638  0.7249 -0.1678
 3714TIP3    H232702   3.535   4.418   8.262 -3.1623 -2.5640 -0.1912
 3715TIP3   OH232703   3.043   5.961   0.172  0.4434 -0.0618 -0.1740
 3715TIP3    H132704   3.062   5.922   0.258  0.3464  0.7827  0.2440
 3715TIP3    H232705   2.963   5.918   0.144  0.7132 -0.6655 -0.0494
 3716TIP3   OH232706   6.419   0.890   1.500  0.1475  0.2562  1.0804
 3716TIP3    H132707   6.395   0.798   1.494 -0.6370  0.5361 -0.6266
 3716TIP3    H232708   6.466   0.897   1.583  1.1740 -1.8707  0.7358
 3717TIP3   OH232709   1.436   6.155   8.868  0.1267  0.3578  0.5313
 3717TIP3    H132710   1.491   6.138   8.944 -0.7006  1.1579  1.3227
 3717TIP3    H232711   1.357   6.102   8.882 -0.3402  1.0616  0.5892
 3718TIP3   OH232712   2.272   2.005   0.316  0.2766  0.3695  0.5239
 3718TIP3    H132713   2.250   1.951   0.393 -0.2923  1.0395  0.8453
 3718TIP3    H232714   2.269   2.095   0.349  2.5947  0.5638  0.3404
 3719TIP3   OH232715   1.396   3.301   0.860  0.2504  0.4826  0.1233
 3719TIP3    H132716   1.325   3.345   0.906  0.6615  1.6494 -0.3095
 3719TIP3    H232717   1.353   3.234   0.807 -0.4950  0.8904  0.1989
 3720TIP3   OH232718   2.194   1.261   0.617 -0.3225 -0.9022 -0.0742
 3720TIP3    H132719   2.118   1.203   0.609 -0.3455 -0.9877  0.6954
 3720TIP3    H232720   2.239   1.231   0.696 -0.5264  0.3321  0.5474
 3721TIP3   OH232721   4.776   0.761   2.290  0.1690 -0.1096  0.6378
 3721TIP3    H132722   4.800   0.843   2.248 -2.6403  0.7647  0.4821
 3721TIP3    H232723   4.779   0.780   2.384 -3.5886  1.3973  0.6347
 3722TIP3   OH232724   0.797   1.186   1.461 -0.6046 -0.0985  0.5918
 3722TIP3    H132725   0.860   1.257   1.466 -1.0459  0.4652 -1.1822
 3722TIP3    H232726   0.792   1.164   1.367 -0.7286 -2.2394  1.0316
 3723TIP3   OH232727   3.789   0.985   2.095  0.0789  0.0950 -0.3958
 3723TIP3    H132728   3.829   1.072   2.100  0.9280 -0.2299 -1.4033
 3723TIP3    H232729   3.843   0.936   2.033 -1.8006 -0.3902 -1.7480
 3724TIP3   OH232730   2.607   5.107   2.738 -0.4004 -0.2406 -1.0223
 3724TIP3    H132731   2.574   5.037   2.682  0.2842 -0.4092 -1.2254
 3724TIP3    H232732   2.566   5.092   2.823 -1.2422 -0.1394 -1.4015
 3725TIP3   OH232733   3.587   5.139   0.931  0.0484 -0.2683 -0.2398
 3725TIP3    H132734   3.633   5.174   0.856 -1.1173  1.3200 -0.2644
 3725TIP3    H232735   3.545   5.059   0.898  1.8528 -1.1646 -0.4747
 3726TIP3   OH232736   3.543   0.273   8.042 -0.0634  0.4124 -0.3566
 3726TIP3    H132737   3.518   0.270   7.950  0.5515 -0.2623 -0.5157
 3726TIP3    H232738   3.636   0.249   8.042 -0.2539 -0.3782  0.5132
 3727TIP3   OH232739   4.637   4.487   2.549 -0.4647  0.1573 -0.7788
 3727TIP3    H132740   4.674   4.520   2.468  1.4834 -0.5571 -0.2275
 3727TIP3    H232741   4.691   4.411   2.571 -0.5573  0.6793  1.4915
 3728TIP3   OH232742   4.681   4.089   0.288 -0.2423 -0.3159 -0.0283
 3728TIP3    H132743   4.664   4.117   0.198  1.6010  1.6758  0.1365
 3728TIP3    H232744   4.748   4.150   0.319 -0.8645 -0.8992  2.7293
 3729TIP3   OH232745   3.480   4.626   0.522 -0.1330  0.3507  0.1860
 3729TIP3    H132746   3.468   4.691   0.453 -1.0524  1.1205  1.0332
 3729TIP3    H232747   3.537   4.560   0.483 -0.2948  0.9675 -1.1633
 3730TIP3   OH232748   4.359   1.349   8.677 -0.0140 -0.2941 -0.0169
 3730TIP3    H132749   4.280   1.319   8.633 -0.5334  0.5016  0.3569
 3730TIP3    H232750   4.423   1.359   8.607  0.3935 -2.8081 -0.1036
 3731TIP3   OH232751   1.597   3.758   8.541 -0.3057  0.1926  0.6168
 3731TIP3    H132752   1.611   3.664   8.533 -1.1289  0.1266 -0.2813
 3731TIP3    H232753   1.629   3.780   8.628 -0.5991 -1.0195  1.0505
 3732TIP3   OH232754   4.851   0.494   1.023 -0.2853 -0.2014  0.5324
 3732TIP3    H132755   4.841   0.551   1.099 -0.2735  0.1500  0.2722
 3732TIP3    H232756   4.774   0.511   0.970  0.2105  0.3054 -0.0298
 3733TIP3   OH232757   5.742   3.748   3.205 -0.2806  0.2333  0.1947
 3733TIP3    H132758   5.796   3.812   3.160  0.3683 -0.0099  0.5998
 3733TIP3    H232759   5.792   3.666   3.200 -0.6172 -0.0051  0.5585
 3734TIP3   OH232760   5.017   3.067   8.332  0.6424  0.6891 -0.1025
 3734TIP3    H132761   4.974   3.027   8.407 -0.9789  0.3789 -1.1597
 3734TIP3    H232762   4.961   3.140   8.307  1.5181  1.2139 -0.5997
 3735TIP3   OH232763   1.651   2.686   1.638  0.3137  0.3541  0.1519
 3735TIP3    H132764   1.599   2.608   1.654 -1.4455  1.6435  1.0372
 3735TIP3    H232765   1.697   2.668   1.556 -0.6609 -1.2708 -0.0766
 3736TIP3   OH232766   0.405   4.396   1.104  0.1881  0.2532 -0.3747
 3736TIP3    H132767   0.432   4.486   1.121  2.1836 -0.4752  0.5690
 3736TIP3    H232768   0.487   4.346   1.106 -0.8825 -1.5901 -0.8851
 3737TIP3   OH232769   3.292   6.520   2.432 -0.2866  0.0435 -0.7982
 3737TIP3    H132770   3.339   6.452   2.481 -2.5884 -0.3222  1.0473
 3737TIP3    H232771   3.249   6.473   2.361  0.2644  0.0364 -1.1391
 3738TIP3   OH232772   5.318   3.916   1.268  0.3507  0.3580  0.6377
 3738TIP3    H132773   5.241   3.963   1.236 -0.3923 -1.5666 -0.5225
 3738TIP3    H232774   5.372   3.901   1.191  0.7171 -0.4384  1.0309
 3739TIP3   OH232775   1.684   0.665   1.721  0.4955 -0.6117  0.2437
 3739TIP3    H132776   1.593   0.685   1.700  0.5335  0.8665  1.3943
 3739TIP3    H232777   1.734   0.693   1.644  0.1364  0.0093  0.2387
 3740TIP3   OH232778   6.114   3.461   0.523  0.3205 -0.1806 -0.0077
 3740TIP3    H132779   6.114   3.371   0.490  0.2500  0.4925 -1.9577
 3740TIP3    H232780   6.101   3.515   0.446  4.3788  1.7618  0.3862
 3741TIP3   OH232781   4.208   6.642   0.888 -0.1232  0.0760  0.2735
 3741TIP3    H132782   4.275   6.590   0.843  1.3995  3.0273 -1.1335
 3741TIP3    H232783   4.136   6.581   0.903  1.9199 -2.6479 -0.3141
 3742TIP3   OH232784   2.818   2.642   1.603  0.0154 -0.1232 -0.2442
 3742TIP3    H132785   2.910   2.659   1.582  0.4320 -1.7766  0.1055
 3742TIP3    H232786   2.775   2.727   1.593  1.3518  0.4366 -1.5940
 3743TIP3   OH232787   0.039   5.463   8.920  0.3968 -0.1317  0.1946
 3743TIP3    H132788   0.084   5.545   8.901 -0.2925  0.1889 -0.1024
 3743TIP3    H232789  -0.043   5.469   8.871 -0.1789 -0.4921  1.0909
 3744TIP3   OH232790   2.970   1.913   2.052 -0.6992 -0.6181  0.0567
 3744TIP3    H132791   3.059   1.878   2.051 -0.0905  0.8615 -0.9612
 3744TIP3    H232792   2.963   1.963   1.970 -2.5063 -0.8096  0.0635
 3745TIP3   OH232793   4.539   0.352   2.768  0.1692 -1.0312  0.0199
 3745TIP3    H132794   4.623   0.311   2.789 -0.5560 -1.8802  1.4305
 3745TIP3    H232795   4.523   0.329   2.677  2.4813  1.0233 -1.0441
 3746TIP3   OH232796   0.238   4.761   0.429 -0.4369 -0.1269  0.1810
 3746TIP3    H132797   0.239   4.666   0.418  3.5464 -0.2123 -0.2559
 3746TIP3    H232798   0.225   4.796   0.341 -0.2481 -0.3134  0.0783
 3747TIP3   OH232799   3.809   1.498   0.707 -0.4344 -0.4698 -0.2476
 3747TIP3    H132800   3.720   1.511   0.741 -0.5979 -0.4914 -0.6551
 3747TIP3    H232801   3.835   1.413   0.741  0.1225  0.2901  1.3292
 3748TIP3   OH232802   1.999   6.339   8.334  0.1400  0.3223  0.2016
 3748TIP3    H132803   1.999   6.428   8.300 -0.7679  0.8044  1.4323
 3748TIP3    H232804   1.916   6.302   8.303 -0.0559  0.3176  0.7230
 3749TIP3   OH232805   6.552   1.425   1.353  0.1978  0.0720 -1.0534
 3749TIP3    H132806   6.514   1.427   1.265  1.2387 -0.2925 -1.5282
 3749TIP3    H232807   6.477   1.411   1.411 -0.4978  0.2690 -1.8836
 3750TIP3   OH232808   0.944   2.130   0.843 -0.3235 -0.0845 -0.5225
 3750TIP3    H132809   1.039   2.119   0.833 -0.3603  1.4261 -3.9294
 3750TIP3    H232810   0.933   2.161   0.933  2.3341 -0.8229  0.1514
 3751TIP3   OH232811   1.329   3.843   0.218 -0.1652 -0.1219 -0.5545
 3751TIP3    H132812   1.331   3.827   0.312  0.5264 -0.1010 -0.5616
 3751TIP3    H232813   1.236   3.848   0.197 -0.3696 -1.6837 -0.1364
 3752TIP3   OH232814   5.404   4.147   8.488  0.0396 -0.1448 -0.3053
 3752TIP3    H132815   5.457   4.144   8.408  1.1528 -0.2454  0.4124
 3752TIP3    H232816   5.454   4.095   8.552 -1.6565 -1.5099 -0.0077
 3753TIP3   OH232817   5.733   1.944   7.440  0.2112 -0.4621 -0.1199
 3753TIP3    H132818   5.742   1.960   7.346  0.1744  1.2381  0.1355
 3753TIP3    H232819   5.679   1.865   7.445 -0.8229  0.0925 -1.5258
 3754TIP3   OH232820   2.417   0.074   0.708  0.2386 -0.0852  0.2180
 3754TIP3    H132821   2.388   0.029   0.629 -1.9027 -0.8237  1.3213
 3754TIP3    H232822   2.457   0.155   0.677 -0.8993 -0.1666 -1.5984
 3755TIP3   OH232823   1.789   4.245   1.049 -0.0555  0.2166  0.0841
 3755TIP3    H132824   1.735   4.323   1.059  1.4792  1.0900  2.0787
 3755TIP3    H232825   1.876   4.270   1.081  1.1593 -1.6118 -1.4858
 3756TIP3   OH232826   3.946   0.059   0.568 -0.0996  0.1615  0.4882
 3756TIP3    H132827   4.029   0.105   0.555 -0.2787  0.3629  0.0482
 3756TIP3    H232828   3.956   0.016   0.653  0.5650 -0.0563  0.3087
 3757TIP3   OH232829   4.443   5.866   1.850 -0.6057  0.1599  0.0331
 3757TIP3    H132830   4.384   5.792   1.837  0.5787 -0.8567  0.2388
 3757TIP3    H232831   4.522   5.827   1.887  1.2380  1.0414 -2.6622
 3758TIP3   OH232832   3.517   0.858   8.925  0.0754 -0.1424 -0.3892
 3758TIP3    H132833   3.548   0.878   8.836 -1.9971  1.3252 -0.8610
 3758TIP3    H232834   3.421   0.862   8.918 -0.1336  1.2059  2.1500
 3759TIP3   OH232835   6.389   2.164   0.062  0.2776 -0.0431 -0.2427
 3759TIP3    H132836   6.354   2.081   0.098 -0.3073  0.8802  1.4407
 3759TIP3    H232837   6.483   2.150   0.056 -0.0093 -1.6497 -2.3142
 3760TIP3   OH232838   3.548   2.726   1.452 -0.2081 -0.3685 -0.4942
 3760TIP3    H132839   3.564   2.819   1.464  0.0697 -0.3649 -0.8671
 3760TIP3    H232840   3.633   2.685   1.466 -0.8337 -0.8819  2.4897
 3761TIP3   OH232841   3.501   5.486   1.937  0.1535 -0.2926 -0.4704
 3761TIP3    H132842   3.594   5.491   1.962 -0.0622 -0.1693  0.3334
 3761TIP3    H232843   3.500   5.509   1.844  0.7729  1.0519 -0.1644
 3762TIP3   OH232844   1.090   0.963   2.494 -0.1309 -0.8365  0.1717
 3762TIP3    H132845   1.173   0.927   2.527 -0.0585 -0.1502  0.7678
 3762TIP3    H232846   1.063   1.025   2.561  0.2873  1.0141 -1.2695
 3763TIP3   OH232847   5.615   1.091   1.821 -0.4628  0.3924  0.3096
 3763TIP3    H132848   5.625   1.185   1.832 -0.2444  0.3110  0.8991
 3763TIP3    H232849   5.683   1.067   1.758  0.3710  0.4533  1.1466
 3764TIP3   OH232850   6.286   5.913   8.358 -0.5619 -0.1700  0.1398
 3764TIP3    H132851   6.258   5.848   8.294 -0.7665  0.1624 -0.1165
 3764TIP3    H232852   6.371   5.882   8.389 -0.2559 -0.1076 -0.6167
 3765TIP3   OH232853   3.401   1.329   2.718  1.1015 -0.4996  0.3810
 3765TIP3    H132854   3.319   1.347   2.673  0.9396  1.6465  1.4052
 3765TIP3    H232855   3.416   1.236   2.703 -1.3820 -0.9135 -0.0372
 3766TIP3   OH232856   0.617   5.899   3.209 -0.4232 -0.1547 -0.1107
 3766TIP3    H132857   0.664   5.897   3.125  1.2793 -3.3025  0.7541
 3766TIP3    H232858   0.686   5.912   3.274 -1.5590  0.9045  0.9441
 3767TIP3   OH232859   3.608   1.337   1.622  0.2547 -0.0156 -0.5585
 3767TIP3    H132860   3.522   1.350   1.582 -0.2074 -1.1410  0.0242
 3767TIP3    H232861   3.670   1.349   1.550 -0.2729  2.1753 -0.7014
 3768TIP3   OH232862   3.082   1.370   0.929  0.0769  0.2154  0.3438
 3768TIP3    H132863   3.097   1.337   1.018 -3.0035 -0.3082  0.7677
 3768TIP3    H232864   3.128   1.454   0.927  2.8912 -1.1543  1.2965
 3769TIP3   OH232865   4.784   4.484   0.393 -0.0344 -0.2434  0.3649
 3769TIP3    H132866   4.847   4.412   0.382 -0.0670 -0.1294 -0.6899
 3769TIP3    H232867   4.839   4.561   0.406  0.0044 -0.6816  3.4784
 3770TIP3   OH232868   4.771   2.752   8.220 -0.4212 -0.0546  0.8224
 3770TIP3    H132869   4.752   2.679   8.160 -0.4873  1.7396 -1.4915
 3770TIP3    H232870   4.860   2.778   8.199 -0.2373  0.2462  1.9468
 3771TIP3   OH232871   1.381   1.560   8.296  0.0712  0.3867 -0.9882
 3771TIP3    H132872   1.411   1.503   8.367 -0.3856  1.5562  0.1982
 3771TIP3    H232873   1.286   1.563   8.308 -0.1208 -0.1756 -2.2766
 3772TIP3   OH232874   2.376   0.242   8.030 -0.7324 -0.0433 -0.2517
 3772TIP3    H132875   2.351   0.261   8.120  1.9800 -0.2264  0.6398
 3772TIP3    H232876   2.354   0.149   8.019  0.8768 -0.6365  1.0418
 3773TIP3   OH232877   0.816   4.913   1.943 -0.3253 -0.2538  0.5969
 3773TIP3    H132878   0.727   4.948   1.939 -1.2519 -2.3181  1.3298
 3773TIP3    H232879   0.838   4.915   2.036  1.3627  2.3072  0.2316
 3774TIP3   OH232880   6.412   4.682   3.181 -0.4748 -0.1235 -0.4033
 3774TIP3    H132881   6.371   4.605   3.141 -0.8486 -0.7639  1.1325
 3774TIP3    H232882   6.469   4.645   3.250 -2.5213  0.9863  2.0624
 3775TIP3   OH232883   4.660   2.027   0.994 -0.1140 -0.1450 -0.2340
 3775TIP3    H132884   4.585   1.994   1.042  0.2734 -0.8658 -0.1112
 3775TIP3    H232885   4.645   1.999   0.904  0.7352 -1.6297  0.0573
 3776TIP3   OH232886   3.694   0.222   1.600 -0.0935  0.4019  0.6818
 3776TIP3    H132887   3.612   0.189   1.637 -1.6202  2.7494 -0.3703
 3776TIP3    H232888   3.720   0.292   1.659  0.3204  0.6605  0.1960
 3777TIP3   OH232889   5.013   5.850   7.767  0.6867 -0.0085  0.0845
 3777TIP3    H132890   5.005   5.930   7.818  0.8759  0.2333 -0.2564
 3777TIP3    H232891   5.019   5.780   7.832 -1.1483  0.0713  0.3895
 3778TIP3   OH232892   0.314   5.234   0.673 -0.0313  0.4118 -0.6551
 3778TIP3    H132893   0.295   5.210   0.582 -0.0936  1.8405 -1.0343
 3778TIP3    H232894   0.397   5.191   0.692 -0.6537 -0.9976 -0.9290
 3779TIP3   OH232895   4.693   3.642   2.578 -0.1398  0.1635  0.8259
 3779TIP3    H132896   4.744   3.565   2.603  1.7823  0.9932 -0.3025
 3779TIP3    H232897   4.753   3.716   2.592 -0.4174  1.0332 -2.0108
 3780TIP3   OH232898   6.357   1.364   7.393  0.6526 -0.2334 -0.5479
 3780TIP3    H132899   6.332   1.426   7.325 -0.5353  2.6038  2.1781
 3780TIP3    H232900   6.292   1.294   7.388 -1.3081  1.4826 -0.5059
 3781TIP3   OH232901   1.130   5.955   2.126 -0.0229 -0.0174 -0.7974
 3781TIP3    H132902   1.194   5.897   2.086 -0.0549 -0.6250  0.0062
 3781TIP3    H232903   1.071   5.896   2.174  0.3497  0.7219  0.6097
 3782TIP3   OH232904   1.310   4.563   2.246 -0.0550  0.5488  0.5927
 3782TIP3    H132905   1.312   4.473   2.213  0.1526  0.5752  0.5277
 3782TIP3    H232906   1.390   4.602   2.211 -0.1411  0.7562  0.6279
 3783TIP3   OH232907   2.243   1.406   8.615 -0.6899  0.4128  0.2045
 3783TIP3    H132908   2.258   1.359   8.697 -1.0060 -1.0272 -0.5258
 3783TIP3    H232909   2.227   1.337   8.551 -0.8263  1.5254 -0.9967
 3784TIP3   OH232910   4.060   0.117   0.837 -0.0825  0.1928  0.5611
 3784TIP3    H132911   4.093   0.029   0.857  1.1488  0.5983  0.3481
 3784TIP3    H232912   4.137   0.173   0.839 -0.2791  0.7436 -2.4466
 3785TIP3   OH232913   1.568   1.573   1.286 -0.2084  0.1416  0.7332
 3785TIP3    H132914   1.494   1.528   1.247  0.6951 -0.8978  0.1728
 3785TIP3    H232915   1.617   1.505   1.332  0.3172  0.8429  1.2485
 3786TIP3   OH232916   3.003   1.046   0.059 -0.3560  0.2103 -0.2067
 3786TIP3    H132917   2.971   1.104   0.128  0.4418  1.0659 -0.5342
 3786TIP3    H232918   2.924   1.004   0.023 -0.9508  1.1465 -0.0100
 3787TIP3   OH232919   5.696   4.641   7.467 -0.2020 -0.5478 -0.4578
 3787TIP3    H132920   5.608   4.646   7.504  1.0667  0.8439  2.8507
 3787TIP3    H232921   5.708   4.549   7.443 -2.0631 -1.0371  0.3533
 3788TIP3   OH232922   4.945   5.191   0.686  0.0067  0.8101  0.2506
 3788TIP3    H132923   5.025   5.178   0.634 -0.4236 -1.2047  0.0073
 3788TIP3    H232924   4.875   5.195   0.621 -0.2162  1.3255  0.5227
 3789TIP3   OH232925   4.859   4.279   7.763 -0.4969  0.3940  0.0563
 3789TIP3    H132926   4.856   4.374   7.779 -0.2388  0.3722  0.2549
 3789TIP3    H232927   4.848   4.240   7.850  0.3448  0.2616  0.1122
 3790TIP3   OH232928   1.391   2.104   8.136 -0.3642 -0.0635  0.0166
 3790TIP3    H132929   1.369   2.011   8.143 -0.6199 -0.0570 -0.6184
 3790TIP3    H232930   1.306   2.148   8.125 -0.1324  0.0369 -1.6925
 3791TIP3   OH232931   2.807   5.019   1.585 -0.5196  0.1992  0.2864
 3791TIP3    H132932   2.757   5.085   1.633 -1.5817 -1.3821  1.3997
 3791TIP3    H232933   2.749   4.991   1.514 -1.2759 -1.6493  1.5883
 3792TIP3   OH232934   3.106   5.070   0.551 -0.2305  0.9416 -0.1105
 3792TIP3    H132935   3.013   5.063   0.576 -0.8423  1.7384 -1.9770
 3792TIP3    H232936   3.139   4.980   0.559 -1.4095  0.4660 -0.2970
 3793TIP3   OH232937   6.732   5.881   1.175  0.0328  0.1207  0.3806
 3793TIP3    H132938   6.798   5.934   1.219 -0.7622  1.6696 -0.1978
 3793TIP3    H232939   6.669   5.859   1.244  0.7766 -0.7693  0.7871
 3794TIP3   OH232940   5.059   3.558   6.907 -0.1583  0.3035  0.4167
 3794TIP3    H132941   5.144   3.535   6.943  0.5870 -0.1705 -1.5478
 3794TIP3    H232942   5.067   3.543   6.813 -1.9127  1.7557 -0.0307
 3795TIP3   OH232943   2.932   2.852   2.458  0.3617 -0.3602  0.6898
 3795TIP3    H132944   2.973   2.927   2.500 -2.3646  2.8701 -1.8796
 3795TIP3    H232945   2.854   2.887   2.416 -1.4384 -4.8045 -0.2794
 3796TIP3   OH232946   4.610   0.964   3.284 -0.5885  0.3941  0.5619
 3796TIP3    H132947   4.643   0.875   3.270 -2.1496 -0.8642  3.7823
 3796TIP3    H232948   4.688   1.014   3.310  0.6044  0.5344 -2.7923
 3797TIP3   OH232949   4.434   1.090   8.054 -0.6542  0.3522 -0.6155
 3797TIP3    H132950   4.473   1.006   8.078  2.7638  0.9314 -3.4037
 3797TIP3    H232951   4.436   1.091   7.958 -1.8639  3.0774 -0.7043
 3798TIP3   OH232952   3.842   6.542   1.169 -0.4947  0.3349  0.7881
 3798TIP3    H132953   3.817   6.457   1.205 -0.6351 -0.3670 -0.9123
 3798TIP3    H232954   3.784   6.604   1.214 -1.1971 -0.6019  1.2104
 3799TIP3   OH232955   3.001   1.758   0.476  0.3964  0.1971 -0.0551
 3799TIP3    H132956   2.909   1.744   0.502  0.3634  0.9785  0.2712
 3799TIP3    H232957   3.024   1.842   0.516  1.2287  0.0475 -0.2171
 3800TIP3   OH232958   3.614   5.292   1.227 -0.0091 -0.0363  0.4869
 3800TIP3    H132959   3.669   5.270   1.302 -0.5022  1.6647  1.3916
 3800TIP3    H232960   3.676   5.308   1.156  0.7180  1.5502  1.4158
 3801TIP3   OH232961   4.638   1.003   2.385  0.1045 -0.2123  0.3925
 3801TIP3    H132962   4.682   1.044   2.311  0.3443  0.6471  1.0032
 3801TIP3    H232963   4.704   0.999   2.454 -0.4973  0.2584  1.0140
 3802TIP3   OH232964   1.354   3.218   1.183  0.1016  0.3799 -0.0102
 3802TIP3    H132965   1.367   3.312   1.190  1.4396  0.3573 -1.6815
 3802TIP3    H232966   1.259   3.208   1.173  0.0366  1.6244 -0.8287
 3803TIP3   OH232967   3.625   0.014   7.728  0.2853  0.0093  0.1286
 3803TIP3    H132968   3.617  -0.081   7.731 -0.7311  0.1157  2.7323
 3803TIP3    H232969   3.701   0.034   7.783 -0.4257  0.7601  0.8664
 3804TIP3   OH232970   5.759   6.594   8.076 -0.2527 -0.1080 -0.3744
 3804TIP3    H132971   5.828   6.565   8.017  1.4149 -0.8007  1.7760
 3804TIP3    H232972   5.705   6.516   8.090  1.0741 -0.7914  1.2171
 3805TIP3   OH232973   0.180   0.008   2.064  0.1967  0.9598 -0.1611
 3805TIP3    H132974   0.095   0.018   2.022  1.3863  1.8843 -2.4986
 3805TIP3    H232975   0.193  -0.086   2.072 -0.8765  0.8096 -0.0761
 3806TIP3   OH232976   5.836   5.511   1.606 -0.0478 -0.2125  0.1586
 3806TIP3    H132977   5.904   5.464   1.558 -0.4564 -0.5545 -0.0956
 3806TIP3    H232978   5.832   5.468   1.691 -0.9554 -1.1731 -0.3415
 3807TIP3   OH232979   4.891   1.625   7.990 -0.4323 -0.2733 -0.2475
 3807TIP3    H132980   4.832   1.637   7.915 -1.5018 -1.8418  0.2918
 3807TIP3    H232981   4.860   1.545   8.032  1.9059 -0.9627  0.2757
 3808TIP3   OH232982   6.591   1.631   8.392 -0.3355  0.2950  0.1614
 3808TIP3    H132983   6.514   1.604   8.443  0.8336 -1.7095  0.9871
 3808TIP3    H232984   6.557   1.696   8.330 -2.4362  0.3995  1.3231
 3809TIP3   OH232985   2.306   2.129   0.938 -0.0196  0.4426  0.3002
 3809TIP3    H132986   2.324   2.194   0.870  0.1722  1.3452  1.1962
 3809TIP3    H232987   2.217   2.149   0.967 -0.6571 -0.8544 -0.6539
 3810TIP3   OH232988   0.923   3.086   2.197 -0.0556  0.2151  0.2663
 3810TIP3    H132989   1.012   3.077   2.163 -0.0086  0.6206  0.2852
 3810TIP3    H232990   0.933   3.078   2.292 -0.1469 -0.5873  0.2168
 3811TIP3   OH232991   4.837   0.745   8.239  0.5151 -0.5038 -0.1198
 3811TIP3    H132992   4.893   0.807   8.191  0.5278 -0.5443 -0.1561
 3811TIP3    H232993   4.799   0.798   8.310  1.5061 -0.7415  0.6110
 3812TIP3   OH232994   3.832   0.353   7.846 -0.2741  0.1661 -0.0752
 3812TIP3    H132995   3.875   0.319   7.925 -0.3081 -1.0617 -0.5610
 3812TIP3    H232996   3.891   0.422   7.815 -0.3717  0.8293  1.1375
 3813TIP3   OH232997   5.656   0.926   2.369  0.5433 -0.1964  0.2881
 3813TIP3    H132998   5.652   0.897   2.278 -0.5353  0.6881  0.0189
 3813TIP3    H232999   5.741   0.897   2.401  0.0886 -2.3718 -0.3540
 3814TIP3   OH233000   3.580   0.795   3.632  0.2247  0.0304 -0.1022
 3814TIP3    H133001   3.621   0.708   3.635 -2.2703 -1.2603 -1.2289
 3814TIP3    H233002   3.640   0.847   3.578  1.5995 -1.0382  0.3116
 3815TIP3   OH233003   5.412   6.314   7.816 -0.1735  0.3598 -0.4421
 3815TIP3    H133004   5.406   6.389   7.875 -1.1510 -0.3286  0.3869
 3815TIP3    H233005   5.354   6.336   7.743  0.0022  0.6558 -0.4925
 3816TIP3   OH233006   5.916   0.712   2.062 -0.1959  0.3881 -0.2120
 3816TIP3    H133007   5.841   0.655   2.049 -0.5152  1.0352 -1.3335
 3816TIP3    H233008   5.878   0.799   2.077  0.2667  0.2776  1.9320
 3817TIP3   OH233009   6.008   0.821   1.534 -0.1685 -0.3636  0.3012
 3817TIP3    H133010   5.980   0.772   1.457 -1.6478  0.0365  0.5502
 3817TIP3    H233011   6.038   0.754   1.596 -1.4040 -0.9009  0.3350
 3818TIP3   OH233012   0.138   0.179   8.025 -0.2634  0.1592 -0.4752
 3818TIP3    H133013   0.108   0.103   7.977  0.3322 -0.9957  0.9145
 3818TIP3    H233014   0.148   0.149   8.115  3.9526  0.6555 -0.5777
 3819TIP3   OH233015   6.766   6.382   8.205 -0.4557 -0.5518  0.3302
 3819TIP3    H133016   6.761   6.456   8.144 -0.0941 -1.3343 -0.6754
 3819TIP3    H233017   6.860   6.370   8.219 -0.5134 -0.8429  0.4719
 3820TIP3   OH233018   0.961   4.076   1.273 -0.5080  0.0408 -0.5518
 3820TIP3    H133019   0.905   4.152   1.287  1.8021  1.8099 -0.3042
 3820TIP3    H233020   0.952   4.025   1.353 -0.9457  0.8554 -0.0677
 3821TIP3   OH233021   3.400   2.012   7.570  0.8821 -0.7312 -0.4550
 3821TIP3    H133022   3.486   2.007   7.527  1.0735 -1.3464 -0.0130
 3821TIP3    H233023   3.359   2.089   7.531  1.6715 -0.3690 -0.6068
 3822TIP3   OH233024   3.361   1.532   8.302 -0.1518  1.0737 -0.0529
 3822TIP3    H133025   3.388   1.603   8.243  0.6793  0.3877 -0.5149
 3822TIP3    H233026   3.402   1.454   8.266 -2.0123  0.1234 -0.2329
 3823TIP3   OH233027   6.674   3.462   2.250  0.5292  0.4703  0.3390
 3823TIP3    H133028   6.616   3.445   2.175  0.9320  0.0866  0.1090
 3823TIP3    H233029   6.616   3.460   2.326  0.5946 -2.6818  0.4389
 3824TIP3   OH233030   5.346   0.807   8.812  0.2839 -0.2688 -0.5083
 3824TIP3    H133031   5.313   0.748   8.880  0.3794  0.8342  0.5437
 3824TIP3    H233032   5.272   0.865   8.793  0.2059 -0.6838 -1.4910
 3825TIP3   OH233033   1.263   0.385   8.551 -0.0756  0.6387 -0.4061
 3825TIP3    H133034   1.314   0.389   8.470 -0.5966 -1.9323 -0.9511
 3825TIP3    H233035   1.175   0.414   8.525 -0.4949 -1.0899 -1.0622
 3826TIP3   OH233036   6.727   6.394   0.691 -0.0132  0.4391  0.3415
 3826TIP3    H133037   6.640   6.433   0.691 -0.5694 -0.7222  1.0848
 3826TIP3    H233038   6.734   6.350   0.776  2.8006  3.6273  1.9925
 3827TIP3   OH233039   4.522   0.857   8.646  0.5439 -0.1488  0.0678
 3827TIP3    H133040   4.437   0.834   8.683  0.5132  1.2168  0.9187
 3827TIP3    H233041   4.541   0.944   8.681  2.4760 -0.5750  0.1981
 3828TIP3   OH233042   4.682   3.075   8.922 -0.4614  0.2546 -0.0027
 3828TIP3    H133043   4.634   3.086   8.840  0.8471  0.9309 -0.7182
 3828TIP3    H233044   4.748   3.144   8.920  0.4916 -0.5892  0.9756
 3829TIP3   OH233045   6.157   1.113   8.655  0.6746  0.1101 -0.1128
 3829TIP3    H133046   6.155   1.052   8.581 -1.7643 -0.3896  0.2943
 3829TIP3    H233047   6.121   1.064   8.728  1.4193  1.1540  0.9950
 3830TIP3   OH233048   3.577   0.400   7.773 -0.2229 -0.1172  0.3431
 3830TIP3    H133049   3.576   0.384   7.679  1.0528  1.2757  0.0366
 3830TIP3    H233050   3.662   0.367   7.802 -0.5340 -0.3756  0.9829
 3831TIP3   OH233051   2.899   1.687   8.685  0.8852 -0.4400 -0.5542
 3831TIP3    H133052   2.862   1.620   8.627 -0.6280  2.5325 -3.3400
 3831TIP3    H233053   2.884   1.653   8.773 -1.2199 -3.0446 -1.7568
 3832TIP3   OH233054   3.427   1.300   0.121 -0.2291  0.5878  0.1731
 3832TIP3    H133055   3.342   1.260   0.104 -0.1582  0.9560 -1.2082
 3832TIP3    H233056   3.461   1.253   0.197 -0.8286 -0.8830 -0.4296
 3833TIP3   OH233057   3.275   1.555   2.335  0.3487  0.6952 -0.1059
 3833TIP3    H133058   3.239   1.617   2.398  1.7665  0.8563  0.5999
 3833TIP3    H233059   3.364   1.538   2.367  0.1565 -1.3711 -0.5314
 3834TIP3   OH233060   5.905   2.899   7.934 -0.5156 -0.4252 -0.4134
 3834TIP3    H133061   5.929   2.900   7.841  0.7763 -2.0934 -0.1516
 3834TIP3    H233062   5.848   2.823   7.943 -2.6257  1.0741 -0.2140
 3835TIP3   OH233063   2.220   4.017   2.882  0.0207 -0.1883  0.3928
 3835TIP3    H133064   2.161   3.958   2.835 -0.7888 -0.0218  1.1620
 3835TIP3    H233065   2.306   4.002   2.843 -0.7577  0.6457 -1.8193
 3836TIP3   OH233066   2.295   2.022   3.251  0.3374  0.1322  0.8090
 3836TIP3    H133067   2.240   2.097   3.273 -0.2757 -0.4081  1.1457
 3836TIP3    H233068   2.372   2.060   3.208 -0.4034  0.8791  0.1052
 3837TIP3   OH233069   4.553   3.341   7.271  0.5231  1.0605 -0.2625
 3837TIP3    H133070   4.642   3.321   7.301  0.2271 -0.6206 -0.4223
 3837TIP3    H233071   4.534   3.273   7.206 -1.4937  0.3234  1.0115
 3838TIP3   OH233072   3.140   2.548   8.019 -0.0538 -0.2854  0.7014
 3838TIP3    H133073   3.228   2.523   7.991  0.7545  0.7747  2.1434
 3838TIP3    H233074   3.132   2.641   7.996 -0.9255 -0.4408  0.3138
 3839TIP3   OH233075   1.606   0.341   8.958 -0.4746 -0.5253 -0.6034
 3839TIP3    H133076   1.558   0.366   8.879 -0.9836 -2.4825 -0.9876
 3839TIP3    H233077   1.543   0.289   9.008  0.2639 -0.4275  0.4607
 3840TIP3   OH233078   4.899   5.069   0.917  0.2026  0.3898 -0.7591
 3840TIP3    H133079   4.915   5.097   0.827  1.1884 -0.1815 -0.7731
 3840TIP3    H233080   4.811   5.031   0.915 -0.1071  1.1118 -1.2953
 3841TIP3   OH233081   5.130   3.612   2.813  0.8298  0.0782  0.5280
 3841TIP3    H133082   5.082   3.529   2.815 -0.0270  0.4433 -1.7934
 3841TIP3    H233083   5.217   3.590   2.848 -0.0153 -1.2904  1.8914
 3842TIP3   OH233084   1.918   1.661   2.651  0.3809 -0.3363  0.2238
 3842TIP3    H133085   1.902   1.711   2.571  0.0340 -0.8831 -0.0483
 3842TIP3    H233086   1.837   1.613   2.667  1.1732 -1.9035 -0.3029
 3843TIP3   OH233087   6.569   5.659   0.200 -0.1259  0.4182 -0.3032
 3843TIP3    H133088   6.660   5.690   0.197  0.0325  0.2184  1.3617
 3843TIP3    H233089   6.576   5.564   0.193 -0.1940  0.3945 -0.0601
 3844TIP3   OH233090   1.448   0.288   3.625  0.3570  0.1929  0.3246
 3844TIP3    H133091   1.397   0.350   3.573 -1.5281 -2.0579 -0.6744
 3844TIP3    H233092   1.427   0.311   3.716 -3.1839 -1.0298 -0.0103
 3845TIP3   OH233093   4.246   4.461   8.106 -0.2637 -0.3222  0.4344
 3845TIP3    H133094   4.217   4.453   8.197  0.4356  0.5654  0.7509
 3845TIP3    H233095   4.339   4.485   8.113 -0.4152  0.5890 -0.4947
 3846TIP3   OH233096   2.076   4.579   8.795 -0.0633  0.6045 -0.3270
 3846TIP3    H133097   1.992   4.602   8.756  0.7958  1.1078 -2.0171
 3846TIP3    H233098   2.110   4.662   8.830 -0.3369  0.3722  0.4928
 3847TIP3   OH233099   2.041   0.845   1.752  0.1843 -0.1057 -0.0334
 3847TIP3    H133100   2.011   0.861   1.842 -0.7066 -0.9045 -0.1652
 3847TIP3    H233101   1.962   0.814   1.707  0.8052 -0.4433 -0.8934
 3848TIP3   OH233102   5.570   4.001   1.891  0.3343 -0.1986 -0.1141
 3848TIP3    H133103   5.475   3.999   1.908  0.3799 -1.2009  0.0763
 3848TIP3    H233104   5.594   3.909   1.879  1.4094 -0.0062  0.4867
 3849TIP3   OH233105   3.731   6.124   8.422  0.4395 -0.2788  0.0612
 3849TIP3    H133106   3.698   6.214   8.414 -1.9175 -0.9329  1.6509
 3849TIP3    H233107   3.716   6.086   8.335  1.7760  0.8957 -0.7419
 3850TIP3   OH233108   6.296   5.088   0.752 -0.4120 -0.2889 -0.2821
 3850TIP3    H133109   6.270   5.048   0.835 -1.9889  1.3453  0.0751
 3850TIP3    H233110   6.236   5.051   0.687 -1.4840  0.9713 -0.0512
 3851TIP3   OH233111   4.076   2.903   1.609 -1.0259  0.1981 -0.0339
 3851TIP3    H133112   4.007   2.962   1.577 -2.3339 -0.4746  1.3796
 3851TIP3    H233113   4.094   2.933   1.698 -0.3511 -0.3814  0.0367
 3852TIP3   OH233114   5.895   3.899   8.059  0.1645  0.5319  0.0764
 3852TIP3    H133115   5.950   3.859   8.126  1.3028  2.5280  0.4165
 3852TIP3    H233116   5.951   3.903   7.981 -0.3220  0.3866 -0.2808
 3853TIP3   OH233117   6.607   3.817   8.720  0.6590  0.6616  0.1636
 3853TIP3    H133118   6.629   3.909   8.737  0.0556  0.7518  0.4945
 3853TIP3    H233119   6.569   3.817   8.633  0.6018  0.7335  0.1881
 3854TIP3   OH233120   0.759   0.082   8.896  0.6600 -0.5692  0.6204
 3854TIP3    H133121   0.850   0.110   8.910  0.9707 -2.3702  2.6988
 3854TIP3    H233122   0.712   0.116   8.972 -0.1381 -0.7612  0.2137
 3855TIP3   OH233123   0.681   6.047   0.731 -0.0519  0.1980  0.7646
 3855TIP3    H133124   0.621   6.004   0.792 -0.5508 -0.7035 -0.3341
 3855TIP3    H233125   0.695   6.134   0.769 -1.6543  0.2526  1.3189
 3856TIP3   OH233126   1.142   0.187   0.172 -0.5576  0.2368  0.0404
 3856TIP3    H133127   1.127   0.093   0.177 -3.5237  0.6055 -0.0670
 3856TIP3    H233128   1.125   0.219   0.261 -0.9388  0.7922 -0.2237
 3857TIP3   OH233129   5.052   0.516   8.527 -0.3562  0.2211  0.5541
 3857TIP3    H133130   5.115   0.587   8.516 -0.6913  0.7222  1.6501
 3857TIP3    H233131   5.018   0.499   8.439 -1.4331  2.5259  0.4490
 3858TIP3   OH233132   3.638   0.868   8.293  0.1251  0.0723  0.2116
 3858TIP3    H133133   3.604   0.849   8.380 -0.5129  0.9143  0.1551
 3858TIP3    H233134   3.714   0.924   8.308 -0.0706  0.3354  0.2199
 3859TIP3   OH233135   6.055   4.190   1.176  0.2244  0.4657  0.8121
 3859TIP3    H133136   6.040   4.174   1.269 -1.0158  2.2330  0.9755
 3859TIP3    H233137   6.121   4.259   1.174  0.5689  0.1257  0.3686
 3860TIP3   OH233138   3.311   2.774   1.566 -0.2321  0.1139 -0.0899
 3860TIP3    H133139   3.239   2.712   1.558 -0.8258  0.9115 -1.3561
 3860TIP3    H233140   3.381   2.735   1.513 -0.9043  0.8867 -1.6184
 3861TIP3   OH233141   3.254   4.253   1.687 -0.5729  0.3065 -0.6626
 3861TIP3    H133142   3.161   4.253   1.664 -0.3775  0.3680 -1.5025
 3861TIP3    H233143   3.297   4.297   1.613 -0.0227  1.5747  0.3792
 3862TIP3   OH233144   6.138   2.493   1.391  0.4964  0.4247 -0.5275
 3862TIP3    H133145   6.106   2.530   1.308  1.4921  0.0749 -1.0761
 3862TIP3    H233146   6.060   2.490   1.447 -0.0630  1.2429 -1.2338
 3863TIP3   OH233147   5.573   2.250   2.422  0.0666 -0.2421  0.2618
 3863TIP3    H133148   5.639   2.182   2.407  0.1624 -0.4160  1.3809
 3863TIP3    H233149   5.621   2.332   2.416 -0.4643 -0.0121 -3.5981
 3864TIP3   OH233150   6.251   0.181   7.365 -0.0675 -0.0080  0.5915
 3864TIP3    H133151   6.218   0.268   7.345 -0.2324 -0.2160 -0.0398
 3864TIP3    H233152   6.340   0.179   7.329 -0.9608 -0.9585 -1.7115
 3865TIP3   OH233153   1.396   0.552   2.885  0.2198 -0.0506  0.2875
 3865TIP3    H133154   1.361   0.476   2.839 -0.0693 -0.6953  1.5268
 3865TIP3    H233155   1.489   0.532   2.897  0.1619 -0.1786  0.5360
 3866TIP3   OH233156   4.976   4.821   8.112 -0.4480  0.6639  0.2753
 3866TIP3    H133157   5.057   4.818   8.162 -1.1857 -0.0296  1.4544
 3866TIP3    H233158   5.002   4.798   8.023  0.2741 -2.3176  1.1444
 3867TIP3   OH233159   3.089   1.255   1.202  0.1936  1.0728  0.1158
 3867TIP3    H133160   2.995   1.269   1.213  0.0994 -0.7092  2.2979
 3867TIP3    H233161   3.130   1.327   1.249 -0.1388  0.6107  1.1494
 3868TIP3   OH233162   6.556   1.325   8.645 -0.5964 -0.5825 -0.5068
 3868TIP3    H133163   6.505   1.365   8.716  1.3187  0.5397  0.3119
 3868TIP3    H233164   6.528   1.371   8.566  0.7783  1.7381  0.2676
 3869TIP3   OH233165   2.412   2.408   2.044 -0.6646  0.3116 -0.0700
 3869TIP3    H133166   2.323   2.372   2.039 -0.5410  0.1751 -1.5594
 3869TIP3    H233167   2.463   2.355   1.983  1.2219 -1.6947  2.9959
 3870TIP3   OH233168   5.514   0.143   8.390 -0.4322  0.9827  0.0690
 3870TIP3    H133169   5.550   0.090   8.461  0.9773  1.7112 -0.0628
 3870TIP3    H233170   5.488   0.225   8.432 -1.7871  0.5535  0.1220
 3871TIP3   OH233171   5.068   6.650   0.643 -0.7312  0.2651  0.0840
 3871TIP3    H133172   5.140   6.705   0.612  0.5375 -1.1941  0.3379
 3871TIP3    H233173   5.010   6.710   0.689  0.3539  1.4666 -0.0697
 3872TIP3   OH233174   5.868   1.194   7.211  0.3807  0.4214 -0.7950
 3872TIP3    H133175   5.892   1.151   7.293  0.5402 -0.1805 -1.1483
 3872TIP3    H233176   5.775   1.213   7.220  0.8320  2.3120  0.3885
 3873TIP3   OH233177   5.612   0.838   0.473  0.3949 -0.0888  0.1744
 3873TIP3    H133178   5.654   0.752   0.478  1.5001  0.3767 -0.6676
 3873TIP3    H233179   5.684   0.900   0.471 -0.4043  0.8954  1.0810
 3874TIP3   OH233180   0.113   2.857   8.511 -0.4170 -0.4339 -0.4220
 3874TIP3    H133181   0.072   2.771   8.508  0.5652 -0.9201 -0.3436
 3874TIP3    H233182   0.142   2.873   8.421 -0.5924 -0.1917 -0.4357
 3875TIP3   OH233183   6.453   6.496   7.703 -0.6776  0.2375  0.0193
 3875TIP3    H133184   6.435   6.531   7.790  0.4895  0.5646  0.1392
 3875TIP3    H233185   6.407   6.412   7.701  0.1295 -0.2559  1.3181
 3876TIP3   OH233186   3.296   3.774   1.735  0.1988 -0.2328  0.2292
 3876TIP3    H133187   3.283   3.843   1.800  0.9722  0.5471 -0.4294
 3876TIP3    H233188   3.237   3.704   1.763  0.4013  0.1401  1.6967
 3877TIP3   OH233189   5.272   1.602   7.435 -0.1174  0.2399 -0.1948
 3877TIP3    H133190   5.222   1.526   7.407  0.8135 -1.3557  2.1780
 3877TIP3    H233191   5.350   1.566   7.478  1.1571  2.5730 -0.3564
 3878TIP3   OH233192   2.039   2.163   0.975  0.1199 -0.0589  0.3035
 3878TIP3    H133193   2.011   2.074   0.955 -1.1801  0.6314 -1.2041
 3878TIP3    H233194   1.998   2.183   1.059 -1.5721 -0.1298 -0.4475
 3879TIP3   OH233195   0.524   6.322   8.749  0.3023  0.1216  0.1509
 3879TIP3    H133196   0.542   6.310   8.842  0.8134 -1.4272 -0.1210
 3879TIP3    H233197   0.431   6.345   8.746  0.2891  0.2458  1.0458
 3880TIP3   OH233198   3.333   3.345   8.973  0.0998 -0.6674  0.0798
 3880TIP3    H133199   3.246   3.372   8.946 -0.3313 -0.1077  1.9245
 3880TIP3    H233200   3.391   3.413   8.939 -0.2266 -0.8032 -0.7639
 3881TIP3   OH233201   0.852   2.257   1.081 -0.1965  0.2087  0.5863
 3881TIP3    H133202   0.764   2.253   1.120 -1.4566 -0.2151 -2.1024
 3881TIP3    H233203   0.911   2.239   1.155 -2.4101 -0.7083  2.2639
 3882TIP3   OH233204   3.873   2.240   2.529  0.1598 -0.7309 -0.7762
 3882TIP3    H133205   3.801   2.178   2.537 -1.1614  0.3683 -3.1252
 3882TIP3    H233206   3.831   2.326   2.530  1.4711 -0.0435 -1.7973
 3883TIP3   OH233207   2.076   0.083   7.799 -0.0162 -0.3913  0.8821
 3883TIP3    H133208   2.114   0.025   7.733  0.9888  0.7576  0.4384
 3883TIP3    H233209   2.112   0.169   7.780 -2.3295  0.6452  0.8419
 3884TIP3   OH233210   3.010   5.662   8.716  0.0566 -0.0742  0.0971
 3884TIP3    H133211   3.048   5.634   8.632 -3.8228  0.0912 -1.9479
 3884TIP3    H233212   2.959   5.587   8.745 -0.9867  0.8615  0.7631
 3885TIP3   OH233213   2.165   2.076   8.006  0.2938 -0.6568 -0.4063
 3885TIP3    H133214   2.071   2.058   8.015  0.2642 -1.1513 -1.5698
 3885TIP3    H233215   2.185   2.053   7.916  1.0753  1.5485 -0.8676
 3886TIP3   OH233216   6.618   2.523   1.175  0.1894  0.2417  0.0716
 3886TIP3    H133217   6.569   2.575   1.111  0.6597 -0.9756 -1.3465
 3886TIP3    H233218   6.693   2.488   1.126  1.4510  0.5187  1.7022
 3887TIP3   OH233219   0.982   4.263   1.899 -0.2455  0.1707  0.1973
 3887TIP3    H133220   1.030   4.331   1.947  0.2757 -0.9203  1.2840
 3887TIP3    H233221   0.890   4.276   1.925 -0.0012 -0.2620  1.3651
 3888TIP3   OH233222   6.679   1.672   7.311 -0.0979 -0.0211  0.4839
 3888TIP3    H133223   6.700   1.587   7.350  1.3323 -1.1439 -2.3921
 3888TIP3    H233224   6.585   1.669   7.295 -0.4387 -0.1334  2.3071
 3889TIP3   OH233225   4.407   0.587   2.867 -0.1804 -0.7509 -0.0930
 3889TIP3    H133226   4.461   0.665   2.880 -0.0240 -0.0130 -3.9481
 3889TIP3    H233227   4.469   0.519   2.840 -0.6818 -1.1541 -0.2529
 3890TIP3   OH233228   5.048   5.163   8.552 -0.4996 -0.0016 -0.0634
 3890TIP3    H133229   5.072   5.220   8.624  0.0954 -0.3413  0.0168
 3890TIP3    H233230   5.105   5.191   8.479 -0.9639  0.2177 -0.3445
 3891TIP3   OH233231   3.852   2.881   1.361 -0.4183  0.8277 -0.1587
 3891TIP3    H133232   3.785   2.943   1.390 -2.5566 -1.9751  1.3836
 3891TIP3    H233233   3.846   2.809   1.423 -0.9978 -2.8395 -4.0365
 3892TIP3   OH233234   1.734   6.201   2.439  0.1822  0.2865 -1.2752
 3892TIP3    H133235   1.733   6.289   2.402  1.3869 -0.3437 -2.9455
 3892TIP3    H233236   1.709   6.213   2.531 -0.7707  2.2014 -1.7360
 3893TIP3   OH233237   4.684   4.968   7.450  0.2493  0.3528  0.9364
 3893TIP3    H133238   4.614   4.909   7.478  0.7099 -0.6345  0.0831
 3893TIP3    H233239   4.764   4.925   7.482  0.5448  0.8739  0.8986
 3894TIP3   OH233240   6.288   5.143   2.342  0.1298  0.8553 -0.4057
 3894TIP3    H133241   6.353   5.078   2.317 -0.5672 -0.0706  0.1363
 3894TIP3    H233242   6.232   5.098   2.406  0.2246  2.2850  0.7404
 3895TIP3   OH233243   5.951   0.664   1.333 -0.1597 -0.3073  0.4902
 3895TIP3    H133244   5.864   0.633   1.355 -0.2890  1.5124  2.9450
 3895TIP3    H233245   6.001   0.585   1.314 -2.1033 -1.4373 -0.1871
 3896TIP3   OH233246   0.264   3.723   8.032  0.1587 -0.0293 -0.0713
 3896TIP3    H133247   0.306   3.649   7.987  1.0903 -0.2143  1.0635
 3896TIP3    H233248   0.229   3.685   8.112 -0.3088  0.5538  0.0012
 3897TIP3   OH233249   4.342   4.259   6.775  0.0902 -0.3891 -0.1469
 3897TIP3    H133250   4.247   4.248   6.779  0.2468 -2.2731 -0.7828
 3897TIP3    H233251   4.376   4.208   6.848  0.6538 -0.2891 -0.3336
 3898TIP3   OH233252   3.963   5.171   2.328 -0.3498  0.3797 -0.0504
 3898TIP3    H133253   4.023   5.244   2.342  2.2168 -1.5786  0.0117
 3898TIP3    H233254   3.937   5.144   2.416 -1.6137  1.4028 -0.0869
 3899TIP3   OH233255   1.709   2.900   3.075  0.6937  0.6707  0.6831
 3899TIP3    H133256   1.626   2.947   3.084 -0.1435 -0.7700  0.7935
 3899TIP3    H233257   1.732   2.908   2.983  0.0743  0.5034  0.5108
 3900TIP3   OH233258   4.586   1.532   2.035  0.2821 -0.1439  0.0036
 3900TIP3    H133259   4.646   1.597   2.074 -0.6699  1.1910 -0.6754
 3900TIP3    H233260   4.556   1.573   1.954  1.6038 -2.5190 -1.8204
 3901TIP3   OH233261   4.017   1.306   0.129  0.4974  0.1871  0.2257
 3901TIP3    H133262   3.955   1.309   0.202  1.1077 -0.3244  0.7746
 3901TIP3    H233263   4.103   1.313   0.170  0.7965  2.7313 -0.6568
 3902TIP3   OH233264   5.104   1.062   0.700 -0.2775 -0.2240 -0.0386
 3902TIP3    H133265   5.035   1.120   0.669 -0.1928 -0.4222 -0.6192
 3902TIP3    H233266   5.115   1.083   0.792  0.9130  1.8469 -0.6040
 3903TIP3   OH233267   2.248   0.190   2.292 -0.0196 -0.4489 -0.1691
 3903TIP3    H133268   2.234   0.284   2.305  0.9784 -0.1947 -0.8312
 3903TIP3    H233269   2.218   0.173   2.203 -3.3477 -1.4599  0.9892
 3904TIP3   OH233270   3.634   1.126   1.780 -0.0746  0.5405 -0.1915
 3904TIP3    H133271   3.569   1.080   1.726 -0.7563  0.9429  0.2813
 3904TIP3    H233272   3.646   1.210   1.737 -0.4437  0.7701  0.1571
 3905TIP3   OH233273   5.221   0.507   0.688  0.5584 -0.0167 -0.1616
 3905TIP3    H133274   5.171   0.576   0.732 -0.0930 -0.2871 -0.4687
 3905TIP3    H233275   5.300   0.551   0.657  0.0633  0.6408 -0.5197
 3906TIP3   OH233276   0.396   5.224   2.498 -0.4870 -0.1194 -0.0828
 3906TIP3    H133277   0.327   5.206   2.433  0.7529  0.9947 -1.7966
 3906TIP3    H233278   0.385   5.316   2.521 -0.9710 -0.5252  1.4310
 3907TIP3   OH233279   0.879   0.722   8.581 -0.2413 -0.1256 -0.5478
 3907TIP3    H133280   0.890   0.729   8.486 -1.8145  0.7708 -0.6918
 3907TIP3    H233281   0.891   0.811   8.613 -0.4404 -0.2976  0.0105
 3908TIP3   OH233282   5.589   3.289   1.299  0.2943  0.6458 -0.1355
 3908TIP3    H133283   5.560   3.253   1.215  1.1107  1.0409 -0.6033
 3908TIP3    H233284   5.664   3.344   1.276  1.2112 -0.0988  0.9835
 3909TIP3   OH233285   1.185   6.290   0.508 -0.7760  0.2933 -0.2064
 3909TIP3    H133286   1.160   6.210   0.553  0.0014 -0.1961 -0.6128
 3909TIP3    H233287   1.122   6.355   0.537 -0.3752 -0.0328  1.4991
 3910TIP3   OH233288   0.113   4.440   0.092  0.0877 -0.0682 -0.4106
 3910TIP3    H133289   0.167   4.361   0.087  2.1516  1.1605  1.1305
 3910TIP3    H233290   0.117   4.477   0.003 -0.9934 -1.6717 -1.1846
 3911TIP3   OH233291   3.354   1.337   8.540 -0.4430  0.0348 -0.0645
 3911TIP3    H133292   3.327   1.400   8.473 -1.1656 -1.0995 -0.8763
 3911TIP3    H233293   3.342   1.384   8.623 -2.4144  0.4786 -0.5459
 3912TIP3   OH233294   4.735   0.937   7.529  0.4980 -0.0758 -0.8112
 3912TIP3    H133295   4.748   1.011   7.588  1.4646 -0.8390 -0.0390
 3912TIP3    H233296   4.651   0.899   7.556 -0.1170  0.8339 -1.3577
 3913TIP3   OH233297   1.153   1.266   8.028  0.9573  0.1879  0.1351
 3913TIP3    H133298   1.099   1.327   8.079  0.8121 -0.2622  0.5283
 3913TIP3    H233299   1.222   1.320   7.991  0.2090  0.7831 -0.4122
 3914TIP3   OH233300   4.425   2.519   2.508  0.2747  0.1239  0.5768
 3914TIP3    H133301   4.488   2.577   2.465 -0.1747 -0.2041 -0.5681
 3914TIP3    H233302   4.359   2.501   2.441 -1.4903  1.0919  1.9442
 3915TIP3   OH233303   2.133   5.562   2.253  0.1222  0.0264 -0.2343
 3915TIP3    H133304   2.064   5.504   2.284  1.0344 -0.0084  1.8908
 3915TIP3    H233305   2.163   5.522   2.171  0.8157 -2.6368  1.2062
 3916TIP3   OH233306   1.594   1.841   8.784 -0.3130 -0.1628  0.1358
 3916TIP3    H133307   1.598   1.805   8.695 -1.0943  2.3323 -1.0198
 3916TIP3    H233308   1.685   1.837   8.815  0.7699  2.1872 -2.2859
 3917TIP3   OH233309   2.372   1.022   0.783  0.1024 -0.6274  0.8756
 3917TIP3    H133310   2.438   0.976   0.731  0.4703 -0.1078  0.8807
 3917TIP3    H233311   2.416   1.044   0.865  0.3171  0.7748  0.4167
 3918TIP3   OH233312   6.383   2.309   8.484 -0.3571 -0.0145  0.4068
 3918TIP3    H133313   6.410   2.394   8.448 -1.7929  1.2819  2.1588
 3918TIP3    H233314   6.303   2.329   8.533 -0.7735 -2.4226  0.8230
 3919TIP3   OH233315   1.486   6.009   8.523  0.8228 -0.3001  0.0562
 3919TIP3    H133316   1.468   5.963   8.605  1.5651  0.1880  0.5131
 3919TIP3    H233317   1.561   5.963   8.486  1.8423  0.7535  0.7257
 3920TIP3   OH233318   4.280   3.562   2.763 -0.5966 -0.7988 -0.0556
 3920TIP3    H133319   4.191   3.586   2.789  0.6178  1.9213  2.0443
 3920TIP3    H233320   4.307   3.630   2.702  0.4993 -0.8478  0.3524
 3921TIP3   OH233321   6.425   0.859   8.215 -0.4949  0.1306  0.6500
 3921TIP3    H133322   6.516   0.844   8.242 -0.6053 -0.4232  0.7242
 3921TIP3    H233323   6.373   0.802   8.273 -0.9094  0.6173  0.7660
 3922TIP3   OH233324   2.432   5.560   0.715 -0.4338 -0.2924 -0.2671
 3922TIP3    H133325   2.351   5.509   0.711 -0.2437 -0.5463 -0.9686
 3922TIP3    H233326   2.470   5.552   0.628 -1.6136  3.0635 -1.1956
 3923TIP3   OH233327   5.206   3.591   0.821  0.6788  0.4261 -0.4823
 3923TIP3    H133328   5.137   3.531   0.847 -0.3706  1.6718 -0.2517
 3923TIP3    H233329   5.252   3.612   0.903 -0.4319  1.6845 -0.1440
 3924TIP3   OH233330   1.234   4.189   1.804  0.2138  0.0551  0.0384
 3924TIP3    H133331   1.148   4.161   1.835  0.4303  0.1158  0.7054
 3924TIP3    H233332   1.282   4.107   1.789  0.3702  0.0380  0.6202
 3925TIP3   OH233333   3.201   5.735   1.648 -0.5335 -0.4477 -0.3693
 3925TIP3    H133334   3.209   5.639   1.642 -0.9524 -0.4756 -0.5338
 3925TIP3    H233335   3.237   5.767   1.565 -2.4139 -0.5971 -1.3067
 3926TIP3   OH233336   4.928   0.028   0.255 -0.1009  0.2573  0.1702
 3926TIP3    H133337   4.833   0.016   0.260 -0.3554  1.5667 -0.7932
 3926TIP3    H233338   4.945   0.048   0.163  1.0657  0.3903  0.3942
 3927TIP3   OH233339   3.466   0.425   8.534 -0.4016 -0.2202  0.5354
 3927TIP3    H133340   3.417   0.376   8.467 -0.3070  0.1288  0.2093
 3927TIP3    H233341   3.475   0.363   8.607  1.9299 -1.6271 -0.8133
 3928TIP3   OH233342   6.522   2.635   7.520 -0.4121  0.0161 -0.2348
 3928TIP3    H133343   6.542   2.723   7.551 -1.4090  0.4798 -0.8611
 3928TIP3    H233344   6.590   2.580   7.559  1.4660  1.3547 -1.4841
 3929TIP3   OH233345   0.840   4.387   8.051 -0.1068  0.0327 -0.2145
 3929TIP3    H133346   0.927   4.425   8.038 -0.0225 -0.0370  0.1314
 3929TIP3    H233347   0.804   4.379   7.962 -0.9003  2.6423 -0.2170
 3930TIP3   OH233348   2.510   1.811   2.199 -0.7834 -0.0308  0.2375
 3930TIP3    H133349   2.576   1.872   2.166 -1.4671  0.6703  0.1404
 3930TIP3    H233350   2.554   1.726   2.199  0.1623  0.4450  0.3085
 3931TIP3   OH233351   0.621   3.683   0.125 -0.6161  0.2676 -0.2536
 3931TIP3    H133352   0.665   3.714   0.046 -0.2466  1.0255  0.2460
 3931TIP3    H233353   0.610   3.760   0.180  1.6389 -0.6559  1.6496
 3932TIP3   OH233354   6.052   5.093   1.181 -0.1417  0.0168 -0.5738
 3932TIP3    H133355   6.013   5.160   1.125  0.3879  0.3668 -0.5268
 3932TIP3    H233356   6.084   5.027   1.120  1.1389  0.7700 -0.7496
 3933TIP3   OH233357   1.675   0.346   1.599  1.1715 -0.5511  0.0263
 3933TIP3    H133358   1.592   0.393   1.601  0.5552 -1.6240  0.2669
 3933TIP3    H233359   1.669   0.283   1.670  1.4521 -1.8504 -1.0589
 3934TIP3   OH233360   2.232   5.383   2.883  0.1109 -0.4079 -0.3971
 3934TIP3    H133361   2.324   5.390   2.855  0.3894  0.2124  0.6520
 3934TIP3    H233362   2.226   5.297   2.924 -0.6367 -1.9572 -3.4555
 3935TIP3   OH233363   0.422   0.441   8.892 -0.2338 -0.1489  0.1231
 3935TIP3    H133364   0.481   0.458   8.966 -0.4470 -2.3558  0.9083
 3935TIP3    H233365   0.460   0.365   8.849 -2.0651 -1.1841  0.2161
 3936TIP3   OH233366   0.695   5.331   1.802 -0.2610  0.0973 -0.2548
 3936TIP3    H133367   0.612   5.305   1.842  0.4997  0.3174  1.5730
 3936TIP3    H233368   0.725   5.253   1.755 -1.2272 -0.1459 -0.4821
 3937TIP3   OH233369   6.371   5.668   0.538 -0.0401  0.8483 -0.1222
 3937TIP3    H133370   6.373   5.763   0.553  1.4286  0.5823  1.7776
 3937TIP3    H233371   6.338   5.631   0.620 -2.1684 -0.2640 -1.3891
 3938TIP3   OH233372   0.771   3.319   2.188  0.6422  0.1850  1.3176
 3938TIP3    H133373   0.733   3.268   2.259  1.9569 -1.1004  1.1396
 3938TIP3    H233374   0.815   3.254   2.133 -2.8859  0.6179 -2.4779
 3939TIP3   OH233375   4.263   4.250   8.567  0.6670 -0.0322 -0.6477
 3939TIP3    H133376   4.185   4.198   8.546  0.9577  0.1008 -2.1194
 3939TIP3    H233377   4.236   4.303   8.643  0.4349 -2.4389  1.0636
 3940TIP3   OH233378   5.685   3.013   0.590 -0.1462 -0.3447  0.3963
 3940TIP3    H133379   5.611   3.020   0.650 -1.3991  0.1927 -1.1246
 3940TIP3    H233380   5.705   2.920   0.586 -2.7082 -0.9157 -1.3570
 3941TIP3   OH233381   6.046   4.986   8.500  0.4293 -0.2051  0.6788
 3941TIP3    H133382   5.977   5.048   8.478  1.2179  0.4704  0.0176
 3941TIP3    H233383   6.103   5.033   8.561  0.0366 -0.9335  1.6194
 3942TIP3   OH233384   6.377   1.711   8.171  0.1456 -0.8887  0.2302
 3942TIP3    H133385   6.465   1.742   8.153  0.5158 -2.4710 -0.8188
 3942TIP3    H233386   6.340   1.778   8.229  1.6378  0.3488 -0.1772
 3943TIP3   OH233387   1.007   3.929   0.892  0.2382 -0.3261 -0.0647
 3943TIP3    H133388   0.958   4.011   0.881  1.0187 -0.0366 -1.8190
 3943TIP3    H233389   0.948   3.872   0.942 -0.9983  0.7478 -0.2397
 3944TIP3   OH233390   1.862   0.678   0.814  0.1094  0.5019  0.1100
 3944TIP3    H133391   1.817   0.747   0.765 -0.4017 -0.4660 -0.8230
 3944TIP3    H233392   1.816   0.674   0.898  1.1479  2.3454  0.8316
 3945TIP3   OH233393   0.224   5.860   1.584 -0.7130  0.3450  0.1100
 3945TIP3    H133394   0.181   5.829   1.664 -1.9415  1.9724  0.1322
 3945TIP3    H233395   0.188   5.947   1.569  0.5513  0.6600 -1.4538
 3946TIP3   OH233396   3.630   6.410   0.991  0.1014  0.4176 -0.5325
 3946TIP3    H133397   3.638   6.504   0.980  1.9350  0.3570 -0.0615
 3946TIP3    H233398   3.660   6.393   1.081 -1.8410 -0.4633  0.0190
 3947TIP3   OH233399   3.581   0.359   7.505 -0.0626 -0.0031 -0.0832
 3947TIP3    H133400   3.618   0.394   7.424  0.6921  1.1252  0.7169
 3947TIP3    H233401   3.607   0.267   7.506  0.2852  0.0821 -0.9158
 3948TIP3   OH233402   3.131   1.975   3.280  0.3679  0.5355 -0.0145
 3948TIP3    H133403   3.097   2.037   3.344  0.1942  0.3859  0.0395
 3948TIP3    H233404   3.120   1.889   3.322  0.6942  0.4734 -0.0479
 3949TIP3   OH233405   5.201   6.236   0.182  0.1604  0.1296 -0.6246
 3949TIP3    H133406   5.224   6.174   0.251  2.1805  0.9740 -0.4565
 3949TIP3    H233407   5.109   6.258   0.197  0.9670  1.7008  2.9981
 3950TIP3   OH233408   1.380   1.894   7.253  0.3406 -0.1624  0.6141
 3950TIP3    H133409   1.294   1.899   7.295  0.6262 -1.1191  1.3472
 3950TIP3    H233410   1.441   1.924   7.320  0.5355  1.2861 -0.1604
 3951TIP3   OH233411   1.768   6.236   8.225 -0.1911 -0.2293 -0.2559
 3951TIP3    H133412   1.735   6.150   8.201  5.4540 -2.1573 -2.9625
 3951TIP3    H233413   1.755   6.290   8.147 -2.0775  0.9648  0.8033
 3952TIP3   OH233414   5.458   3.156   7.084 -0.3403 -0.4677 -0.5466
 3952TIP3    H133415   5.510   3.235   7.100  0.2704 -0.8670 -0.5519
 3952TIP3    H233416   5.519   3.084   7.097 -0.8138 -0.9304 -0.8672
 3953TIP3   OH233417   3.894   2.752   8.564 -0.0761  0.1904  0.6266
 3953TIP3    H133418   3.929   2.792   8.643 -1.2575  0.9522  0.7819
 3953TIP3    H233419   3.829   2.689   8.595 -2.7467  2.5821  0.2710
 3954TIP3   OH233420   6.351   2.826   1.143  0.0537  0.5290  0.1723
 3954TIP3    H133421   6.309   2.741   1.152 -0.3409  0.6709 -0.2801
 3954TIP3    H233422   6.279   2.890   1.151  0.3305  0.8158  0.4137
 3955TIP3   OH233423   2.271   4.613   2.251  0.4998  0.0504  0.3142
 3955TIP3    H133424   2.178   4.598   2.271  0.2082 -0.1987 -1.0872
 3955TIP3    H233425   2.286   4.561   2.172  1.4448  1.2517 -0.3184
 3956TIP3   OH233426   6.278   4.329   0.065  0.6194  0.2849  0.0580
 3956TIP3    H133427   6.345   4.388   0.030  1.2949  0.6686  1.8748
 3956TIP3    H233428   6.232   4.296  -0.012  1.9276  1.1742 -1.1507
 3957TIP3   OH233429   1.228   5.869   0.789  0.0711 -0.3549 -0.0864
 3957TIP3    H133430   1.294   5.894   0.724  1.9492  1.8165  2.4481
 3957TIP3    H233431   1.169   5.944   0.795 -1.1556 -1.2443 -0.4506
 3958TIP3   OH233432   4.595   4.143   1.935  0.0031  0.4606 -0.3053
 3958TIP3    H133433   4.677   4.138   1.984 -1.0267  1.2568  1.6265
 3958TIP3    H233434   4.608   4.217   1.875  0.8954  0.1948 -0.4564
 3959TIP3   OH233435   2.265   5.119   7.907 -0.1588  0.1065 -0.1949
 3959TIP3    H133436   2.269   5.034   7.863 -2.0667  0.0092 -0.2293
 3959TIP3    H233437   2.287   5.182   7.839  2.5577 -0.3500  0.1108
 3960TIP3   OH233438   0.418   2.764   2.077  0.3168  0.1583 -0.4518
 3960TIP3    H133439   0.403   2.857   2.091 -3.2733 -0.0052 -2.1931
 3960TIP3    H233440   0.459   2.759   1.990 -1.2894  0.0801 -1.2283
 3961TIP3   OH233441   3.330   0.156   8.681 -0.2085 -0.7177  0.4353
 3961TIP3    H133442   3.297   0.080   8.632  0.3674 -0.0154 -1.1016
 3961TIP3    H233443   3.398   0.119   8.738  0.1055 -1.3525 -0.3296
 3962TIP3   OH233444   4.010   5.923   1.201  0.5525  0.1714 -0.2913
 3962TIP3    H133445   3.999   6.002   1.254  2.5433  1.6654 -1.9027
 3962TIP3    H233446   4.081   5.874   1.244  0.1939 -0.0981 -0.0013
 3963TIP3   OH233447   3.402   3.042   3.530  0.3228  0.0644 -0.0265
 3963TIP3    H133448   3.416   3.123   3.481 -1.8683 -0.3637 -1.5210
 3963TIP3    H233449   3.315   3.012   3.502  0.6070 -2.2365  1.3073
 3964TIP3   OH233450   5.723   1.402   2.291  0.0232  0.3988  0.2419
 3964TIP3    H133451   5.731   1.322   2.342 -2.5249  1.4012  2.4806
 3964TIP3    H233452   5.770   1.468   2.343 -0.7082  0.9937  0.1715
 3965TIP3   OH233453   1.653   1.576   8.311 -0.2995 -0.1056 -0.0580
 3965TIP3    H133454   1.674   1.538   8.226 -0.2415 -0.5928  0.1727
 3965TIP3    H233455   1.565   1.546   8.331  0.2369 -1.2197  0.7251
 3966TIP3   OH233456   2.774   1.583   0.381 -0.2515 -0.0438 -0.8576
 3966TIP3    H133457   2.724   1.605   0.302  0.1473 -2.0811 -1.7269
 3966TIP3    H233458   2.748   1.493   0.401  0.6227  0.0050  0.6091
 3967TIP3   OH233459   2.937   6.386   7.687 -0.3858 -0.0225 -0.2992
 3967TIP3    H133460   2.955   6.440   7.610 -1.9220  0.2265 -0.5295
 3967TIP3    H233461   2.894   6.308   7.652  0.7280 -0.8647  0.1463
 3968TIP3   OH233462   2.690   5.931   8.206  0.3976 -0.3530 -0.2392
 3968TIP3    H133463   2.617   5.922   8.268  0.5081  0.2203 -0.0248
 3968TIP3    H233464   2.749   5.993   8.247 -0.3151  1.3473 -1.6685
 3969TIP3   OH233465   5.939   4.241   0.469 -0.0815 -0.1152  0.1082
 3969TIP3    H133466   5.962   4.242   0.562 -1.4458  2.3619  0.5091
 3969TIP3    H233467   5.919   4.149   0.450 -1.5216 -0.4404  2.7535
 3970TIP3   OH233468   5.972   2.118   0.410  0.4060 -0.0434 -0.8983
 3970TIP3    H133469   5.913   2.044   0.420  1.3398 -0.8233 -1.0575
 3970TIP3    H233470   6.051   2.093   0.456 -0.2490  2.0634  1.5967
 3971TIP3   OH233471   5.863   1.941   3.501  0.4708  0.0989 -0.3526
 3971TIP3    H133472   5.809   1.863   3.488  1.2626 -0.9336  2.0171
 3971TIP3    H233473   5.902   1.957   3.415 -1.5812 -0.6442 -1.4845
 3972TIP3   OH233474   2.650   4.628   2.183  0.1305  0.3407 -0.0130
 3972TIP3    H133475   2.725   4.685   2.201  0.7590 -0.7106  0.7910
 3972TIP3    H233476   2.598   4.630   2.264  0.3443 -0.5052  0.1493
 3973TIP3   OH233477   5.503   3.974   0.437  0.1262  0.3522 -0.0909
 3973TIP3    H133478   5.433   4.018   0.486  1.0305 -0.1206  1.6710
 3973TIP3    H233479   5.584   4.012   0.471  0.8335 -0.9774 -0.2208
 3974TIP3   OH233480   2.588   3.920   8.847  0.0218 -1.2539 -0.5577
 3974TIP3    H133481   2.626   3.847   8.895  1.9636  0.0579  0.0172
 3974TIP3    H233482   2.637   3.924   8.765  0.4980 -0.1252 -0.2336
 3975TIP3   OH233483   2.202   5.464   8.828 -0.3460  0.1572  0.0950
 3975TIP3    H133484   2.233   5.484   8.740 -1.9194 -0.2419 -0.5847
 3975TIP3    H233485   2.238   5.533   8.883  0.5619  0.4763 -0.8803
 3976TIP3   OH233486   0.712   5.105   1.654 -0.4757  0.1790 -0.8966
 3976TIP3    H133487   0.678   5.140   1.572  0.6207 -0.1974 -1.5326
 3976TIP3    H233488   0.640   5.054   1.690 -2.1541  2.9846  0.0685
 3977TIP3   OH233489   1.098   6.166   1.563 -0.3218 -0.4700 -0.2645
 3977TIP3    H133490   1.076   6.246   1.609 -1.7184 -0.1702 -1.3782
 3977TIP3    H233491   1.194   6.163   1.564 -0.1865  1.7389 -1.0487
 3978TIP3   OH233492   4.469   3.806   2.248  0.0738 -0.5032 -0.2434
 3978TIP3    H133493   4.412   3.810   2.171 -0.6309 -0.5207  0.2666
 3978TIP3    H233494   4.420   3.753   2.311 -0.2870  1.2147  0.9685
 3979TIP3   OH233495   6.624   5.208   2.179  0.0090 -0.6899  0.0018
 3979TIP3    H133496   6.546   5.226   2.127  0.6794 -0.4329 -0.9544
 3979TIP3    H233497   6.618   5.268   2.254 -0.6750 -0.6343 -0.0960
 3980TIP3   OH233498   5.241   3.004   3.063  0.5693 -0.2891 -0.0983
 3980TIP3    H133499   5.327   3.032   3.032  1.0054 -0.9826  0.4419
 3980TIP3    H233500   5.249   3.003   3.158 -0.8094  2.0321  0.1072
 3981TIP3   OH233501   6.715   1.067   1.905 -0.7420  0.4521 -0.1320
 3981TIP3    H133502   6.721   1.076   2.000 -0.9733 -1.3313  0.0813
 3981TIP3    H233503   6.735   1.155   1.871  0.0273  0.9534  1.5264
 3982TIP3   OH233504   4.096   1.718   8.415  0.4893 -0.5754 -0.3624
 3982TIP3    H133505   4.085   1.804   8.455  0.9120 -0.8508  0.3699
 3982TIP3    H233506   4.018   1.707   8.360 -0.8930 -0.8159  1.5561
 3983TIP3   OH233507   1.472   2.934   2.491  0.2203  0.4622  0.6046
 3983TIP3    H133508   1.384   2.906   2.467  0.4356  2.0198 -2.5571
 3983TIP3    H233509   1.467   3.029   2.496  1.6105  0.5424  1.0076
 3984TIP3   OH233510   3.162   5.916   2.086  0.7480  0.1478 -0.2341
 3984TIP3    H133511   3.254   5.939   2.076  0.6129  1.0390  0.4423
 3984TIP3    H233512   3.152   5.835   2.035  1.2460  1.5102 -2.6425
 3985TIP3   OH233513   6.473   1.649   3.452  0.1960 -0.1599  0.0623
 3985TIP3    H133514   6.382   1.654   3.482  0.9593  1.9376  2.4565
 3985TIP3    H233515   6.486   1.558   3.429 -2.3076 -0.6666  0.3487
 3986TIP3   OH233516   0.596   1.099   1.725  0.2983 -0.0323  0.1970
 3986TIP3    H133517   0.646   1.136   1.652  0.3525 -0.0093  0.2460
 3986TIP3    H233518   0.506   1.092   1.691  0.4173 -0.4576 -0.0280
 3987TIP3   OH233519   3.815   2.943   2.184  0.0727  0.4827 -0.2578
 3987TIP3    H133520   3.890   2.883   2.185 -0.0620  0.2982 -0.7302
 3987TIP3    H233521   3.822   2.988   2.100 -1.1658 -0.6098 -0.9840
 3988TIP3   OH233522   1.228   0.900   8.736 -0.4843 -0.2116 -0.4171
 3988TIP3    H133523   1.298   0.848   8.775 -0.9116  0.8104  1.9025
 3988TIP3    H233524   1.274   0.967   8.685  0.1717 -0.7079 -0.4932
 3989TIP3   OH233525   4.579   0.510   8.891  0.4201  0.0085 -0.2263
 3989TIP3    H133526   4.512   0.445   8.871  0.9765 -0.6599  0.0541
 3989TIP3    H233527   4.652   0.489   8.832  2.0278 -1.8892  2.2129
 3990TIP3   OH233528   5.932   4.083   1.413  0.1586  0.6734  0.2481
 3990TIP3    H133529   5.857   4.031   1.439 -0.8984  1.0124 -1.9292
 3990TIP3    H233530   5.897   4.171   1.398  1.1632  1.0610  0.0639
 3991TIP3   OH233531   4.586   1.984   8.085 -0.4088  0.2620 -0.1781
 3991TIP3    H133532   4.563   1.903   8.039 -1.6610  0.0056  0.8529
 3991TIP3    H233533   4.631   1.955   8.164 -0.0870  0.6119 -0.2313
 3992TIP3   OH233534   6.532   4.384   7.432  0.4330 -0.0766 -0.2469
 3992TIP3    H133535   6.499   4.450   7.371 -1.1973  0.2703  0.9466
 3992TIP3    H233536   6.493   4.302   7.403 -1.0887  0.2304  0.7797
 3993TIP3   OH233537   6.134   3.216   1.061 -0.4970 -0.0524  0.3507
 3993TIP3    H133538   6.202   3.248   1.120  1.1321  0.3978 -1.6773
 3993TIP3    H233539   6.111   3.292   1.008 -0.7562 -0.8329 -0.6858
 3994TIP3   OH233540   2.418   6.375   0.895  0.1751  0.1098  0.5493
 3994TIP3    H133541   2.508   6.382   0.865 -0.1747  0.7320 -0.3672
 3994TIP3    H233542   2.399   6.460   0.935 -0.3612  0.3761 -0.2609
 3995TIP3   OH233543   2.170   0.989   2.856 -0.1994  0.1569 -0.5352
 3995TIP3    H133544   2.170   1.009   2.949  2.3986 -0.8640 -0.2327
 3995TIP3    H233545   2.202   1.069   2.814 -0.4006  0.2804 -0.4552
 3996TIP3   OH233546   2.597   5.162   7.926  0.6067  1.2588 -0.0147
 3996TIP3    H133547   2.554   5.090   7.971  0.4632  1.0118 -0.5396
 3996TIP3    H233548   2.534   5.190   7.859  1.8264 -0.1716 -1.8943
 3997TIP3   OH233549   1.330   5.849   1.543  0.0326  0.0505  0.0837
 3997TIP3    H133550   1.412   5.897   1.529  0.2973 -0.3947  0.1102
 3997TIP3    H233551   1.302   5.875   1.631 -0.6227  1.3371 -0.4701
 3998TIP3   OH233552   4.424   5.342   1.133  0.0221 -0.3633  0.5687
 3998TIP3    H133553   4.414   5.358   1.039  2.4104 -2.3627 -0.1215
 3998TIP3    H233554   4.362   5.272   1.152  0.9238 -1.3303  0.0137
 3999TIP3   OH233555   2.412   0.036   8.426 -0.0322  0.4016  0.3384
 3999TIP3    H133556   2.353   0.103   8.392  1.7274  1.0003 -1.7522
 3999TIP3    H233557   2.497   0.058   8.389  1.2610 -1.1838  2.1743
 4000TIP3   OH233558   3.134   4.764   7.659 -0.2198 -0.1632 -0.1408
 4000TIP3    H133559   3.204   4.810   7.612  0.5562 -2.2433 -1.1504
 4000TIP3    H233560   3.062   4.827   7.662  0.6046  0.9574 -1.9012
 4001TIP3   OH233561   2.126   2.060   8.601 -0.4073  0.2094 -0.3935
 4001TIP3    H133562   2.132   2.148   8.637  1.3706 -0.2445  0.5748
 4001TIP3    H233563   2.167   2.066   8.514 -1.7323  0.6386 -1.0048
 4002TIP3   OH233564   3.824   6.025   7.236 -0.2791 -0.2776 -0.1322
 4002TIP3    H133565   3.867   6.101   7.195  1.0023 -0.6401  0.4811
 4002TIP3    H233566   3.740   6.017   7.190 -1.2149  2.5181  0.8715
 4003TIP3   OH233567   1.713   0.723   8.854 -0.0822 -0.2992  0.6272
 4003TIP3    H133568   1.727   0.746   8.946 -0.0005  1.5417  0.2062
 4003TIP3    H233569   1.789   0.761   8.809  0.4368 -2.0914 -0.1091
 4004TIP3   OH233570   4.838   4.719   0.141 -0.4234 -0.5291  0.1290
 4004TIP3    H133571   4.914   4.722   0.199  0.2091 -0.8147 -0.6619
 4004TIP3    H233572   4.829   4.626   0.119  0.2351 -0.2721 -1.3541
 4005TIP3   OH233573   3.895   4.464   2.228 -0.3040 -0.2646 -0.5940
 4005TIP3    H133574   3.909   4.415   2.148  0.1044 -0.8316 -0.1853
 4005TIP3    H233575   3.974   4.516   2.239 -0.5865  0.2204 -0.8401
 4006TIP3   OH233576   1.349   2.775   1.091 -0.3800 -0.0810 -0.3268
 4006TIP3    H133577   1.274   2.819   1.131 -0.1475 -2.2352  2.7962
 4006TIP3    H233578   1.313   2.734   1.012 -1.6218  1.7932 -0.7962
 4007TIP3   OH233579   1.765   6.766   0.230 -0.0272 -0.2906  0.0249
 4007TIP3    H133580   1.682   6.759   0.182 -0.5808 -1.0386  1.0450
 4007TIP3    H233581   1.811   6.685   0.207  1.1199  0.7869 -1.7263
 4008TIP3   OH233582   2.696   0.486   0.728 -0.4416  0.0931 -0.7590
 4008TIP3    H133583   2.665   0.566   0.686 -3.7773  1.0487  2.9709
 4008TIP3    H233584   2.781   0.510   0.765 -2.2959  2.9155  2.2038
 4009TIP3   OH233585   0.685   4.912   2.459 -0.2341 -0.2719 -0.8177
 4009TIP3    H133586   0.657   4.959   2.381 -0.3852  1.6552  0.3274
 4009TIP3    H233587   0.764   4.958   2.488  0.5165 -1.7001 -0.4806
 4010TIP3   OH233588   0.313   4.917   8.565 -0.0733 -0.1696 -0.0131
 4010TIP3    H133589   0.282   4.834   8.529  0.1708 -0.6387  0.8331
 4010TIP3    H233590   0.258   4.983   8.524  1.0035 -0.5522 -2.1752
 4011TIP3   OH233591   0.202   4.064   0.369 -0.0395  0.1257  0.0274
 4011TIP3    H133592   0.249   4.024   0.442 -1.1441 -0.5137  0.3944
 4011TIP3    H233593   0.271   4.104   0.316  0.7678  0.8213  1.5336
 4012TIP3   OH233594   1.320   5.840   2.378  0.0996  0.6615  0.3360
 4012TIP3    H133595   1.386   5.904   2.350  0.3627 -0.0524 -0.7208
 4012TIP3    H233596   1.301   5.865   2.469  1.2919  1.3220  0.4341
 4013TIP3   OH233597   0.779   6.641   8.527 -0.0488 -0.8494  0.0715
 4013TIP3    H133598   0.754   6.565   8.475 -0.8448  0.0602 -0.9012
 4013TIP3    H233599   0.874   6.636   8.533 -0.0609 -1.6898 -0.3196
 4014TIP3   OH233600   6.674   2.079   8.358  1.0494 -0.2051  0.2991
 4014TIP3    H133601   6.706   2.154   8.409  0.8586  1.2959 -1.6827
 4014TIP3    H233602   6.655   2.115   8.272 -1.4797 -2.0167 -0.0237
 4015TIP3   OH233603   6.357   4.495   7.175 -0.8766  0.1510 -0.1840
 4015TIP3    H133604   6.306   4.576   7.170 -0.5168  0.3275 -1.6207
 4015TIP3    H233605   6.303   4.430   7.130 -1.3481 -0.5470  1.3180
 4016TIP3   OH233606   6.739   3.980   1.894 -0.2802  0.3418 -0.2353
 4016TIP3    H133607   6.692   3.912   1.943  1.2428 -1.0277 -0.6188
 4016TIP3    H233608   6.670   4.023   1.842 -1.3638 -0.5085  0.4478
 4017TIP3   OH233609   5.971   2.971   2.511  0.2595  0.3796 -0.5783
 4017TIP3    H133610   5.929   2.950   2.595  2.1086 -1.8518 -0.0822
 4017TIP3    H233611   5.900   2.971   2.447 -1.0331  0.9237  0.8006
 4018TIP3   OH233612   0.237   4.676   8.460 -0.0216 -0.1066 -0.2349
 4018TIP3    H133613   0.229   4.650   8.368  0.2264 -1.1477  0.0295
 4018TIP3    H233614   0.181   4.615   8.508 -1.4190  1.4150  0.1710
 4019TIP3   OH233615   5.955   4.626   2.246 -0.6073 -0.2247  0.7057
 4019TIP3    H133616   5.940   4.561   2.177 -0.0284  0.4118 -0.0515
 4019TIP3    H233617   5.872   4.672   2.255 -0.0947  1.2510 -1.2831
 4020TIP3   OH233618   2.181   5.529   7.673 -0.4645  0.3993 -0.0595
 4020TIP3    H133619   2.118   5.474   7.626  0.6848  0.3694 -1.6700
 4020TIP3    H233620   2.208   5.594   7.608  0.0684  1.3170  1.0517
 4021TIP3   OH233621   6.261   4.273   2.667  0.3510  0.2430 -0.0974
 4021TIP3    H133622   6.269   4.198   2.727 -0.2812  0.9086  0.8404
 4021TIP3    H233623   6.175   4.311   2.687  1.1266  1.9052  0.2783
 4022TIP3   OH233624   4.227   0.219   2.184  0.0232  0.7722 -0.0312
 4022TIP3    H133625   4.134   0.200   2.190 -0.0792  0.7115 -1.5831
 4022TIP3    H233626   4.232   0.315   2.177  0.0590  0.7424 -0.3928
 4023TIP3   OH233627   3.183   2.794   7.921  0.6096  0.1874 -0.3980
 4023TIP3    H133628   3.116   2.779   7.855  1.0880 -2.1917 -0.4303
 4023TIP3    H233629   3.234   2.868   7.887 -1.2600  1.2771 -0.9308
 4024TIP3   OH233630   3.004   4.776   0.600  0.3589 -0.2849  0.0715
 4024TIP3    H133631   2.953   4.769   0.681 -1.0363  1.8141 -0.5454
 4024TIP3    H233632   2.940   4.762   0.530  0.9932  0.5123 -0.6885
 4025TIP3   OH233633   5.864   1.100   3.283 -0.3860 -0.0925  0.5773
 4025TIP3    H133634   5.796   1.147   3.235 -0.4472  1.6661  2.2772
 4025TIP3    H233635   5.942   1.153   3.273  0.6115 -1.7208 -0.7360
 4026TIP3   OH233636   5.492   1.132   8.057  0.0370 -0.4692  0.5998
 4026TIP3    H133637   5.495   1.037   8.068 -0.9650 -0.8088 -1.4278
 4026TIP3    H233638   5.411   1.158   8.101 -0.7976 -0.9067 -0.6092
 4027TIP3   OH233639   3.346   0.737   0.860 -0.1267 -0.0260 -0.7842
 4027TIP3    H133640   3.320   0.810   0.803  1.1435  0.3746 -0.8686
 4027TIP3    H233641   3.422   0.770   0.908  0.7772 -1.4530 -1.1793
 4028TIP3   OH233642   3.691   1.446   2.663  0.0786 -0.5481 -0.4261
 4028TIP3    H133643   3.597   1.450   2.646 -0.5585 -1.0928  2.4079
 4028TIP3    H233644   3.719   1.537   2.665 -1.4106  0.0016  2.9811
 4029TIP3   OH233645   0.234   1.186   7.910  0.1657  0.2191 -0.0608
 4029TIP3    H133646   0.203   1.101   7.879 -1.8378  1.0385 -0.4251
 4029TIP3    H233647   0.298   1.214   7.844 -1.3115  0.2659 -1.5213
 4030TIP3   OH233648   5.219   0.204   7.601 -0.4093 -0.2510 -0.2241
 4030TIP3    H133649   5.284   0.198   7.530  0.9806  1.8782  0.7563
 4030TIP3    H233650   5.264   0.167   7.677  0.4120  2.6418  0.8469
 4031TIP3   OH233651   1.930   1.248   2.596  0.4157  0.2285  0.1663
 4031TIP3    H133652   1.937   1.322   2.536  0.2827 -0.1882 -0.3715
 4031TIP3    H233653   1.842   1.213   2.581  0.0275  0.6876  1.2762
 4032TIP3   OH233654   4.443   6.290   7.281  0.1458  0.6084  0.0236
 4032TIP3    H133655   4.525   6.242   7.265  0.3731  1.3758 -1.3702
 4032TIP3    H233656   4.462   6.379   7.249 -0.2307  1.6861  2.5953
 4033TIP3   OH233657   0.572   5.079   2.919 -0.0656  0.1980 -0.0873
 4033TIP3    H133658   0.560   5.021   2.995  1.7324 -0.7992 -0.5050
 4033TIP3    H233659   0.510   5.047   2.854 -1.1908  0.6717  0.7251
 4034TIP3   OH233660   1.946   4.201   7.035  0.4634  0.1907 -0.6648
 4034TIP3    H133661   1.901   4.260   7.095 -0.2283 -0.4354 -0.5643
 4034TIP3    H233662   2.037   4.230   7.037  0.4089  0.3052  0.5251
 4035TIP3   OH233663   5.043   3.836   7.499 -0.3792  0.1165 -0.3438
 4035TIP3    H133664   5.046   3.920   7.544  2.1829  1.0022 -1.9284
 4035TIP3    H233665   5.016   3.857   7.410 -1.4874 -1.0447 -0.3248
 4036TIP3   OH233666   6.067   2.885   8.630 -0.1294 -0.0979  0.0425
 4036TIP3    H133667   6.098   2.834   8.706  1.5301  0.7324 -0.0318
 4036TIP3    H233668   6.125   2.859   8.559 -1.8246 -1.0489 -1.0602
 4037TIP3   OH233669   5.343   5.265   8.907  0.1245  0.0206 -0.3765
 4037TIP3    H133670   5.335   5.360   8.916 -1.2786 -0.1659  0.8116
 4037TIP3    H233671   5.378   5.236   8.992  0.5405 -0.5255 -0.7276
 4038TIP3   OH233672   4.065   2.367   7.548 -0.3127  0.0453 -0.2160
 4038TIP3    H133673   4.010   2.377   7.627  0.7795 -0.3409  0.6215
 4038TIP3    H233674   4.036   2.438   7.490  0.7313  2.1452  1.6611
 4039TIP3   OH233675   0.558   5.023   1.936 -0.3272  0.6775  0.5631
 4039TIP3    H133676   0.522   5.106   1.905 -0.4752 -0.1876 -1.7678
 4039TIP3    H233677   0.490   4.959   1.917  1.8538 -0.8777 -3.1905
 4040TIP3   OH233678   1.925   6.473   8.858  0.0573 -0.1234 -0.1093
 4040TIP3    H133679   1.936   6.417   8.781 -1.5561 -0.8687  0.1505
 4040TIP3    H233680   1.911   6.560   8.822  0.7478 -0.2084 -0.6022
 4041TIP3   OH233681   4.567   1.551   2.739 -0.2626 -0.0899  0.2471
 4041TIP3    H133682   4.546   1.473   2.687 -0.3748  0.3788 -0.4315
 4041TIP3    H233683   4.574   1.520   2.829 -1.2524 -0.7163  0.1164
 4042TIP3   OH233684   0.622   2.957   1.593 -0.3131  0.4825  0.5056
 4042TIP3    H133685   0.543   2.965   1.538  0.7220  1.1725 -0.9594
 4042TIP3    H233686   0.659   2.872   1.569  1.6711  1.9286 -2.1501
 4043TIP3   OH233687   1.871   4.432   8.603  0.2102 -0.4973 -0.6537
 4043TIP3    H133688   1.784   4.422   8.640 -0.0964  2.8891 -0.2114
 4043TIP3    H233689   1.931   4.411   8.675 -0.2683 -0.7878 -0.3391
 4044TIP3   OH233690   3.098   5.245   7.388  0.4746 -0.1284  0.3761
 4044TIP3    H133691   3.140   5.232   7.304  0.5460  1.6056  0.0986
 4044TIP3    H233692   3.156   5.305   7.435  0.0879 -0.5120  1.3761
 4045TIP3   OH233693   1.990   5.385   1.842 -0.3550 -0.0957  0.1020
 4045TIP3    H133694   1.995   5.474   1.875 -1.3231  0.0304 -0.0715
 4045TIP3    H233695   1.932   5.340   1.903  0.2063 -0.6424  0.2471
 4046TIP3   OH233696   6.218   2.024   8.253 -0.0170  0.0607  0.8651
 4046TIP3    H133697   6.178   1.957   8.307 -0.1741  0.9569  1.8963
 4046TIP3    H233698   6.306   2.036   8.290 -0.9540  2.3992  2.5813
 4047TIP3   OH233699   2.505   4.971   0.372  0.5837 -0.6103 -0.1660
 4047TIP3    H133700   2.494   4.893   0.318 -0.2659 -0.5008 -0.1656
 4047TIP3    H233701   2.428   4.971   0.430  0.6129  0.1887 -0.1229
 4048TIP3   OH233702   6.431   1.421   7.640 -0.3564 -0.4749 -0.1941
 4048TIP3    H133703   6.487   1.350   7.669 -1.2280 -0.5371  1.4372
 4048TIP3    H233704   6.406   1.397   7.551 -1.9203 -3.1002  0.8373
 4049TIP3   OH233705   3.799   1.289   8.873 -0.2675  0.0430 -0.4675
 4049TIP3    H133706   3.812   1.382   8.851 -1.3026  0.3169  0.0054
 4049TIP3    H233707   3.790   1.289   8.969  0.6968 -0.6858 -0.3595
 4050TIP3   OH233708   0.828   4.364   8.345  0.0394  0.0036  0.0075
 4050TIP3    H133709   0.736   4.360   8.321 -0.0737 -0.2581  0.4551
 4050TIP3    H233710   0.875   4.378   8.263 -0.4441  0.7933 -0.1375
 4051TIP3   OH233711   4.937   6.584   7.123 -0.0802 -0.2462 -0.5103
 4051TIP3    H133712   4.856   6.538   7.100 -0.4771  0.1478  0.0570
 4051TIP3    H233713   4.993   6.576   7.046 -1.9728  2.4528 -2.3420
 4052TIP3   OH233714   0.782   3.876   2.166 -0.0976  0.3308  0.8617
 4052TIP3    H133715   0.774   3.971   2.159 -0.6276  0.3886  2.0929
 4052TIP3    H233716   0.874   3.858   2.148 -0.2757  0.9100 -0.8808
 4053TIP3   OH233717   2.765   3.205   3.074  0.0084  0.2331  0.4588
 4053TIP3    H133718   2.839   3.238   3.024 -0.3616 -0.3914 -0.5315
 4053TIP3    H233719   2.792   3.118   3.103  0.5967  0.9619  2.2053
 4054TIP3   OH233720   4.081   0.935   2.326  0.2402  0.3155 -0.0532
 4054TIP3    H133721   4.131   1.008   2.362  1.1715 -0.2515 -0.1607
 4054TIP3    H233722   4.145   0.864   2.317 -1.0029 -1.1071  1.7161
 4055TIP3   OH233723   4.036   5.053   0.564  0.1641 -0.0691  0.0425
 4055TIP3    H133724   4.011   5.140   0.595 -1.0574 -0.4778  0.2368
 4055TIP3    H233725   4.013   4.994   0.635 -1.5493 -0.8726 -1.1178
 4056TIP3   OH233726   4.959   1.707   0.742  0.5227 -0.1144  0.1632
 4056TIP3    H133727   4.888   1.644   0.729  0.5298 -0.1034  0.0692
 4056TIP3    H233728   5.036   1.653   0.756  0.3903 -0.1293  0.8684
 4057TIP3   OH233729   0.537   1.546   8.748 -0.3793 -0.2888  0.1771
 4057TIP3    H133730   0.559   1.487   8.821 -0.4178 -0.5733 -0.0389
 4057TIP3    H233731   0.576   1.630   8.773 -0.8150 -0.2551  0.7553
 4058TIP3   OH233732   3.191   6.307   8.676 -0.6517 -0.5368  0.0404
 4058TIP3    H133733   3.273   6.299   8.628 -0.4188 -0.1465  0.3654
 4058TIP3    H233734   3.123   6.308   8.608 -0.4391 -1.4409 -0.1969
 4059TIP3   OH233735   5.659   1.106   8.668  0.0906 -0.5941  0.0892
 4059TIP3    H133736   5.656   1.162   8.591  0.4159 -0.4979  0.1466
 4059TIP3    H233737   5.742   1.058   8.661  0.8516  0.5192  1.1493
 4060TIP3   OH233738   5.011   0.691   1.804  0.1741  0.2976  0.3268
 4060TIP3    H133739   4.962   0.745   1.743 -1.0494 -1.2639 -0.1508
 4060TIP3    H233740   4.952   0.619   1.825  0.9234  0.2883  2.6477
 4061TIP3   OH233741   3.098   2.428   2.008 -0.5071 -0.2417 -0.2270
 4061TIP3    H133742   3.040   2.490   1.965 -0.9978 -0.7145 -0.2542
 4061TIP3    H233743   3.115   2.468   2.094 -1.4700 -0.4475  0.0700
 4062TIP3   OH233744   6.473   0.912   8.934  0.0910  0.0726  0.1219
 4062TIP3    H133745   6.437   0.831   8.970  1.3170 -0.9267 -0.8250
 4062TIP3    H233746   6.541   0.937   8.997 -0.1512  0.2772  0.3076
 4063TIP3   OH233747   0.194   0.376   7.381  0.1836 -0.1298 -0.0541
 4063TIP3    H133748   0.235   0.399   7.465 -2.1447 -0.6396  1.3073
 4063TIP3    H233749   0.259   0.321   7.337  2.4117  2.0059  0.3290
 4064TIP3   OH233750   4.811   1.356   1.831  0.8058  0.1908 -0.4159
 4064TIP3    H133751   4.749   1.302   1.781  1.7048 -0.5133 -0.7905
 4064TIP3    H233752   4.793   1.334   1.922 -0.2867  0.8718 -0.4456
 4065TIP3   OH233753   2.758   1.380   0.043  0.2082 -0.0819  0.1282
 4065TIP3    H133754   2.676   1.428   0.060  0.3097 -0.4015  1.6778
 4065TIP3    H233755   2.770   1.325   0.120  1.4852 -0.6386 -0.4385
 4066TIP3   OH233756   1.007   1.480   2.700 -0.0738  0.3290 -0.1483
 4066TIP3    H133757   1.018   1.572   2.673 -0.3210  0.7014  0.9975
 4066TIP3    H233758   0.926   1.479   2.750 -1.3346 -0.9677 -2.0736
 4067TIP3   OH233759   0.191   2.918   0.545  0.0760 -0.3061 -0.5524
 4067TIP3    H133760   0.285   2.911   0.556  0.3418  1.0202 -1.6529
 4067TIP3    H233761   0.154   2.874   0.622  1.5742 -0.6713 -0.0076
 4068TIP3   OH233762   4.714   5.584   0.118 -1.1145 -0.0203  0.3115
 4068TIP3    H133763   4.755   5.612   0.200 -1.1803 -0.4745  0.4999
 4068TIP3    H233764   4.699   5.490   0.130 -3.1891  0.3116  0.6781
 4069TIP3   OH233765   6.103   0.232   1.814  0.8447 -0.0059 -0.0874
 4069TIP3    H133766   6.091   0.176   1.891  4.4008 -0.0629  0.5997
 4069TIP3    H233767   6.109   0.321   1.850  1.4272  0.0843 -0.3820
 4070TIP3   OH233768   6.238   1.397   0.516 -0.0308  0.1080 -0.3237
 4070TIP3    H133769   6.286   1.338   0.457 -1.7561 -0.8060 -0.8831
 4070TIP3    H233770   6.156   1.416   0.469 -0.3179  1.4770  0.6682
 4071TIP3   OH233771   1.236   2.638   0.898  0.5578  0.9640  0.3335
 4071TIP3    H133772   1.148   2.655   0.866  1.0379  1.0977 -0.9846
 4071TIP3    H233773   1.227   2.565   0.960 -0.2604 -0.0773 -0.9812
 4072TIP3   OH233774   4.848   2.822   1.035  0.3516  0.5649  0.2636
 4072TIP3    H133775   4.877   2.817   1.127  0.7779  0.1974  0.1135
 4072TIP3    H233776   4.925   2.849   0.987  0.5333 -0.6596 -0.1732
 4073TIP3   OH233777   3.703   6.481   7.880 -0.2124  0.1783 -0.6415
 4073TIP3    H133778   3.697   6.478   7.976  0.4878  0.5800 -0.5757
 4073TIP3    H233779   3.618   6.513   7.852 -0.3719  0.2046 -0.1370
 4074TIP3   OH233780   0.912   0.514   0.297 -0.1418  0.0925 -0.1732
 4074TIP3    H133781   0.936   0.475   0.213 -1.2406 -0.5885 -0.1856
 4074TIP3    H233782   0.928   0.444   0.361 -1.6396 -0.2333 -0.1317
 4075TIP3   OH233783   5.378   3.844   2.677  0.1065 -0.0145 -0.0066
 4075TIP3    H133784   5.336   3.887   2.751 -1.3971 -1.4718  0.0453
 4075TIP3    H233785   5.469   3.873   2.681 -0.0623  0.3798  2.0719
 4076TIP3   OH233786   4.539   4.619   7.465  0.2051  0.3298  0.2142
 4076TIP3    H133787   4.494   4.672   7.530 -0.1714 -0.3388  0.5107
 4076TIP3    H233788   4.469   4.586   7.408  0.2303 -1.1180  0.9702
 4077TIP3   OH233789   1.261   3.018   1.826 -0.7298  0.0337 -0.0016
 4077TIP3    H133790   1.248   3.110   1.804 -0.1577  0.6970  2.1083
 4077TIP3    H233791   1.326   2.988   1.763 -0.5647  1.2186 -0.4370
 4078TIP3   OH233792   6.278   6.470   8.585  0.1463  0.5007  0.0228
 4078TIP3    H133793   6.362   6.427   8.570 -0.2707  0.1881 -1.6345
 4078TIP3    H233794   6.214   6.399   8.583 -0.3427  0.9425 -0.7166
 4079TIP3   OH233795   6.109   4.951   2.003  0.0766 -0.4049 -0.1102
 4079TIP3    H133796   6.119   4.940   2.098 -3.1495  0.5446  0.4615
 4079TIP3    H233797   6.136   5.041   1.987  0.3038 -0.4576 -0.0252
 4080TIP3   OH233798   1.722   6.593   0.804  0.4310  0.5001 -1.1775
 4080TIP3    H133799   1.745   6.558   0.718 -1.7659  0.7654 -1.9385
 4080TIP3    H233800   1.688   6.518   0.852 -0.0494  0.6961 -1.2055
 4081TIP3   OH233801   1.004   0.424   8.441  0.0104 -0.0546 -0.4948
 4081TIP3    H133802   1.008   0.329   8.448  0.0899  0.0726  2.1382
 4081TIP3    H233803   1.027   0.443   8.350  2.2061 -2.4246 -0.5279
 4082TIP3   OH233804   6.368   2.740   0.541  0.4484  0.0561  0.1403
 4082TIP3    H133805   6.306   2.666   0.537 -0.4110  0.6512  1.5919
 4082TIP3    H233806   6.418   2.733   0.460 -2.4119  0.3090 -1.8012
 4083TIP3   OH233807   1.692   1.037   1.365  0.0403  0.0167  0.1578
 4083TIP3    H133808   1.728   1.052   1.453 -3.2882  0.9488  1.5446
 4083TIP3    H233809   1.724   1.111   1.314 -0.0944  0.9937  1.4104
 4084TIP3   OH233810   0.960   5.771   8.727 -0.8178 -0.1617 -0.2956
 4084TIP3    H133811   1.044   5.772   8.772 -1.5495  2.0413  1.1536
 4084TIP3    H233812   0.973   5.710   8.654  1.7791 -0.4444  0.3058
 4085TIP3   OH233813   0.903   6.706   0.798 -0.0175 -0.4524  0.3010
 4085TIP3    H133814   0.990   6.668   0.788  0.2966 -0.3292  2.1911
 4085TIP3    H233815   0.873   6.722   0.708  1.5579 -1.2517 -0.4028
 4086TIP3   OH233816   3.544   3.878   2.467 -0.4122  0.6961  0.7596
 4086TIP3    H133817   3.598   3.926   2.530 -0.2071  1.5058 -0.0050
 4086TIP3    H233818   3.583   3.790   2.464 -1.3079  0.1832  2.7999
 4087TIP3   OH233819   4.784   0.035   7.479  0.0507 -0.4704 -0.0634
 4087TIP3    H133820   4.769  -0.012   7.561  1.7813  1.0541  1.1979
 4087TIP3    H233821   4.847   0.103   7.501 -0.7073  1.0788 -2.2986
 4088TIP3   OH233822   4.401   5.172   0.289 -0.1280  0.1776 -1.1254
 4088TIP3    H133823   4.362   5.106   0.346  0.0603  0.3269 -0.8202
 4088TIP3    H233824   4.328   5.203   0.235 -0.1903 -0.3711 -1.3635
 4089TIP3   OH233825   4.046   2.379   2.810 -0.2720 -0.1094 -0.1757
 4089TIP3    H133826   4.077   2.463   2.774  2.3403 -0.8952  0.0409
 4089TIP3    H233827   4.043   2.392   2.904 -2.6601  0.5321 -0.2634
 4090TIP3   OH233828   6.062   6.329   2.104 -0.4930  0.2749  0.0608
 4090TIP3    H133829   6.050   6.242   2.140 -0.2606  0.1712 -0.1108
 4090TIP3    H233830   6.098   6.381   2.176 -1.2333  0.3950  0.3543
 4091TIP3   OH233831   0.545   4.509   8.445 -0.0065 -0.6850 -0.0470
 4091TIP3    H133832   0.479   4.441   8.455 -0.8968  0.2360  0.6910
 4091TIP3    H233833   0.529   4.545   8.358 -0.1868 -0.7731 -0.0516
 4092TIP3   OH233834   4.252   0.555   0.320  0.1102 -0.3644  0.5458
 4092TIP3    H133835   4.308   0.632   0.314 -1.1413  0.5362  0.0951
 4092TIP3    H233836   4.173   0.578   0.272 -0.0266 -2.1859 -0.2120
 4093TIP3   OH233837   2.273   0.386   0.003 -0.3106  0.2059 -0.0737
 4093TIP3    H133838   2.256   0.359  -0.088 -1.9198  1.6213 -0.2573
 4093TIP3    H233839   2.333   0.320   0.037 -2.0319 -2.1046 -1.2229
 4094TIP3   OH233840   2.367   1.773   1.685 -0.4599  0.1068 -0.1531
 4094TIP3    H133841   2.347   1.783   1.592 -1.1029  2.8885  0.2019
 4094TIP3    H233842   2.449   1.820   1.697 -0.4062 -0.1914  0.7033
 4095TIP3   OH233843   2.247   5.204   0.621 -0.4656  0.1637 -0.8988
 4095TIP3    H133844   2.184   5.248   0.565 -0.3309  2.1313  0.4012
 4095TIP3    H233845   2.272   5.270   0.686  1.8665 -0.9864 -0.5194
 4096TIP3   OH233846   5.792   3.843   8.749 -0.4432  0.2652 -0.4391
 4096TIP3    H133847   5.876   3.886   8.740 -0.5883  0.5480 -0.4486
 4096TIP3    H233848   5.734   3.890   8.690 -0.3718 -0.5543 -1.1905
 4097TIP3   OH233849   0.152   4.117   0.733 -0.6816 -0.1100  0.2608
 4097TIP3    H133850   0.231   4.066   0.716 -0.2298  1.3903 -2.6987
 4097TIP3    H233851   0.173   4.168   0.811  0.8876 -0.5219  0.1413
 4098TIP3   OH233852   5.608   2.446   1.832  0.4989 -0.2525  0.2278
 4098TIP3    H133853   5.687   2.411   1.791  0.8804  0.8977 -0.0790
 4098TIP3    H233854   5.622   2.434   1.926  1.5394  0.8931  0.2398
 4099TIP3   OH233855   4.470   2.246   1.532  0.1252 -0.0436  0.0418
 4099TIP3    H133856   4.427   2.292   1.460  0.3453  0.5662  0.2883
 4099TIP3    H233857   4.487   2.315   1.597  2.8817  0.1025 -0.7047
 4100TIP3   OH233858   5.595   5.485   1.416 -0.8873 -0.2912 -0.1023
 4100TIP3    H133859   5.560   5.404   1.453  0.2490 -0.7952 -0.0930
 4100TIP3    H233860   5.639   5.528   1.489  0.9508 -1.0581 -0.7009
 4101TIP3   OH233861   0.161   2.314   8.314 -0.0384  0.2510  0.6466
 4101TIP3    H133862   0.090   2.317   8.378  0.3769  0.1335  1.1112
 4101TIP3    H233863   0.241   2.317   8.366  0.3109  1.3830  0.0856
 4102TIP3   OH233864   1.476   2.154   8.745 -0.5772  0.9949 -0.1771
 4102TIP3    H133865   1.540   2.119   8.682  0.1819  0.1854  0.9839
 4102TIP3    H233866   1.503   2.245   8.758  0.0757  0.7924 -0.0476
 4103TIP3   OH233867   2.931   2.319   3.183 -0.1180  0.5475  0.5428
 4103TIP3    H133868   2.937   2.277   3.269  0.3714  0.1888  0.3410
 4103TIP3    H233869   2.839   2.343   3.174 -0.3244 -0.1146  0.8400
 4104TIP3   OH233870   4.937   1.408   3.386  0.5786 -0.0237 -0.4287
 4104TIP3    H133871   4.910   1.500   3.380 -0.3506 -0.3244 -0.9525
 4104TIP3    H233872   5.021   1.405   3.340 -0.1112  0.2890 -1.7603
 4105TIP3   OH233873   3.578   1.697   2.042  0.1348  0.9643 -0.0224
 4105TIP3    H133874   3.521   1.621   2.048  0.8174  0.5118  1.0794
 4105TIP3    H233875   3.565   1.730   1.953 -1.7224  0.8075  0.1640
 4106TIP3   OH233876   3.851   1.697   1.942 -0.4236 -0.5681  0.5616
 4106TIP3    H133877   3.897   1.769   1.983  3.1611 -1.6752 -1.1067
 4106TIP3    H233878   3.771   1.736   1.905  0.6656  2.1958  0.9502
 4107TIP3   OH233879   6.731   6.413   2.675 -0.1788  0.2450 -0.6638
 4107TIP3    H133880   6.654   6.468   2.659  0.1646  0.5509 -1.3031
 4107TIP3    H233881   6.805   6.470   2.656  0.1917 -0.2897 -0.8353
 4108TIP3   OH233882   2.428   1.434   7.676 -0.0798  0.4317 -0.3365
 4108TIP3    H133883   2.386   1.508   7.721 -1.4208 -0.3117 -0.2971
 4108TIP3    H233884   2.521   1.454   7.677 -0.2947  1.4674  0.8757
 4109TIP3   OH233885   3.272   4.332   8.085  0.2726  0.5896  0.2527
 4109TIP3    H133886   3.317   4.417   8.085 -0.2989  0.9077 -0.6471
 4109TIP3    H233887   3.212   4.336   8.159  1.4733  0.2819  1.2796
 4110TIP3   OH233888   4.285   5.493   0.444 -1.2069  0.8943 -0.0378
 4110TIP3    H133889   4.288   5.427   0.512 -1.2973  0.9654  0.0365
 4110TIP3    H233890   4.246   5.448   0.369  2.3345 -0.3150 -1.3477
 4111TIP3   OH233891   5.747   6.090   0.738 -0.2462 -0.4902  0.0236
 4111TIP3    H133892   5.810   6.076   0.809  1.3376 -1.4446 -1.4637
 4111TIP3    H233893   5.666   6.051   0.770  0.7745 -2.0964  0.8253
 4112TIP3   OH233894   3.218   2.299   0.168  0.6869 -0.8384  0.2445
 4112TIP3    H133895   3.139   2.296   0.222  0.7478  2.4946  0.7533
 4112TIP3    H233896   3.191   2.343   0.088  1.8138 -0.3841  0.0847
 4113TIP3   OH233897   1.606   3.189   1.633 -0.1341 -0.1694  0.2435
 4113TIP3    H133898   1.528   3.192   1.578  0.5318 -0.5191 -0.7546
 4113TIP3    H233899   1.657   3.265   1.606  0.1359 -0.2614  0.4858
 4114TIP3   OH233900   4.300   2.607   1.108 -0.0754  0.0098  0.3503
 4114TIP3    H133901   4.246   2.673   1.152 -1.4126  0.8659 -2.3680
 4114TIP3    H233902   4.326   2.648   1.025  2.2465 -1.5419  0.2232
 4115TIP3   OH233903   1.749   4.689   3.117  0.4954 -0.2573  0.2828
 4115TIP3    H133904   1.762   4.623   3.185 -1.7552 -0.2175  0.8218
 4115TIP3    H233905   1.671   4.659   3.069  0.5527  1.0384 -0.6674
 4116TIP3   OH233906   3.158   2.194   8.418 -0.4371 -0.4202 -0.0614
 4116TIP3    H133907   3.090   2.245   8.372 -0.6783 -1.3261 -0.7287
 4116TIP3    H233908   3.240   2.223   8.379 -0.5581 -0.3908 -0.2988
 4117TIP3   OH233909   3.292   0.296   0.986 -0.0837  0.2554  0.3401
 4117TIP3    H133910   3.291   0.355   1.061  0.3284  0.6258  0.0615
 4117TIP3    H233911   3.385   0.280   0.969 -0.2006 -0.6802  0.5707
 4118TIP3   OH233912   6.660   0.015   8.224 -0.1871  0.3200  0.1333
 4118TIP3    H133913   6.678  -0.051   8.157  0.3655  1.0980 -0.5143
 4118TIP3    H233914   6.746   0.052   8.245 -0.5873  1.6781 -0.4439
 4119TIP3   OH233915   0.684   4.242   7.377 -0.1550  0.4197 -0.0712
 4119TIP3    H133916   0.701   4.298   7.453 -1.3900  1.8961 -0.8317
 4119TIP3    H233917   0.734   4.162   7.395  0.8847  1.3615  1.5152
 4120TIP3   OH233918   4.329   6.204   2.531 -0.2624  0.4866 -0.4962
 4120TIP3    H133919   4.380   6.166   2.459 -0.0508  1.4195 -0.8584
 4120TIP3    H233920   4.386   6.194   2.608 -0.4217 -0.3705 -0.4834
 4121TIP3   OH233921   0.940   6.497   8.344  0.1714 -0.0420  0.6888
 4121TIP3    H133922   1.030   6.505   8.313  0.0496  0.1646  0.3876
 4121TIP3    H233923   0.887   6.495   8.265 -0.0773 -0.3661  0.8599
 4122TIP3   OH233924   3.149   5.017   1.669 -0.2839 -0.0444  0.1310
 4122TIP3    H133925   3.070   5.047   1.715 -0.3628  0.1848 -0.1547
 4122TIP3    H233926   3.214   5.083   1.689  0.2062 -0.8707  1.4061
 4123TIP3   OH233927   3.322   4.177   8.905  0.7713 -0.1622  0.8416
 4123TIP3    H133928   3.326   4.271   8.890  1.4821 -0.2968  0.0843
 4123TIP3    H233929   3.303   4.168   8.998  2.1910  0.7220  1.2379
 4124TIP3   OH233930   3.932   5.201   2.949 -0.6640 -0.0247  0.9757
 4124TIP3    H133931   3.898   5.132   3.006 -3.5586  0.1676 -0.3438
 4124TIP3    H233932   3.864   5.268   2.949  0.9325  1.7146  0.1990
 4125TIP3   OH233933   2.833   2.644   2.744  0.0884  0.6664 -0.1557
 4125TIP3    H133934   2.849   2.558   2.704 -0.0778  0.5688 -0.0167
 4125TIP3    H233935   2.776   2.689   2.682  1.2916  1.2104 -0.8997
 4126TIP3   OH233936   1.902   6.496   2.684 -0.8932 -0.5830 -0.0662
 4126TIP3    H133937   1.949   6.542   2.613 -0.8249  1.5234  1.2481
 4126TIP3    H233938   1.811   6.497   2.657 -0.8468  0.0669 -0.2218
 4127TIP3   OH233939   0.556   2.502   8.810  0.1758  0.2074 -0.6131
 4127TIP3    H133940   0.512   2.588   8.813  0.4443  0.3320 -0.2272
 4127TIP3    H233941   0.484   2.439   8.809 -0.0398  0.4465 -1.5713
 4128TIP3   OH233942   2.507   4.165   1.576 -0.3512 -0.4326  0.5416
 4128TIP3    H133943   2.475   4.100   1.638 -0.7066 -1.0377 -0.2600
 4128TIP3    H233944   2.593   4.134   1.549 -0.9697 -1.1889 -0.6705
 4129TIP3   OH233945   5.277   0.060   2.968 -0.0210 -0.4520  0.0796
 4129TIP3    H133946   5.369   0.045   2.988  0.5848  3.2463  0.7252
 4129TIP3    H233947   5.272   0.056   2.873  0.4621 -1.9152  0.0828
 4130TIP3   OH233948   0.362   5.289   8.011 -0.7700  0.5576  0.5019
 4130TIP3    H133949   0.410   5.219   7.968 -0.8689  1.2374 -0.7712
 4130TIP3    H233950   0.292   5.311   7.950 -0.2054  2.3552  0.4424
 4131TIP3   OH233951   5.821   2.116   8.661 -0.6505  0.1369 -0.4331
 4131TIP3    H133952   5.758   2.176   8.699 -0.8029 -0.7937  0.8548
 4131TIP3    H233953   5.889   2.107   8.728 -0.2465 -0.5426 -0.9185
 4132TIP3   OH233954   4.328   4.344   2.564  0.2363  0.0433  0.0950
 4132TIP3    H133955   4.373   4.260   2.564  1.2929  0.5901 -0.3169
 4132TIP3    H233956   4.394   4.406   2.596 -0.4473  0.7600  0.1413
 4133TIP3   OH233957   2.524   1.014   3.303 -0.1111 -0.5666 -0.2495
 4133TIP3    H133958   2.593   1.009   3.368  0.4698 -0.5380 -0.8550
 4133TIP3    H233959   2.460   1.074   3.340  0.3189 -0.3856  0.1982
 4134TIP3   OH233960   3.655   0.930   0.163 -0.0807  0.3746 -0.4986
 4134TIP3    H133961   3.612   0.894   0.086  2.3900 -2.1088 -0.8848
 4134TIP3    H233962   3.719   0.992   0.128  1.6811 -1.4250 -0.6508
 4135TIP3   OH233963   6.274   5.501   8.171 -0.0409 -0.1263 -0.5998
 4135TIP3    H133964   6.180   5.486   8.166 -0.4983  1.3756  1.7162
 4135TIP3    H233965   6.288   5.583   8.125 -0.2957  0.8568  0.9950
 4136TIP3   OH233966   5.704   3.590   8.678  0.4012 -0.4515 -0.2128
 4136TIP3    H133967   5.746   3.507   8.700  1.1272  0.2011  0.9449
 4136TIP3    H233968   5.747   3.655   8.733 -0.8670  0.5501 -0.3396
 4137TIP3   OH233969   6.486   3.124   1.404 -0.0120  0.0652  0.0326
 4137TIP3    H133970   6.538   3.047   1.382 -0.9738 -0.8356  0.7974
 4137TIP3    H233971   6.521   3.194   1.349 -0.0462 -1.2478 -1.7126
 4138TIP3   OH233972   5.847   1.366   8.654  0.9526  0.2128  0.0551
 4138TIP3    H133973   5.831   1.293   8.594 -0.6006 -0.1452  0.8491
 4138TIP3    H233974   5.833   1.445   8.600  2.8488 -0.0211 -0.8601
 4139TIP3   OH233975   0.948   4.699   2.403  0.0855  0.5909  0.0302
 4139TIP3    H133976   0.902   4.713   2.486  0.0664  0.7672 -0.0082
 4139TIP3    H233977   1.032   4.745   2.414 -0.5172  1.9084 -0.5765
 4140TIP3   OH233978   6.173   3.112   2.606  0.3575  0.1329 -0.0467
 4140TIP3    H133979   6.143   3.126   2.696  1.8475  2.0351  0.1885
 4140TIP3    H233980   6.099   3.066   2.564 -1.3980  1.4270  1.4551
 4141TIP3   OH233981   4.875   5.404   7.922  0.2790  0.0109 -0.0398
 4141TIP3    H133982   4.831   5.476   7.968  1.3188  1.1940 -0.8501
 4141TIP3    H233983   4.961   5.399   7.963  0.2615 -0.6952 -0.0862
 4142TIP3   OH233984   5.302   0.092   1.589  0.3895 -0.0269 -0.7229
 4142TIP3    H133985   5.397   0.100   1.579  0.3850  0.3786 -0.4565
 4142TIP3    H233986   5.272   0.180   1.609 -0.2356  0.1496 -2.3067
 4143TIP3   OH233987   1.628   5.244   7.066  1.0043  0.4177  0.0469
 4143TIP3    H133988   1.657   5.174   7.008  0.6490 -0.3852  0.8038
 4143TIP3    H233989   1.613   5.200   7.150 -1.3238  0.9659 -0.0126
 4144TIP3   OH233990   2.346   6.509   0.032 -0.5331 -0.2710 -0.2020
 4144TIP3    H133991   2.360   6.603   0.022 -2.0221 -0.1598 -2.0008
 4144TIP3    H233992   2.311   6.482  -0.053 -1.1660 -2.2452  0.6361
 4145TIP3   OH233993   5.079   3.294   2.357 -0.2356 -0.1578  0.0992
 4145TIP3    H133994   5.032   3.338   2.287  0.2083  0.2601  0.0569
 4145TIP3    H233995   5.011   3.250   2.408 -0.9430  2.1780  1.3058
 4146TIP3   OH233996   4.552   6.457   8.964  0.3607 -0.3673  0.4919
 4146TIP3    H133997   4.582   6.500   8.884 -0.7019 -2.2193 -0.9916
 4146TIP3    H233998   4.523   6.528   9.021 -2.0717  0.9357 -2.1270
 4147TIP3   OH233999   4.086   0.333   8.851  0.4101 -0.3165  0.3263
 4147TIP3    H134000   4.074   0.242   8.878  1.0551  0.1177  2.2808
 4147TIP3    H234001   4.176   0.337   8.818  0.3361 -0.4054  0.1107
 4148TIP3   OH234002   1.810   4.727   2.497 -0.1296  0.5239  0.0533
 4148TIP3    H134003   1.769   4.723   2.584 -1.3225  0.5130 -0.4944
 4148TIP3    H234004   1.846   4.815   2.492  0.6017  0.2924  0.8273
 4149TIP3   OH234005   4.143   2.189   8.067 -0.1504  0.7361  0.4930
 4149TIP3    H134006   4.109   2.106   8.100  0.2893  0.8415  1.2460
 4149TIP3    H234007   4.238   2.177   8.067 -0.0207  1.5807  1.5879
 4150TIP3   OH234008   3.874   6.018   0.655  0.0936 -0.2794 -0.6370
 4150TIP3    H134009   3.865   5.963   0.578 -1.1282  0.9447 -1.4075
 4150TIP3    H234010   3.874   5.957   0.729  2.0666 -1.5320 -1.5990
 4151TIP3   OH234011   1.237   0.557   0.369 -0.3602  0.0067 -0.1091
 4151TIP3    H134012   1.209   0.467   0.354 -0.2009 -0.0612 -0.0018
 4151TIP3    H234013   1.283   0.582   0.289  1.0811 -0.5825  0.4999
 4152TIP3   OH234014   5.557   0.059   2.347  0.2388  0.5820 -0.1369
 4152TIP3    H134015   5.618   0.125   2.313  1.1910  0.7447  1.7472
 4152TIP3    H234016   5.565   0.066   2.442 -0.7996 -1.2153  0.1276
 4153TIP3   OH234017   4.560   2.077   2.589 -0.0620  0.4370  0.0701
 4153TIP3    H134018   4.543   1.985   2.609 -1.0951  0.2033 -1.6667
 4153TIP3    H234019   4.516   2.125   2.659 -0.3479 -0.3636  0.4581
 4154TIP3   OH234020   3.464   0.069   1.669 -0.2481  0.7719  0.8312
 4154TIP3    H134021   3.420   0.002   1.617  1.5586 -0.8158  1.2073
 4154TIP3    H234022   3.439   0.048   1.760 -0.4580  1.2299  0.8810
 4155TIP3   OH234023   5.496   2.479   3.177  0.6635 -0.2642 -0.2618
 4155TIP3    H134024   5.432   2.550   3.176 -0.5382 -1.2592  1.4033
 4155TIP3    H234025   5.580   2.522   3.193  0.1301  0.8662 -0.4009
 4156TIP3   OH234026   2.115   3.838   0.733  0.0387 -0.3134  0.2421
 4156TIP3    H134027   2.152   3.863   0.649  0.2130 -1.4704 -0.0290
 4156TIP3    H234028   2.191   3.822   0.789 -0.0316  2.0831  1.1746
 4157TIP3   OH234029   4.030   5.473   8.414  0.6435 -0.2223 -0.1087
 4157TIP3    H134030   3.954   5.522   8.382  0.3798  0.0928  0.9545
 4157TIP3    H234031   3.995   5.388   8.440  0.8710 -0.5065 -0.7004
 4158TIP3   OH234032   5.063   4.222   2.708  0.0080 -0.1307 -0.7538
 4158TIP3    H134033   5.063   4.168   2.787  0.7582  1.1648  0.1749
 4158TIP3    H234034   5.082   4.311   2.739 -0.2009  0.5138 -2.3358
 4159TIP3   OH234035   3.021   0.312   1.896  0.3221 -0.4105 -0.3016
 4159TIP3    H134036   3.084   0.244   1.871 -0.3592 -1.4624  0.7330
 4159TIP3    H234037   2.990   0.348   1.813  0.9459 -1.1308 -0.8593
 4160TIP3   OH234038   3.337   5.923   1.112  0.0909  0.2288 -0.0588
 4160TIP3    H134039   3.396   5.848   1.113  0.6328  0.5753 -2.0391
 4160TIP3    H234040   3.327   5.948   1.204  1.7674 -0.8124  0.4283
 4161TIP3   OH234041   1.741   3.609   2.477 -0.5972  0.0440  0.2478
 4161TIP3    H134042   1.828   3.577   2.501 -0.8771  0.1606  1.4926
 4161TIP3    H234043   1.724   3.681   2.538 -1.8559 -0.4599  0.5432
 4162TIP3   OH234044   5.726   5.636   8.626  0.4933 -0.0319 -0.1570
 4162TIP3    H134045   5.799   5.625   8.565  0.6502 -0.1017  0.0417
 4162TIP3    H234046   5.648   5.612   8.576  0.8650 -2.6640  0.4257
 4163TIP3   OH234047   4.488   2.101   2.316  0.5033 -0.3817 -0.3355
 4163TIP3    H134048   4.543   2.085   2.393  0.2186  0.1076 -0.0289
 4163TIP3    H234049   4.403   2.125   2.352  0.7190  1.1446 -0.7851
 4164TIP3   OH234050   3.617   1.516   7.853 -0.2657 -0.0321 -0.2323
 4164TIP3    H134051   3.642   1.424   7.840 -0.3099 -0.0484 -0.1982
 4164TIP3    H234052   3.666   1.563   7.785  0.9724  0.1068  0.7270
 4165TIP3   OH234053   0.010   1.594   1.286  0.3008 -0.2604  0.0870
 4165TIP3    H134054   0.089   1.599   1.340 -0.2281 -0.3227  0.8911
 4165TIP3    H234055  -0.056   1.556   1.344 -0.1063 -0.9911 -0.8265
 4166TIP3   OH234056   2.292   0.353   1.870  0.1907  0.0315  0.2568
 4166TIP3    H134057   2.324   0.358   1.779 -1.0529 -0.2498 -0.2098
 4166TIP3    H234058   2.370   0.369   1.923  1.2091 -1.0524 -0.8380
 4167TIP3   OH234059   6.662   2.029   0.003  0.0163  0.0324  0.1473
 4167TIP3    H134060   6.676   2.023  -0.091  0.6483 -1.7070  0.3179
 4167TIP3    H234061   6.685   1.942   0.036 -2.0710 -0.0178  1.6590
 4168TIP3   OH234062   6.253   6.191   1.557 -0.2734  0.0697  0.4193
 4168TIP3    H134063   6.227   6.231   1.640 -1.0813  0.2140  0.1063
 4168TIP3    H234064   6.172   6.153   1.522 -0.1657  0.9216 -0.8010
 4169TIP3   OH234065   2.025   2.710   8.223  0.5819  0.2198  0.1239
 4169TIP3    H134066   2.031   2.615   8.210 -0.5134  0.3602 -1.7404
 4169TIP3    H234067   2.036   2.747   8.135 -1.6257  1.6602  0.3785
 4170TIP3   OH234068   5.067   0.470   2.883  0.4532  0.1254 -0.0868
 4170TIP3    H134069   5.036   0.425   2.961  0.4691  0.2918  0.0162
 4170TIP3    H234070   5.143   0.419   2.855  1.0533  0.6334  0.5792
 4171TIP3   OH234071   2.640   0.077   2.018  0.3560 -0.2349  0.5279
 4171TIP3    H134072   2.719   0.121   1.988 -0.4639  0.9733  0.0338
 4171TIP3    H234073   2.621   0.012   1.951 -0.3682  1.1048 -0.6058
 4172TIP3   OH234074   2.311   0.373   0.407  0.0848 -0.0103 -0.0715
 4172TIP3    H134075   2.325   0.338   0.319 -1.8257  0.1490 -0.4819
 4172TIP3    H234076   2.359   0.313   0.464  1.1439 -0.2642 -1.1905
 4173TIP3   OH234077   2.163   1.362   0.092 -0.5184 -0.3808 -0.4064
 4173TIP3    H134078   2.068   1.366   0.091 -0.4868  0.3634 -0.5806
 4173TIP3    H234079   2.185   1.329   0.179 -0.8894  0.7514  0.1322
 4174TIP3   OH234080   1.578   3.625   0.574  0.6443  0.1106 -0.0332
 4174TIP3    H134081   1.543   3.663   0.493  2.3939  1.1159 -0.3667
 4174TIP3    H234082   1.594   3.700   0.631  2.4746 -0.2530 -0.0117
 4175TIP3   OH234083   6.684   1.100   8.202 -0.2372  0.1292  0.0604
 4175TIP3    H134084   6.670   1.097   8.297 -1.8238 -0.1444 -0.1446
 4175TIP3    H234085   6.609   1.052   8.166  0.2793  0.3386 -1.3415
 4176TIP3   OH234086   0.241   1.345   1.698 -0.7063 -0.0922 -0.4649
 4176TIP3    H134087   0.264   1.392   1.618 -1.4318  0.3300 -0.4326
 4176TIP3    H234088   0.274   1.256   1.683  0.5591  0.3634 -0.5805
 4177TIP3   OH234089   1.350   0.419   8.305  0.1960  0.4529 -0.3715
 4177TIP3    H134090   1.314   0.504   8.280  0.7858  1.0357  0.6770
 4177TIP3    H234091   1.339   0.364   8.227  2.0242  2.1793 -1.9615
 4178TIP3   OH234092   5.303   4.512   1.616 -0.4925  0.6338 -0.3490
 4178TIP3    H134093   5.298   4.421   1.584 -1.6439  0.2036  0.9451
 4178TIP3    H234094   5.324   4.503   1.709 -0.3582  1.7173 -0.2700
 4179TIP3   OH234095   0.455   5.138   1.047 -0.1797  0.4169 -0.3919
 4179TIP3    H134096   0.398   5.068   1.014  1.4461 -0.6874 -1.0270
 4179TIP3    H234097   0.470   5.116   1.139  0.1483  0.0305 -0.5329
 4180TIP3   OH234098   0.318   1.362   0.221 -0.0287  0.2095  0.1921
 4180TIP3    H134099   0.376   1.424   0.265  0.8649  0.6047 -1.4525
 4180TIP3    H234100   0.375   1.290   0.195 -0.3908  0.2856 -0.8472
 4181TIP3   OH234101   4.754   1.873   1.940 -0.0225 -0.1121  0.4985
 4181TIP3    H134102   4.834   1.876   1.888 -0.9818 -0.8987 -1.1271
 4181TIP3    H234103   4.762   1.794   1.992  0.9601  0.6923  1.6245
 4182TIP3   OH234104   4.483   0.619   2.456  1.0917 -0.0700 -0.4884
 4182TIP3    H134105   4.564   0.630   2.506  1.1658 -2.1289 -0.0938
 4182TIP3    H234106   4.455   0.530   2.475 -0.6376  0.2086 -1.5764
 4183TIP3   OH234107   2.193   0.025   0.438  0.1512  0.1761 -0.4261
 4183TIP3    H134108   2.149   0.107   0.416 -1.4770 -0.4296  0.4152
 4183TIP3    H234109   2.178  -0.032   0.361  0.8669  0.4764 -0.8038
 4184TIP3   OH234110   6.111   1.957   8.604 -0.7534 -0.3009 -0.2130
 4184TIP3    H134111   6.093   2.025   8.669 -1.1568 -1.5602  1.0615
 4184TIP3    H234112   6.204   1.937   8.616 -0.4106  0.6269 -1.2136
 4185TIP3   OH234113   4.754   0.447   1.737  0.0684  0.1371 -0.3418
 4185TIP3    H134114   4.782   0.416   1.650 -0.6561 -0.0334 -0.5196
 4185TIP3    H234115   4.674   0.497   1.720 -0.8614 -1.0640  0.3731
 4186TIP3   OH234116   6.424   6.677   2.388  0.5263 -0.4123  0.1494
 4186TIP3    H134117   6.334   6.708   2.388  0.4735 -0.4808 -1.3987
 4186TIP3    H234118   6.477   6.757   2.392  0.3851  0.0193 -3.2408
 4187TIP3   OH234119   3.702   3.340   8.092 -0.1635 -0.8339  0.1750
 4187TIP3    H134120   3.702   3.320   7.998  2.0454 -2.1691  0.3872
 4187TIP3    H234121   3.648   3.272   8.131 -1.3953 -0.0608 -0.1257
 4188TIP3   OH234122   0.168   2.143   1.405  0.4650  0.4226  0.2515
 4188TIP3    H134123   0.215   2.079   1.351  0.1447  1.3912 -1.2488
 4188TIP3    H234124   0.114   2.091   1.464  1.9098 -0.6955  0.6391
 4189TIP3   OH234125   4.107   6.454   0.372  0.3281  0.8964  0.0352
 4189TIP3    H134126   4.019   6.451   0.410  0.8608  1.0079  1.3263
 4189TIP3    H234127   4.092   6.480   0.281 -1.1099 -0.8081 -0.2882
 4190TIP3   OH234128   3.532   5.320   7.241 -0.4384 -0.2071 -0.0659
 4190TIP3    H134129   3.446   5.291   7.210 -1.1411  1.2737  0.3899
 4190TIP3    H234130   3.591   5.306   7.167 -1.0533 -1.2859 -0.3651
 4191TIP3   OH234131   4.789   5.038   8.153 -0.1453  0.3640 -0.0940
 4191TIP3    H134132   4.822   4.957   8.113 -2.0328  0.6140 -2.3952
 4191TIP3    H234133   4.813   5.031   8.245  0.7582 -2.2714 -0.4434
 4192TIP3   OH234134   5.088   5.770   8.048 -0.4452 -0.8802  0.2731
 4192TIP3    H134135   5.150   5.698   8.032  0.3404  0.2141 -2.2429
 4192TIP3    H234136   5.142   5.840   8.086 -0.1752 -0.1369 -1.3707
 4193TIP3   OH234137   1.538   6.154   1.388  0.6457 -0.2008 -0.1522
 4193TIP3    H134138   1.483   6.186   1.459 -0.9464  1.0722 -1.8552
 4193TIP3    H234139   1.618   6.208   1.393  0.4125  0.0920  0.4656
 4194TIP3   OH234140   4.307   5.945   0.244  0.0458 -0.2509 -0.0350
 4194TIP3    H134141   4.391   5.987   0.264  0.2270 -0.5593 -0.1334
 4194TIP3    H234142   4.268   5.999   0.176  1.7649 -1.9937 -2.6022
 4195TIP3   OH234143   5.500   2.933   0.864  0.6875  0.0830  0.7283
 4195TIP3    H134144   5.502   2.838   0.869  1.6533  0.0898  0.5682
 4195TIP3    H234145   5.592   2.960   0.866  0.4370  1.0006  0.5405
 4196TIP3   OH234146   3.631   1.974   2.614 -0.0814 -0.4091  0.0061
 4196TIP3    H134147   3.626   2.012   2.526  0.8157  0.9831  0.5064
 4196TIP3    H234148   3.550   2.003   2.657 -0.6644 -1.3459 -0.4388
 4197TIP3   OH234149   3.208   4.100   0.824  0.2680  0.1234 -0.1592
 4197TIP3    H134150   3.208   4.158   0.747 -0.4844  0.4423  0.0709
 4197TIP3    H234151   3.292   4.117   0.866  1.1029 -0.7362 -1.3990
 4198TIP3   OH234152   6.344   0.635   8.958  0.2243 -0.7809  0.3988
 4198TIP3    H134153   6.280   0.680   8.903  1.5550  0.3409 -0.3061
 4198TIP3    H234154   6.407   0.598   8.896  1.4724  0.0693  1.1112
 4199TIP3   OH234155   6.256   4.369   1.178  0.8170  0.5772  0.0346
 4199TIP3    H134156   6.263   4.348   1.271  0.7422  0.2051 -0.0443
 4199TIP3    H234157   6.234   4.462   1.177 -3.2586 -0.2086  0.5099
 4200TIP3   OH234158   6.615   5.809   1.411 -0.4755  0.6740  0.7886
 4200TIP3    H134159   6.638   5.835   1.500  0.0748 -2.2765  1.6232
 4200TIP3    H234160   6.638   5.716   1.407 -3.3295 -0.0858 -1.4341
 4201TIP3   OH234161   4.444   3.443   1.779  0.3363 -0.1458  0.7532
 4201TIP3    H134162   4.508   3.513   1.791  0.6896 -0.1331 -0.9294
 4201TIP3    H234163   4.380   3.480   1.717 -1.1849 -0.2569  2.1844
 4202TIP3   OH234164   2.184   4.973   0.859 -0.4980 -0.0288  0.3089
 4202TIP3    H134165   2.179   4.917   0.937 -1.4842 -0.3739  0.0181
 4202TIP3    H234166   2.172   4.913   0.786 -0.5766  0.4322 -0.0575
 4203TIP3   OH234167   0.051   0.433   0.409  0.1477 -0.1525  0.1069
 4203TIP3    H134168   0.052   0.433   0.504  0.6771  0.4772  0.1139
 4203TIP3    H234169   0.046   0.340   0.384 -0.0629 -0.3117  0.7428
 4204TIP3   OH234170   6.698   2.778   0.121  0.4972 -0.1071  0.0124
 4204TIP3    H134171   6.651   2.861   0.128  2.6399  1.0576  2.6830
 4204TIP3    H234172   6.711   2.751   0.212  1.7809 -2.2704 -0.7372
 4205TIP3   OH234173   2.126   3.531   8.317 -0.2193 -0.8786  0.0487
 4205TIP3    H134174   2.195   3.473   8.348  0.4175  0.5964  1.5086
 4205TIP3    H234175   2.126   3.520   8.222  0.3669 -2.6822  0.2141
 4206TIP3   OH234176   1.708   2.056   1.230  0.2658 -0.3701  0.5524
 4206TIP3    H134177   1.633   2.112   1.251  0.2258 -0.1862 -0.0586
 4206TIP3    H234178   1.784   2.113   1.241  0.1657  0.0959 -0.9893
 4207TIP3   OH234179   1.338   3.224   0.061  0.1512  0.1155  0.4011
 4207TIP3    H134180   1.364   3.153   0.002  0.9139  0.1042  0.7486
 4207TIP3    H234181   1.251   3.250   0.029  0.6963  0.3568 -0.9479
 4208TIP3   OH234182   2.258   1.267   0.331  0.2286 -0.1685 -0.2104
 4208TIP3    H134183   2.223   1.272   0.420 -0.3277 -2.1313 -0.2797
 4208TIP3    H234184   2.353   1.272   0.342  0.1416  0.1671  0.4297
 4209TIP3   OH234185   1.805   0.493   0.098  0.0234 -0.0422 -0.4111
 4209TIP3    H134186   1.722   0.446   0.099 -0.3680  0.5896 -1.5177
 4209TIP3    H234187   1.786   0.576   0.143  0.2118 -0.1249 -0.1725
 4210TIP3   OH234188   5.197   2.337   0.461 -0.0493  0.3644 -0.1658
 4210TIP3    H134189   5.227   2.426   0.443 -1.6759  0.8890 -0.4231
 4210TIP3    H234190   5.227   2.285   0.386 -0.4302  1.0260 -0.7846
 4211TIP3   OH234191   2.725   4.118   8.148 -0.0623  0.3331 -0.1505
 4211TIP3    H134192   2.640   4.093   8.112 -0.0387  1.9550 -1.4655
 4211TIP3    H234193   2.789   4.079   8.087  0.2237 -1.3212  1.1129
 4212TIP3   OH234194   1.248   1.334   0.968 -0.4686  0.5779  0.3451
 4212TIP3    H134195   1.258   1.282   0.888 -1.5007  0.7646  0.0841
 4212TIP3    H234196   1.171   1.297   1.011 -1.4507  2.1038 -0.0340
 4213TIP3   OH234197   2.072   1.992   2.335 -0.3647  0.2321 -0.6188
 4213TIP3    H134198   2.140   2.050   2.370  0.1633  0.1376 -1.4543
 4213TIP3    H234199   2.120   1.927   2.284 -1.1366  0.8664 -2.2247
 4214TIP3   OH234200   3.589   4.642   8.611  0.0864 -0.0558  0.2085
 4214TIP3    H134201   3.655   4.579   8.579  0.1797  0.1408  0.0115
 4214TIP3    H234202   3.515   4.587   8.636  0.0987 -0.2352 -0.1370
 4215TIP3   OH234203   0.740   2.258   0.585 -0.0732 -0.0045  0.6495
 4215TIP3    H134204   0.712   2.267   0.676  0.3972 -1.0909  0.9167
 4215TIP3    H234205   0.750   2.164   0.572  3.8658  0.2404  0.7338
 4216TIP3   OH234206   5.023   5.297   0.237 -0.3051  0.0282  0.7502
 4216TIP3    H134207   5.090   5.251   0.286  1.4091  0.8312 -0.7341
 4216TIP3    H234208   5.053   5.388   0.236 -0.1923  0.0295 -1.8166
 4217TIP3   OH234209   4.363   2.761   8.197 -0.1184 -0.0499  0.3643
 4217TIP3    H134210   4.392   2.717   8.116 -0.5110 -0.0966  0.2482
 4217TIP3    H234211   4.443   2.801   8.232  0.1023 -0.2362  0.0828
 4218TIP3   OH234212   4.242   6.131   1.899  0.3147 -0.4720 -0.1382
 4218TIP3    H134213   4.161   6.099   1.940  0.8272  0.3242  1.5561
 4218TIP3    H234214   4.303   6.058   1.907  0.7329  0.0373  1.5036
 4219TIP3   OH234215   3.717   5.287   8.035  0.4161 -0.4454 -0.1599
 4219TIP3    H134216   3.808   5.294   8.063  0.2246  0.6114  0.2298
 4219TIP3    H234217   3.674   5.364   8.073 -0.8099 -1.3273  0.3023
 4220TIP3   OH234218   3.063   2.965   0.792  0.0721  0.1875  0.1395
 4220TIP3    H134219   3.069   3.046   0.843  1.8680  0.8010 -0.9741
 4220TIP3    H234220   3.106   2.899   0.847  1.7797  0.7906 -0.4395
 4221TIP3   OH234221   1.325   6.215   2.672 -0.9111 -0.0866  0.3047
 4221TIP3    H134222   1.297   6.127   2.646  0.4308 -0.3305 -0.3977
 4221TIP3    H234223   1.343   6.259   2.589 -1.5118  0.8445  0.6581
 4222TIP3   OH234224   6.486   0.246   7.233 -0.0859 -0.2642 -0.1940
 4222TIP3    H134225   6.417   0.311   7.232 -0.2093 -0.3806  0.5901
 4222TIP3    H234226   6.560   0.289   7.276 -0.2319 -0.7028  0.5040
 4223TIP3   OH234227   3.061   3.277   0.061  0.2502 -0.0700 -0.7259
 4223TIP3    H134228   3.015   3.361   0.052 -0.6887 -0.4777  0.0482
 4223TIP3    H234229   3.008   3.215   0.010  1.1875 -0.1259 -1.6734
 4224TIP3   OH234230   1.802   0.842   3.122 -0.1157 -0.4574  0.2869
 4224TIP3    H134231   1.802   0.936   3.141 -0.7716 -0.3118 -0.4210
 4224TIP3    H234232   1.871   0.831   3.056 -1.8977 -0.0104 -1.7542
 4225TIP3   OH234233   3.714   5.432   2.282 -0.3185 -0.2430 -0.2119
 4225TIP3    H134234   3.765   5.390   2.213 -0.0304  1.0830 -0.8546
 4225TIP3    H234235   3.624   5.404   2.266 -0.2029 -0.2450 -0.9134
 4226TIP3   OH234236   6.387   2.757   8.186  0.6536 -0.0101  0.1763
 4226TIP3    H134237   6.334   2.773   8.108  2.2198  0.2592 -0.8882
 4226TIP3    H234238   6.471   2.724   8.151  1.3076 -0.1080  1.7607
 4227TIP3   OH234239   6.285   6.559   0.567  0.2848 -0.8007 -0.2747
 4227TIP3    H134240   6.218   6.619   0.533 -1.5491 -1.0636  2.5346
 4227TIP3    H234241   6.324   6.520   0.488 -0.3888  1.9300 -2.1242
 4228TIP3   OH234242   3.431   4.746   7.780 -0.6620  0.1420  0.6042
 4228TIP3    H134243   3.460   4.804   7.709  2.7596 -0.2446  1.5065
 4228TIP3    H234244   3.430   4.802   7.858 -2.1598  0.0550  0.6607
 4229TIP3   OH234245   0.937   4.375   8.843  0.2471 -0.1178 -0.3071
 4229TIP3    H134246   0.962   4.414   8.760  3.8145 -1.3774 -0.0130
 4229TIP3    H234247   0.974   4.435   8.909 -2.7656  1.0186  0.5051
 4230TIP3   OH234248   1.948   5.686   8.537 -0.2007  0.0563 -0.1132
 4230TIP3    H134249   2.042   5.666   8.534  0.1873  1.8095 -1.5184
 4230TIP3    H234250   1.943   5.780   8.519 -2.0550  0.7250  2.9957
 4231TIP3   OH234251   6.474   3.940   1.551 -0.7201  0.0562  0.1531
 4231TIP3    H134252   6.509   4.023   1.518 -0.3430  0.4508  1.4712
 4231TIP3    H234253   6.546   3.903   1.602 -0.4172 -1.7472 -1.4737
 4232TIP3   OH234254   6.090   5.680   0.422  0.1012  0.1243  0.5056
 4232TIP3    H134255   6.184   5.667   0.431 -0.1026 -0.0466  3.0473
 4232TIP3    H234256   6.083   5.761   0.371  1.5929  0.1661  0.3012
 4233TIP3   OH234257   3.641   4.501   6.851 -0.0415 -0.2423 -0.4402
 4233TIP3    H134258   3.671   4.592   6.857 -0.9855  0.1852 -1.6799
 4233TIP3    H234259   3.721   4.450   6.837  0.6337  0.2254  1.4766
 4234TIP3   OH234260   3.475   5.326   2.179 -0.4948 -0.5018  0.9044
 4234TIP3    H134261   3.513   5.362   2.099 -0.8464  0.2805  1.0764
 4234TIP3    H234262   3.449   5.237   2.155 -1.9692  0.2073 -0.3235
 4235TIP3   OH234263   2.189   1.191   1.748 -0.2460  0.2107 -0.0364
 4235TIP3    H134264   2.219   1.145   1.826  0.5820 -0.6828 -0.8360
 4235TIP3    H234265   2.198   1.284   1.769  0.3665 -0.0250  0.7876
 4236TIP3   OH234266   4.747   0.274   0.352 -0.3643  0.0628 -0.1754
 4236TIP3    H134267   4.713   0.189   0.323  0.7340 -1.1586  1.9053
 4236TIP3    H234268   4.821   0.291   0.293  0.5924 -1.3864  0.5391
 4237TIP3   OH234269   1.006   3.371   8.037 -0.0023  0.1219 -0.0469
 4237TIP3    H134270   1.098   3.394   8.025 -0.6445  1.9236 -2.2923
 4237TIP3    H234271   0.967   3.382   7.950 -2.4491 -0.0719  0.9423
 4238TIP3   OH234272   3.638   5.459   1.506  0.0810  0.3574 -0.1988
 4238TIP3    H134273   3.689   5.378   1.504 -0.6686 -0.1396  0.1872
 4238TIP3    H234274   3.688   5.521   1.454  0.4095 -0.5156 -0.9392
 4239TIP3   OH234275   1.249   2.229   0.153 -0.1384  0.6484  0.2125
 4239TIP3    H134276   1.251   2.246   0.247 -0.6426  1.7015  0.0395
 4239TIP3    H234277   1.179   2.284   0.119  1.6109  2.2235 -1.1326
 4240TIP3   OH234278   4.194   2.595   0.156 -0.0112 -0.3436  0.2766
 4240TIP3    H134279   4.110   2.549   0.157  0.6187 -1.5645 -0.4808
 4240TIP3    H234280   4.182   2.668   0.217 -1.3276 -1.0219  0.8764
 4241TIP3   OH234281   5.569   6.259   1.010 -0.0291 -0.3540 -0.2882
 4241TIP3    H134282   5.509   6.286   0.940 -1.7309  1.1726  1.6271
 4241TIP3    H234283   5.575   6.164   1.001 -1.8819 -0.4272 -1.2616
 4242TIP3   OH234284   5.430   0.583   8.349  0.2107 -0.0983  0.0617
 4242TIP3    H134285   5.431   0.635   8.429  1.5914  0.0205 -0.0091
 4242TIP3    H234286   5.398   0.497   8.376 -1.3417  0.5319  0.3245
 4243TIP3   OH234287   3.335   6.099   1.844  0.2074  0.8855 -0.6313
 4243TIP3    H134288   3.343   6.118   1.937 -1.8324  1.2381 -0.4750
 4243TIP3    H234289   3.409   6.042   1.824  0.1398 -0.0113  1.4277
 4244TIP3   OH234290   0.801   5.941   1.071  0.0032  0.0697 -0.2726
 4244TIP3    H134291   0.800   5.903   0.983 -0.6379 -1.5619  0.3960
 4244TIP3    H234292   0.882   5.992   1.074  0.5905 -0.7486 -1.4297
 4245TIP3   OH234293   0.963   5.554   1.391  0.0474 -0.2250 -1.1001
 4245TIP3    H134294   0.901   5.490   1.356 -0.3928 -0.1941 -0.3998
 4245TIP3    H234295   0.908   5.622   1.429  0.4611  1.3783 -3.1573
 4246TIP3   OH234296   6.629   0.139   2.348  0.7762  0.4199  0.2323
 4246TIP3    H134297   6.548   0.190   2.352 -0.4838 -1.0929 -2.7595
 4246TIP3    H234298   6.670   0.166   2.265  2.9021  0.4560  1.2358
 4247TIP3   OH234299   5.214   0.557   1.629  0.6095 -0.4794  0.4299
 4247TIP3    H134300   5.287   0.547   1.690  0.3686  0.4430  0.8899
 4247TIP3    H234301   5.151   0.613   1.675  0.4253  0.2581 -0.6553
 4248TIP3   OH234302   2.538   1.277   0.686  0.2033  0.2043 -0.0514
 4248TIP3    H134303   2.550   1.273   0.591 -0.8158  0.4571 -0.2017
 4248TIP3    H234304   2.465   1.217   0.703 -0.8321  1.5407  0.3397
 4249TIP3   OH234305   1.340   1.522   0.458 -0.0047 -0.0215 -0.2632
 4249TIP3    H134306   1.310   1.597   0.406 -0.1043 -0.3159 -0.6335
 4249TIP3    H234307   1.261   1.489   0.500  0.3638  1.4356  1.7001
 4250TIP3   OH234308   5.071   4.568   8.384  0.0470 -0.0361 -0.4709
 4250TIP3    H134309   5.159   4.604   8.372  0.9494 -1.9232  0.0968
 4250TIP3    H234310   5.057   4.513   8.307 -0.2966 -0.3990 -0.1479
 4251TIP3   OH234311   6.094   2.249   0.151 -0.1596 -0.1468  0.0423
 4251TIP3    H134312   6.035   2.208   0.215  0.6512  0.2956  1.0978
 4251TIP3    H234313   6.119   2.177   0.092 -0.6299 -0.6403  0.4357
 4252TIP3   OH234314   5.073   0.976   8.371 -0.3938  0.3879 -0.4668
 4252TIP3    H134315   5.084   0.961   8.277 -1.0830 -0.8066 -0.3854
 4252TIP3    H234316   5.093   0.891   8.411 -2.5946  0.1361  0.2392
 4253TIP3   OH234317   0.198   4.823   0.848 -0.0042 -0.2868  0.5150
 4253TIP3    H134318   0.244   4.836   0.931  0.5891  2.0593 -0.1198
 4253TIP3    H234319   0.267   4.827   0.782 -0.6573 -0.7122 -0.2068
 4254TIP3   OH234320   4.975   0.983   7.829 -0.0696  0.0759  0.0132
 4254TIP3    H134321   4.889   1.011   7.796  0.0858  0.0875 -0.3855
 4254TIP3    H234322   5.036   1.009   7.760  0.3991  1.0690  0.7708
 4255TIP3   OH234323   5.077   0.498   2.263  0.0803 -0.2745  0.1070
 4255TIP3    H134324   5.145   0.504   2.196 -0.5055 -0.2787 -0.4995
 4255TIP3    H234325   4.997   0.523   2.218 -0.0667  1.4500  1.2483
 4256TIP3   OH234326   0.313   0.617   3.646 -0.5026 -0.1372 -0.2279
 4256TIP3    H134327   0.299   0.545   3.585  2.0087 -2.0984  1.2757
 4256TIP3    H234328   0.326   0.694   3.591 -0.4178 -1.3893 -2.0392
 4257TIP3   OH234329   1.775   1.058   2.848 -0.3681  0.4668 -0.6111
 4257TIP3    H134330   1.806   1.079   2.937 -1.8116  0.6290 -0.1256
 4257TIP3    H234331   1.723   1.133   2.822  0.4884  0.6518 -1.8389
 4258TIP3   OH234332   2.676   5.615   0.474  0.5725  0.6040 -0.3242
 4258TIP3    H134333   2.755   5.638   0.426  2.3382 -1.4808  1.4225
 4258TIP3    H234334   2.646   5.534   0.433  0.2989  0.4787  0.1161
 4259TIP3   OH234335   1.988   0.750   8.785 -0.1821 -0.0981  0.1191
 4259TIP3    H134336   2.059   0.738   8.722 -1.6065  1.8912 -2.0414
 4259TIP3    H234337   2.032   0.770   8.867  1.7444 -1.0838 -0.5984
 4260TIP3   OH234338   1.585   2.366   2.594  0.1303 -0.4324 -0.0209
 4260TIP3    H134339   1.528   2.303   2.639  1.1883 -1.8596 -0.5662
 4260TIP3    H234340   1.589   2.333   2.504  0.2482  0.7818 -0.4672
 4261TIP3   OH234341   3.699   1.720   2.277 -0.8350  0.3056  0.0517
 4261TIP3    H134342   3.685   1.814   2.278  1.3544  0.6819 -0.7102
 4261TIP3    H234343   3.683   1.693   2.187 -0.2252  0.1668 -0.0200
 4262TIP3   OH234344   2.488   3.387   1.395 -0.1696 -0.0374 -0.1813
 4262TIP3    H134345   2.526   3.322   1.454 -0.0985  1.3095  1.3353
 4262TIP3    H234346   2.542   3.382   1.316  0.1974 -1.3763  0.1285
 4263TIP3   OH234347   2.847   1.606   1.675 -0.3608  0.2413 -0.3033
 4263TIP3    H134348   2.861   1.675   1.610  0.5293  1.5041  1.1729
 4263TIP3    H234349   2.867   1.525   1.628  0.8769  1.1577 -1.4292
 4264TIP3   OH234350   1.725   5.746   3.025 -0.7673 -0.1748  0.2451
 4264TIP3    H134351   1.698   5.829   3.065 -0.3502  0.1319 -0.1058
 4264TIP3    H234352   1.646   5.715   2.981 -1.0735 -0.2340  0.8291
 4265TIP3   OH234353   2.170   1.841   3.071  0.0827 -0.4592 -0.2671
 4265TIP3    H134354   2.155   1.761   3.121  2.0656  0.0440  1.2371
 4265TIP3    H234355   2.204   1.904   3.134  2.3575  0.3270 -2.1205
 4266TIP3   OH234356   5.194   6.422   2.266 -0.5305 -0.4400 -0.1986
 4266TIP3    H134357   5.253   6.486   2.226  1.2855 -0.6591  1.9458
 4266TIP3    H234358   5.120   6.473   2.297 -0.6187  0.1314 -1.3201
 4267TIP3   OH234359   3.921   3.956   8.669 -0.2946 -0.4133 -0.1571
 4267TIP3    H134360   3.900   3.977   8.760 -0.2019  1.0183 -0.4450
 4267TIP3    H234361   3.904   3.862   8.662 -1.6920 -0.2820  0.9454
 4268TIP3   OH234362   6.472   6.121   8.338  0.0342 -0.0257  0.8916
 4268TIP3    H134363   6.539   6.055   8.357 -0.2201 -0.5086  0.1669
 4268TIP3    H234364   6.390   6.071   8.333 -0.1602  0.3414  0.3328
 4269TIP3   OH234365   5.802   2.250   2.228 -0.2551 -0.0511  0.2044
 4269TIP3    H134366   5.860   2.219   2.159 -1.1441 -0.7084 -0.2624
 4269TIP3    H234367   5.821   2.195   2.303 -0.8143 -0.8044 -0.1895
 4270TIP3   OH234368   4.289   5.579   1.887 -0.6327  0.2846  0.1398
 4270TIP3    H134369   4.247   5.500   1.854  1.3109 -0.8288  0.1920
 4270TIP3    H234370   4.376   5.579   1.847  0.8633  0.2903  3.1076
 4271TIP3   OH234371   6.132   3.988   2.363 -0.0708 -0.6771 -0.0137
 4271TIP3    H134372   6.123   3.933   2.441  2.4544  0.7821  1.4210
 4271TIP3    H234373   6.084   4.068   2.384  0.2894 -0.4343 -0.1076
 4272TIP3   OH234374   2.377   5.690   2.187 -0.0560  0.0202 -0.6198
 4272TIP3    H134375   2.293   5.670   2.229  0.3640 -0.1112  0.1594
 4272TIP3    H234376   2.404   5.607   2.147 -0.1318 -0.0200 -0.5892
 4273TIP3   OH234377   3.066   2.570   8.280 -0.0888 -0.4234 -0.7787
 4273TIP3    H134378   3.016   2.644   8.245 -2.2407 -1.5487 -0.3158
 4273TIP3    H234379   3.121   2.542   8.208  0.7952  1.5895 -0.9667
 4274TIP3   OH234380   1.699   6.639   1.515  0.3921  0.0044 -0.0356
 4274TIP3    H134381   1.732   6.703   1.452  1.1878 -1.1219 -0.8103
 4274TIP3    H234382   1.605   6.653   1.517  0.3028 -0.1121 -1.7201
 4275TIP3   OH234383   2.078   0.694   2.291  0.2914 -0.7070 -0.4332
 4275TIP3    H134384   2.153   0.754   2.289 -0.2400 -0.0407 -1.4760
 4275TIP3    H234385   2.116   0.607   2.303  1.0667 -0.1669  1.3071
 4276TIP3   OH234386   3.535   2.090   1.214 -0.4881 -0.3779  0.2646
 4276TIP3    H134387   3.582   2.117   1.136 -1.4004  0.5457  0.0125
 4276TIP3    H234388   3.545   2.164   1.275 -1.1568 -0.3962  0.3997
 4277TIP3   OH234389   0.732   6.099   7.820  0.2877 -0.0123 -0.0547
 4277TIP3    H134390   0.824   6.074   7.810  0.4429 -1.4566  3.5236
 4277TIP3    H234391   0.726   6.137   7.908 -2.5441  0.1086 -0.1870
 4278TIP3   OH234392   4.046   3.547   0.600 -0.0243  0.0466 -0.6134
 4278TIP3    H134393   4.066   3.554   0.507  0.6507  1.4371 -0.3846
 4278TIP3    H234394   4.082   3.626   0.639 -0.2665 -0.5231  0.8477
 4279TIP3   OH234395   0.955   2.296   7.484  0.4191 -0.1361  0.2735
 4279TIP3    H134396   1.049   2.310   7.484  0.5458 -0.9533  0.8958
 4279TIP3    H234397   0.944   2.203   7.467 -0.2374 -0.2662  1.3167
 4280TIP3   OH234398   0.372   4.208   8.265 -0.3290  0.1729  0.3673
 4280TIP3    H134399   0.446   4.238   8.213 -2.3095  1.1451 -2.1499
 4280TIP3    H234400   0.388   4.114   8.277  1.4684  0.4264  0.2559
 4281TIP3   OH234401   5.788   5.402   7.369 -0.3411  0.0716  0.4501
 4281TIP3    H134402   5.739   5.321   7.384 -1.2612  0.3410 -0.9196
 4281TIP3    H234403   5.798   5.407   7.274  3.3281 -0.5076  0.6565
 4282TIP3   OH234404   2.370   4.404   1.659 -0.0772  0.0873 -0.1159
 4282TIP3    H134405   2.414   4.489   1.648  2.4836 -0.5869  3.1507
 4282TIP3    H234406   2.426   4.342   1.613  0.0132 -0.2458  0.4342
 4283TIP3   OH234407   6.685   4.545   7.889 -0.3371  0.4025  0.3745
 4283TIP3    H134408   6.689   4.483   7.816 -0.6397  1.4549 -0.5672
 4283TIP3    H234409   6.767   4.530   7.937  0.0678 -0.0133 -0.4217
 4284TIP3   OH234410   4.776   3.802   0.896  0.2873  0.2082 -0.2246
 4284TIP3    H134411   4.742   3.717   0.923 -0.3373  0.1410 -1.1710
 4284TIP3    H234412   4.842   3.782   0.830 -0.9532  0.4792 -1.6037
 4285TIP3   OH234413   4.310   0.926   1.151 -0.2392  0.6813  0.8651
 4285TIP3    H134414   4.237   0.951   1.207 -0.5468  0.6721  0.4689
 4285TIP3    H234415   4.287   0.960   1.065 -0.3371 -0.3519  0.4663
 4286TIP3   OH234416   0.621   3.917   0.243 -0.2719 -0.1676  0.3075
 4286TIP3    H134417   0.698   3.953   0.199 -1.3688  0.1603 -1.4615
 4286TIP3    H234418   0.631   3.943   0.334  1.4894  0.2263  0.0385
 4287TIP3   OH234419   1.334   0.300   8.056 -0.2190  0.6865  0.5442
 4287TIP3    H134420   1.297   0.308   7.968  1.0519 -2.4577 -0.4208
 4287TIP3    H234421   1.283   0.229   8.096 -0.8437  2.1286  2.4636
 4288TIP3   OH234422   2.434   3.934   8.351  0.1839  0.5744  0.1861
 4288TIP3    H134423   2.477   3.864   8.400  2.1579  1.1463 -0.6208
 4288TIP3    H234424   2.447   4.013   8.405 -1.7940  0.4402  0.9642
 4289TIP3   OH234425   4.687   6.718   7.742  0.2320 -0.1404  0.0954
 4289TIP3    H134426   4.637   6.655   7.793 -0.5599  1.2068  1.0634
 4289TIP3    H234427   4.622   6.766   7.691  1.0580 -1.9625 -2.9467
 4290TIP3   OH234428   5.442   3.153   1.491  0.4611 -1.1301 -0.2704
 4290TIP3    H134429   5.410   3.228   1.540  2.1940 -1.9044  2.2488
 4290TIP3    H234430   5.490   3.191   1.417  1.9214  0.3069  1.3547
 4291TIP3   OH234431   4.589   1.667   0.758  0.3078 -0.3646  0.5714
 4291TIP3    H134432   4.575   1.721   0.835  2.1263 -0.3000  0.9157
 4291TIP3    H234433   4.534   1.590   0.772 -1.3491  0.7805  0.6684
 4292TIP3   OH234434   2.214   0.444   2.387  0.2147 -0.1418 -0.5854
 4292TIP3    H134435   2.221   0.402   2.472  1.2520  1.8396  0.3596
 4292TIP3    H234436   2.303   0.471   2.365 -0.1782  0.1995 -1.8532
 4293TIP3   OH234437   2.491   2.141   8.566  0.1838  0.3213 -0.1149
 4293TIP3    H134438   2.537   2.140   8.650  0.3120 -0.9677 -0.1855
 4293TIP3    H234439   2.424   2.209   8.577  1.4552  1.5378  0.3257
 4294TIP3   OH234440   0.578   6.166   1.199 -0.1902  0.1012  0.1947
 4294TIP3    H134441   0.510   6.104   1.223 -0.0370  0.5579  1.9606
 4294TIP3    H234442   0.660   6.117   1.207 -0.2727 -0.8488 -3.2307
 4295TIP3   OH234443   0.172   4.507   7.987 -0.1524 -0.0587  0.2834
 4295TIP3    H134444   0.257   4.465   7.971 -0.4174  0.1423 -1.8668
 4295TIP3    H234445   0.161   4.501   8.082  3.0547  1.3955  0.9106
 4296TIP3   OH234446   1.103   2.044   0.387  0.2372 -0.2985 -0.2850
 4296TIP3    H134447   1.191   2.063   0.355  0.0841 -1.1687 -1.2760
 4296TIP3    H234448   1.075   2.125   0.430  1.6437 -0.1322  0.3518
 4297TIP3   OH234449   4.825   1.809   2.462 -0.3437 -0.4646  0.5320
 4297TIP3    H134450   4.866   1.724   2.446 -0.2398 -0.3942  0.4137
 4297TIP3    H234451   4.741   1.804   2.418  0.4695  0.1853 -1.2050
 4298TIP3   OH234452   1.778   6.126   7.282  0.2160 -0.1486  0.4112
 4298TIP3    H134453   1.804   6.068   7.354 -1.5897 -1.6675 -0.0728
 4298TIP3    H234454   1.780   6.070   7.204 -0.1339  0.8319 -0.3274
 4299TIP3   OH234455   3.297   2.317   0.976 -0.2281  0.0906  0.4285
 4299TIP3    H134456   3.319   2.354   1.061 -0.2837  0.0581  0.4573
 4299TIP3    H234457   3.247   2.386   0.931 -0.3637  0.0372  0.4963
 4300TIP3   OH234458   3.944   6.027   8.850 -0.1511  0.4273  0.3507
 4300TIP3    H134459   3.886   6.078   8.906 -0.4693 -0.2460  0.6473
 4300TIP3    H234460   3.887   5.990   8.783  0.1764  0.9634 -0.2416
 4301TIP3   OH234461   1.320   3.697   2.924  0.1441  0.1713  0.5463
 4301TIP3    H134462   1.258   3.770   2.919 -1.2341 -0.9905  0.2240
 4301TIP3    H234463   1.379   3.711   2.850 -0.8562  0.3095 -0.2462
 4302TIP3   OH234464   0.669   6.056   8.718  0.2328 -0.2342 -0.0300
 4302TIP3    H134465   0.638   6.145   8.736 -0.8188 -0.7991  1.0728
 4302TIP3    H234466   0.764   6.061   8.732  0.2606  0.8343 -0.5370
 4303TIP3   OH234467   2.597   0.994   7.901 -0.2413  0.7353 -0.6397
 4303TIP3    H134468   2.673   0.951   7.861 -0.7821  0.7829 -1.7606
 4303TIP3    H234469   2.550   1.032   7.827 -2.4497 -0.9902 -0.2203
 4304TIP3   OH234470   0.424   5.615   2.259 -0.1588  0.2091 -0.2460
 4304TIP3    H134471   0.512   5.578   2.263  0.4255  1.3717 -1.5505
 4304TIP3    H234472   0.436   5.703   2.223 -1.8739  0.3264 -0.6323
 4305TIP3   OH234473   3.450   2.884   7.556  0.1985 -0.3695 -0.0177
 4305TIP3    H134474   3.453   2.800   7.603 -0.8247 -0.3964  0.0106
 4305TIP3    H234475   3.532   2.886   7.507 -0.5454 -2.2358 -1.4665
 4306TIP3   OH234476   2.244   4.728   8.526 -0.7490  0.5035  0.3202
 4306TIP3    H134477   2.304   4.660   8.556 -1.3395  0.2635  0.9721
 4306TIP3    H234478   2.276   4.808   8.569 -0.1216  0.6234 -0.3601
 4307TIP3   OH234479   3.111   6.616   0.819 -0.3837  0.5954 -0.1579
 4307TIP3    H134480   3.045   6.603   0.752 -0.5103  1.0758 -0.1307
 4307TIP3    H234481   3.122   6.530   0.860  1.1271 -0.2207 -2.0906
 4308TIP3   OH234482   2.546   2.040   2.511 -0.1459  0.2220  0.4729
 4308TIP3    H134483   2.573   2.063   2.422  0.8138 -1.5839  0.2325
 4308TIP3    H234484   2.452   2.056   2.513 -0.8282 -2.5737 -1.9368
 4309TIP3   OH234485   4.666   5.812   8.957  0.4156 -0.5838 -0.0279
 4309TIP3    H134486   4.685   5.733   9.008 -0.6228 -0.4120  0.6601
 4309TIP3    H234487   4.729   5.877   8.988  1.2236 -1.1038 -0.5422
 4310TIP3   OH234488   5.429   2.773   2.556 -0.1141 -0.1058 -0.2744
 4310TIP3    H134489   5.413   2.693   2.606 -1.3592  0.6019  0.5368
 4310TIP3    H234490   5.447   2.839   2.623  1.3491  0.2158 -0.9534
 4311TIP3   OH234491   0.920   4.903   1.578  0.1011 -0.1976  0.0170
 4311TIP3    H134492   0.905   4.854   1.659 -1.8179  0.6335  0.2313
 4311TIP3    H234493   0.864   4.980   1.586  0.0919  0.0636 -1.9694
 4312TIP3   OH234494   1.206   3.357   3.506 -0.0235 -0.3117  0.0577
 4312TIP3    H134495   1.122   3.392   3.475 -0.3867 -0.4372  0.8854
 4312TIP3    H234496   1.189   3.331   3.596  0.7102 -1.0428 -0.0108
 4313TIP3   OH234497   4.714   6.528   0.485  0.7898  0.1489 -0.0285
 4313TIP3    H134498   4.654   6.461   0.453 -0.2379  1.4624 -0.9915
 4313TIP3    H234499   4.801   6.487   0.481  0.1484 -1.2528 -0.1433
 4314TIP3   OH234500   0.583   4.309   0.812  0.3039 -0.3558  0.1175
 4314TIP3    H134501   0.587   4.309   0.908 -0.4723 -1.4786  0.1666
 4314TIP3    H234502   0.568   4.218   0.789 -1.0301  0.1151 -0.9963
 4315TIP3   OH234503   3.383   6.694   0.799  0.2789  0.4356  0.0904
 4315TIP3    H134504   3.382   6.626   0.867  0.7317 -0.5245 -0.8321
 4315TIP3    H234505   3.292   6.699   0.769  0.2511  0.1917  0.1291
 4316TIP3   OH234506   1.246   2.807   2.464  0.8218  0.0973 -0.7371
 4316TIP3    H134507   1.201   2.767   2.390  0.7157  1.0031 -1.1832
 4316TIP3    H234508   1.279   2.734   2.515 -1.0301 -0.6089 -0.4659
 4317TIP3   OH234509   4.173   2.214   1.980  0.4239 -0.5017  0.8664
 4317TIP3    H134510   4.168   2.226   1.885  1.9316  1.2402  0.9330
 4317TIP3    H234511   4.208   2.126   1.991  4.8011  0.7991 -0.4737
 4318TIP3   OH234512   2.997   4.619   6.953  0.1359  0.5187  0.0765
 4318TIP3    H134513   2.940   4.694   6.938  0.0095  0.5622  0.7272
 4318TIP3    H234514   2.937   4.548   6.974  0.3486  0.9042  2.1947
 4319TIP3   OH234515   2.176   5.262   7.543  0.2891  0.1817 -0.5309
 4319TIP3    H134516   2.106   5.255   7.607  0.0009 -1.1225 -0.9594
 4319TIP3    H234517   2.137   5.308   7.469  0.5552  1.4755  0.1050
 4320TIP3   OH234518   1.138   6.068   2.855  0.1910 -0.0465  0.1846
 4320TIP3    H134519   1.073   6.123   2.810 -0.0750 -0.9427 -0.5467
 4320TIP3    H234520   1.177   6.126   2.921  0.1074  1.0939 -0.7453
 4321TIP3   OH234521   3.694   6.425   8.385 -0.2782  0.1815 -0.4012
 4321TIP3    H134522   3.640   6.500   8.409 -1.2059 -1.2316  2.2589
 4321TIP3    H234523   3.771   6.431   8.441 -1.3725 -1.9310  1.4820
 4322TIP3   OH234524   5.557   1.006   0.183 -0.3070  0.0972  0.0762
 4322TIP3    H134525   5.602   0.959   0.254  0.1419  0.9911  0.3931
 4322TIP3    H234526   5.600   0.976   0.103  1.1577  1.2274  0.3985
 4323TIP3   OH234527   4.314   0.997   0.180 -0.2774 -0.4358 -0.0086
 4323TIP3    H134528   4.335   0.925   0.120  1.0203 -0.5246  0.5327
 4323TIP3    H234529   4.303   0.955   0.265  1.0067  0.0398  0.4169
 4324TIP3   OH234530   4.973   6.339   1.842  0.1235 -0.5745 -0.2578
 4324TIP3    H134531   4.963   6.320   1.935 -0.6633 -0.4082 -0.3045
 4324TIP3    H234532   5.008   6.257   1.805 -1.5813 -1.3918 -0.1621
 4325TIP3   OH234533   3.128   4.746   8.072 -0.0829  0.7106 -0.2316
 4325TIP3    H134534   3.096   4.833   8.051 -0.6836  0.7861  0.9270
 4325TIP3    H234535   3.061   4.686   8.038 -0.2865  0.7589  0.0841
 4326TIP3   OH234536   6.379   6.190   2.052 -0.6146 -0.4338 -0.6251
 4326TIP3    H134537   6.419   6.246   1.986 -1.5490  2.3912  1.0211
 4326TIP3    H234538   6.316   6.137   2.004 -0.7734  1.0230 -2.1127
 4327TIP3   OH234539   0.031   6.408   2.272  0.0667  0.5208 -0.3123
 4327TIP3    H134540   0.009   6.493   2.309 -0.1656  0.9524 -1.4123
 4327TIP3    H234541  -0.053   6.370   2.245  0.1055 -0.3068  0.6651
 4328TIP3   OH234542   5.753   3.768   0.866  0.3099 -0.2579  0.6676
 4328TIP3    H134543   5.843   3.764   0.897  0.5696 -0.3273 -0.0860
 4328TIP3    H234544   5.717   3.845   0.909  0.6230 -0.4209  1.2364
 4329TIP3   OH234545   6.650   6.520   1.322  0.0066 -0.6348  0.3105
 4329TIP3    H134546   6.629   6.443   1.269 -0.5754 -0.2539 -0.0256
 4329TIP3    H234547   6.746   6.524   1.322  0.0240 -0.5752 -0.8299
 4330TIP3   OH234548   2.868   5.786   2.070 -0.1044  0.0105 -0.3002
 4330TIP3    H134549   2.933   5.840   2.025 -0.9895  1.8128  0.5277
 4330TIP3    H234550   2.908   5.764   2.154 -0.1943  0.3040 -0.1829
 4331TIP3   OH234551   4.932   1.558   0.178  0.2454 -0.7467  0.5020
 4331TIP3    H134552   4.978   1.561   0.262  2.9241 -1.4614 -0.8330
 4331TIP3    H234553   4.891   1.471   0.176  0.7135 -0.9759  0.8096
 4332TIP3   OH234554   3.148   3.579   2.276  0.2655 -0.2992  0.6356
 4332TIP3    H134555   3.089   3.654   2.274 -0.7267 -0.9733  2.3967
 4332TIP3    H234556   3.229   3.612   2.313  0.5207  0.3018 -0.4086
 4333TIP3   OH234557   5.798   6.217   1.596 -0.1461  0.2474 -0.3585
 4333TIP3    H134558   5.712   6.257   1.583 -1.7641 -1.8490  2.6486
 4333TIP3    H234559   5.832   6.260   1.675 -0.1651 -1.4526  0.6279
 4334TIP3   OH234560   0.407   4.211   0.239  0.2816 -0.3984  0.1146
 4334TIP3    H134561   0.466   4.255   0.178 -0.8900 -0.9550 -1.4920
 4334TIP3    H234562   0.407   4.267   0.317  0.6019  1.2069 -0.9840
 4335TIP3   OH234563   6.671   3.113   8.680 -0.0683 -0.5558  0.2885
 4335TIP3    H134564   6.700   3.159   8.759 -2.2138  0.0039  0.8289
 4335TIP3    H234565   6.667   3.021   8.706  0.3993 -0.5387  0.4366
 4336TIP3   OH234566   4.406   2.441   1.332  0.2652  0.4282 -0.3208
 4336TIP3    H134567   4.369   2.501   1.396  0.8081  1.9562 -1.3786
 4336TIP3    H234568   4.343   2.440   1.260  0.0005 -0.7172 -0.0960
 4337TIP3   OH234569   4.464   5.471   1.712 -0.5646  0.4843  0.4064
 4337TIP3    H134570   4.427   5.408   1.651  0.9855  0.1932 -0.2916
 4337TIP3    H234571   4.523   5.419   1.768  0.9474  1.3031 -0.3539
 4338TIP3   OH234572   3.041   3.163   1.639 -0.2330 -0.0795 -0.1488
 4338TIP3    H134573   3.014   3.219   1.712  0.3993 -0.9789  0.7959
 4338TIP3    H234574   3.073   3.225   1.572  2.4475  0.6789  1.6808
 4339TIP3   OH234575   1.122   4.256   3.178 -0.0614 -0.2863 -0.5561
 4339TIP3    H134576   1.177   4.197   3.228  0.5941 -0.2796 -1.2600
 4339TIP3    H234577   1.144   4.239   3.086 -0.3919  0.5282 -0.7996
 4340TIP3   OH234578   2.977   2.330   0.501 -0.1709 -0.1873  0.0369
 4340TIP3    H134579   2.889   2.318   0.537  0.4545 -1.1276  1.3336
 4340TIP3    H234580   3.009   2.411   0.539  0.1608 -0.7376  0.9644
 4341TIP3   OH234581   6.051   5.816   1.648 -0.5077 -0.7796 -0.0482
 4341TIP3    H134582   6.134   5.825   1.695 -0.6394  0.7983 -0.0320
 4341TIP3    H234583   5.994   5.770   1.710 -0.2121 -0.1192  0.7462
 4342TIP3   OH234584   0.673   0.877   0.702 -0.2168  0.0943  0.2796
 4342TIP3    H134585   0.597   0.826   0.732 -1.1622  1.6328  0.6275
 4342TIP3    H234586   0.663   0.881   0.607  1.1713 -2.3043 -0.0376
 4343TIP3   OH234587   6.472   4.607   7.726  0.5791 -0.2124 -0.0319
 4343TIP3    H134588   6.543   4.560   7.770  1.0595  0.7624  0.2555
 4343TIP3    H234589   6.408   4.539   7.705  0.7118 -0.8314  1.4237
 4344TIP3   OH234590   6.481   3.829   2.308  0.6693 -0.8599  0.0453
 4344TIP3    H134591   6.542   3.886   2.355  1.2500 -1.2196 -0.2679
 4344TIP3    H234592   6.435   3.781   2.377  0.4728 -0.3265  0.2958
 4345TIP3   OH234593   0.612   4.881   0.745 -0.4915 -0.4813 -0.0665
 4345TIP3    H134594   0.665   4.802   0.733 -1.7943 -1.7178  1.7377
 4345TIP3    H234595   0.522   4.851   0.739 -1.0667  0.4769  2.4011
 4346TIP3   OH234596   3.414   6.357   0.296 -0.2214 -0.1546  0.5091
 4346TIP3    H134597   3.429   6.440   0.340 -2.0852  0.8580 -0.6632
 4346TIP3    H234598   3.501   6.317   0.291  0.5769  1.2971  1.8732
 4347TIP3   OH234599   5.858   4.127   8.195  0.3349  0.4862 -0.1071
 4347TIP3    H134600   5.790   4.093   8.253  0.4381  0.9056  0.2657
 4347TIP3    H234601   5.879   4.054   8.137 -0.6470  0.4454 -0.4345
 4348TIP3   OH234602   5.603   2.365   2.092  0.3772 -0.6294 -0.5704
 4348TIP3    H134603   5.675   2.351   2.153  0.8364  1.3995 -0.5719
 4348TIP3    H234604   5.537   2.413   2.143  0.4687  0.4603 -1.4329
 4349TIP3   OH234605   4.018   1.338   8.056 -0.0897 -0.2210  0.3580
 4349TIP3    H134606   4.041   1.246   8.056 -1.8689 -0.7102 -0.3707
 4349TIP3    H234607   4.094   1.383   8.019  1.1167 -1.2759  1.4944
 4350TIP3   OH234608   2.004   0.069   1.402  0.4185 -0.5578  0.1488
 4350TIP3    H134609   1.990   0.105   1.489  0.2117 -3.2826  1.3624
 4350TIP3    H234610   2.038   0.142   1.350 -0.6944  1.4769  2.1312
 4351TIP3   OH234611   0.561   2.010   1.031  0.3147 -0.1452 -0.0547
 4351TIP3    H134612   0.619   1.956   1.085  1.0484  1.4399  0.8519
 4351TIP3    H234613   0.574   2.099   1.065 -2.4403  0.3347 -0.0045
 4352TIP3   OH234614   2.667   0.171   0.957  0.1849 -0.0355  0.0608
 4352TIP3    H134615   2.700   0.093   0.912  0.7104  0.0228  0.3348
 4352TIP3    H234616   2.744   0.207   1.001 -0.1308  0.4362  0.2302
 4353TIP3   OH234617   2.160   3.657   1.446 -0.3890  0.6286 -0.3408
 4353TIP3    H134618   2.099   3.725   1.476  0.2627  0.7819  0.6810
 4353TIP3    H234619   2.181   3.607   1.524  0.4735  0.3204 -0.7529
 4354TIP3   OH234620   2.793   3.481   2.179  0.1425  0.0687 -0.0659
 4354TIP3    H134621   2.763   3.442   2.260 -2.7055  0.1528 -0.9657
 4354TIP3    H234622   2.822   3.407   2.126 -0.3161 -0.2605  0.1373
 4355TIP3   OH234623   2.781   2.373   8.765  0.7777  0.1119  0.1002
 4355TIP3    H134624   2.754   2.446   8.710 -0.3495 -1.2221 -1.2122
 4355TIP3    H234625   2.811   2.306   8.703 -0.5622 -1.4660  1.0590
 4356TIP3   OH234626   3.693   2.817   0.328 -0.4548  0.2777 -0.3835
 4356TIP3    H134627   3.714   2.781   0.414 -1.8443 -0.7565 -0.4459
 4356TIP3    H234628   3.600   2.839   0.333 -0.8455 -0.8313 -1.9413
 4357TIP3   OH234629   6.740   3.444   7.346  0.1868  0.7785 -0.9645
 4357TIP3    H134630   6.678   3.417   7.278  1.5871  2.3803 -3.0054
 4357TIP3    H234631   6.726   3.538   7.355  1.0067  0.8295 -0.0270
 4358TIP3   OH234632   2.421   6.093   0.187 -0.4823 -0.3855  0.1534
 4358TIP3    H134633   2.353   6.039   0.229 -1.2478  0.2143 -0.2889
 4358TIP3    H234634   2.381   6.180   0.179  0.3630 -0.0081 -0.0656
 4359TIP3   OH234635   2.927   5.861   8.881  0.2969  0.2786 -0.3381
 4359TIP3    H134636   2.946   5.783   8.829  0.5766  0.6295 -0.7653
 4359TIP3    H234637   2.999   5.921   8.862  0.7261  0.1878  0.9098
 4360TIP3   OH234638   3.672   6.667   8.711  0.2137 -0.0222 -0.0239
 4360TIP3    H134639   3.603   6.662   8.645  0.8297  0.0270 -0.6801
 4360TIP3    H234640   3.744   6.615   8.676  0.3541 -0.4489  0.8619
 4361TIP3   OH234641   0.587   3.168   3.462 -0.1246  0.6513  0.7856
 4361TIP3    H134642   0.627   3.108   3.525 -0.5008 -1.3927 -0.8129
 4361TIP3    H234643   0.645   3.165   3.386 -1.5085  0.2979 -0.2814
 4362TIP3   OH234644   1.354   2.040   6.985  0.3908 -0.7765  0.1805
 4362TIP3    H134645   1.446   2.015   6.982  0.2744 -1.2942  0.6187
 4362TIP3    H234646   1.320   1.995   7.063 -0.3137 -0.8911 -0.1862
 4363TIP3   OH234647   1.503   4.827   8.398  0.3725  0.2489  0.5005
 4363TIP3    H134648   1.487   4.737   8.371  0.5195  0.2372  0.4510
 4363TIP3    H234649   1.584   4.822   8.449  2.2465  0.8359 -2.2148
 4364TIP3   OH234650   5.774   4.406   0.620 -0.3536  0.3607  0.0093
 4364TIP3    H134651   5.812   4.349   0.553  1.0343  0.8968  0.3163
 4364TIP3    H234652   5.743   4.482   0.571 -1.4815 -0.2711 -0.2977
 4365TIP3   OH234653   3.485   4.416   0.709 -0.2312 -0.1477  0.0945
 4365TIP3    H134654   3.458   4.508   0.705 -0.8675 -0.3127  0.5626
 4365TIP3    H234655   3.422   4.374   0.767 -1.6693 -1.4816 -2.2322
 4366TIP3   OH234656   3.179   4.410   2.967  0.2650 -1.0813  0.2306
 4366TIP3    H134657   3.194   4.337   3.028  1.1134 -0.5331  0.7045
 4366TIP3    H234658   3.255   4.408   2.908 -1.0094 -2.1988 -1.4701
 4367TIP3   OH234659   6.311   5.795   0.244 -0.4293  0.3382  0.1391
 4367TIP3    H134660   6.385   5.744   0.212 -0.8349 -0.8599  1.0141
 4367TIP3    H234661   6.343   5.836   0.325  0.0160  1.8489 -0.7527
 4368TIP3   OH234662   3.681   2.898   1.838 -0.0271  0.6307 -0.7474
 4368TIP3    H134663   3.765   2.855   1.825 -1.6064 -2.5139 -1.4326
 4368TIP3    H234664   3.704   2.990   1.855  3.5204 -0.2069 -0.1814
 4369TIP3   OH234665   6.340   2.836   7.731  0.3188  0.8962 -0.0019
 4369TIP3    H134666   6.277   2.904   7.709  0.3099  1.6873  2.2284
 4369TIP3    H234667   6.420   2.862   7.685 -0.3659  1.0326 -1.1472
 4370TIP3   OH234668   3.000   6.119   2.159  0.0566  0.5597 -0.1593
 4370TIP3    H134669   3.070   6.056   2.140 -0.6015 -0.2878  0.1985
 4370TIP3    H234670   2.947   6.077   2.226  0.2119  1.9629  0.8640
 4371TIP3   OH234671   0.816   1.800   2.012  0.0467 -0.7401 -0.4822
 4371TIP3    H134672   0.777   1.714   1.997 -1.0254 -0.4058  0.2201
 4371TIP3    H234673   0.882   1.809   1.944  0.8130 -2.4792 -0.0339
 4372TIP3   OH234674   0.579   3.716   1.822 -0.1965  0.3366  0.5326
 4372TIP3    H134675   0.621   3.638   1.784  0.4870  1.1201 -0.3756
 4372TIP3    H234676   0.574   3.697   1.916  1.6042 -0.0835  0.5937
 4373TIP3   OH234677   0.810   6.590   2.319  0.5731  0.1096 -0.0331
 4373TIP3    H134678   0.749   6.521   2.344  1.5020 -0.8005 -0.2277
 4373TIP3    H234679   0.823   6.641   2.399 -2.0618  1.6502 -0.4628
 4374TIP3   OH234680   1.740   3.166   2.285 -0.4651  0.3956  0.5520
 4374TIP3    H134681   1.813   3.186   2.343  1.3287  0.3002 -1.5390
 4374TIP3    H234682   1.742   3.070   2.276 -0.1415  0.4873 -0.3805
 4375TIP3   OH234683   5.944   4.634   1.048  0.0610 -0.0190  0.1468
 4375TIP3    H134684   5.862   4.639   1.098 -1.6630 -0.5851 -2.4169
 4375TIP3    H234685   5.972   4.725   1.039 -0.4349  0.2120  0.8078
 4376TIP3   OH234686   1.287   1.607   2.222  0.1569 -0.4110  0.0951
 4376TIP3    H134687   1.219   1.650   2.170  0.5491  2.0375  1.4167
 4376TIP3    H234688   1.363   1.605   2.164 -0.1163 -0.0714 -0.2851
 4377TIP3   OH234689   2.694   4.453   7.853 -0.1022 -0.1276  0.2252
 4377TIP3    H134690   2.750   4.397   7.799 -1.3274 -1.0646 -0.1270
 4377TIP3    H234691   2.629   4.393   7.890 -2.7105  1.2497 -1.7556
 4378TIP3   OH234692   3.928   1.469   1.440  0.3887  0.8708 -0.3423
 4378TIP3    H134693   3.878   1.529   1.385  0.5106 -0.4138 -1.9311
 4378TIP3    H234694   3.945   1.393   1.384  1.6839  0.0605  1.0603
 4379TIP3   OH234695   6.518   1.116   1.290 -0.4155 -0.6763  0.1203
 4379TIP3    H134696   6.517   1.084   1.380  1.3229 -1.7655 -0.2140
 4379TIP3    H234697   6.593   1.073   1.249  0.0181  1.2970 -1.3204
 4380TIP3   OH234698   6.361   5.978   7.717  0.3432  0.2752  0.1511
 4380TIP3    H134699   6.372   6.060   7.765  1.6792  1.6407 -2.3129
 4380TIP3    H234700   6.325   6.004   7.633 -1.7257 -2.0092  0.2412
 4381TIP3   OH234701   0.195   5.695   8.888  0.3938  1.0937 -0.1711
 4381TIP3    H134702   0.232   5.757   8.951 -0.0208  1.1212  0.0536
 4381TIP3    H234703   0.231   5.721   8.803  0.9657  1.0536  0.0516
 4382TIP3   OH234704   1.180   1.422   1.801 -0.4853  0.0779  0.4294
 4382TIP3    H134705   1.262   1.399   1.844 -0.0885 -1.7031 -1.1348
 4382TIP3    H234706   1.200   1.418   1.708 -2.3359 -0.3974  0.0095
 4383TIP3   OH234707   0.048   1.673   0.612 -0.3669 -0.2622 -0.2356
 4383TIP3    H134708   0.083   1.608   0.551 -1.8898 -0.6192 -0.7609
 4383TIP3    H234709   0.125   1.721   0.642  0.4951 -0.4617 -1.9911
 4384TIP3   OH234710   5.808   1.672   2.047 -0.2462  0.3125 -0.1391
 4384TIP3    H134711   5.807   1.731   2.122 -1.1830 -0.2019  0.2810
 4384TIP3    H234712   5.736   1.611   2.065  3.5015 -4.1589  2.0415
 4385TIP3   OH234713   6.504   0.964   2.785 -0.7439  0.5968  0.5240
 4385TIP3    H134714   6.475   0.919   2.706  3.1681  0.1396 -0.8790
 4385TIP3    H234715   6.514   0.895   2.851 -0.6109  0.3775  0.2743
 4386TIP3   OH234716   3.916   2.815   7.988 -0.1687  0.0938 -0.1187
 4386TIP3    H134717   3.826   2.797   7.962 -0.1178  1.5593 -1.4944
 4386TIP3    H234718   3.963   2.733   7.973 -1.6339 -1.4084  2.7537
 4387TIP3   OH234719   2.486   2.792   3.222  0.2446  0.2197  0.1982
 4387TIP3    H134720   2.578   2.795   3.247  0.1460  0.6817  0.5185
 4387TIP3    H234721   2.441   2.848   3.286 -0.3224 -0.3418  0.3125
 4388TIP3   OH234722   5.079   1.946   7.625 -0.3614  0.0492  0.0447
 4388TIP3    H134723   5.153   1.926   7.567 -0.9315  2.1420 -1.5407
 4388TIP3    H234724   5.010   1.977   7.566 -1.6089  0.5626  1.7032
 4389TIP3   OH234725   1.460   5.073   7.751  0.6706 -0.1650 -0.2052
 4389TIP3    H134726   1.505   5.001   7.794  2.1066  0.1230 -1.1551
 4389TIP3    H234727   1.463   5.051   7.658  0.1381  0.5893 -0.4113
 4390TIP3   OH234728   6.589   4.537   0.171 -0.3060  0.0035  0.0039
 4390TIP3    H134729   6.617   4.620   0.209  0.1985  0.1025 -0.5827
 4390TIP3    H234730   6.668   4.498   0.134 -1.0490  0.7598 -2.5619
 4391TIP3   OH234731   5.775   0.589   3.217 -0.4085  0.8624 -0.8507
 4391TIP3    H134732   5.749   0.661   3.161  1.0263  0.3639 -2.2388
 4391TIP3    H234733   5.869   0.601   3.230 -0.1672 -0.6643 -0.9984
 4392TIP3   OH234734   2.491   6.316   2.522  0.2228  0.4824 -0.1764
 4392TIP3    H134735   2.510   6.318   2.428  0.0098 -2.2582 -0.3501
 4392TIP3    H234736   2.420   6.380   2.533 -0.4385  0.1436 -2.0699
 4393TIP3   OH234737   5.456   5.432   8.603 -0.4169  0.6079 -0.2758
 4393TIP3    H134738   5.456   5.336   8.593  3.3152  0.2792  1.0542
 4393TIP3    H234739   5.455   5.465   8.513 -3.3204 -0.5093 -0.7577
 4394TIP3   OH234740   2.955   3.977   8.755  0.3852  0.3381  0.0540
 4394TIP3    H134741   3.021   4.003   8.692 -2.3200  2.7588 -2.0471
 4394TIP3    H234742   3.004   3.960   8.836  3.6840  0.0012 -1.8452
 4395TIP3   OH234743   1.606   4.960   2.033 -0.1916  0.1472 -0.3046
 4395TIP3    H134744   1.628   5.014   1.957 -0.8233  0.6386 -0.1378
 4395TIP3    H234745   1.668   4.988   2.100 -0.2673  0.3899 -0.3365
 4396TIP3   OH234746   5.036   1.970   0.309 -0.2261  0.0076 -0.7607
 4396TIP3    H134747   5.049   1.973   0.404  0.0766  0.4685 -0.8133
 4396TIP3    H234748   5.120   1.998   0.273 -0.3047 -0.2802 -1.1683
 4397TIP3   OH234749   5.254   6.193   8.286  0.1663 -0.1461 -0.5570
 4397TIP3    H134750   5.311   6.129   8.242 -1.2507 -1.1340 -1.0322
 4397TIP3    H234751   5.166   6.170   8.256 -0.5278  1.0617  0.5073
 4398TIP3   OH234752   4.901   1.204   2.486 -0.1517  0.3114  0.0912
 4398TIP3    H134753   4.914   1.280   2.430  0.7310 -0.2252 -0.4487
 4398TIP3    H234754   4.980   1.151   2.475  0.6604  0.7951  2.8264
 4399TIP3   OH234755   4.085   0.057   8.862  0.5820  0.5416 -0.5701
 4399TIP3    H134756   4.163   0.033   8.912 -0.0728  3.0279  1.9168
 4399TIP3    H234757   4.017  -0.004   8.892  0.9972 -0.1266 -0.9768
 4400TIP3   OH234758   4.059   0.681   8.838 -0.0443 -0.4537 -0.0158
 4400TIP3    H134759   3.967   0.660   8.848  0.0047 -0.5076  0.3184
 4400TIP3    H234760   4.099   0.600   8.806 -0.1074 -0.4364 -0.1397
 4401TIP3   OH234761   1.214   5.639   8.834  0.1081 -0.0910 -0.1100
 4401TIP3    H134762   1.287   5.650   8.896 -0.5631  1.4357  0.4608
 4401TIP3    H234763   1.257   5.630   8.749  0.9827  0.6929  0.2252
 4402TIP3   OH234764   6.104   1.694   1.307 -0.5950  0.2426 -0.2727
 4402TIP3    H134765   6.160   1.630   1.350  0.7461  1.0870 -0.7278
 4402TIP3    H234766   6.126   1.688   1.215  0.6126  2.3025 -0.1938
 4403TIP3   OH234767   6.739   2.624   8.532  0.0199  0.0164  0.3923
 4403TIP3    H134768   6.643   2.618   8.525 -0.0519  1.0806  0.2035
 4403TIP3    H234769   6.764   2.550   8.587 -1.0926  0.5556  1.7011
 4404TIP3   OH234770   0.380   1.055   8.429 -0.2927 -0.1244 -0.3417
 4404TIP3    H134771   0.435   1.002   8.488 -2.7037 -0.4360  1.7961
 4404TIP3    H234772   0.423   1.141   8.427  0.2111 -0.3001  1.4219
 4405TIP3   OH234773   4.474   0.226   3.326  0.1634  0.7329  0.5691
 4405TIP3    H134774   4.382   0.252   3.336  0.0922  0.3362  0.9956
 4405TIP3    H234775   4.495   0.246   3.235 -0.2500  1.1357  0.5594
 4406TIP3   OH234776   6.290   5.839   1.781  0.0842  0.8819  0.3971
 4406TIP3    H134777   6.381   5.840   1.751 -0.1097 -0.6749 -0.3143
 4406TIP3    H234778   6.295   5.817   1.873  0.3320 -5.0202 -0.6676
 4407TIP3   OH234779   6.368   2.653   1.866 -0.0456  0.2074  0.1706
 4407TIP3    H134780   6.418   2.719   1.913 -0.2035  0.8554 -0.5468
 4407TIP3    H234781   6.432   2.610   1.809  0.3460 -1.2222  1.5953
 4408TIP3   OH234782   2.381   2.224   8.089  0.3589  0.1181 -0.4527
 4408TIP3    H134783   2.292   2.193   8.074  0.2136  0.0931  0.4192
 4408TIP3    H234784   2.433   2.186   8.018 -0.0477 -1.0847 -0.1131
 4409TIP3   OH234785   5.987   5.007   1.436  1.0024 -0.1961 -0.6116
 4409TIP3    H134786   6.028   5.036   1.356  1.9174 -0.7815 -0.3718
 4409TIP3    H234787   6.025   5.061   1.505 -0.6561  1.1325 -0.6770
 4410TIP3   OH234788   5.270   1.070   8.777 -0.0639 -0.2583  0.1370
 4410TIP3    H134789   5.308   1.123   8.707  0.1208  0.0051  0.4345
 4410TIP3    H234790   5.306   1.108   8.857 -0.8236 -0.1173  0.4139
 4411TIP3   OH234791   0.378   4.445   7.485 -0.1541  0.0712  0.3748
 4411TIP3    H134792   0.381   4.359   7.445 -0.2625  0.0082  0.5001
 4411TIP3    H234793   0.404   4.505   7.416  0.0042 -0.0707  0.3131
 4412TIP3   OH234794   4.515   6.069   7.651  0.1788  0.1622 -1.0262
 4412TIP3    H134795   4.487   6.047   7.739  1.2603  0.4978 -0.5798
 4412TIP3    H234796   4.484   5.997   7.596  0.5844 -0.6854 -0.1694
 4413TIP3   OH234797   0.341   0.147   0.324  0.3275  0.1239  0.3271
 4413TIP3    H134798   0.261   0.159   0.273  0.4060  1.9102  0.5392
 4413TIP3    H234799   0.311   0.112   0.408  0.1400 -2.2625 -0.6776
 4414TIP3   OH234800   4.815   6.553   2.033 -0.1035  0.9330 -0.4950
 4414TIP3    H134801   4.821   6.523   1.942 -0.9851  1.2020 -0.6548
 4414TIP3    H234802   4.870   6.631   2.036 -0.7745  1.4519 -1.0517
 4415TIP3   OH234803   2.823   4.029   7.910 -0.0537  0.2428 -0.4254
 4415TIP3    H134804   2.824   3.934   7.897  0.5975  0.1025  0.5087
 4415TIP3    H234805   2.915   4.052   7.924 -0.1405  1.0968 -1.1829
 4416TIP3   OH234806   1.769   3.541   1.913  1.0674 -0.3047 -0.4558
 4416TIP3    H134807   1.851   3.537   1.864  1.6441 -0.4428  0.5016
 4416TIP3    H234808   1.743   3.634   1.909 -0.2523 -0.6999 -3.1603
 4417TIP3   OH234809   2.918   4.373   8.459  0.2148 -0.0932  0.3117
 4417TIP3    H134810   2.874   4.438   8.514 -1.7957  0.6468 -1.9647
 4417TIP3    H234811   2.970   4.321   8.520  0.3559  2.3767  2.4959
 4418TIP3   OH234812   4.861   6.222   8.332  0.0022  0.4652  0.9221
 4418TIP3    H134813   4.841   6.234   8.239  0.9590  0.3894  0.6907
 4418TIP3    H234814   4.919   6.295   8.353  0.6458 -0.1111  1.1777
 4419TIP3   OH234815   0.456   5.874   2.155 -0.3142 -0.2102  0.7791
 4419TIP3    H134816   0.489   5.926   2.081 -1.1501 -1.5017 -0.5437
 4419TIP3    H234817   0.388   5.929   2.194 -0.2803  0.2428  0.2248
 4420TIP3   OH234818   1.712   5.855   8.399 -0.4716  0.4083  0.2447
 4420TIP3    H134819   1.801   5.888   8.385 -0.5943  0.3542 -0.7822
 4420TIP3    H234820   1.723   5.770   8.442  0.0085  0.1089 -0.4522
 4421TIP3   OH234821   2.566   0.297   2.174 -0.0666 -0.3948 -0.1091
 4421TIP3    H134822   2.656   0.312   2.146  0.0663  2.4712  1.4444
 4421TIP3    H234823   2.555   0.202   2.169  2.6554 -0.7476 -1.3695
 4422TIP3   OH234824   2.743   0.946   7.480 -0.1782 -0.1208  0.3851
 4422TIP3    H134825   2.735   0.854   7.507  1.3062 -0.6303 -0.7835
 4422TIP3    H234826   2.678   0.956   7.410  0.4532 -0.6264 -0.2883
 4423TIP3   OH234827   0.690   6.042   8.384 -0.4495 -0.2502  0.0858
 4423TIP3    H134828   0.680   6.126   8.428 -0.3314 -0.1281 -0.1166
 4423TIP3    H234829   0.698   5.979   8.455  1.8523  0.1815  0.3004
 4424TIP3   OH234830   1.006   5.776   2.480  0.7055 -0.3742  0.0772
 4424TIP3    H134831   1.019   5.826   2.561  1.3957 -0.5872  0.1009
 4424TIP3    H234832   1.071   5.707   2.484 -0.1231 -1.1858 -0.0370
 4425TIP3   OH234833   5.739   1.851   7.831 -0.0324 -0.0849 -0.3308
 4425TIP3    H134834   5.774   1.780   7.884  2.5670  0.6665 -0.8812
 4425TIP3    H234835   5.661   1.814   7.789  2.0395 -3.1907 -1.8342
 4426TIP3   OH234836   0.052   1.102   0.879 -0.3984  0.2500 -0.2415
 4426TIP3    H134837   0.111   1.177   0.884 -1.0741  0.7553  0.2812
 4426TIP3    H234838  -0.035   1.140   0.874 -0.7505 -0.4937  0.0567
 4427TIP3   OH234839   3.891   1.932   1.105  0.2985 -0.2811  0.4101
 4427TIP3    H134840   3.845   1.935   1.021  2.9131 -1.2264 -1.1892
 4427TIP3    H234841   3.937   2.016   1.110 -1.7574  0.8503  2.2087
 4428TIP3   OH234842   5.552   5.943   7.040  0.0883 -0.1595 -0.4669
 4428TIP3    H134843   5.528   5.851   7.031 -1.0480  0.1562 -0.7599
 4428TIP3    H234844   5.501   5.989   6.973 -2.9212  1.2545  2.4680
 4429TIP3   OH234845   6.534   0.882   1.777 -0.1192 -0.2449  0.0801
 4429TIP3    H134846   6.601   0.941   1.812  0.6147  0.0990 -1.7714
 4429TIP3    H234847   6.582   0.802   1.756 -0.5219 -0.4129 -0.2137
 4430TIP3   OH234848   2.956   3.426   0.815  0.0751  0.1659  0.3656
 4430TIP3    H134849   3.036   3.387   0.850  0.0907 -0.4943 -0.3786
 4430TIP3    H234850   2.908   3.353   0.777 -0.7444  0.6037  0.5299
 4431TIP3   OH234851   5.314   3.692   2.282 -0.2364  0.0792 -0.4350
 4431TIP3    H134852   5.280   3.744   2.355 -1.6914 -1.3237 -0.0660
 4431TIP3    H234853   5.341   3.610   2.322 -1.8107 -1.0373 -1.5402
 4432TIP3   OH234854   1.300   5.606   2.247 -0.4363  0.7993  0.1838
 4432TIP3    H134855   1.302   5.695   2.282 -0.5263  1.2017 -0.8284
 4432TIP3    H234856   1.207   5.586   2.239 -0.4155  0.7130  0.1617
 4433TIP3   OH234857   2.976   4.681   1.040 -0.1404  0.5304  0.2997
 4433TIP3    H134858   2.996   4.589   1.022  1.2382  0.6948  0.8765
 4433TIP3    H234859   3.018   4.699   1.124  0.4511  1.9399 -0.2678
 4434TIP3   OH234860   6.005   4.719   2.682  0.2244  0.1432  0.1748
 4434TIP3    H134861   5.985   4.812   2.665  1.8951  0.5409  0.1957
 4434TIP3    H234862   5.928   4.687   2.729  0.8593  2.3911  3.1065
 4435TIP3   OH234863   5.337   2.270   8.961  0.1339  0.2367 -0.6232
 4435TIP3    H134864   5.244   2.284   8.983  0.4379 -1.3614  2.1252
 4435TIP3    H234865   5.377   2.356   8.972 -0.4383  0.2523  1.8033
 4436TIP3   OH234866   5.849   4.493   2.025 -0.2077  0.0074 -0.5928
 4436TIP3    H134867   5.891   4.563   1.975 -0.5611  0.1004 -0.7613
 4436TIP3    H234868   5.785   4.456   1.964  0.3575 -0.8274 -0.7002
 4437TIP3   OH234869   4.744   2.536   1.585 -0.2090 -0.4406  0.8518
 4437TIP3    H134870   4.799   2.466   1.552 -1.0757 -1.0886  0.7421
 4437TIP3    H234871   4.757   2.535   1.680 -0.6522 -1.1491  0.9154
 4438TIP3   OH234872   1.101   0.909   1.137 -0.0105  0.6033  0.0354
 4438TIP3    H134873   1.018   0.951   1.115  0.5950  0.9007 -1.8433
 4438TIP3    H234874   1.162   0.981   1.152  0.0569  0.3828  0.8756
 4439TIP3   OH234875   0.100   0.463   2.382 -0.1874  0.4426 -0.4199
 4439TIP3    H134876   0.090   0.398   2.313 -2.5468  1.0887 -0.7862
 4439TIP3    H234877   0.011   0.474   2.417  1.1305 -1.5301  4.3243
 4440TIP3   OH234878   5.747   1.585   8.832  0.3020 -0.9035 -0.0596
 4440TIP3    H134879   5.748   1.497   8.796 -1.3784 -0.5657 -1.0584
 4440TIP3    H234880   5.833   1.621   8.812  1.4817 -2.6961  1.4663
 4441TIP3   OH234881   6.744   6.453   7.623  0.2104  0.3103  0.0941
 4441TIP3    H134882   6.651   6.477   7.623 -0.4114 -1.6644 -2.7362
 4441TIP3    H234883   6.754   6.395   7.698 -0.8773  0.3684  0.3034
 4442TIP3   OH234884   5.213   1.661   1.495  0.1055  0.3536  0.1655
 4442TIP3    H134885   5.263   1.581   1.507  1.1711  1.2515  2.3751
 4442TIP3    H234886   5.121   1.635   1.507  0.5255 -0.3801  2.2581
 4443TIP3   OH234887   5.249   0.156   2.680 -0.5244  0.2358  0.7133
 4443TIP3    H134888   5.321   0.213   2.653  0.9012 -0.7440  2.2341
 4443TIP3    H234889   5.240   0.093   2.609  1.8767 -1.1413  1.4813
 4444TIP3   OH234890   5.928   1.841   0.475 -0.4685  0.1114  0.1365
 4444TIP3    H134891   5.995   1.787   0.518  1.8569  0.8027 -2.3419
 4444TIP3    H234892   5.901   1.903   0.542  0.2713 -1.1349  1.6590
 4445TIP3   OH234893   4.279   0.919   7.434 -0.0969 -0.6757  0.0197
 4445TIP3    H134894   4.322   1.002   7.456 -0.2208 -1.0047  1.5978
 4445TIP3    H234895   4.334   0.881   7.366 -0.4807  1.0562 -1.3334
 4446TIP3   OH234896   4.277   1.115   8.448  0.6351  0.0566  0.2540
 4446TIP3    H134897   4.246   1.195   8.405 -0.8999 -0.2233  0.7762
 4446TIP3    H234898   4.339   1.077   8.386 -0.3736  0.4527 -1.0379
 4447TIP3   OH234899   0.396   3.020   3.309 -0.1584  0.1888  0.4616
 4447TIP3    H134900   0.467   2.957   3.321 -0.3841 -0.4704 -1.2956
 4447TIP3    H234901   0.426   3.099   3.354  1.0664 -0.5143  0.9274
 4448TIP3   OH234902   5.705   0.525   8.302  0.0323  0.3689 -0.5198
 4448TIP3    H134903   5.616   0.559   8.297  0.5176  1.7975 -0.0461
 4448TIP3    H234904   5.701   0.458   8.370 -0.8453 -0.1750 -1.0879
 4449TIP3   OH234905   1.938   3.843   2.536 -0.2262 -0.2838 -0.1580
 4449TIP3    H134906   1.974   3.807   2.456 -0.0257 -0.2948 -0.0648
 4449TIP3    H234907   2.010   3.838   2.599 -0.7678 -1.5026  0.4021
 4450TIP3   OH234908   6.219   4.039   0.969  0.0912  0.0146  0.4747
 4450TIP3    H134909   6.271   4.021   1.048  2.3990  0.4756 -0.8354
 4450TIP3    H234910   6.154   4.103   0.997 -0.8940 -1.7624  2.5643
 4451TIP3   OH234911   6.732   0.663   8.579  0.0743 -0.5988 -0.1892
 4451TIP3    H134912   6.701   0.680   8.490 -0.6856  1.8367  0.4408
 4451TIP3    H234913   6.812   0.714   8.586  0.4290 -1.2244  0.3491
 4452TIP3   OH234914   4.388   6.097   8.547  0.0829 -0.4615  0.2491
 4452TIP3    H134915   4.431   6.073   8.466  0.3663 -1.9310  0.7984
 4452TIP3    H234916   4.397   6.019   8.603 -3.4502 -1.0103  0.3300
 4453TIP3   OH234917   4.883   3.098   2.569  0.1684  0.2722  0.1806
 4453TIP3    H134918   4.902   3.011   2.533 -1.0193  0.0606 -0.0036
 4453TIP3    H234919   4.913   3.094   2.659  3.2659  0.8247 -0.7136
 4454TIP3   OH234920   0.252   3.039   8.336  0.1158  0.4647 -0.2037
 4454TIP3    H134921   0.313   3.111   8.347  0.0615  0.6305 -0.9475
 4454TIP3    H234922   0.166   3.078   8.354  0.2350  0.1622  1.1377
 4455TIP3   OH234923   5.738   5.072   2.166 -0.3685  0.1402  0.1530
 4455TIP3    H134924   5.764   5.156   2.130 -0.4827 -0.0496 -0.3782
 4455TIP3    H234925   5.797   5.058   2.240 -1.5462  1.5426  1.4244
 4456TIP3   OH234926   1.417   0.181   7.448 -0.3215 -0.7907  0.2196
 4456TIP3    H134927   1.503   0.220   7.465 -0.3238 -0.6885 -0.0078
 4456TIP3    H234928   1.419   0.099   7.497 -0.9687  0.2974  2.2070
 4457TIP3   OH234929   3.666   4.573   7.291  0.0140  0.7134  0.0870
 4457TIP3    H134930   3.758   4.554   7.273 -0.4925 -1.3387 -0.6861
 4457TIP3    H234931   3.655   4.665   7.268  1.9995  1.1723  0.8084
 4458TIP3   OH234932   1.056   3.797   1.242  0.1066 -0.4085 -0.2359
 4458TIP3    H134933   1.011   3.721   1.278 -1.5876  0.2771 -0.8299
 4458TIP3    H234934   1.041   3.866   1.306 -1.2425  0.2896 -1.2641
 4459TIP3   OH234935   4.739   4.109   1.501 -0.6351  0.8610 -0.5949
 4459TIP3    H134936   4.782   4.028   1.473  0.1562  2.1839 -3.7872
 4459TIP3    H234937   4.807   4.156   1.550  0.1888  1.0422 -1.8335
 4460TIP3   OH234938   5.754   5.277   1.276 -0.4569  0.2221 -0.3156
 4460TIP3    H134939   5.742   5.370   1.298  1.7922  0.4423  0.2655
 4460TIP3    H234940   5.815   5.278   1.202 -1.8470 -0.7879 -1.5454
 4461TIP3   OH234941   6.604   4.111   8.379  0.5553  0.1982 -0.2153
 4461TIP3    H134942   6.607   4.019   8.406 -0.5230  0.0225 -0.6580
 4461TIP3    H234943   6.547   4.112   8.302 -0.4187  1.3950  0.4748
 4462TIP3   OH234944   5.659   0.241   8.157 -0.0388 -0.0099 -0.4179
 4462TIP3    H134945   5.619   0.208   8.238 -0.0796 -1.2892 -0.9251
 4462TIP3    H234946   5.642   0.335   8.159 -0.5410 -0.0961  0.7804
 4463TIP3   OH234947   5.558   3.663   2.928 -0.5817  0.3563  0.3738
 4463TIP3    H134948   5.488   3.598   2.932 -2.7574  2.4732 -0.4819
 4463TIP3    H234949   5.560   3.702   3.016  0.7797 -0.8555  0.9128
 4464TIP3   OH234950   1.211   0.020   7.915 -0.0191 -0.0205 -0.7591
 4464TIP3    H134951   1.273   0.058   7.852  0.7063  0.2985  0.1319
 4464TIP3    H234952   1.138   0.082   7.917 -0.3972 -0.4059 -1.8258
 4465TIP3   OH234953   2.078   0.482   8.506 -0.4499 -0.4656  0.2725
 4465TIP3    H134954   2.076   0.479   8.410 -2.9673 -0.7474  0.2726
 4465TIP3    H234955   2.007   0.425   8.533 -0.3773  0.3514  2.3018
 4466TIP3   OH234956   4.145   5.023   0.320 -0.6922 -0.0585  0.7511
 4466TIP3    H134957   4.122   5.031   0.413 -1.7921 -0.7288  0.5490
 4466TIP3    H234958   4.067   5.052   0.273 -0.7368 -1.2917  0.0369
 4467TIP3   OH234959   0.540   0.960   8.170 -0.2805  0.2270  0.2422
 4467TIP3    H134960   0.517   1.021   8.240 -2.3382  1.5490 -1.4629
 4467TIP3    H234961   0.587   1.014   8.106 -0.4758 -0.4103 -0.4440
 4468TIP3   OH234962   0.028   1.509   2.713 -0.2243  0.1721  0.3159
 4468TIP3    H134963   0.076   1.428   2.731 -1.4159 -1.2885 -2.4317
 4468TIP3    H234964   0.094   1.570   2.683  0.2567 -1.2850 -1.8338
 4469TIP3   OH234965   6.440   3.249   0.952 -0.5901  0.6217 -0.3827
 4469TIP3    H134966   6.512   3.227   1.011  0.0683 -0.6265 -1.6045
 4469TIP3    H234967   6.396   3.166   0.935 -2.9490  1.4655  1.0497
 4470TIP3   OH234968   2.280   1.877   8.128  0.5228  0.1233  0.1889
 4470TIP3    H134969   2.261   1.805   8.069  0.6586  0.5383 -0.3670
 4470TIP3    H234970   2.235   1.952   8.089  0.5007  0.3729  0.6836
 4471TIP3   OH234971   0.138   3.293   2.902 -0.0726  0.0228 -0.3474
 4471TIP3    H134972   0.123   3.274   2.994 -0.2264 -1.1189 -0.5926
 4471TIP3    H234973   0.130   3.388   2.895 -0.4702  0.0769  0.7384
 4472TIP3   OH234974   2.157   6.191   8.949  0.1180 -0.0125 -0.5326
 4472TIP3    H134975   2.190   6.105   8.920  0.7606  0.3226 -0.8137
 4472TIP3    H234976   2.196   6.253   8.888  2.0840  0.8008  1.3954
 4473TIP3   OH234977   2.225   0.274   0.837 -0.5779  0.0177 -0.4124
 4473TIP3    H134978   2.306   0.319   0.858 -0.6352  0.0809 -0.3230
 4473TIP3    H234979   2.251   0.203   0.778  0.3559 -3.0377  3.2362
 4474TIP3   OH234980   1.343   4.841   1.717  0.4185 -0.6560  0.4612
 4474TIP3    H134981   1.300   4.841   1.632  0.0818 -0.9062  0.6300
 4474TIP3    H234982   1.380   4.929   1.725  0.4697 -0.6383  0.0503
 4475TIP3   OH234983   2.534   5.283   6.950 -0.0828  0.3217  0.1093
 4475TIP3    H134984   2.510   5.204   6.903  2.8172  0.3331 -1.6092
 4475TIP3    H234985   2.607   5.257   7.006  1.4425  1.8745 -1.0671
 4476TIP3   OH234986   3.632   2.741   7.891  0.2950  0.0046  0.0481
 4476TIP3    H134987   3.624   2.836   7.876 -0.3869 -0.0187  0.2280
 4476TIP3    H234988   3.556   2.703   7.847  0.2487 -0.4029  0.4707
 4477TIP3   OH234989   5.169   2.158   0.944  0.1830 -0.8349  0.2643
 4477TIP3    H134990   5.089   2.206   0.926  0.6654  0.1750  0.7699
 4477TIP3    H234991   5.150   2.068   0.916 -0.3484 -0.1299 -1.7953
 4478TIP3   OH234992   3.588   4.192   0.014  0.3662 -0.5874  0.2919
 4478TIP3    H134993   3.510   4.187  -0.041  0.6738 -2.0852 -0.0386
 4478TIP3    H234994   3.633   4.272  -0.014 -0.9307  0.1934  0.3589
 4479TIP3   OH234995   5.752   5.333   7.897 -0.0665 -0.0036 -0.3060
 4479TIP3    H134996   5.762   5.420   7.937  1.2798 -0.5754  0.6932
 4479TIP3    H234997   5.802   5.338   7.816  0.6974 -0.0753  0.1523
 4480TIP3   OH234998   4.792   2.762   8.754  0.3814  0.5805 -0.1184
 4480TIP3    H134999   4.833   2.676   8.745  1.2445  0.7857  1.5606
 4480TIP3    H235000   4.701   2.748   8.725  0.4911 -0.8922  0.1755
 4481TIP3   OH235001   3.377   2.997   7.795  0.0351 -0.7128 -0.1608
 4481TIP3    H135002   3.340   2.965   7.713  0.6380  0.8226 -1.0745
 4481TIP3    H235003   3.472   2.998   7.781  0.2945 -2.1388  1.2235
 4482TIP3   OH235004   4.258   5.119   7.922  0.3493  0.2805  0.3459
 4482TIP3    H135005   4.196   5.148   7.855  0.1355  1.2547  0.9450
 4482TIP3    H235006   4.334   5.088   7.872 -0.3081 -0.2150 -0.3734
 4483TIP3   OH235007   6.363   1.724   2.315 -0.1064  0.3203 -0.5240
 4483TIP3    H135008   6.271   1.719   2.342 -0.3390 -0.7354 -1.4039
 4483TIP3    H235009   6.406   1.772   2.385 -0.9967 -0.7704  0.8379
 4484TIP3   OH235010   2.314   3.719   1.691 -0.0191 -0.1747  0.1819
 4484TIP3    H135011   2.393   3.752   1.734  0.0459 -0.7663  0.5229
 4484TIP3    H235012   2.346   3.669   1.617 -0.0857 -0.1917  0.1645
 4485TIP3   OH235013   3.866   1.443   2.914 -0.4663 -0.3112 -0.2865
 4485TIP3    H135014   3.923   1.409   2.983 -1.0002 -2.2031 -0.7326
 4485TIP3    H235015   3.793   1.483   2.962  0.4139  0.7251  0.2535
 4486TIP3   OH235016   0.669   4.473   0.275  0.2767  0.4904 -0.7033
 4486TIP3    H135017   0.691   4.404   0.212  0.0982 -0.1538 -0.0696
 4486TIP3    H235018   0.639   4.426   0.353 -4.2184  1.2241 -1.6975
 4487TIP3   OH235019   0.302   1.078   1.670  0.2134  0.1543  0.4781
 4487TIP3    H135020   0.334   1.018   1.737  1.2119 -0.3293 -0.4069
 4487TIP3    H235021   0.220   1.038   1.640 -0.3465  0.4716  1.4989
 4488TIP3   OH235022   4.933   4.742   7.844  0.5620  0.0776 -0.1258
 4488TIP3    H135023   4.867   4.679   7.816  0.5189 -0.1115  0.4118
 4488TIP3    H235024   4.896   4.827   7.818  0.5998 -0.1047 -0.8023
 4489TIP3   OH235025   2.843   3.465   0.038  0.2148 -0.2124  0.4764
 4489TIP3    H135026   2.873   3.513   0.115  2.8073 -0.7296 -0.1154
 4489TIP3    H235027   2.762   3.424   0.065 -0.4375  1.9158  2.0052
 4490TIP3   OH235028   6.534   4.709   8.483 -0.2890  0.2548 -0.2411
 4490TIP3    H135029   6.542   4.785   8.426 -2.9420 -0.7438 -2.1680
 4490TIP3    H235030   6.478   4.739   8.555 -0.7050  0.3339 -0.5951
 4491TIP3   OH235031   3.483   2.814   2.613  0.1014 -0.2343 -0.3049
 4491TIP3    H135032   3.428   2.822   2.535 -0.1878 -0.5860 -0.1393
 4491TIP3    H235033   3.561   2.866   2.593  0.1321 -0.5106 -0.9199
 4492TIP3   OH235034   5.335   2.237   1.431 -0.4080  0.2764  0.4006
 4492TIP3    H135035   5.361   2.283   1.511 -4.6376  1.4398  1.3588
 4492TIP3    H235036   5.274   2.170   1.461 -0.7639 -0.4302 -1.7404
 4493TIP3   OH235037   0.417   1.357   8.107  0.4384  0.4677  1.1877
 4493TIP3    H135038   0.431   1.450   8.126  0.8827  0.7077 -0.1765
 4493TIP3    H235039   0.336   1.355   8.056 -0.7468 -0.1501  3.0209
 4494TIP3   OH235040   5.062   5.573   0.555 -0.2150 -0.4210  0.1504
 4494TIP3    H135041   5.099   5.571   0.643  1.1576  1.9217 -0.2872
 4494TIP3    H235042   5.102   5.650   0.514 -1.6444 -0.8174 -2.1613
 4495TIP3   OH235043   0.201   4.140   1.973  0.7914 -0.2508  0.7203
 4495TIP3    H135044   0.185   4.124   2.066  2.8243 -1.1394  0.9683
 4495TIP3    H235045   0.132   4.091   1.928 -0.4309  0.4798  1.7461
 4496TIP3   OH235046   3.856   3.586   0.237 -0.3554  0.1074 -0.4218
 4496TIP3    H135047   3.819   3.513   0.188 -1.0733  1.4812 -2.0419
 4496TIP3    H235048   3.943   3.599   0.200  0.4985 -1.0326  1.1112
 4497TIP3   OH235049   2.847   0.400   1.105 -0.8635  0.6116 -0.5630
 4497TIP3    H135050   2.867   0.489   1.133 -3.0239  1.1331 -0.5412
 4497TIP3    H235051   2.827   0.352   1.186  1.3431 -0.2522 -0.4522
 4498TIP3   OH235052   5.668   1.937   2.725  0.2482 -0.3237 -0.1886
 4498TIP3    H135053   5.752   1.911   2.762  0.0119 -1.2593 -0.2845
 4498TIP3    H235054   5.658   1.881   2.648 -0.9502 -0.9767  0.4248
 4499TIP3   OH235055   5.536   0.700   2.160 -0.2592  0.1854 -0.3507
 4499TIP3    H135056   5.511   0.787   2.129 -0.5802 -0.0598 -0.7782
 4499TIP3    H235057   5.627   0.689   2.130 -0.7021 -0.2227 -1.6011
 4500TIP3   OH235058   3.325   1.791   1.431 -0.3338  0.4227  0.2386
 4500TIP3    H135059   3.264   1.794   1.357  0.4980  1.7635 -0.4267
 4500TIP3    H235060   3.269   1.786   1.508 -1.2556  0.6846 -0.3962
 4501TIP3   OH235061   2.295   6.025   8.586  0.0623  0.5133 -0.2392
 4501TIP3    H135062   2.277   6.117   8.565  0.0217  0.8377  1.1319
 4501TIP3    H235063   2.329   6.027   8.676 -1.4823 -0.9677  0.4274
 4502TIP3   OH235064   0.708   4.457   7.600 -0.5319  0.4922 -0.2999
 4502TIP3    H135065   0.780   4.511   7.568 -0.2489 -1.0346 -2.4322
 4502TIP3    H235066   0.629   4.507   7.579 -0.1896  1.6040  0.9188
 4503TIP3   OH235067   6.335   2.113   8.014  0.1335  0.0083  0.0930
 4503TIP3    H135068   6.269   2.109   8.083  0.4307 -0.5218  0.3530
 4503TIP3    H235069   6.317   2.037   7.959  0.0946  0.2541 -0.2314
 4504TIP3   OH235070   0.452   2.516   7.944  0.4199 -0.0780  0.4848
 4504TIP3    H135071   0.402   2.492   7.867 -2.1430 -1.0317  2.3295
 4504TIP3    H235072   0.429   2.608   7.960 -0.1122 -0.2743  0.8627
 4505TIP3   OH235073   0.979   1.752   7.780 -0.2795  0.3452  0.4187
 4505TIP3    H135074   1.027   1.735   7.862  0.4395 -0.7876 -0.2140
 4505TIP3    H235075   1.031   1.819   7.736  1.3702 -1.5915 -0.7321
 4506TIP3   OH235076   4.792   0.753   7.834  0.0800  0.4772  0.0157
 4506TIP3    H135077   4.718   0.692   7.837  0.7758 -0.3508  1.1277
 4506TIP3    H235078   4.752   0.839   7.827 -0.9816  0.0242  0.3981
 4507TIP3   OH235079   0.933   0.025   7.934  0.3638 -0.7377 -0.6746
 4507TIP3    H135080   0.903  -0.045   7.991  2.0092 -1.2832 -0.4081
 4507TIP3    H235081   0.914  -0.005   7.845 -0.2042 -0.8801 -0.5060
 4508TIP3   OH235082   3.865   1.759   0.356  0.0097  0.4582  0.0806
 4508TIP3    H135083   3.840   1.827   0.294  0.7721  1.0538  0.4009
 4508TIP3    H235084   3.951   1.787   0.388  0.1707 -0.4714  0.4920
 4509TIP3   OH235085   4.379   1.481   0.768 -0.0575 -0.1538  0.5135
 4509TIP3    H135086   4.401   1.397   0.806  2.1493 -0.1194 -0.5463
 4509TIP3    H235087   4.364   1.462   0.675 -2.6340  0.1863  0.7904
 4510TIP3   OH235088   1.533   2.798   0.871  0.0285 -0.3411 -0.1878
 4510TIP3    H135089   1.460   2.825   0.928  1.1822 -0.2636  1.3024
 4510TIP3    H235090   1.547   2.873   0.814 -0.9742 -0.3101 -0.4187
 4511TIP3   OH235091   2.539   3.480   8.094 -0.0373  0.3151 -0.0567
 4511TIP3    H135092   2.556   3.573   8.109 -1.6482  0.3814  1.5752
 4511TIP3    H235093   2.622   3.437   8.116  0.2337  1.2244  0.7793
 4512TIP3   OH235094   0.801   0.512   0.815 -0.2581 -0.2578 -0.2150
 4512TIP3    H135095   0.878   0.564   0.837 -0.1647  0.0844 -1.3230
 4512TIP3    H235096   0.835   0.436   0.768 -0.5394 -0.4589 -0.0965
 4513TIP3   OH235097   1.062   2.803   0.443  0.0315  0.1725  0.1009
 4513TIP3    H135098   1.023   2.732   0.494 -2.3305  1.3059 -0.0016
 4513TIP3    H235099   1.026   2.883   0.482  0.3090  1.1828 -1.6178
 4514TIP3   OH235100   2.347   3.097   2.184  0.2931 -0.4337 -0.3927
 4514TIP3    H135101   2.290   3.160   2.227 -2.5203 -2.4242 -0.9171
 4514TIP3    H235102   2.395   3.055   2.256 -1.6524 -1.1874  0.5410
 4515TIP3   OH235103   2.649   0.914   8.291 -0.1427 -0.5776  0.5459
 4515TIP3    H135104   2.600   0.835   8.266  0.6162 -0.6958 -0.6508
 4515TIP3    H235105   2.698   0.887   8.369  2.4874 -2.3655 -1.5277
 4516TIP3   OH235106   3.690   3.888   0.733 -0.1493 -0.1171 -0.4298
 4516TIP3    H135107   3.628   3.818   0.755  1.5437 -1.5919 -0.1815
 4516TIP3    H235108   3.702   3.880   0.638 -0.2868  0.1301 -0.4689
 4517TIP3   OH235109   4.177   2.727   7.695  0.2593 -0.1584  0.0548
 4517TIP3    H135110   4.215   2.706   7.610 -0.9455 -2.5182  0.0054
 4517TIP3    H235111   4.164   2.642   7.736 -2.2311  0.7118  1.2319
 4518TIP3   OH235112   0.686   5.482   7.254  0.2634 -0.5338  0.1996
 4518TIP3    H135113   0.621   5.487   7.184  0.9306  1.0513 -0.3486
 4518TIP3    H235114   0.724   5.570   7.259  1.0789 -0.9253  1.7553
 4519TIP3   OH235115   1.752   2.546   8.096  0.2015 -0.6574 -0.0235
 4519TIP3    H135116   1.809   2.477   8.062 -0.5443 -0.9505 -0.7028
 4519TIP3    H235117   1.733   2.601   8.020  3.4029  2.2694  1.0598
 4520TIP3   OH235118   3.357   3.384   1.239  0.5599 -0.4717  0.2475
 4520TIP3    H135119   3.360   3.479   1.230 -0.6511 -0.5740 -2.0430
 4520TIP3    H235120   3.355   3.352   1.148  0.7629 -2.6692  0.9730
 4521TIP3   OH235121   6.438   0.368   7.568 -0.3947 -0.0824 -0.4159
 4521TIP3    H135122   6.499   0.305   7.530 -0.2206  0.4054 -0.9620
 4521TIP3    H235123   6.386   0.398   7.494  0.4504  1.4488 -0.4406
 4522TIP3   OH235124   0.744   6.641   2.041 -0.0593  0.3608 -0.1526
 4522TIP3    H135125   0.786   6.641   2.128  2.4630 -0.0713 -1.2635
 4522TIP3    H235126   0.652   6.623   2.059  0.1629  1.3659  2.5104
 4523TIP3   OH235127   2.283   2.351   1.430 -0.5460 -0.3225 -0.1028
 4523TIP3    H135128   2.303   2.330   1.338  1.8490  0.3524  0.2044
 4523TIP3    H235129   2.366   2.379   1.467 -0.9816 -2.3691  2.8257
 4524TIP3   OH235130   1.849   3.577   0.311 -0.1147  0.3611  0.1548
 4524TIP3    H135131   1.783   3.628   0.263 -0.5159 -3.2281 -3.6799
 4524TIP3    H235132   1.924   3.574   0.252  1.5666  0.0745  2.1901
 4525TIP3   OH235133   4.519   5.393   2.003 -0.0935  0.1633 -0.2711
 4525TIP3    H135134   4.535   5.305   1.969  1.3104  0.2810  0.0369
 4525TIP3    H235135   4.444   5.383   2.063 -0.5402 -0.6302 -0.9531
 4526TIP3   OH235136   2.997   6.351   1.232  0.2108 -0.5550  0.2541
 4526TIP3    H135137   2.941   6.406   1.286 -0.4183 -1.2109  0.2940
 4526TIP3    H235138   3.062   6.315   1.292  1.7732  1.5116 -0.0701
 4527TIP3   OH235139   2.065   3.285   1.835  0.0309  0.4392 -0.0265
 4527TIP3    H135140   2.000   3.288   1.905 -1.9276 -0.1173 -1.7186
 4527TIP3    H235141   2.125   3.214   1.860 -0.8355  0.0213  0.9085
 4528TIP3   OH235142   0.243   5.553   8.551 -0.4158  0.0563 -0.1414
 4528TIP3    H135143   0.214   5.479   8.498  0.0113  0.8467 -1.5316
 4528TIP3    H235144   0.293   5.608   8.491  1.4928  0.2032  1.4615
 4529TIP3   OH235145   5.433   2.210   7.986  0.0093  0.1586  0.2688
 4529TIP3    H135146   5.477   2.220   8.070 -1.5424  1.4197  0.9755
 4529TIP3    H235147   5.352   2.163   8.006  0.4389 -1.1347 -0.8318
 4530TIP3   OH235148   4.516   4.308   7.958  0.2246 -0.2525 -0.2628
 4530TIP3    H135149   4.528   4.222   7.918 -1.6851 -0.4032 -0.6304
 4530TIP3    H235150   4.510   4.369   7.884 -0.3242 -0.0929 -0.0942
 4531TIP3   OH235151   5.102   2.724   0.612 -0.0721  0.0058 -0.2906
 4531TIP3    H135152   5.118   2.700   0.521 -1.2337 -3.2630  0.2299
 4531TIP3    H235153   5.159   2.666   0.663  0.1896  1.4210  1.1195
 4532TIP3   OH235154   0.969   5.122   3.201  0.5346 -0.1122  0.2309
 4532TIP3    H135155   0.887   5.171   3.191  0.0785 -0.5748  1.4565
 4532TIP3    H235156   1.037   5.188   3.193 -0.0316  0.5685  0.8818
 4533TIP3   OH235157   0.744   0.794   8.296 -0.3284  0.0184 -0.5793
 4533TIP3    H135158   0.676   0.840   8.247  0.0828  0.3993 -0.8107
 4533TIP3    H235159   0.814   0.780   8.232 -0.3843 -0.7953 -0.4648
 4534TIP3   OH235160   6.609   0.165   7.488 -0.3664  0.1583 -0.0789
 4534TIP3    H135161   6.670   0.101   7.525  0.6624  1.0493 -0.2084
 4534TIP3    H235162   6.598   0.138   7.397  1.2005  0.9548 -0.5450
 4535TIP3   OH235163   1.493   2.541   8.481 -0.0411 -0.0739  0.6649
 4535TIP3    H135164   1.498   2.627   8.440 -1.9434  0.5886  1.7067
 4535TIP3    H235165   1.579   2.529   8.522  0.3678  1.1732  0.2082
 4536TIP3   OH235166   0.916   2.406   1.998 -0.2508 -0.3571  0.0079
 4536TIP3    H135167   0.871   2.444   2.073  2.1762 -1.5738  2.2655
 4536TIP3    H235168   0.914   2.312   2.013  2.0725 -0.5143 -0.2818
 4537TIP3   OH235169   4.085   3.313   0.088 -0.0401 -0.2949 -0.2391
 4537TIP3    H135170   4.050   3.311   0.177  1.7821  1.6553  0.6164
 4537TIP3    H235171   4.159   3.253   0.090  1.4260  1.4604  0.2927
 4538TIP3   OH235172   3.052   2.421   3.869 -0.0350 -0.2797  0.3173
 4538TIP3    H135173   2.977   2.363   3.885 -0.7186  0.4621 -0.1001
 4538TIP3    H235174   3.124   2.381   3.918 -0.7725 -0.8559  0.9632
 4539TIP3   OH235175   3.106   2.833   1.856 -0.5252  0.4970 -0.4088
 4539TIP3    H135176   3.017   2.859   1.835 -0.3134 -0.7432 -3.2738
 4539TIP3    H235177   3.140   2.795   1.775  0.9902 -3.5467  1.8337
 4540TIP3   OH235178   0.262   1.478   2.208 -0.0415  0.1812  0.5283
 4540TIP3    H135179   0.260   1.404   2.146  1.2263  1.5140 -1.1901
 4540TIP3    H235180   0.170   1.502   2.219 -0.4212 -1.1850  0.5704
 4541TIP3   OH235181   3.423   2.709   1.078  0.3597  0.5542  0.5404
 4541TIP3    H135182   3.510   2.724   1.116  0.2846 -0.3414  1.0973
 4541TIP3    H235183   3.381   2.648   1.139 -1.2818  2.2294  1.1832
 4542TIP3   OH235184   0.572   6.362   0.681  0.1354 -0.3345  0.7632
 4542TIP3    H135185   0.657   6.374   0.724  0.5110 -0.3173  0.0460
 4542TIP3    H235186   0.521   6.309   0.742  0.6297 -0.2708  1.2436
 4543TIP3   OH235187   2.705   1.804   0.785  0.0327  0.2413  0.4683
 4543TIP3    H135188   2.696   1.817   0.691 -0.2309 -1.1218  0.2986
 4543TIP3    H235189   2.622   1.836   0.821 -0.7905 -1.2847  0.0095
 4544TIP3   OH235190   3.909   4.085   2.842 -0.7512  0.2289 -0.3044
 4544TIP3    H135191   3.900   4.072   2.748 -1.7114 -0.7654 -0.0911
 4544TIP3    H235192   3.961   4.165   2.850  1.8101 -1.1531 -1.6958
 4545TIP3   OH235193   3.214   6.013   7.753 -0.5042 -0.2108  0.4578
 4545TIP3    H135194   3.216   5.972   7.840  1.4332 -1.1892 -0.0081
 4545TIP3    H235195   3.171   5.948   7.697 -1.5944  0.3493  0.6147
 4546TIP3   OH235196   4.236   1.445   7.935  0.0175 -0.8183 -0.2439
 4546TIP3    H135197   4.285   1.519   7.970 -1.0966  0.7018 -1.7448
 4546TIP3    H235198   4.293   1.407   7.869 -0.0736 -0.2215 -0.6712
 4547TIP3   OH235199   4.605   4.159   1.009 -0.0280 -0.8365  0.0612
 4547TIP3    H135200   4.548   4.228   0.975 -0.0076 -1.3935 -1.1437
 4547TIP3    H235201   4.657   4.202   1.077  1.7749  1.0376 -2.3240
 4548TIP3   OH235202   0.839   3.378   2.618 -0.0639  0.6705 -0.0049
 4548TIP3    H135203   0.887   3.453   2.654 -0.8383  1.4161 -0.4833
 4548TIP3    H235204   0.807   3.331   2.694  1.4536  0.1142  0.3364
 4549TIP3   OH235205   6.275   4.715   1.679  0.5117 -0.3942  0.1523
 4549TIP3    H135206   6.233   4.636   1.645  0.0961  0.6945 -2.1059
 4549TIP3    H235207   6.203   4.778   1.688  1.2639  0.9022 -1.9353
 4550TIP3   OH235208   3.041   4.398   1.351 -0.3282  0.0560 -0.2469
 4550TIP3    H135209   3.112   4.381   1.413  1.2588  1.1092 -1.6651
 4550TIP3    H235210   2.969   4.342   1.380  0.9616 -0.8077  1.4585
 4551TIP3   OH235211   2.453   4.313   1.286  0.2335  0.0735  0.0878
 4551TIP3    H135212   2.479   4.405   1.288  0.2464  0.0819 -0.3074
 4551TIP3    H235213   2.385   4.305   1.353 -0.7357  0.6677 -0.7917
 4552TIP3   OH235214   2.818   0.047   8.809 -0.1189  0.3350 -0.2488
 4552TIP3    H135215   2.893   0.019   8.862 -0.6660 -0.6679  0.0136
 4552TIP3    H235216   2.853   0.117   8.754  0.9456  0.0640  0.0586
 4553TIP3   OH235217   0.382   4.414   1.652  0.4627  0.2135  0.5074
 4553TIP3    H135218   0.456   4.474   1.658 -0.3799  1.2624  0.7702
 4553TIP3    H235219   0.361   4.393   1.743  1.1178 -0.9730  0.4046
 4554TIP3   OH235220   0.353   2.567   2.432  0.4284  0.0748  0.6985
 4554TIP3    H135221   0.329   2.657   2.411  1.5832  0.8158  2.3048
 4554TIP3    H235222   0.448   2.568   2.437  0.4798 -1.3234  0.4564
 4555TIP3   OH235223   2.170   2.512   1.646  0.2352 -0.4233 -0.6717
 4555TIP3    H135224   2.087   2.517   1.598  1.2448  2.9586 -2.3603
 4555TIP3    H235225   2.231   2.470   1.584  0.4523 -0.2786 -0.5563
 4556TIP3   OH235226   2.612   4.182   7.774 -0.1219  0.2141  0.6454
 4556TIP3    H135227   2.621   4.136   7.690 -0.6199 -1.5395  1.5018
 4556TIP3    H235228   2.686   4.149   7.826  0.1190  1.2072  0.9481
 4557TIP3   OH235229   2.908   6.420   0.662  0.2363 -0.3029  0.3674
 4557TIP3    H135230   2.904   6.384   0.573  2.7449 -1.2638  0.5672
 4557TIP3    H235231   2.869   6.507   0.654 -0.3828 -0.7043 -1.4763
 4558TIP3   OH235232   2.814   6.569   2.415 -0.2298 -0.1226  0.0789
 4558TIP3    H135233   2.835   6.594   2.325 -0.9867  0.7981  0.1463
 4558TIP3    H235234   2.873   6.622   2.469 -0.1696 -0.2639  0.1546
 4559TIP3   OH235235   6.640   6.241   1.314 -0.0423  0.4674  0.0457
 4559TIP3    H135236   6.562   6.187   1.299  1.0025 -1.0941 -0.0237
 4559TIP3    H235237   6.641   6.257   1.408 -1.1566  1.6481 -0.1266
 4560TIP3   OH235238   1.234   2.396   1.608 -0.6958 -0.4221 -0.2831
 4560TIP3    H135239   1.176   2.320   1.602 -0.2813 -0.8435  0.8368
 4560TIP3    H235240   1.187   2.458   1.663 -1.5330  0.6396 -2.1007
 4561TIP3   OH235241   1.011   4.421   7.327  0.0075 -0.4240 -0.1894
 4561TIP3    H135242   0.973   4.372   7.254  2.9418 -1.2365 -1.2939
 4561TIP3    H235243   1.001   4.362   7.402 -0.9831 -0.5275 -0.3767
 4562TIP3   OH235244   5.195   0.627   8.973 -0.0946 -0.6409  0.0614
 4562TIP3    H135245   5.183   0.572   9.050 -2.0308 -0.9004 -0.3684
 4562TIP3    H235246   5.109   0.627   8.931 -0.2778  2.9793  0.1970
 4563TIP3   OH235247   1.837   4.605   0.964 -0.6097 -0.0005  0.3898
 4563TIP3    H135248   1.834   4.544   0.891 -1.4291  1.6101 -1.0175
 4563TIP3    H235249   1.865   4.688   0.925 -2.6278  1.3172  1.5389
 4564TIP3   OH235250   1.202   0.071   7.596 -0.2282 -0.1250 -0.1863
 4564TIP3    H135251   1.223   0.127   7.521  1.2365 -1.0060 -0.4760
 4564TIP3    H235252   1.283   0.067   7.647 -1.4453  1.2308  2.0268
 4565TIP3   OH235253   1.624   5.311   7.916  0.1279 -0.4346  0.2023
 4565TIP3    H135254   1.557   5.242   7.918 -0.1933 -0.1833 -0.8733
 4565TIP3    H235255   1.703   5.269   7.950 -0.4512 -0.8745  1.0405
 4566TIP3   OH235256   0.362   4.106   2.459  0.1922 -0.1735  0.1323
 4566TIP3    H135257   0.336   4.080   2.548 -0.3868  0.1115  0.0500
 4566TIP3    H235258   0.296   4.066   2.402 -0.3372  0.9183 -0.0456
 4567TIP3   OH235259   6.416   0.229   1.241 -0.5390  0.2808 -0.2175
 4567TIP3    H135260   6.442   0.140   1.220 -0.7622 -0.3627  1.9941
 4567TIP3    H235261   6.496   0.271   1.273 -0.7385  0.4293  0.0907
 4568TIP3   OH235262   4.842   0.712   0.722  0.5617  0.1941  0.6967
 4568TIP3    H135263   4.751   0.732   0.747 -0.2507  0.1906 -1.8908
 4568TIP3    H235264   4.833   0.651   0.649  2.5598  1.5580 -0.8126
 4569TIP3   OH235265   4.545   3.445   7.726 -0.7579 -0.2321  0.2419
 4569TIP3    H135266   4.616   3.381   7.730 -0.0255  0.5057 -0.6895
 4569TIP3    H235267   4.572   3.514   7.786 -1.5103 -0.7237  1.1834
 4570TIP3   OH235268   6.345   3.404   8.679 -0.5191 -0.7135 -0.3201
 4570TIP3    H135269   6.313   3.375   8.764  0.5104  0.4270  0.4818
 4570TIP3    H235270   6.269   3.395   8.621 -1.0617 -2.0951  0.5493
 4571TIP3   OH235271   4.259   3.785   0.739  0.5869  0.0451  0.5179
 4571TIP3    H135272   4.225   3.733   0.813 -1.3334 -0.0969 -0.3940
 4571TIP3    H235273   4.181   3.807   0.689  1.7976  0.6096 -1.1772
 4572TIP3   OH235274   6.498   3.954   0.479  0.0125 -0.3042  0.6339
 4572TIP3    H135275   6.553   4.029   0.500 -1.4486  0.7812  0.7254
 4572TIP3    H235276   6.421   3.964   0.535 -1.4847 -0.3379 -1.2979
 4573TIP3   OH235277   6.052   0.489   0.010  0.2660  0.2470 -0.1597
 4573TIP3    H135278   5.969   0.471   0.054  0.7875 -1.6292  0.1217
 4573TIP3    H235279   6.077   0.576   0.042 -1.5192  0.7975 -0.1673
 4574TIP3   OH235280   5.451   0.576   1.261 -0.2378 -0.0871  0.2546
 4574TIP3    H135281   5.394   0.653   1.257 -0.3700 -0.1897  0.1159
 4574TIP3    H235282   5.492   0.572   1.175  1.2038  0.8950  0.8635
 4575TIP3   OH235283   4.912   2.750   2.149 -0.5619  0.3451 -0.1508
 4575TIP3    H135284   4.947   2.798   2.223  1.6603 -1.8459  0.3434
 4575TIP3    H235285   4.954   2.790   2.072  0.3111  0.0110  0.1444
 4576TIP3   OH235286   3.136   2.714   2.606  0.2319  0.3656 -0.3248
 4576TIP3    H135287   3.122   2.626   2.571 -0.1402  0.8397 -1.3949
 4576TIP3    H235288   3.058   2.763   2.580  0.1194  0.8456  0.8502
 4577TIP3   OH235289   1.013   6.623   8.814  0.8926  0.8570  0.0178
 4577TIP3    H135290   1.007   6.714   8.841  2.5612  1.1997 -0.6750
 4577TIP3    H235291   1.107   6.604   8.812  0.6234 -0.5328 -0.9855
 4578TIP3   OH235292   2.259   6.386   8.780  0.1137 -0.7802 -0.1136
 4578TIP3    H135293   2.270   6.359   8.688  0.3593 -0.3937 -0.2003
 4578TIP3    H235294   2.347   6.407   8.809 -0.2008  1.0657 -0.4126
 4579TIP3   OH235295   0.335   2.496   2.126 -0.0698  0.1035 -0.8595
 4579TIP3    H135296   0.318   2.502   2.220  0.5405 -2.0800 -0.5422
 4579TIP3    H235297   0.306   2.580   2.090  0.5252  1.3497  1.3943
 4580TIP3   OH235298   3.011   3.413   8.654  0.6536  0.5126 -0.4468
 4580TIP3    H135299   3.090   3.361   8.646  0.3196 -0.5819  2.1609
 4580TIP3    H235300   3.022   3.459   8.737 -0.6971  1.7141 -0.8970
 4581TIP3   OH235301   0.585   1.076   8.878 -0.2153  0.0843 -0.3744
 4581TIP3    H135302   0.541   0.996   8.849 -0.8852  0.2931  0.0572
 4581TIP3    H235303   0.532   1.108   8.951 -0.6146  1.5308 -1.2483
 4582TIP3   OH235304   4.304   5.302   0.635  0.2639  0.1653 -0.4763
 4582TIP3    H135305   4.395   5.304   0.663  0.0293  1.1384  0.3049
 4582TIP3    H235306   4.255   5.276   0.713 -0.0592 -1.4224 -1.1687
 4583TIP3   OH235307   0.766   3.536   0.545  0.3638  0.4939 -0.1940
 4583TIP3    H135308   0.742   3.443   0.541  1.2358  0.2794 -0.9209
 4583TIP3    H235309   0.692   3.578   0.587 -1.1953 -0.1411 -2.1232
 4584TIP3   OH235310   5.320   1.225   1.167  0.7287  0.3395  0.7068
 4584TIP3    H135311   5.399   1.181   1.199  0.6553 -0.0470  0.3608
 4584TIP3    H235312   5.305   1.295   1.230 -0.2118 -1.2589  2.3662
 4585TIP3   OH235313   6.403   1.259   1.583  0.5488 -0.2933 -0.0154
 4585TIP3    H135314   6.316   1.221   1.590 -0.2907  0.2763 -4.3638
 4585TIP3    H235315   6.399   1.337   1.639 -1.9148 -0.0290 -0.4394
 4586TIP3   OH235316   0.314   4.979   7.847  0.4957 -0.1183 -0.0612
 4586TIP3    H135317   0.266   4.995   7.928  1.1913  1.7197  0.0305
 4586TIP3    H235318   0.255   5.010   7.778  0.8348  0.5133 -0.0736
 4587TIP3   OH235319   3.742   3.330   1.589  0.4406  0.0052 -0.3118
 4587TIP3    H135320   3.659   3.311   1.546  0.0131 -0.5251  0.6987
 4587TIP3    H235321   3.722   3.402   1.649  1.1172  0.9992 -1.2275
 4588TIP3   OH235322   4.764   1.696   2.142 -0.0735  0.5248 -0.2007
 4588TIP3    H135323   4.789   1.623   2.197  0.9182 -0.0465 -1.3582
 4588TIP3    H235324   4.723   1.759   2.202 -0.5767 -0.7812  0.8723
 4589TIP3   OH235325   4.981   0.086   8.379  0.3500 -0.1676  0.4806
 4589TIP3    H135326   4.890   0.069   8.401  0.7235 -1.1701  1.3479
 4589TIP3    H235327   4.980   0.169   8.332 -0.8046  0.7520  2.0601
 4590TIP3   OH235328   1.145   1.682   0.049 -0.3951 -0.2332 -0.4881
 4590TIP3    H135329   1.078   1.655  -0.014  0.8213 -1.7636 -1.2148
 4590TIP3    H235330   1.224   1.693  -0.004  0.3823 -0.3932  0.6058
 4591TIP3   OH235331   6.222   3.579   2.161 -0.2742 -0.6395  0.2312
 4591TIP3    H135332   6.190   3.664   2.134 -1.5711 -1.0946  0.2891
 4591TIP3    H235333   6.144   3.531   2.189  0.4726 -1.7265  0.5212
 4592TIP3   OH235334   3.912   1.785   3.662 -0.0298 -0.2210  0.4093
 4592TIP3    H135335   3.847   1.842   3.621  0.2575 -0.9167 -1.1020
 4592TIP3    H235336   3.888   1.697   3.633 -0.1542 -0.8419  2.2745
 4593TIP3   OH235337   5.710   5.194   6.566  0.4753  0.2683  0.0692
 4593TIP3    H135338   5.788   5.178   6.512  1.2444 -2.0128  1.7362
 4593TIP3    H235339   5.739   5.257   6.631  0.5856  0.2938 -0.0043
 4594TIP3   OH235340   5.678   6.187   8.458 -0.4316 -0.6098 -1.1040
 4594TIP3    H135341   5.605   6.201   8.519 -1.4825  0.6163 -2.5870
 4594TIP3    H235342   5.753   6.226   8.503 -1.5013  1.7227 -1.2033
 4595TIP3   OH235343   6.290   6.588   1.467 -0.0374  0.3744 -0.0621
 4595TIP3    H135344   6.258   6.510   1.512  2.3633 -0.3347  0.6074
 4595TIP3    H235345   6.264   6.576   1.376  0.1679 -1.1897  0.0463
 4596TIP3   OH235346   2.781   2.397   1.301  0.1063 -0.1411  0.0596
 4596TIP3    H135347   2.750   2.424   1.215  0.1764  0.6310  0.2660
 4596TIP3    H235348   2.855   2.456   1.319  1.0671 -1.2855 -0.0002
 4597TIP3   OH235349   0.563   5.287   1.509  0.0505  0.0038 -0.3875
 4597TIP3    H135350   0.630   5.355   1.500  0.3096 -0.2472 -0.3378
 4597TIP3    H235351   0.492   5.331   1.556 -0.6476  0.8479 -2.1440
 4598TIP3   OH235352   6.459   6.494   8.922  0.3950 -0.9464  0.0624
 4598TIP3    H135353   6.516   6.522   8.850  0.5611 -0.7120  0.2824
 4598TIP3    H235354   6.417   6.574   8.952 -1.0301 -1.2892 -0.9209
 4599TIP3   OH235355   2.581   5.354   1.191 -0.1280 -0.3971 -0.1461
 4599TIP3    H135356   2.511   5.376   1.130 -0.2697  0.1072  0.1895
 4599TIP3    H235357   2.651   5.416   1.172  0.0705 -0.6403 -0.2117
 4600TIP3   OH235358   5.647   3.291   1.864 -0.4052 -0.2334  0.0473
 4600TIP3    H135359   5.676   3.229   1.931  1.0340 -0.1291 -0.4282
 4600TIP3    H235360   5.594   3.239   1.804 -0.1388 -0.7625  0.2628
 4601TIP3   OH235361   0.230   5.347   1.355  0.0695 -0.3355  0.2317
 4601TIP3    H135362   0.157   5.341   1.292  1.7577  0.1856 -1.9019
 4601TIP3    H235363   0.278   5.425   1.328  0.2933  0.5552  2.9344
 4602TIP3   OH235364   0.694   2.060   0.794  0.0544 -0.6342 -0.2215
 4602TIP3    H135365   0.667   2.016   0.875 -0.1661  1.1263  0.7070
 4602TIP3    H235366   0.788   2.071   0.803  0.0941 -0.7924 -0.4139
 4603TIP3   OH235367   3.031   4.794   7.274 -0.1735  0.0009  0.4553
 4603TIP3    H135368   3.045   4.731   7.203 -0.0698 -0.2661  0.7114
 4603TIP3    H235369   2.952   4.764   7.317  0.4185 -0.5377  1.1967
 4604TIP3   OH235370   2.296   4.412   7.801  0.2189  0.3050 -0.3705
 4604TIP3    H135371   2.380   4.392   7.760 -0.7435 -0.1865 -2.2005
 4604TIP3    H235372   2.284   4.342   7.865  0.3946 -0.6490 -1.3521
 4605TIP3   OH235373   3.977   3.182   1.532  0.0052  0.2406  0.6208
 4605TIP3    H135374   3.887   3.207   1.548  0.2166  1.1636  0.4419
 4605TIP3    H235375   4.018   3.180   1.619 -0.1215  0.0847  0.6765
 4606TIP3   OH235376   4.712   0.075   1.759  0.3301 -0.4595 -0.7991
 4606TIP3    H135377   4.768  -0.002   1.768  1.5741  0.4856 -0.0791
 4606TIP3    H235378   4.639   0.059   1.819  0.8621 -0.8499 -0.2465
 4607TIP3   OH235379   0.393   2.234   1.598  0.1690 -0.1317  0.2165
 4607TIP3    H135380   0.347   2.150   1.589  1.9171 -1.1785  0.6336
 4607TIP3    H235381   0.358   2.272   1.679  0.2530 -1.0587  0.7048
 4608TIP3   OH235382   6.101   5.082   0.001 -0.7261 -0.4354  0.5916
 4608TIP3    H135383   6.101   5.010   0.064  0.7661  1.5524  3.0981
 4608TIP3    H235384   6.067   5.157   0.051  0.4108  1.2245 -0.9699
 4609TIP3   OH235385   3.905   1.166   0.590 -0.0518 -0.5796 -0.4781
 4609TIP3    H135386   3.884   1.073   0.592  0.1176 -0.6265 -0.8180
 4609TIP3    H235387   3.961   1.179   0.666 -1.0957 -0.4990  0.2988
 4610TIP3   OH235388   2.071   6.633   8.500  0.1118 -0.1979 -0.2972
 4610TIP3    H135389   2.062   6.643   8.405  1.3161 -0.9290 -0.5110
 4610TIP3    H235390   2.083   6.722   8.532  1.1137 -0.0542 -1.0168
 4611TIP3   OH235391   1.535   3.354   2.769  0.1282  0.6472  0.2558
 4611TIP3    H135392   1.592   3.424   2.803 -0.5201  1.4000 -0.1593
 4611TIP3    H235393   1.562   3.344   2.678 -0.2590  0.8644  0.1138
 4612TIP3   OH235394   5.041   4.397   1.782 -0.0061 -0.7345 -0.6776
 4612TIP3    H135395   5.089   4.321   1.814  1.1111  0.1295 -0.2617
 4612TIP3    H235396   5.064   4.468   1.842  1.2676  0.6577 -2.7136
 4613TIP3   OH235397   2.889   1.296   2.347  0.3719  0.5226  0.2790
 4613TIP3    H135398   2.860   1.211   2.314 -0.4352  1.5412 -1.8146
 4613TIP3    H235399   2.984   1.293   2.342  0.5743 -1.2492  3.0036
 4614TIP3   OH235400   6.402   5.398   0.499 -0.1905  0.5904  0.2097
 4614TIP3    H135401   6.409   5.494   0.501 -1.7307  0.8194 -1.8444
 4614TIP3    H235402   6.479   5.371   0.449  0.2095  0.7525  0.7286
 4615TIP3   OH235403   6.406   4.886   1.951  0.0259 -0.3763 -0.4614
 4615TIP3    H135404   6.437   4.857   1.865  1.3990  0.5775 -0.3139
 4615TIP3    H235405   6.310   4.888   1.942 -0.1268 -3.7450 -0.8163
 4616TIP3   OH235406   1.237   1.374   0.050 -0.3640 -0.5860  0.0848
 4616TIP3    H135407   1.164   1.410   0.100  0.5056 -2.1344  2.7003
 4616TIP3    H235408   1.295   1.449   0.036 -0.9652  0.0478  0.8502
 4617TIP3   OH235409   4.776   1.175   2.733  0.4894 -0.3253  0.3413
 4617TIP3    H135410   4.820   1.193   2.650  0.2331  0.2061  0.3146
 4617TIP3    H235411   4.842   1.197   2.799  0.9113 -1.3533  0.2769
 4618TIP3   OH235412   3.224   2.222   0.492  0.0209  0.4688 -0.5874
 4618TIP3    H135413   3.148   2.280   0.495 -1.2497 -1.0854 -1.6477
 4618TIP3    H235414   3.198   2.144   0.541  1.3086  0.2888 -0.1250
 4619TIP3   OH235415   5.045   6.360   1.051  0.0184  0.2509  0.7102
 4619TIP3    H135416   4.983   6.399   1.112  1.1628  2.1307  0.7704
 4619TIP3    H235417   4.999   6.286   1.013 -1.7083  0.7095  1.8175
 4620TIP3   OH235418   4.444   2.508   1.954 -0.6319  0.7482 -0.4499
 4620TIP3    H135419   4.490   2.432   1.990  0.0023  0.9377 -0.8456
 4620TIP3    H235420   4.491   2.584   1.990 -0.0318  0.9415 -1.5957
 4621TIP3   OH235421   1.054   0.217   1.010  0.3628  0.6701 -0.1206
 4621TIP3    H135422   1.075   0.288   1.070  0.9932 -0.1420  0.6461
 4621TIP3    H235423   1.062   0.138   1.063  1.1527 -0.0868 -1.3330
 4622TIP3   OH235424   6.641   3.034   0.926 -0.3586 -0.1017  0.1992
 4622TIP3    H135425   6.677   3.075   0.847 -1.3507 -0.4973 -0.4775
 4622TIP3    H235426   6.716   3.027   0.985  1.0474 -2.2846 -1.6862
 4623TIP3   OH235427   5.875   5.028   7.735  0.2222 -0.5323 -0.5852
 4623TIP3    H135428   5.798   5.016   7.679  0.3713 -1.0485 -0.6893
 4623TIP3    H235429   5.892   5.122   7.734 -1.7969 -0.0878  1.3198
 4624TIP3   OH235430   3.531   1.868   0.061  0.0437  0.6413 -0.4144
 4624TIP3    H135431   3.554   1.870  -0.032 -0.2494  0.5148 -0.4916
 4624TIP3    H235432   3.447   1.823   0.064 -0.5753  1.7684 -0.2162
 4625TIP3   OH235433   0.913   2.704   1.115  0.1243 -0.0177  0.2063
 4625TIP3    H135434   0.936   2.613   1.098  0.0588 -0.7473  3.3479
 4625TIP3    H235435   0.841   2.699   1.179 -1.3331  2.2647 -1.0977
 4626TIP3   OH235436   0.924   1.022   0.289 -0.3152  0.4094 -0.0013
 4626TIP3    H135437   0.877   1.020   0.205 -1.0362  2.8588  0.2652
 4626TIP3    H235438   1.010   0.986   0.269  0.3652  2.9809 -2.4336
 4627TIP3   OH235439   5.794   2.332   0.779  0.4282  0.4228  0.6150
 4627TIP3    H135440   5.826   2.410   0.824  2.8125 -1.3552  2.2278
 4627TIP3    H235441   5.854   2.262   0.805 -2.5547 -2.3799  0.6269
 4628TIP3   OH235442   0.896   0.896   1.438 -0.1220  0.4156  0.0478
 4628TIP3    H135443   0.971   0.952   1.459 -0.3350  0.6764  0.1049
 4628TIP3    H235444   0.821   0.938   1.479 -0.3078  0.1690 -0.0342
 4629TIP3   OH235445   1.234   1.757   0.362  0.0933  0.7237 -0.3309
 4629TIP3    H135446   1.296   1.830   0.370  1.4240 -0.3553 -0.5799
 4629TIP3    H235447   1.179   1.781   0.288 -0.5761  2.2457  0.6061
 4630TIP3   OH235448   2.943   1.780   0.204 -0.1943  0.3897 -0.3836
 4630TIP3    H135449   2.980   1.729   0.277 -1.4764 -0.0497 -0.0046
 4630TIP3    H235450   2.917   1.863   0.244 -0.8662  0.1621 -0.3479
 4631TIP3   OH235451   5.092   3.868   8.844  0.3146 -0.1751  0.1516
 4631TIP3    H135452   5.114   3.827   8.760  1.0941  1.1127 -0.3021
 4631TIP3    H235453   5.060   3.955   8.820 -2.0828 -0.7459  1.0325
 4632TIP3   OH235454   3.557   5.475   0.254  0.1718  0.0108 -0.3060
 4632TIP3    H135455   3.471   5.515   0.260  0.9037  1.6250 -0.0290
 4632TIP3    H235456   3.564   5.445   0.163 -0.2422  0.9050 -0.6367
 4633TIP3   OH235457   6.738   4.353   1.681  0.1005  0.2057 -0.0475
 4633TIP3    H135458   6.791   4.357   1.601 -0.2759  1.6257 -0.2504
 4633TIP3    H235459   6.802   4.358   1.752  0.3152  1.1993 -0.2871
 4634TIP3   OH235460   6.652   2.016   2.154  0.2236 -0.5514 -0.6503
 4634TIP3    H135461   6.642   1.940   2.097  0.9915  1.4377 -3.6686
 4634TIP3    H235462   6.745   2.017   2.177  0.3341 -0.2452 -1.0916
 4635TIP3   OH235463   6.397   4.466   8.616  0.1670  0.5689 -0.0911
 4635TIP3    H135464   6.343   4.522   8.560 -1.2040 -0.0104  0.5950
 4635TIP3    H235465   6.388   4.378   8.578 -0.0615  0.3253  0.5094
 4636TIP3   OH235466   6.179   2.490   1.947 -0.0220  0.1712 -0.1370
 4636TIP3    H135467   6.232   2.548   1.893  1.8349 -1.3111  0.0286
 4636TIP3    H235468   6.171   2.535   2.031  2.7246 -0.4206  0.5156
 4637TIP3   OH235469   4.690   4.355   6.726 -0.0434  0.3481 -0.4064
 4637TIP3    H135470   4.651   4.305   6.798  1.4373  0.9727  0.8856
 4637TIP3    H235471   4.644   4.439   6.728 -0.8545 -0.0619 -1.0221
 4638TIP3   OH235472   3.890   4.355   7.305 -0.1991 -0.0595 -0.1763
 4638TIP3    H135473   3.815   4.298   7.289 -0.4547  0.2040  0.0787
 4638TIP3    H235474   3.903   4.402   7.222 -0.4087  0.0076 -0.1703
 4639TIP3   OH235475   2.259   2.886   8.226 -0.2841 -0.3743 -0.2797
 4639TIP3    H135476   2.233   2.940   8.151 -0.3336 -1.8864 -1.4073
 4639TIP3    H235477   2.193   2.816   8.228  0.3523 -0.9596  0.5024
 4640TIP3   OH235478   1.021   2.898   7.929 -0.5993 -0.2413  0.1783
 4640TIP3    H135479   1.029   2.905   7.834  1.3278  2.6999  0.4086
 4640TIP3    H235480   1.107   2.867   7.958  0.1708  2.3900  1.0613
 4641TIP3   OH235481   6.514   3.263   8.467  0.4841 -0.9938  0.0315
 4641TIP3    H135482   6.431   3.311   8.472  0.8807 -0.1410 -1.0887
 4641TIP3    H235483   6.532   3.236   8.557 -0.7511 -0.7421  0.3716
 4642TIP3   OH235484   6.617   6.037   8.607 -0.0481 -0.6132 -0.2472
 4642TIP3    H135485   6.553   5.997   8.667 -0.7139  1.9726  0.8830
 4642TIP3    H235486   6.591   6.006   8.520 -1.8898 -0.8683  0.3567
 4643TIP3   OH235487   5.815   2.120   0.170  0.4122  0.2856  0.1614
 4643TIP3    H135488   5.838   2.164   0.252  0.6845 -0.0172  0.2471
 4643TIP3    H235489   5.752   2.179   0.128 -2.0755 -0.9154  1.9736
 4644TIP3   OH235490   2.998   5.109   0.267  0.5643  0.2445 -0.1172
 4644TIP3    H135491   3.059   5.162   0.317 -0.1294  0.5111  0.4581
 4644TIP3    H235492   2.917   5.110   0.318 -0.0864  0.3272 -1.1168
 4645TIP3   OH235493   3.383   1.039   2.684 -0.0716  0.1133  0.2426
 4645TIP3    H135494   3.306   0.995   2.723 -0.4403  1.5100  1.1499
 4645TIP3    H235495   3.437   0.967   2.652 -0.9242 -0.9898  1.1765
 4646TIP3   OH235496   2.838   6.085   8.368  0.3144 -0.1831  1.2457
 4646TIP3    H135497   2.878   6.081   8.454  2.0654  0.0273  0.4809
 4646TIP3    H235498   2.884   6.156   8.323 -0.8417 -0.0210  0.2676
 4647TIP3   OH235499   3.552   2.210   0.951  0.6072 -0.0974 -0.1205
 4647TIP3    H135500   3.514   2.134   0.906 -1.8898 -0.2578  2.0073
 4647TIP3    H235501   3.479   2.270   0.962  2.1410  1.8727 -0.1493
 4648TIP3   OH235502   4.343   1.975   0.123  0.4032 -0.0486 -0.1857
 4648TIP3    H135503   4.264   1.923   0.111  0.4037 -0.3192  0.8541
 4648TIP3    H235504   4.331   2.018   0.208  0.4326  1.6059 -0.9756
 4649TIP3   OH235505   4.276   4.859   1.574  0.6780  0.1457 -0.0433
 4649TIP3    H135506   4.357   4.808   1.567 -0.4551 -2.1225  2.1322
 4649TIP3    H235507   4.259   4.865   1.668 -0.6680  2.3381 -0.3543
 4650TIP3   OH235508   1.357   3.582   2.477  0.2061 -0.2501  0.9800
 4650TIP3    H135509   1.267   3.560   2.500 -0.1699 -0.7402 -0.8155
 4650TIP3    H235510   1.367   3.553   2.386  2.0474  0.1795  0.9963
 4651TIP3   OH235511   2.887   1.538   1.973  0.1698  0.2078  0.5547
 4651TIP3    H135512   2.955   1.475   1.997 -0.3103 -0.3339  0.5031
 4651TIP3    H235513   2.897   1.549   1.878  1.1325  1.2545  0.7564
 4652TIP3   OH235514   2.558   0.210   7.791 -0.7346 -0.0419 -0.0388
 4652TIP3    H135515   2.494   0.224   7.860 -1.6934 -0.8149 -0.7372
 4652TIP3    H235516   2.636   0.177   7.835 -1.6797 -1.5412  0.5952
 4653TIP3   OH235517   5.760   2.457   2.431 -0.2665 -0.4459  0.2588
 4653TIP3    H135518   5.823   2.413   2.373 -0.3623 -1.4263  0.8680
 4653TIP3    H235519   5.814   2.512   2.488 -0.0581 -0.4680  0.0849
 4654TIP3   OH235520   2.918   5.558   1.326  0.2009 -0.1347 -0.2921
 4654TIP3    H135521   2.859   5.573   1.252 -0.1943 -2.2758 -0.4723
 4654TIP3    H235522   2.904   5.634   1.383 -2.6827 -0.5094 -0.3725
 4655TIP3   OH235523   3.150   4.926   1.027  0.4443  0.3326  0.6230
 4655TIP3    H135524   3.059   4.918   1.057  0.5861  1.5270  1.4215
 4655TIP3    H235525   3.154   4.872   0.947 -1.1099  0.7229  0.2532
 4656TIP3   OH235526   0.678   0.554   1.351  0.3361  0.0001 -0.2637
 4656TIP3    H135527   0.700   0.586   1.263 -2.0878  2.0935 -0.2309
 4656TIP3    H235528   0.616   0.483   1.335  0.2655  0.0619 -0.2677
 4657TIP3   OH235529   2.754   5.810   7.698  0.3487 -0.5775 -0.2239
 4657TIP3    H135530   2.731   5.760   7.776 -0.3774  0.3244  0.1634
 4657TIP3    H235531   2.672   5.821   7.651  0.0708  1.8463  0.6726
 4658TIP3   OH235532   2.850   0.674   0.006  0.0265 -0.0936 -0.7769
 4658TIP3    H135533   2.929   0.704  -0.041  0.0856  1.0371 -0.0072
 4658TIP3    H235534   2.836   0.741   0.073  0.3215 -1.9714  1.2686
 4659TIP3   OH235535   6.639   0.571   7.995 -0.0841 -0.6029  0.3661
 4659TIP3    H135536   6.592   0.490   8.018  0.0487 -0.9297 -0.4619
 4659TIP3    H235537   6.605   0.593   7.908  1.6469 -1.1306 -0.4803
 4660TIP3   OH235538   5.449   3.416   1.565 -0.1380 -0.1244  0.1820
 4660TIP3    H135539   5.429   3.496   1.613 -0.7529 -1.5394  2.4020
 4660TIP3    H235540   5.545   3.414   1.561 -0.1275  1.2201 -0.8518
 4661TIP3   OH235541   2.489   3.991   8.078 -0.1561  0.2594  0.4375
 4661TIP3    H135542   2.474   3.974   8.171  2.6018 -0.3342  0.8807
 4661TIP3    H235543   2.471   3.908   8.035 -1.7709  0.6275  0.3493
 4662TIP3   OH235544   2.844   3.740   7.932  0.1535  0.0793  0.3306
 4662TIP3    H135545   2.835   3.742   8.027 -1.8013 -0.1305  0.1919
 4662TIP3    H235546   2.853   3.648   7.911  2.2793  0.2299  0.3965
 4663TIP3   OH235547   1.280   5.934   2.640 -0.4978 -0.4349 -0.2051
 4663TIP3    H135548   1.318   5.853   2.674 -0.7715 -1.1382 -1.5002
 4663TIP3    H235549   1.240   5.976   2.716  0.8890 -0.7956  0.7497
 4664TIP3   OH235550   2.081   1.454   1.665  0.1012  0.1258  0.3810
 4664TIP3    H135551   2.042   1.532   1.626  0.5927  0.3714  0.3632
 4664TIP3    H235552   2.175   1.462   1.646  0.5757  0.9410  2.7675
 4665TIP3   OH235553   6.540   3.126   2.815 -0.0322  0.4283 -0.1942
 4665TIP3    H135554   6.562   3.219   2.826  1.6466  0.1234 -0.7287
 4665TIP3    H235555   6.488   3.123   2.734 -1.6226  1.0893  0.7568
 4666TIP3   OH235556   0.952   6.642   0.103  0.6592 -0.2871 -0.5529
 4666TIP3    H135557   0.942   6.616   0.012  0.2787  1.0395 -0.9151
 4666TIP3    H235558   0.869   6.684   0.125  1.1709  0.4586  0.0259
 4667TIP3   OH235559   1.799   2.598   3.051  0.9442 -0.0815  0.0274
 4667TIP3    H135560   1.737   2.544   3.003  2.1990 -0.8123 -0.8133
 4667TIP3    H235561   1.758   2.685   3.053  0.1585 -0.4090 -1.0050
 4668TIP3   OH235562   1.569   1.554   7.853  0.0435 -0.2390 -0.6805
 4668TIP3    H135563   1.630   1.568   7.925 -0.9022  1.3016 -0.1309
 4668TIP3    H235564   1.625   1.543   7.776  1.0390 -0.5761  0.0724
 4669TIP3   OH235565   1.346   4.348   0.270  0.2868 -0.2401  0.2215
 4669TIP3    H135566   1.383   4.335   0.183  1.0195  1.1417  0.2939
 4669TIP3    H235567   1.328   4.442   0.274 -0.8609 -0.4773  1.1330
 4670TIP3   OH235568   4.590   4.179   6.969  0.1761  0.2738 -0.2067
 4670TIP3    H135569   4.593   4.083   6.974  1.4576  0.2754 -0.7139
 4670TIP3    H235570   4.550   4.206   7.052  0.9397 -0.6405  0.4829
 4671TIP3   OH235571   1.293   1.759   7.516  0.4048  0.8245 -0.3141
 4671TIP3    H135572   1.328   1.812   7.588 -0.2538  0.8844 -0.0369
 4671TIP3    H235573   1.232   1.818   7.471 -1.1924 -0.0256  0.6624
 4672TIP3   OH235574   0.775   1.229   8.660 -0.0182  0.2229  0.0174
 4672TIP3    H135575   0.684   1.211   8.681 -0.1762  0.4456 -0.4709
 4672TIP3    H235576   0.818   1.144   8.668 -0.8466 -0.5433 -2.7101
 4673TIP3   OH235577   6.171   0.803   2.453  0.1590  0.0264 -0.1898
 4673TIP3    H135578   6.138   0.738   2.391 -0.0744 -1.3973  1.3514
 4673TIP3    H235579   6.123   0.882   2.432  0.4371 -0.2593 -2.1156
 4674TIP3   OH235580   1.886   1.837   2.464 -0.1908 -0.4234  0.3748
 4674TIP3    H135581   1.817   1.834   2.397  0.3411 -1.7053 -0.1378
 4674TIP3    H235582   1.955   1.891   2.426 -0.6462  0.3861  0.6597
 4675TIP3   OH235583   1.045   6.665   1.508  0.1456 -0.3923 -0.1461
 4675TIP3    H135584   0.993   6.596   1.550 -2.6353  0.7767 -1.4461
 4675TIP3    H235585   1.079   6.717   1.581 -2.2389 -0.0505  0.8182
 4676TIP3   OH235586   6.026   6.006   7.863 -0.0350  0.4910 -0.1896
 4676TIP3    H135587   5.999   5.921   7.828  1.9310  0.4043 -1.6831
 4676TIP3    H235588   5.999   6.069   7.797  0.0118  0.8537  0.1318
 4677TIP3   OH235589   0.920   0.735   2.582  0.0442 -0.2008  0.0630
 4677TIP3    H135590   0.847   0.684   2.617  0.8854 -1.0987  0.5230
 4677TIP3    H235591   0.893   0.826   2.596 -1.2160 -0.4988 -0.2495
 4678TIP3   OH235592   6.071   4.567   8.781  0.1782 -0.7636  0.6136
 4678TIP3    H135593   6.001   4.531   8.727  0.4383 -0.8128  0.3103
 4678TIP3    H235594   6.033   4.571   8.869  0.2845 -2.2637  0.7688
 4679TIP3   OH235595   2.353   2.677   0.164  0.7776  0.4211  0.0131
 4679TIP3    H135596   2.273   2.708   0.121  0.5480  0.3632  0.3978
 4679TIP3    H235597   2.381   2.750   0.218 -0.0213 -0.1721  1.2848
 4680TIP3   OH235598   4.765   4.716   1.754  0.5769 -0.7803 -0.1056
 4680TIP3    H135599   4.829   4.784   1.776 -0.3178 -0.7266  2.7843
 4680TIP3    H235600   4.698   4.763   1.705  0.4140  0.2989  1.0688
 4681TIP3   OH235601   1.235   5.256   0.847  0.1123 -0.2826  0.2623
 4681TIP3    H135602   1.165   5.307   0.888  1.8474  0.8945  1.9614
 4681TIP3    H235603   1.301   5.321   0.824  0.9106 -1.4189 -0.7739
 4682TIP3   OH235604   4.972   1.863   1.698 -0.4937  0.2057  0.7439
 4682TIP3    H135605   4.952   1.880   1.606  0.0894 -0.8508  0.4090
 4682TIP3    H235606   5.049   1.807   1.697 -0.0472  0.7643  1.9066
 4683TIP3   OH235607   0.695   5.673   1.389  0.2986  0.3884  0.0951
 4683TIP3    H135608   0.656   5.614   1.454  1.1769  0.8901  1.1032
 4683TIP3    H235609   0.677   5.760   1.422  0.8199  0.6505 -0.3015
 4684TIP3   OH235610   2.828   6.653   7.184 -0.3903  0.1629  0.4158
 4684TIP3    H135611   2.865   6.715   7.246  0.1600  0.0178  0.2380
 4684TIP3    H235612   2.904   6.617   7.138 -0.7829  0.1297 -0.2087
 4685TIP3   OH235613   4.564   1.195   8.303 -0.2933  0.2544  0.2283
 4685TIP3    H135614   4.590   1.190   8.211 -0.8757 -2.1535  0.1448
 4685TIP3    H235615   4.600   1.116   8.343 -0.3577  1.0716  2.0126
 4686TIP3   OH235616   4.724   3.641   6.767 -0.5374  0.3595 -0.3493
 4686TIP3    H135617   4.694   3.676   6.683 -1.7556  0.8098  0.2455
 4686TIP3    H235618   4.709   3.547   6.761  0.3249  0.2575 -1.0043
 4687TIP3   OH235619   5.993   0.495   2.513  0.6034 -0.0808  0.1109
 4687TIP3    H135620   6.051   0.519   2.441  0.4723 -0.4998 -0.1370
 4687TIP3    H235621   6.051   0.458   2.580  0.7990  0.8697  0.4724
 4688TIP3   OH235622   0.112   3.277   0.483 -0.1254  0.2427  0.0974
 4688TIP3    H135623   0.054   3.252   0.556  0.7574 -1.6467  0.1933
 4688TIP3    H235624   0.083   3.222   0.410 -0.5156  1.5989 -0.8014
 4689TIP3   OH235625   2.593   5.851   1.551  0.0572 -0.5427 -0.0742
 4689TIP3    H135626   2.682   5.876   1.527 -0.3370  0.1976 -0.8340
 4689TIP3    H235627   2.593   5.756   1.548  1.5427 -0.7187  2.6767
 4690TIP3   OH235628   5.781   0.666   0.149  0.4960  0.0550  0.2184
 4690TIP3    H135629   5.870   0.686   0.121  1.0333  0.5199  2.0794
 4690TIP3    H235630   5.727   0.682   0.072  1.9343  0.4677 -0.7478
 4691TIP3   OH235631   1.959   5.151   0.909 -0.0479 -0.6976  0.3366
 4691TIP3    H135632   2.038   5.112   0.872 -0.5813 -0.5686 -1.0193
 4691TIP3    H235633   1.894   5.144   0.838 -0.6325  1.1420  0.6360
 4692TIP3   OH235634   1.850   5.165   8.020 -0.2725 -0.4389  0.0909
 4692TIP3    H135635   1.834   5.085   7.971  1.1260 -0.5040 -0.2851
 4692TIP3    H235636   1.928   5.147   8.073  0.3983  0.8372 -0.4036
 4693TIP3   OH235637   4.447   0.813   7.239  0.2413 -0.6008  0.0456
 4693TIP3    H135638   4.482   0.724   7.238 -0.9998 -1.0983 -0.6492
 4693TIP3    H235639   4.525   0.869   7.249  0.9872 -1.7660  1.0665
 4694TIP3   OH235640   3.295   1.506   0.627  0.1270  0.0395  0.2640
 4694TIP3    H135641   3.225   1.568   0.649 -2.2692 -2.2658 -0.3143
 4694TIP3    H235642   3.249   1.423   0.613  2.8313 -1.2528 -1.7262
 4695TIP3   OH235643   0.680   2.568   2.704 -0.0622  0.2500 -0.0733
 4695TIP3    H135644   0.690   2.657   2.738  0.0091 -0.3221  1.5235
 4695TIP3    H235645   0.623   2.524   2.768  0.8922 -1.1709 -0.1462
 4696TIP3   OH235646   1.879   2.329   7.985  0.8227  0.3408  0.1824
 4696TIP3    H135647   1.918   2.333   7.898  1.2622  1.7521  0.4226
 4696TIP3    H235648   1.906   2.244   8.019 -0.1385 -0.6688 -1.3962
 4697TIP3   OH235649   2.607   3.184   3.304  0.0556 -0.2034 -0.0432
 4697TIP3    H135650   2.584   3.196   3.212  1.5673  0.3716 -0.3850
 4697TIP3    H235651   2.702   3.199   3.307  0.7007 -3.4680  1.0185
 4698TIP3   OH235652   0.967   4.587   7.725 -0.0099 -0.3359  0.2358
 4698TIP3    H135653   0.997   4.536   7.800  2.9308 -0.5788 -0.9443
 4698TIP3    H235654   0.921   4.662   7.763  0.3817 -1.0468  2.2137
 4699TIP3   OH235655   4.409   5.092   7.583  0.7691 -0.0727 -0.2100
 4699TIP3    H135656   4.413   5.002   7.618  1.3232  0.1616  0.3609
 4699TIP3    H235657   4.497   5.127   7.598  0.8027  0.2957 -1.1876
 4700TIP3   OH235658   4.471   1.667   0.356  0.1448 -0.7550  0.2397
 4700TIP3    H135659   4.397   1.667   0.417 -0.2477 -2.0272 -0.2010
 4700TIP3    H235660   4.432   1.656   0.270  0.6634  1.4602 -0.3479
 4701TIP3   OH235661   4.527   6.081   0.611  0.2095  0.1165  0.8838
 4701TIP3    H135662   4.568   6.008   0.657 -0.4988 -0.8385  0.0354
 4701TIP3    H235663   4.461   6.114   0.672 -0.6208 -1.0387  0.6376
 4702TIP3   OH235664   4.016   3.774   7.709 -0.6839  0.0247 -0.5185
 4702TIP3    H135665   3.965   3.731   7.640 -3.0178 -0.2548  1.2342
 4702TIP3    H235666   3.952   3.788   7.780  1.8537 -1.0114  2.1705
 4703TIP3   OH235667   3.130   4.108   0.276 -0.3763 -0.0209  0.4678
 4703TIP3    H135668   3.038   4.121   0.300 -0.5367 -0.9027  0.3423
 4703TIP3    H235669   3.152   4.022   0.310  0.5410  0.3547  0.8814
 4704TIP3   OH235670   3.588   6.160   7.386  0.8758  0.1976 -0.3512
 4704TIP3    H135671   3.622   6.232   7.333 -0.6596 -0.3651 -2.2454
 4704TIP3    H235672   3.592   6.084   7.327 -1.0818 -0.4194  0.2401
 4705TIP3   OH235673   1.032   4.314   0.276  0.2200 -0.0988  1.0299
 4705TIP3    H135674   1.090   4.275   0.341  1.0518  1.7848  1.4555
 4705TIP3    H235675   0.971   4.367   0.327  2.3137  3.3003  0.2594
 4706TIP3   OH235676   4.668   4.471   0.734 -0.0072  0.0092  0.0734
 4706TIP3    H135677   4.634   4.388   0.700 -1.9663  1.0431 -0.6606
 4706TIP3    H235678   4.707   4.448   0.818 -1.7253 -1.4658  0.5332
 4707TIP3   OH235679   2.975   4.058   0.969 -0.2011 -0.0770 -0.0118
 4707TIP3    H135680   3.026   4.070   1.049 -0.6013 -0.3021  0.2876
 4707TIP3    H235681   3.040   4.043   0.900  0.1388 -0.2249  0.3371
 4708TIP3   OH235682   1.631   3.055   0.461  0.1445  0.6863  0.0014
 4708TIP3    H135683   1.552   3.031   0.413  1.3797 -2.3540 -0.7295
 4708TIP3    H235684   1.649   3.146   0.435 -1.9829  0.7870 -1.3225
 4709TIP3   OH235685   1.770   1.544   0.060 -0.2041  0.2823  0.0742
 4709TIP3    H135686   1.785   1.450   0.073  1.5225  0.7329  1.7219
 4709TIP3    H235687   1.816   1.564  -0.021  1.9806  0.1911  1.2083
 4710TIP3   OH235688   3.649   5.148   8.328 -0.4962 -0.0395  0.9243
 4710TIP3    H135689   3.653   5.068   8.276  0.3161 -0.2931  1.3632
 4710TIP3    H235690   3.659   5.219   8.264  0.2887 -0.3399  0.7132
 4711TIP3   OH235691   6.541   0.341   8.545 -0.6631 -0.5833 -0.0587
 4711TIP3    H135692   6.476   0.400   8.584 -0.8555 -0.7823 -0.0758
 4711TIP3    H235693   6.620   0.355   8.597  0.3476  2.1258 -2.0311
 4712TIP3   OH235694   2.358   4.324   0.726 -0.0701  0.1113 -0.3938
 4712TIP3    H135695   2.394   4.255   0.782  0.7708  1.5730  0.9754
 4712TIP3    H235696   2.358   4.402   0.782  1.2139  1.7797 -2.5522
 4713TIP3   OH235697   2.527   6.457   8.678  0.4943  0.2251  0.1968
 4713TIP3    H135698   2.570   6.542   8.684  1.1987 -0.1104 -0.0257
 4713TIP3    H235699   2.460   6.469   8.611  2.6718 -0.2275 -2.2435
 4714TIP3   OH235700   6.696   0.220   8.976 -0.5763 -0.0153 -0.2198
 4714TIP3    H135701   6.644   0.279   9.030  0.9468  1.1698  0.0305
 4714TIP3    H235702   6.641   0.202   8.899 -0.6970  2.6401 -0.8337
 4715TIP3   OH235703   0.509   1.576   2.255 -0.2134  0.4386 -0.8499
 4715TIP3    H135704   0.418   1.546   2.244  0.0519 -0.4461 -0.7494
 4715TIP3    H235705   0.558   1.527   2.189  0.4966 -0.6036  0.3942
 4716TIP3   OH235706   5.330   0.652   8.096 -0.7766 -0.3535 -0.1361
 4716TIP3    H135707   5.302   0.565   8.067  0.1098 -0.6135 -0.2432
 4716TIP3    H235708   5.376   0.635   8.179  0.5682 -0.1623 -0.8226
 4717TIP3   OH235709   2.973   0.129   1.568 -0.4830 -0.1622 -0.0955
 4717TIP3    H135710   2.978   0.036   1.545  1.1549  0.1856 -1.4146
 4717TIP3    H235711   2.903   0.164   1.513  0.6034 -0.1743 -1.5682
 4718TIP3   OH235712   4.420   0.023   2.556  0.3135  0.7979  0.0788
 4718TIP3    H135713   4.444  -0.070   2.564  0.2115  0.8566  1.2413
 4718TIP3    H235714   4.421   0.040   2.462 -1.2541 -0.8063 -0.2926
 4719TIP3   OH235715   3.505   4.111   3.096  0.4035  0.1163 -0.0298
 4719TIP3    H135716   3.566   4.074   3.160  1.9167  1.9761 -0.3097
 4719TIP3    H235717   3.554   4.110   3.013 -1.0124 -0.9556 -0.8828
 4720TIP3   OH235718   1.174   0.359   2.439 -0.7493  0.5940 -0.4560
 4720TIP3    H135719   1.241   0.413   2.480 -1.0567  0.9793 -0.4540
 4720TIP3    H235720   1.163   0.285   2.498  0.7504 -0.2639 -1.2025
 4721TIP3   OH235721   5.528   2.532   0.645  0.1105  0.1825  0.6461
 4721TIP3    H135722   5.526   2.592   0.720 -2.6675  1.5693 -0.3752
 4721TIP3    H235723   5.523   2.589   0.569  0.4525 -1.2816 -0.5217
 4722TIP3   OH235724   2.932   0.252   0.836 -0.1347  0.4621  0.4883
 4722TIP3    H135725   2.953   0.341   0.809 -0.9834  0.2980 -0.8106
 4722TIP3    H235726   3.017   0.213   0.857  0.0976  2.1185  2.9941
 4723TIP3   OH235727   4.737   0.649   2.619 -0.2541  0.5690  0.1895
 4723TIP3    H135728   4.667   0.678   2.678 -0.7793  1.8471 -1.0129
 4723TIP3    H235729   4.817   0.661   2.670 -0.7907  0.3310  1.1246
 4724TIP3   OH235730   3.286   2.698   0.522  0.5235 -0.3220 -0.4121
 4724TIP3    H135731   3.308   2.752   0.446  0.1503 -1.2579 -1.2048
 4724TIP3    H235732   3.279   2.760   0.594 -0.0581  0.7200 -1.3326
 4725TIP3   OH235733   4.881   3.453   2.588  0.1814  0.3339  0.3526
 4725TIP3    H135734   4.918   3.402   2.661 -0.1207 -0.5130 -0.0632
 4725TIP3    H235735   4.956   3.474   2.533  0.0828 -1.5243 -0.5760
 4726TIP3   OH235736   0.668   4.447   2.404  0.2451 -1.0232  0.1388
 4726TIP3    H135737   0.753   4.406   2.387  0.9740  0.0945  1.0027
 4726TIP3    H235738   0.670   4.528   2.352 -0.8096 -1.5742 -0.8145
 4727TIP3   OH235739   5.090   5.535   1.476 -0.4590  0.4465  0.2456
 4727TIP3    H135740   5.005   5.573   1.453 -0.9952 -0.3222  0.9289
 4727TIP3    H235741   5.112   5.478   1.402 -0.7165  0.3493  0.2449
 4728TIP3   OH235742   6.336   4.656   2.139 -0.1497  0.2968 -0.1770
 4728TIP3    H135743   6.290   4.603   2.073  0.0272  0.9631 -0.8467
 4728TIP3    H235744   6.286   4.738   2.142 -2.1332 -0.8311  2.8583
 4729TIP3   OH235745   1.848   5.054   8.752  0.4154  0.0057  0.2406
 4729TIP3    H135746   1.814   5.046   8.663  1.3979  1.1728 -0.2678
 4729TIP3    H235747   1.883   5.143   8.757 -0.1371  0.1794  1.9964
 4730TIP3   OH235748   6.737   1.573   7.937 -0.3218 -0.3973 -0.0125
 4730TIP3    H135749   6.726   1.548   7.845  0.4524 -3.1416  0.5649
 4730TIP3    H235750   6.658   1.540   7.981 -0.0048 -0.4323  0.5417
 4731TIP3   OH235751   6.079   0.812   3.169 -0.2099 -0.3683 -0.3782
 4731TIP3    H135752   6.051   0.826   3.260  1.8917 -1.4904  0.5220
 4731TIP3    H235753   6.107   0.898   3.139 -1.1749  0.0680 -0.0901
 4732TIP3   OH235754   4.910   2.598   2.445 -0.2269  0.0548 -0.0228
 4732TIP3    H135755   4.908   2.517   2.495 -0.4798 -1.1603 -1.9064
 4732TIP3    H235756   5.002   2.610   2.422 -0.0562  0.8066  0.9840
 4733TIP3   OH235757   4.318   0.114   7.426  0.0673  0.1317  0.1494
 4733TIP3    H135758   4.301   0.028   7.389  3.3644 -1.0073  1.0051
 4733TIP3    H235759   4.326   0.172   7.350  2.5047 -1.3132 -0.7767
 4734TIP3   OH235760   4.013   4.736   0.229  0.0896  0.7026  0.2029
 4734TIP3    H135761   4.006   4.810   0.168 -2.1817  0.5695  0.2119
 4734TIP3    H235762   3.951   4.671   0.195  1.0182 -0.6369  0.9875
 4735TIP3   OH235763   3.463   6.708   0.143 -0.3977 -0.6456  0.7059
 4735TIP3    H135764   3.540   6.763   0.131 -0.0955 -0.6303  2.4815
 4735TIP3    H235765   3.389   6.768   0.139 -0.2297 -0.4523  0.4427
 4736TIP3   OH235766   5.527   4.150   2.467  0.1940  0.8927  0.1289
 4736TIP3    H135767   5.589   4.221   2.479  1.0818  0.4512 -1.5770
 4736TIP3    H235768   5.565   4.077   2.517  1.1468  0.6000 -0.9684
 4737TIP3   OH235769   5.051   5.991   0.332  0.0919 -0.3501 -0.7167
 4737TIP3    H135770   4.987   5.934   0.290 -1.0798  1.2094 -1.1083
 4737TIP3    H235771   5.000   6.046   0.391  1.5351 -1.5248  1.8051
 4738TIP3   OH235772   0.139   1.792   2.075 -0.1536  0.0810  0.1047
 4738TIP3    H135773   0.225   1.779   2.035  0.0250  1.1408  0.1247
 4738TIP3    H235774   0.158   1.835   2.159 -0.7508  1.0252 -0.2359
 4739TIP3   OH235775   0.148   1.234   8.327  0.1206  0.6818  0.0801
 4739TIP3    H135776   0.139   1.237   8.423 -0.9652  0.3741  0.0033
 4739TIP3    H235777   0.202   1.157   8.311 -0.4477  0.2034  0.4133
 4740TIP3   OH235778   0.790   0.160   8.320  0.0156  0.0849 -0.1216
 4740TIP3    H135779   0.872   0.168   8.369  1.3511  0.1211 -2.2215
 4740TIP3    H235780   0.769   0.067   8.324  0.4861 -0.0228 -0.0544
 4741TIP3   OH235781   1.706   3.501   2.900  0.0158  0.2586  0.2429
 4741TIP3    H135782   1.702   3.528   2.992  2.0278  1.6392 -0.0042
 4741TIP3    H235783   1.776   3.555   2.863  0.1283 -1.1972 -1.7917
 4742TIP3   OH235784   6.585   0.230   0.499  0.4715  0.5724 -0.2706
 4742TIP3    H135785   6.514   0.294   0.511 -0.7258 -0.6350 -0.7570
 4742TIP3    H235786   6.541   0.149   0.475  2.1056  0.0857 -1.7878
 4743TIP3   OH235787   0.120   1.467   7.208 -0.3319  0.4199  0.2715
 4743TIP3    H135788   0.106   1.540   7.148  1.4492  0.3227 -0.3212
 4743TIP3    H235789   0.099   1.389   7.156 -1.0121  0.4338  0.5131
 4744TIP3   OH235790   3.914   2.275   7.896  0.0763  0.0747  0.1535
 4744TIP3    H135791   3.840   2.261   7.955 -0.6064  1.6052 -0.3097
 4744TIP3    H235792   3.990   2.246   7.947 -0.7917 -1.5244  0.6341
 4745TIP3   OH235793   6.079   1.146   0.959  0.0207  0.0070  0.1594
 4745TIP3    H135794   6.086   1.171   0.867  0.1723 -1.6839 -0.3323
 4745TIP3    H235795   6.169   1.150   0.992 -0.1470  1.4884  0.5199
 4746TIP3   OH235796   0.246   3.505   8.486  0.2171  0.5358 -0.4900
 4746TIP3    H135797   0.321   3.531   8.541 -0.8603  1.1799  0.7478
 4746TIP3    H235798   0.171   3.544   8.530 -1.0882 -1.7180 -0.6061
 4747TIP3   OH235799   3.677   2.183   0.386 -0.5235  0.4387  0.1257
 4747TIP3    H135800   3.605   2.127   0.356 -0.3805  0.1608  0.3002
 4747TIP3    H235801   3.756   2.131   0.373 -0.4050  0.5380  0.4353
 4748TIP3   OH235802   3.292   3.744   8.268  0.0056  0.5544 -0.3828
 4748TIP3    H135803   3.199   3.757   8.249  0.0465  0.9867 -0.2970
 4748TIP3    H235804   3.319   3.825   8.313  0.2679  0.1736  0.1615
 4749TIP3   OH235805   6.305   0.127   1.614  0.1910 -0.3325  0.0699
 4749TIP3    H135806   6.390   0.161   1.586  0.7745 -0.3081  1.7595
 4749TIP3    H235807   6.272   0.192   1.676 -0.2003 -1.2214  0.8171
 4750TIP3   OH235808   1.718   3.798   1.517 -0.3787  0.8415 -0.2565
 4750TIP3    H135809   1.664   3.779   1.440  0.6300  1.4691 -1.1496
 4750TIP3    H235810   1.725   3.893   1.518 -0.4840  0.8508  0.7059
 4751TIP3   OH235811   5.712   2.952   1.960  0.4337  0.2846  0.0854
 4751TIP3    H135812   5.723   2.872   2.011  1.6513 -0.4877 -1.2863
 4751TIP3    H235813   5.640   2.932   1.900  1.1025 -0.0269 -0.6372
 4752TIP3   OH235814   4.594   4.995   0.225 -0.0669 -0.2384 -0.4637
 4752TIP3    H135815   4.515   5.048   0.216 -0.1135 -0.4635 -1.5624
 4752TIP3    H235816   4.622   5.007   0.316 -1.8064 -0.8030  0.1814
 4753TIP3   OH235817   2.878   2.552   1.876  0.2522 -0.1561 -0.0120
 4753TIP3    H135818   2.893   2.465   1.838 -0.6917 -0.5785  0.5480
 4753TIP3    H235819   2.839   2.603   1.805 -1.2892 -0.8718  0.2910
 4754TIP3   OH235820   5.994   3.792   0.989  0.0760  0.4475 -0.0454
 4754TIP3    H135821   6.087   3.776   0.973  0.0128  0.6504 -0.6182
 4754TIP3    H235822   5.987   3.795   1.085  0.3778 -1.2907  0.0701
 4755TIP3   OH235823   0.113   0.097   0.183 -0.5362 -0.0756  0.7154
 4755TIP3    H135824   0.073   0.157   0.119  0.4918 -0.4004 -0.2727
 4755TIP3    H235825   0.075   0.122   0.267 -0.7660  1.4056  0.1992
 4756TIP3   OH235826   2.404   4.038   8.672 -0.2527 -0.2725  0.2131
 4756TIP3    H135827   2.367   4.123   8.694 -1.4522 -1.0057  1.1581
 4756TIP3    H235828   2.485   4.033   8.724  0.4714  0.7508 -0.7657
 4757TIP3   OH235829   6.650   0.687   1.402 -0.1813 -0.2016 -0.4801
 4757TIP3    H135830   6.610   0.658   1.319 -1.7772  0.6560 -0.0503
 4757TIP3    H235831   6.576   0.714   1.456  0.9756  1.1149  0.5132
 4758TIP3   OH235832   4.812   1.030   8.847 -0.1633 -0.1293 -0.2098
 4758TIP3    H135833   4.904   1.006   8.846 -0.6992 -2.5439 -1.2002
 4758TIP3    H235834   4.771   0.965   8.904 -1.2876  0.6718 -0.0757
 4759TIP3   OH235835   0.914   4.524   0.503 -0.2195 -0.9186 -0.4545
 4759TIP3    H135836   0.993   4.544   0.554 -1.0108 -0.7857  0.7867
 4759TIP3    H235837   0.911   4.592   0.436  0.6079 -0.8055 -0.3892
 4760TIP3   OH235838   4.851   0.342   0.099  0.0784 -0.1401 -0.0713
 4760TIP3    H135839   4.935   0.351   0.054  1.4831 -4.7341  1.0990
 4760TIP3    H235840   4.786   0.342   0.029  1.6607 -1.7643 -1.6403
 4761TIP3   OH235841   1.110   0.023   1.248  0.3464  0.1241 -0.2006
 4761TIP3    H135842   1.072  -0.044   1.191  2.1192 -0.1117 -1.1858
 4761TIP3    H235843   1.076   0.003   1.335 -3.1805  1.0162 -1.1788
 4762TIP3   OH235844   1.243   6.653   0.135  0.5061  0.5001  0.2608
 4762TIP3    H135845   1.259   6.616   0.222  0.3446 -0.1114  0.0359
 4762TIP3    H235846   1.150   6.637   0.119  0.9856 -1.5009 -0.9654
 4763TIP3   OH235847   2.101   3.858   1.711  0.7783 -0.1297  0.3275
 4763TIP3    H135848   2.064   3.849   1.799 -1.4155  1.7006 -0.3421
 4763TIP3    H235849   2.180   3.803   1.714 -0.0788 -1.4173  2.9118
 4764TIP3   OH235850   3.755   2.547   8.121  0.2262 -0.1003 -0.2502
 4764TIP3    H135851   3.847   2.551   8.148  0.3619  0.6210 -0.7892
 4764TIP3    H235852   3.754   2.580   8.031 -0.5588 -0.0980 -0.2538
 4765TIP3   OH235853   2.679   4.526   8.817 -0.5209  0.0305 -0.0404
 4765TIP3    H135854   2.598   4.486   8.787 -0.6430  0.2181  0.0314
 4765TIP3    H235855   2.747   4.460   8.803 -0.7382 -0.2412  0.1857
 4766TIP3   OH235856   3.804   1.408   8.219 -0.1498 -0.5840 -0.6790
 4766TIP3    H135857   3.745   1.339   8.187  0.0838 -0.6842 -0.9030
 4766TIP3    H235858   3.858   1.429   8.143 -0.1127 -0.2665 -0.5634
 4767TIP3   OH235859   5.181   6.342   2.953 -0.0295 -0.6518 -0.1398
 4767TIP3    H135860   5.240   6.383   3.016  0.4822 -0.5975 -0.6428
 4767TIP3    H235861   5.093   6.362   2.985  0.2198 -0.0591  0.1877
 4768TIP3   OH235862   4.461   3.778   8.844 -0.3677 -0.6870  0.2226
 4768TIP3    H135863   4.513   3.788   8.924  1.5954 -2.7853 -0.6717
 4768TIP3    H235864   4.425   3.865   8.828  0.5117  0.1745  2.5010
 4769TIP3   OH235865   6.074   4.827   7.707  0.1379 -0.2837  0.3249
 4769TIP3    H135866   6.014   4.902   7.712 -0.7087 -0.9814  0.7917
 4769TIP3    H235867   6.133   4.838   7.782  0.7556  0.5225 -0.2601
 4770TIP3   OH235868   6.353   1.561   3.139 -0.0768  0.6609 -0.0145
 4770TIP3    H135869   6.268   1.604   3.144 -0.4571 -0.2178  1.6400
 4770TIP3    H235870   6.396   1.582   3.222  1.2204  0.8505 -0.7012
 4771TIP3   OH235871   6.020   2.209   0.850 -0.3294 -0.2471 -0.4929
 4771TIP3    H135872   6.094   2.259   0.815 -0.7121  1.5963  1.1129
 4771TIP3    H235873   6.045   2.190   0.941 -0.8032 -1.8118 -0.6545
 4772TIP3   OH235874   1.807   6.708   2.100 -0.5649 -0.0209 -0.3712
 4772TIP3    H135875   1.814   6.624   2.145 -0.3664 -0.2975 -0.9134
 4772TIP3    H235876   1.812   6.773   2.171 -1.3658 -0.4739  0.1147
 4773TIP3   OH235877   0.659   0.384   8.258  0.1488 -0.0941 -0.2375
 4773TIP3    H135878   0.698   0.435   8.329  0.3032 -0.1975 -0.2474
 4773TIP3    H235879   0.692   0.295   8.272 -1.5380 -0.5856  0.8412
 4774TIP3   OH235880   4.850   3.341   2.219  0.4589  0.4112  0.4434
 4774TIP3    H135881   4.812   3.423   2.186  3.1225  1.0931 -1.2949
 4774TIP3    H235882   4.836   3.278   2.148  0.4141 -0.0111  0.8263
 4775TIP3   OH235883   2.932   3.582   7.096 -0.2295  0.4196 -1.1081
 4775TIP3    H135884   2.847   3.545   7.116  0.4445 -1.3497 -1.2885
 4775TIP3    H235885   2.990   3.550   7.166  0.0314  2.7947 -0.1540
 4776TIP3   OH235886   0.204   4.247   0.971 -0.1179 -0.2268 -0.0992
 4776TIP3    H135887   0.249   4.301   1.036 -0.8381  1.2977 -0.8082
 4776TIP3    H235888   0.118   4.230   1.008  0.6052 -2.2229  0.7796
 4777TIP3   OH235889   0.575   6.355   1.032 -0.0363 -0.0929  0.1595
 4777TIP3    H135890   0.646   6.350   0.967  1.8955  2.8231  1.8188
 4777TIP3    H235891   0.590   6.280   1.090  0.0680 -0.9554 -0.9342
 4778TIP3   OH235892   3.264   4.515   7.785 -0.2777  0.0468  1.1487
 4778TIP3    H135893   3.311   4.599   7.784 -0.5859  0.2154 -0.3865
 4778TIP3    H235894   3.173   4.538   7.766 -0.4042 -0.6130  0.9397
 4779TIP3   OH235895   4.917   1.626   1.522  0.3540  0.3340 -0.1812
 4779TIP3    H135896   4.863   1.597   1.448  0.7281  1.1682 -0.8025
 4779TIP3    H235897   4.854   1.666   1.583  0.2336  1.2154 -0.8572
 4780TIP3   OH235898   0.330   2.033   8.502  0.4288 -0.2656 -0.0358
 4780TIP3    H135899   0.244   2.014   8.464 -0.3287 -0.1215  1.5330
 4780TIP3    H235900   0.352   1.955   8.552  0.7449  0.0925  0.3918
 4781TIP3   OH235901   2.753   3.016   0.545 -0.4494  0.2305  0.5770
 4781TIP3    H135902   2.658   3.007   0.556 -0.2521  0.2776  2.9176
 4781TIP3    H235903   2.779   2.936   0.498 -1.7926  1.0299 -1.6849
 4782TIP3   OH235904   5.661   4.190   1.657  0.4989  0.6347 -0.3683
 4782TIP3    H135905   5.618   4.150   1.733  0.0512  1.8317  0.0264
 4782TIP3    H235906   5.670   4.118   1.594 -1.6556  0.2211 -0.2769
 4783TIP3   OH235907   2.512   1.384   1.498  0.6015  0.1633  0.1306
 4783TIP3    H135908   2.538   1.475   1.483  0.8554 -0.0698 -0.9381
 4783TIP3    H235909   2.486   1.352   1.411 -1.4196 -0.2036  0.8206
 4784TIP3   OH235910   4.305   4.395   1.625  0.3118 -0.2830 -0.3683
 4784TIP3    H135911   4.222   4.429   1.657  0.2573 -2.1848  1.7399
 4784TIP3    H235912   4.293   4.390   1.530 -1.5521  0.5070 -0.2224
 4785TIP3   OH235913   4.312   2.691   0.827  0.1305 -0.1805  0.4259
 4785TIP3    H135914   4.237   2.695   0.768 -0.3538  2.6620  1.0929
 4785TIP3    H235915   4.383   2.733   0.779  0.8411 -1.2763  0.4757
 4786TIP3   OH235916   0.259   2.443   0.126 -0.0424 -0.1092 -0.3443
 4786TIP3    H135917   0.196   2.473   0.061  1.9870  1.1456 -1.8547
 4786TIP3    H235918   0.299   2.523   0.159  0.8040 -0.8661  0.5164
 4787TIP3   OH235919   6.711   4.888   0.824  0.8092 -0.0009 -0.4646
 4787TIP3    H135920   6.704   4.901   0.729  2.3112 -0.2925 -0.6521
 4787TIP3    H235921   6.805   4.872   0.838  0.7381  0.8796  1.1764
 4788TIP3   OH235922   2.539   0.488   1.981 -0.7542  0.1817 -0.1208
 4788TIP3    H135923   2.597   0.456   1.912 -2.0963 -0.1883 -1.1128
 4788TIP3    H235924   2.544   0.421   2.049  0.7438  0.6529  0.2868
 4789TIP3   OH235925   0.935   3.097   0.360  0.8028  0.8836  0.1082
 4789TIP3    H135926   0.997   3.101   0.287  2.8810 -1.5442  1.5373
 4789TIP3    H235927   0.964   3.166   0.420  1.7104  0.2504  0.4220
 4790TIP3   OH235928   3.215   1.821   2.124 -0.1961 -0.4669  0.1098
 4790TIP3    H135929   3.186   1.733   2.150  1.3625 -0.9425  0.3219
 4790TIP3    H235930   3.261   1.855   2.201  1.1990 -0.3894 -0.7350
 4791TIP3   OH235931   3.352   1.757   3.467  0.1022 -0.0245  0.6508
 4791TIP3    H135932   3.344   1.697   3.541  0.6473  1.2084  1.7621
 4791TIP3    H235933   3.262   1.767   3.435 -0.1821 -0.4020  1.2981
 4792TIP3   OH235934   5.297   3.637   2.009 -0.1742 -0.0993 -0.5332
 4792TIP3    H135935   5.344   3.554   2.017  0.6475  0.3990 -0.0487
 4792TIP3    H235936   5.284   3.667   2.099  1.8829  1.5661 -0.7025
 4793TIP3   OH235937   4.916   2.388   0.176  0.0450  0.2041  0.1890
 4793TIP3    H135938   4.900   2.332   0.252 -1.9509  0.2572 -0.1242
 4793TIP3    H235939   4.831   2.430   0.159  0.5081  0.4016 -1.9026
 4794TIP3   OH235940   2.921   2.143   8.015 -0.4497  0.4165  0.2495
 4794TIP3    H135941   2.829   2.146   8.043 -0.6609  2.7434 -0.5116
 4794TIP3    H235942   2.937   2.228   7.975  1.4358 -0.7193 -1.6307
 4795TIP3   OH235943   3.439   5.504   1.322  0.6798  0.4825 -0.5773
 4795TIP3    H135944   3.461   5.453   1.400 -1.2740  0.0096 -0.2768
 4795TIP3    H235945   3.479   5.455   1.249  0.5387 -0.3586 -0.0974
 4796TIP3   OH235946   1.894   0.707   1.568  0.3484 -0.1534  0.6381
 4796TIP3    H135947   1.908   0.746   1.482 -1.1254 -0.0373  0.4303
 4796TIP3    H235948   1.903   0.613   1.555 -1.6032 -0.2868 -0.0455
 4797TIP3   OH235949   2.217   4.831   2.484 -0.9181  0.0019  0.0032
 4797TIP3    H135950   2.184   4.918   2.505 -1.4105 -0.5001  1.3701
 4797TIP3    H235951   2.184   4.814   2.395 -1.1967  1.0194 -0.0987
 4798TIP3   OH235952   2.963   2.658   8.579 -0.1237  0.5685 -0.3561
 4798TIP3    H135953   2.893   2.593   8.569  1.0631 -0.6490 -1.1728
 4798TIP3    H235954   2.926   2.725   8.636 -1.8891 -0.1152 -0.6259
 4799TIP3   OH235955   3.857   4.872   8.697  0.0840 -0.5212  0.2283
 4799TIP3    H135956   3.847   4.859   8.603 -0.5070  0.5056  0.1403
 4799TIP3    H235957   3.915   4.947   8.705  0.1177 -0.5951  0.6895
 4800TIP3   OH235958   2.649   4.881   1.391 -0.0510  0.5104 -0.8632
 4800TIP3    H135959   2.673   4.789   1.383  0.0781  0.2498  1.6820
 4800TIP3    H235960   2.557   4.879   1.420  0.6555  1.0045  1.6754
 4801TIP3   OH235961   6.017   1.877   2.430  0.1792  0.7548 -0.2490
 4801TIP3    H135962   6.055   1.961   2.405  2.0710  0.8324  2.4292
 4801TIP3    H235963   6.087   1.833   2.478 -1.3919 -1.5601  0.0723
 4802TIP3   OH235964   2.605   0.913   1.204 -0.3947  0.1454 -0.6060
 4802TIP3    H135965   2.671   0.931   1.136  1.4561 -1.4068  0.6658
 4802TIP3    H235966   2.596   0.818   1.203 -1.8369  0.2632 -0.0094
 4803TIP3   OH235967   4.477   0.580   1.771  0.4237  0.0214 -0.4726
 4803TIP3    H135968   4.481   0.653   1.833  0.6375  0.3467 -0.8632
 4803TIP3    H235969   4.430   0.511   1.818  1.1933  0.0081  0.3216
 4804TIP3   OH235970   2.081   3.985   1.055  0.7575  0.6042 -0.0649
 4804TIP3    H135971   2.013   3.994   0.988  0.9486  0.0819 -0.3385
 4804TIP3    H235972   2.075   3.893   1.082  0.6829  0.8161  0.6365
 4805TIP3   OH235973   5.138   5.967   2.438 -0.0400  0.3875  0.4572
 4805TIP3    H135974   5.082   6.001   2.508 -0.8648 -1.0308  0.5180
 4805TIP3    H235975   5.078   5.949   2.365  0.5576  0.2168 -0.0048
 4806TIP3   OH235976   1.472   2.503   1.378 -0.3095  0.7145 -0.1038
 4806TIP3    H135977   1.428   2.480   1.460  0.3458 -1.2287 -0.2473
 4806TIP3    H235978   1.479   2.420   1.331  0.4560  1.5832 -1.5881
 4807TIP3   OH235979   6.460   0.876   2.300  0.1629  0.1969  0.6947
 4807TIP3    H135980   6.457   0.835   2.386 -0.3620 -1.0661  0.1122
 4807TIP3    H235981   6.552   0.874   2.275  0.2015 -0.2638  0.8616
 4808TIP3   OH235982   1.058   2.823   1.626 -0.4739  0.1101 -0.4899
 4808TIP3    H135983   1.114   2.747   1.644 -0.2140  0.6784  1.3209
 4808TIP3    H235984   1.014   2.841   1.710 -0.3632  2.0821 -0.8061
 4809TIP3   OH235985   6.377   4.090   0.096  0.2813 -0.0236 -0.1523
 4809TIP3    H135986   6.361   4.185   0.101  1.9793  0.2484  1.3117
 4809TIP3    H235987   6.368   4.059   0.186  1.0483 -1.0126 -0.4000
 4810TIP3   OH235988   2.847   1.478   8.518 -0.1353  0.0930  0.1335
 4810TIP3    H135989   2.797   1.439   8.446 -2.7162  1.0561  1.2919
 4810TIP3    H235990   2.931   1.503   8.478 -0.4838 -1.6491 -1.9018
 4811TIP3   OH235991   1.547   2.513   2.018  0.1743  0.6410 -0.2698
 4811TIP3    H135992   1.620   2.498   1.958 -0.0851  1.1085 -0.7175
 4811TIP3    H235993   1.505   2.592   1.984 -1.2740 -0.3002 -0.7497
 4812TIP3   OH235994   3.534   6.063   0.960  0.1534  0.3904  0.3842
 4812TIP3    H135995   3.628   6.051   0.966  0.7073  3.3715 -0.3531
 4812TIP3    H235996   3.504   6.068   1.051  0.9388  0.7088  0.6305
 4813TIP3   OH235997   4.644   1.800   0.509 -0.0295  1.0827 -0.1464
 4813TIP3    H135998   4.577   1.749   0.462  0.8929  1.1980 -1.6489
 4813TIP3    H235999   4.643   1.764   0.597  0.0420 -1.0342 -0.9415
 4814TIP3   OH236000   2.143   3.772   8.017  0.2636  0.0409 -0.0779
 4814TIP3    H136001   2.130   3.820   8.098  3.4994 -0.2047  0.7508
 4814TIP3    H236002   2.126   3.681   8.040 -0.1494  0.1279 -0.0418
 4815TIP3   OH236003   0.356   3.118   2.777 -0.4309 -0.0460 -0.2416
 4815TIP3    H136004   0.314   3.201   2.799 -2.2217 -1.3308  1.5141
 4815TIP3    H236005   0.403   3.093   2.857  2.1708  0.3930 -1.5357
 4816TIP3   OH236006   1.310   1.859   1.386  0.5374 -0.0340 -0.1687
 4816TIP3    H136007   1.399   1.828   1.372 -0.2079 -2.8233  0.5112
 4816TIP3    H236008   1.256   1.806   1.327 -0.8467  0.1237  0.8845
 4817TIP3   OH236009   1.105   0.950   2.112 -0.0235  0.0244 -0.0824
 4817TIP3    H136010   1.075   0.919   2.027  0.6792 -0.8981 -0.0142
 4817TIP3    H236011   1.029   0.940   2.169 -0.7522  1.4257 -0.7555
 4818TIP3   OH236012   1.898   2.371   8.769 -0.2309 -0.4720  0.3041
 4818TIP3    H136013   1.909   2.388   8.863  0.3143 -1.4071  0.4157
 4818TIP3    H236014   1.873   2.279   8.764 -0.5389 -0.3503 -0.4588
 4819TIP3   OH236015   6.549   5.827   8.382 -0.1844  0.7374 -0.3915
 4819TIP3    H136016   6.539   5.766   8.309 -2.1341 -0.7859  1.0129
 4819TIP3    H236017   6.588   5.774   8.452  1.1391  2.0096 -0.1252
 4820TIP3   OH236018   6.168   1.624   0.997 -0.0023 -0.3740  0.2503
 4820TIP3    H136019   6.123   1.590   0.920 -0.4491  1.3558 -0.2943
 4820TIP3    H236020   6.153   1.719   0.994 -0.9955 -0.3509  3.0799
 4821TIP3   OH236021   2.227   6.284   8.533  0.6238  0.8377 -1.0977
 4821TIP3    H136022   2.274   6.352   8.486  0.1675  1.9528  0.0034
 4821TIP3    H236023   2.134   6.306   8.519  0.4705  1.7130  0.9757
 4822TIP3   OH236024   1.480   1.512   8.977 -0.3815 -0.5362  0.1677
 4822TIP3    H136025   1.525   1.428   8.990  1.6902  0.1839 -1.6820
 4822TIP3    H236026   1.521   1.571   9.040 -0.1088 -0.3480 -0.1826
 4823TIP3   OH236027   4.335   4.304   0.912  0.6457  0.0332  0.1113
 4823TIP3    H136028   4.308   4.235   0.851  2.2895 -1.6823  1.2161
 4823TIP3    H236029   4.269   4.300   0.982 -0.0740  0.5921 -0.5188
 4824TIP3   OH236030   6.507   1.736   2.838  0.0179  0.3188 -0.5191
 4824TIP3    H136031   6.467   1.815   2.873  0.2515  1.7690 -3.2548
 4824TIP3    H236032   6.434   1.675   2.825 -0.6660  1.2480 -1.1979
 4825TIP3   OH236033   5.784   1.165   8.151 -0.0506  0.3982 -0.1036
 4825TIP3    H136034   5.755   1.209   8.070 -0.8512  1.9455  0.9718
 4825TIP3    H236035   5.815   1.079   8.121  0.2739  1.1511 -2.1280
 4826TIP3   OH236036   3.289   6.497   0.067  0.0882  0.3156  0.5323
 4826TIP3    H136037   3.312   6.433   0.134  0.4084 -1.1417 -0.9110
 4826TIP3    H236038   3.345   6.572   0.085  2.3423 -1.1907  0.1724
 4827TIP3   OH236039   3.250   2.911   0.111  0.5491  0.0946  0.0368
 4827TIP3    H136040   3.232   2.988   0.164 -0.2470 -0.0698  0.0226
 4827TIP3    H236041   3.320   2.938   0.051  0.6179  0.6438  0.3652
 4828TIP3   OH236042   3.184   2.134   8.746 -0.0149 -0.4063  0.3990
 4828TIP3    H136043   3.200   2.141   8.652  2.4401  1.1016  0.8352
 4828TIP3    H236044   3.272   2.134   8.785 -0.9582  2.1528  2.8521
 4829TIP3   OH236045   3.087   2.093   0.839 -0.0073 -0.0345  0.9006
 4829TIP3    H136046   3.148   2.168   0.839  0.8945 -0.7087 -0.8167
 4829TIP3    H236047   3.008   2.127   0.881  0.4473  1.8376  0.3567
 4830TIP3   OH236048   0.963   0.291   1.922 -0.3188  0.1386  0.1201
 4830TIP3    H136049   0.958   0.252   2.010 -0.7327  1.4056  0.6861
 4830TIP3    H236050   1.057   0.303   1.907 -0.2786  0.8483  0.8425
 4831TIP3   OH236051   5.385   0.857   0.767 -0.5551  0.0099  0.2127
 4831TIP3    H136052   5.294   0.855   0.797 -0.3624  0.4048  0.8320
 4831TIP3    H236053   5.437   0.859   0.847  0.0090 -0.3276 -0.1356
 4832TIP3   OH236054   3.804   1.804   8.571 -0.7760 -0.4241 -0.5030
 4832TIP3    H136055   3.816   1.761   8.487  1.7535 -0.8343 -0.0015
 4832TIP3    H236056   3.867   1.876   8.571 -0.5388 -0.5784  1.1121
 4833TIP3   OH236057   5.824   1.164   8.893 -0.1088 -0.0451  0.2460
 4833TIP3    H136058   5.861   1.219   8.962 -2.0945 -0.2616  1.5852
 4833TIP3    H236059   5.792   1.226   8.828 -0.8164  0.3446  0.9399
 4834TIP3   OH236060   0.348   0.996   0.944  0.1533 -0.0242  0.1639
 4834TIP3    H136061   0.378   0.952   1.023 -0.3941 -0.9020 -0.1060
 4834TIP3    H236062   0.253   0.992   0.948  0.1045  0.6031 -0.1666
 4835TIP3   OH236063   2.793   4.644   0.830 -0.5094  0.2344  0.8119
 4835TIP3    H136064   2.858   4.670   0.895  0.0433  1.0313 -0.0310
 4835TIP3    H236065   2.720   4.608   0.882  0.6894 -0.9239  1.7492
 4836TIP3   OH236066   2.665   5.842   0.021 -0.2032  0.7118  0.7062
 4836TIP3    H136067   2.658   5.747   0.026 -1.4909  0.6834 -0.6980
 4836TIP3    H236068   2.745   5.858  -0.030 -1.1321  0.2585 -0.9964
 4837TIP3   OH236069   1.503   5.142   0.021  0.1342 -0.2570 -0.1090
 4837TIP3    H136070   1.560   5.214  -0.005  3.1410 -2.1714  0.7563
 4837TIP3    H236071   1.433   5.185   0.071  0.6950  2.2252 -1.3001
 4838TIP3   OH236072   5.750   1.072   0.693  0.3996 -0.4927  0.0146
 4838TIP3    H136073   5.754   0.978   0.679 -0.1567 -1.0496  2.8749
 4838TIP3    H236074   5.660   1.088   0.722  0.8036  0.7182  0.6725
 4839TIP3   OH236075   1.072   2.499   0.291 -0.3915 -0.6275 -0.6294
 4839TIP3    H136076   1.154   2.529   0.330 -0.5867 -2.0044  0.9425
 4839TIP3    H236077   1.047   2.569   0.231  1.0386  0.5926  0.1315
 4840TIP3   OH236078   1.747   3.368   1.512 -0.3674 -0.3363  0.3918
 4840TIP3    H136079   1.839   3.344   1.503  0.4489  2.4826  0.4088
 4840TIP3    H236080   1.714   3.371   1.422  0.4999  1.7340  0.0786
 4841TIP3   OH236081   3.135   2.573   3.376 -0.0942  0.2461  0.0381
 4841TIP3    H136082   3.100   2.561   3.464 -2.1734 -0.5669 -0.8332
 4841TIP3    H236083   3.227   2.596   3.390 -0.1217 -0.7420  2.3708
 4842TIP3   OH236084   3.367   0.268   2.094  0.1526  0.5580  0.8080
 4842TIP3    H136085   3.272   0.279   2.104 -0.2515  0.5863 -2.2109
 4842TIP3    H236086   3.400   0.357   2.079  0.6592  0.5394  1.7767
 4843TIP3   OH236087   6.647   5.246   8.482  0.0270 -0.3874 -0.1397
 4843TIP3    H136088   6.584   5.192   8.530 -1.0667  0.7237 -0.2599
 4843TIP3    H236089   6.606   5.260   8.396  1.2559 -1.0759 -0.8580
 4844TIP3   OH236090   0.738   6.281   1.645  0.0103  0.4698  0.0658
 4844TIP3    H136091   0.691   6.267   1.727  0.3363 -0.6494  0.0814
 4844TIP3    H236092   0.831   6.282   1.670  0.1235 -0.1252 -0.3139
 4845TIP3   OH236093   1.901   1.856   8.825  0.3370  0.1451  0.0501
 4845TIP3    H136094   1.928   1.778   8.777  1.1021  1.5701 -1.9913
 4845TIP3    H236095   1.968   1.867   8.892  1.2258  0.0025 -0.7882
 4846TIP3   OH236096   4.200   4.439   0.214  0.1850  0.6841  0.1959
 4846TIP3    H136097   4.123   4.393   0.247  0.6089 -1.2803 -1.4116
 4846TIP3    H236098   4.219   4.505   0.282 -1.1827 -0.6651  1.9899
 4847TIP3   OH236099   0.284   3.594   0.669  0.1661  0.0462  0.1821
 4847TIP3    H136100   0.252   3.587   0.579  1.8315  0.2785 -0.4592
 4847TIP3    H236101   0.205   3.592   0.723 -0.8770  0.1806 -1.2962
 4848TIP3   OH236102   4.586   6.022   0.323 -0.5342  0.3089  0.0357
 4848TIP3    H136103   4.594   6.028   0.418 -0.5360 -0.4298  0.0830
 4848TIP3    H236104   4.675   6.028   0.291 -0.6170  1.7986 -0.0019
 4849TIP3   OH236105   3.957   6.366   8.718  0.5463  0.3445 -0.0049
 4849TIP3    H136106   3.989   6.286   8.677  2.0391  1.3280 -0.8620
 4849TIP3    H236107   4.036   6.411   8.748 -0.2954  1.2572  0.9272
 4850TIP3   OH236108   4.053   0.869   0.729 -0.1733  0.4130  0.0524
 4850TIP3    H136109   3.981   0.860   0.667 -0.1270 -0.7814  0.1410
 4850TIP3    H236110   4.130   0.886   0.675 -0.3621  0.7670 -0.1082
 4851TIP3   OH236111   1.407   6.480   1.931 -0.3499  0.6993  0.5631
 4851TIP3    H136112   1.429   6.391   1.905  0.2656  0.7229  1.0104
 4851TIP3    H236113   1.485   6.514   1.974 -0.4414  1.5882  0.0725
 4852TIP3   OH236114   1.256   5.969   0.001  0.3604 -0.1102 -0.3036
 4852TIP3    H136115   1.324   5.910   0.033 -0.2282 -0.5583  0.1223
 4852TIP3    H236116   1.175   5.919   0.006  0.2813 -0.4195 -2.9840
 4853TIP3   OH236117   1.592   5.512   8.372 -0.0600  0.2758 -0.4351
 4853TIP3    H136118   1.687   5.506   8.364  0.7007  2.6816  3.8735
 4853TIP3    H236119   1.569   5.444   8.436 -0.8733  1.0070  0.0788
 4854TIP3   OH236120   0.575   2.755   1.094 -0.9114 -0.5836 -0.0875
 4854TIP3    H136121   0.612   2.763   1.006 -1.3923 -2.2543 -0.4936
 4854TIP3    H236122   0.629   2.688   1.136 -0.4267  0.4892  1.0680
 4855TIP3   OH236123   0.362   6.457   8.186  0.3283 -0.0793 -0.1325
 4855TIP3    H136124   0.354   6.364   8.206 -0.3611  0.1861  0.9083
 4855TIP3    H236125   0.446   6.483   8.224  1.2536 -0.5745 -1.7422
 4856TIP3   OH236126   5.697   3.516   7.493  0.4719  0.2192  0.4090
 4856TIP3    H136127   5.769   3.462   7.524  0.1730 -0.8572 -0.6572
 4856TIP3    H236128   5.737   3.600   7.474  1.5983 -0.5190 -0.6865
 4857TIP3   OH236129   0.694   3.314   0.911  0.4599  0.0106 -0.2155
 4857TIP3    H136130   0.727   3.248   0.973  0.2678 -1.0266 -1.1932
 4857TIP3    H236131   0.698   3.271   0.826 -0.4430  0.9884 -0.7695
 4858TIP3   OH236132   1.428   2.273   8.391  0.1872 -0.2152  0.0886
 4858TIP3    H136133   1.509   2.317   8.417 -0.0148 -0.0286  0.3999
 4858TIP3    H236134   1.457   2.196   8.342  0.5466  1.0344 -1.7633
 4859TIP3   OH236135   5.501   6.461   1.356 -0.0019 -0.5932 -0.4008
 4859TIP3    H136136   5.503   6.527   1.424 -0.8770  1.4281 -2.2199
 4859TIP3    H236137   5.407   6.445   1.341  0.1760 -1.1045 -1.0250
 4860TIP3   OH236138   3.564   2.163   2.416  0.6850 -0.1284  0.1162
 4860TIP3    H136139   3.541   2.208   2.498 -0.3830 -1.1865  0.4158
 4860TIP3    H236140   3.523   2.216   2.348 -1.2926 -1.0264  0.5234
 4861TIP3   OH236141   3.008   6.257   8.858  0.3231 -0.6180 -0.4826
 4861TIP3    H136142   3.076   6.267   8.792  0.4153 -1.1561 -0.4709
 4861TIP3    H236143   3.043   6.194   8.921 -0.1703 -0.8878 -0.4670
 4862TIP3   OH236144   3.570   0.293   0.929 -0.2784  0.1940  0.3619
 4862TIP3    H136145   3.562   0.353   0.855  1.0839  2.7304  2.1014
 4862TIP3    H236146   3.656   0.253   0.918  0.9709  2.3185  1.6244
 4863TIP3   OH236147   6.582   2.755   0.976 -0.2720  0.0506  0.2330
 4863TIP3    H136148   6.614   2.845   0.976 -1.4669  0.5092 -1.4234
 4863TIP3    H236149   6.492   2.761   1.006 -0.4145 -0.5738 -0.0470
 4864TIP3   OH236150   2.868   5.430   2.389  0.1775  0.5088  0.2024
 4864TIP3    H136151   2.887   5.373   2.316 -0.1115  0.5495  0.0926
 4864TIP3    H236152   2.949   5.478   2.405  0.1673  0.6731 -0.2466
 4865TIP3   OH236153   4.089   3.683   0.067  0.0221  0.1070 -0.0952
 4865TIP3    H136154   4.164   3.623   0.060 -1.3915 -1.7279 -0.4343
 4865TIP3    H236155   4.121   3.755   0.121  1.0798 -2.2399  2.7041
 4866TIP3   OH236156   1.291   4.402   7.804 -0.2207  0.0311 -0.1506
 4866TIP3    H136157   1.370   4.351   7.821  0.1794  0.3181 -1.1043
 4866TIP3    H236158   1.262   4.374   7.717 -0.1284  1.2517 -0.5894
 4867TIP3   OH236159   3.813   0.976   1.196  0.2460  0.2879  0.8007
 4867TIP3    H136160   3.785   0.891   1.231 -2.2026  1.5598  2.2544
 4867TIP3    H236161   3.828   0.960   1.103  2.0101 -2.1551  1.4096
 4868TIP3   OH236162   1.897   5.534   0.375 -0.1668 -0.0495  0.0123
 4868TIP3    H136163   1.889   5.630   0.373  1.7228  0.1877  0.8281
 4868TIP3    H236164   1.889   5.512   0.468  1.0852 -0.4501  0.0509
 4869TIP3   OH236165   4.458   4.800   1.846  0.0828 -0.2007 -0.0257
 4869TIP3    H136166   4.506   4.779   1.766  0.3667  0.5451 -0.0645
 4869TIP3    H236167   4.442   4.715   1.888  1.6054 -0.4824  0.0738
 4870TIP3   OH236168   5.616   4.873   1.411  0.1679 -0.0725 -0.4135
 4870TIP3    H136169   5.567   4.834   1.483  0.6907 -0.2962 -0.1789
 4870TIP3    H236170   5.641   4.960   1.443  2.5778 -1.0918  0.6790
 4871TIP3   OH236171   2.084   0.661   1.965  0.4504  0.0881  0.0319
 4871TIP3    H136172   2.174   0.692   1.955  1.3494 -2.5543 -1.0607
 4871TIP3    H236173   2.072   0.652   2.060  1.4327  0.2673  0.1816
 4872TIP3   OH236174   3.882   4.316   2.001  0.1554 -0.2401  0.3529
 4872TIP3    H136175   3.842   4.381   1.944 -0.3507  1.3519  2.3857
 4872TIP3    H236176   3.809   4.264   2.034  0.4651 -1.2965 -0.5532
 4873TIP3   OH236177   5.076   2.617   0.127 -0.5564  0.1846 -0.9724
 4873TIP3    H136178   5.046   2.530   0.154 -0.9428  0.0825 -1.7052
 4873TIP3    H236179   4.995   2.667   0.113 -0.3626  1.3079  1.3464
 4874TIP3   OH236180   1.864   4.775   8.758  0.6572 -0.2669 -0.0911
 4874TIP3    H136181   1.778   4.756   8.795 -0.2834  2.2577 -0.7596
 4874TIP3    H236182   1.865   4.870   8.747  3.6568 -0.1738  0.1141
 4875TIP3   OH236183   5.256   6.472   0.089 -0.4768 -0.3618 -0.3079
 4875TIP3    H136184   5.247   6.394   0.144 -0.6823 -0.1278 -0.0112
 4875TIP3    H236185   5.186   6.463   0.024 -1.2867  0.1901  0.4739
 4876TIP3   OH236186   3.473   4.468   7.062 -0.1030  0.7595 -0.6190
 4876TIP3    H136187   3.535   4.467   6.989 -0.5667  0.6272 -1.0207
 4876TIP3    H236188   3.527   4.484   7.139  0.6151 -0.5955 -0.7931
 4877TIP3   OH236189   3.121   3.939   2.169  0.3167 -0.2068  0.0002
 4877TIP3    H136190   3.182   3.877   2.130 -0.5755 -1.2295  0.1863
 4877TIP3    H236191   3.150   3.949   2.259  0.7125 -0.0086 -0.1448
 4878TIP3   OH236192   4.421   5.687   8.862 -0.5888  0.4139 -0.0451
 4878TIP3    H136193   4.410   5.732   8.778 -2.5761  0.9098  0.4287
 4878TIP3    H236194   4.514   5.697   8.882 -0.2889  1.2347 -1.6571
 4879TIP3   OH236195   0.809   3.810   8.947 -0.0650  0.6550 -0.1723
 4879TIP3    H136196   0.895   3.774   8.968 -0.1695  1.1790  1.2899
 4879TIP3    H236197   0.823   3.905   8.946 -0.5926  0.7368 -0.0769
 4880TIP3   OH236198   6.353   1.167   8.866 -0.2763  0.1987 -0.2463
 4880TIP3    H136199   6.326   1.138   8.779  0.9289  0.3310 -0.6825
 4880TIP3    H236200   6.431   1.115   8.886 -0.2123  0.5694  0.5232
 4881TIP3   OH236201   1.607   5.702   0.291 -0.1111 -0.3690 -0.0376
 4881TIP3    H136202   1.661   5.659   0.225  0.3229 -1.0640  0.7428
 4881TIP3    H236203   1.660   5.698   0.371  0.1246  1.9922 -0.0125
 4882TIP3   OH236204   2.412   0.477   1.638  0.3554 -0.8579  0.2759
 4882TIP3    H136205   2.320   0.499   1.626  0.3599 -0.4514  0.9546
 4882TIP3    H236206   2.454   0.504   1.556  0.2507  1.1225  0.8117
 4883TIP3   OH236207   0.510   1.814   8.212 -0.1695  0.0965 -0.1449
 4883TIP3    H136208   0.577   1.852   8.269  0.4121 -0.6290 -0.3232
 4883TIP3    H236209   0.439   1.790   8.272 -0.0248  0.3478  0.1292
 4884TIP3   OH236210   3.556   0.435   0.459 -0.3597 -0.0007  0.3021
 4884TIP3    H136211   3.560   0.349   0.501 -1.7229 -0.3576 -0.2215
 4884TIP3    H236212   3.577   0.497   0.528 -1.4638 -0.6416  1.2603
 4885TIP3   OH236213   1.632   5.602   1.413  0.2391 -0.0719  0.1119
 4885TIP3    H136214   1.620   5.689   1.452 -0.9232 -0.1805  0.0428
 4885TIP3    H236215   1.657   5.546   1.487 -1.7431 -0.2322  0.7261
 4886TIP3   OH236216   5.054   5.733   2.115  0.3095  0.2335  0.3058
 4886TIP3    H136217   5.074   5.822   2.085 -0.1477  0.2510  0.0367
 4886TIP3    H236218   5.135   5.702   2.155  0.4880  0.7522  0.3515
 4887TIP3   OH236219   4.430   3.203   8.099  0.7524 -0.4942 -0.0265
 4887TIP3    H136220   4.424   3.131   8.036  2.2911  0.4054 -1.2723
 4887TIP3    H236221   4.339   3.220   8.124  0.2708 -2.2011 -0.4302
 4888TIP3   OH236222   4.048   1.803   1.706  0.0809 -0.2571  0.0636
 4888TIP3    H136223   4.000   1.884   1.689  0.2285 -0.1574  0.1115
 4888TIP3    H236224   3.991   1.753   1.763 -0.4968 -0.6695 -0.8526
 4889TIP3   OH236225   4.086   1.286   8.826  0.2879  0.3809 -0.1359
 4889TIP3    H136226   4.071   1.370   8.783 -1.2762 -0.3571 -1.1480
 4889TIP3    H236227   4.026   1.287   8.901 -1.5190 -0.6855 -1.4709
 4890TIP3   OH236228   1.186   1.127   3.321  0.1063 -0.0336  0.1463
 4890TIP3    H136229   1.184   1.032   3.315 -1.4059  0.0228 -0.9285
 4890TIP3    H236230   1.215   1.145   3.411 -0.8927 -1.5430  0.8252
 4891TIP3   OH236231   5.323   3.813   1.740  0.2797  0.4640 -0.0827
 4891TIP3    H136232   5.349   3.809   1.832  0.5845  0.1613 -0.1803
 4891TIP3    H236233   5.380   3.750   1.696 -0.1716  0.2750 -0.4049
 4892TIP3   OH236234   1.448   2.719   1.878  0.0685 -0.2641  0.2399
 4892TIP3    H136235   1.508   2.793   1.871  0.4782 -0.6843 -0.7826
 4892TIP3    H236236   1.382   2.748   1.942  0.6046  0.7077  0.3704
 4893TIP3   OH236237   0.676   4.381   0.563  0.1708 -0.4228  0.6553
 4893TIP3    H136238   0.637   4.385   0.650  0.2597  1.9748  0.6690
 4893TIP3    H236239   0.751   4.441   0.568 -0.1351  0.1722 -1.1918
 4894TIP3   OH236240   3.367   5.149   8.105 -0.0242 -0.3523  0.6317
 4894TIP3    H136241   3.371   5.158   8.010 -0.2312 -0.6219  0.5966
 4894TIP3    H236242   3.391   5.236   8.138  0.0400 -0.2554  0.3341
 4895TIP3   OH236243   2.010   2.298   8.287  0.1866 -0.5274 -0.2511
 4895TIP3    H136244   2.044   2.310   8.375 -1.3143  0.3298  0.2452
 4895TIP3    H236245   1.997   2.204   8.278  1.0507 -0.6922  0.1546
 4896TIP3   OH236246   2.696   3.392   1.196  1.1401 -0.6441 -0.2513
 4896TIP3    H136247   2.777   3.378   1.244  1.7086  1.0999 -0.6362
 4896TIP3    H236248   2.714   3.468   1.140 -1.1756  0.7278  0.7133
 4897TIP3   OH236249   2.895   2.321   1.009  0.1294 -0.1025 -0.6068
 4897TIP3    H136250   2.944   2.398   0.979  0.2848 -0.4019 -1.1267
 4897TIP3    H236251   2.810   2.356   1.036  0.7398  0.4732  0.6459
 4898TIP3   OH236252   2.101   2.915   1.772 -0.1872  0.3836 -0.1089
 4898TIP3    H136253   2.030   2.872   1.820 -0.4308 -0.0351 -0.8276
 4898TIP3    H236254   2.131   2.984   1.831 -0.4378 -0.1556  0.6670
 4899TIP3   OH236255   0.544   6.139   7.537 -0.0657  0.3015 -0.2916
 4899TIP3    H136256   0.518   6.080   7.466 -1.9068 -1.2059  1.4890
 4899TIP3    H236257   0.602   6.086   7.591 -2.5309 -0.3804  1.8798
 4900TIP3   OH236258   1.213   5.233   1.670  0.0870 -0.3456  0.4311
 4900TIP3    H136259   1.243   5.310   1.621  0.3915 -0.9700 -0.3795
 4900TIP3    H236260   1.129   5.210   1.630  0.4909 -1.0521 -0.0381
 4901TIP3   OH236261   3.153   2.151   2.206  0.0309 -0.5792 -0.5366
 4901TIP3    H136262   3.148   2.224   2.144  1.1055 -0.3098 -0.3256
 4901TIP3    H236263   3.104   2.080   2.164  1.5492 -0.7363 -2.1890
 4902TIP3   OH236264   3.065   1.214   7.460 -0.1398  0.0842 -0.1171
 4902TIP3    H136265   3.044   1.124   7.435 -2.1227  0.7894 -1.2079
 4902TIP3    H236266   3.131   1.242   7.395  0.8727 -0.6957  0.5371
 4903TIP3   OH236267   5.505   5.243   1.500  0.0314 -0.6194 -0.7330
 4903TIP3    H136268   5.570   5.179   1.528 -0.0473  0.2805  1.7056
 4903TIP3    H236269   5.426   5.192   1.485  0.7801 -1.4730 -1.9609
 4904TIP3   OH236270   3.921   5.012   2.575 -0.2446 -0.2186 -0.3874
 4904TIP3    H136271   3.826   5.024   2.581 -0.2032 -0.0253 -0.1372
 4904TIP3    H236272   3.932   4.918   2.558 -0.4685 -0.2887 -0.1481
 4905TIP3   OH236273   0.623   2.660   1.848  0.3791  0.0830 -0.2326
 4905TIP3    H136274   0.687   2.606   1.803  0.0342 -0.3272 -0.2375
 4905TIP3    H236275   0.676   2.720   1.901  0.7706 -0.2003 -0.2934
 4906TIP3   OH236276   3.834   4.297   8.067  0.2846  0.2686  0.2255
 4906TIP3    H136277   3.786   4.247   8.133  2.5319 -2.2012  0.1849
 4906TIP3    H236278   3.828   4.244   7.987  1.5113  0.8015 -0.2565
 4907TIP3   OH236279   5.532   4.537   7.190 -0.5885 -0.3087  0.2167
 4907TIP3    H136280   5.513   4.549   7.097  0.4335 -3.0490 -0.4506
 4907TIP3    H236281   5.446   4.519   7.230 -0.8532 -0.6132 -0.4820
 4908TIP3   OH236282   2.894   4.737   8.568 -0.5211  0.6758 -0.2519
 4908TIP3    H136283   2.941   4.798   8.511 -0.0983 -0.4980 -1.1995
 4908TIP3    H236284   2.963   4.690   8.615 -0.8079  0.2251 -0.2818
 4909TIP3   OH236285   6.006   3.167   0.176  0.1481 -0.4604  0.3076
 4909TIP3    H136286   6.028   3.218   0.098 -2.0174  0.4582  0.2431
 4909TIP3    H236287   5.912   3.154   0.171  0.1726 -1.6538  2.0496
 4910TIP3   OH236288   0.360   1.787   8.623 -0.2402 -0.3153  0.1364
 4910TIP3    H136289   0.410   1.839   8.686 -0.2610 -2.2324  1.8299
 4910TIP3    H236290   0.339   1.706   8.669 -0.0719 -1.9387 -2.4242
 4911TIP3   OH236291   5.410   5.924   8.660  0.5966  0.3380  0.3663
 4911TIP3    H136292   5.338   5.862   8.670  1.6781 -1.0996 -0.4539
 4911TIP3    H236293   5.368   6.003   8.624 -0.8517  0.2754  1.7700
 4912TIP3   OH236294   3.715   0.236   0.645  0.7685 -0.2279 -0.0841
 4912TIP3    H136295   3.795   0.186   0.630 -0.0143 -1.2738 -0.9551
 4912TIP3    H236296   3.645   0.177   0.617 -0.2831  0.8026  0.3192
 4913TIP3   OH236297   5.547   2.218   8.248  0.5957 -0.1520  0.1362
 4913TIP3    H136298   5.642   2.223   8.251  0.6607 -1.2944  0.4055
 4913TIP3    H236299   5.519   2.234   8.338  0.5909 -0.7182  0.2387
 4914TIP3   OH236300   0.619   1.426   0.051  0.3835  0.1938 -0.2625
 4914TIP3    H136301   0.637   1.349   0.104  1.1061  0.9941  0.7071
 4914TIP3    H236302   0.702   1.446   0.008 -0.1380 -0.3176 -1.5671
 4915TIP3   OH236303   5.954   6.452   2.381  0.0371 -0.7976 -0.6302
 4915TIP3    H136304   5.942   6.497   2.298 -4.8106 -0.4969 -0.0848
 4915TIP3    H236305   5.975   6.362   2.357  0.9293 -0.2309 -2.0609
 4916TIP3   OH236306   2.182   2.256   2.167 -0.8318  0.5085  0.6463
 4916TIP3    H136307   2.140   2.319   2.110 -1.7118 -0.9430 -0.3788
 4916TIP3    H236308   2.110   2.212   2.212 -0.2991 -0.3974  0.6382
 4917TIP3   OH236309   2.826   4.852   1.778 -0.1453 -0.2712  0.5114
 4917TIP3    H136310   2.853   4.891   1.862  2.3385 -0.6787 -0.0170
 4917TIP3    H236311   2.816   4.927   1.720  3.1094 -0.1245 -0.0872
 4918TIP3   OH236312   6.707   0.444   7.327  0.1204  0.2584  0.3449
 4918TIP3    H136313   6.706   0.508   7.256  1.3504 -1.0376 -0.9074
 4918TIP3    H236314   6.799   0.420   7.336 -0.0179  0.3962  2.4151
 4919TIP3   OH236315   6.572   1.491   0.399 -0.3517  0.0719 -0.3774
 4919TIP3    H136316   6.573   1.440   0.480  3.4969  0.1080 -0.2517
 4919TIP3    H236317   6.506   1.559   0.415 -0.9331 -0.9508  2.0003
 4920TIP3   OH236318   0.425   0.905   3.028 -0.9877 -0.0482  0.1599
 4920TIP3    H136319   0.449   0.913   3.120  0.8369 -0.3142 -0.2606
 4920TIP3    H236320   0.385   0.818   3.020  1.4246 -1.2350  0.2227
 4921TIP3   OH236321   3.854   0.537   1.515 -0.4518  0.4501 -0.3521
 4921TIP3    H136322   3.921   0.474   1.487 -0.0909  0.8889 -0.5067
 4921TIP3    H236323   3.870   0.549   1.609 -1.0351 -0.2863 -0.1532
 4922TIP3   OH236324   2.162   1.670   8.614  0.1698 -0.5466  0.1234
 4922TIP3    H136325   2.168   1.585   8.569  1.5863 -0.9228  0.9854
 4922TIP3    H236326   2.216   1.728   8.562  0.2698 -0.5018  0.2792
 4923TIP3   OH236327   2.023   1.211   8.495 -0.0553  0.1823 -0.7398
 4923TIP3    H136328   1.977   1.292   8.517  1.1248  0.5693  0.4262
 4923TIP3    H236329   1.993   1.147   8.560  1.5067  0.6276  0.4822
 4924TIP3   OH236330   6.434   3.725   8.165  0.7043 -0.5630 -0.3351
 4924TIP3    H136331   6.399   3.702   8.251 -0.2222 -0.4117 -0.6633
 4924TIP3    H236332   6.437   3.641   8.117  1.0638 -0.6212 -0.2111
 4925TIP3   OH236333   2.259   5.117   2.975  0.3143 -0.0797  0.5761
 4925TIP3    H136334   2.212   5.034   2.978  0.5981 -0.2141  1.8549
 4925TIP3    H236335   2.350   5.094   2.990  0.5796  0.3514 -0.2743
 4926TIP3   OH236336   0.758   5.778   7.555 -0.1029 -0.0456  0.2687
 4926TIP3    H136337   0.813   5.728   7.494 -1.0073 -1.7780  0.8067
 4926TIP3    H236338   0.809   5.857   7.574  1.4557 -0.8118 -0.5069
 4927TIP3   OH236339   5.278   5.320   2.220 -0.5216  0.2630 -0.0303
 4927TIP3    H136340   5.306   5.301   2.309  0.9228 -0.4719 -0.6038
 4927TIP3    H236341   5.219   5.395   2.228 -0.8535 -0.1339  1.5822
 4928TIP3   OH236342   5.078   3.391   0.076  0.3768 -0.0500  0.6387
 4928TIP3    H136343   5.126   3.382   0.159  1.8891  0.4813 -0.1358
 4928TIP3    H236344   5.132   3.450   0.024 -0.8163  0.0364 -0.5444
 4929TIP3   OH236345   3.368   1.361   1.498  0.0605 -0.1483 -0.3944
 4929TIP3    H136346   3.378   1.397   1.410 -1.3335  1.3321 -0.0113
 4929TIP3    H236347   3.277   1.380   1.522  0.4958 -0.1776  1.4983
 4930TIP3   OH236348   5.938   4.376   0.956  0.3282 -0.2964 -0.3708
 4930TIP3    H136349   5.973   4.325   1.028 -1.4098  0.4112  1.0589
 4930TIP3    H236350   5.935   4.466   0.989  1.1450  0.3691 -1.9859
 4931TIP3   OH236351   4.270   6.405   1.994 -0.7447 -0.1299  0.1910
 4931TIP3    H136352   4.259   6.313   1.969  0.3260  0.2734 -1.9934
 4931TIP3    H236353   4.365   6.416   2.006 -0.9598  0.4425  1.6312
 4932TIP3   OH236354   1.549   6.354   0.145 -0.7051  0.4441 -0.7632
 4932TIP3    H136355   1.582   6.391   0.064  2.2190 -0.2616 -0.0138
 4932TIP3    H236356   1.588   6.266   0.149 -3.3396 -0.8220 -0.0669
 4933TIP3   OH236357   1.428   0.749   8.872  0.0932 -0.2048  0.0068
 4933TIP3    H136358   1.437   0.693   8.949  1.2700  1.0504  0.8046
 4933TIP3    H236359   1.517   0.757   8.837  0.0025  1.4071  0.0894
 4934TIP3   OH236360   5.416   2.926   2.318  0.1884 -0.0068  0.0269
 4934TIP3    H136361   5.508   2.935   2.342  0.3026 -0.2347 -0.3306
 4934TIP3    H236362   5.396   2.834   2.336  0.2201 -0.1307 -0.5637
 4935TIP3   OH236363   0.360   2.715   1.796 -0.7090  0.2496  0.0288
 4935TIP3    H136364   0.360   2.652   1.724 -2.8433 -2.4996  2.2519
 4935TIP3    H236365   0.450   2.712   1.831 -0.9900 -2.4173  0.7003
 4936TIP3   OH236366   3.899   0.511   8.242  0.0900 -0.0356  0.3306
 4936TIP3    H136367   3.914   0.529   8.335 -2.6591  2.1744  0.4668
 4936TIP3    H236368   3.892   0.597   8.201 -0.6402 -0.9438 -1.5902
 4937TIP3   OH236369   1.490   3.281   3.037  0.2125  0.1345 -0.4282
 4937TIP3    H136370   1.532   3.305   2.954 -0.5203 -1.3879 -1.2770
 4937TIP3    H236371   1.563   3.269   3.098  0.7838  0.8663 -0.9512
 4938TIP3   OH236372   2.641   6.012   2.030  0.0362  0.4238 -0.7049
 4938TIP3    H136373   2.708   6.053   1.975 -2.2533  2.4466 -2.1351
 4938TIP3    H236374   2.593   5.955   1.971  0.8524 -1.6232  0.4851
 4939TIP3   OH236375   5.441   6.482   8.536 -0.7288 -0.0926  0.5153
 4939TIP3    H136376   5.468   6.457   8.447  0.4290  0.5271  0.6802
 4939TIP3    H236377   5.350   6.511   8.526  0.0932  2.2555 -0.9397
 4940TIP3   OH236378   0.483   5.322   8.457  0.1589  0.5495  0.2267
 4940TIP3    H136379   0.501   5.395   8.517 -0.0830  0.5502  0.3020
 4940TIP3    H236380   0.568   5.298   8.422  0.4080  0.0419  1.1567
 4941TIP3   OH236381   4.718   1.728   0.181  0.0069  0.6139 -0.5741
 4941TIP3    H136382   4.718   1.781   0.261  1.4865  2.3035 -1.6099
 4941TIP3    H236383   4.794   1.670   0.191  0.1141  0.7337 -0.6933
 4942TIP3   OH236384   6.536   6.190   1.548  0.4268 -0.6117 -0.0273
 4942TIP3    H136385   6.441   6.186   1.552  0.3844  0.4371  0.5152
 4942TIP3    H236386   6.561   6.237   1.628  1.2253  1.1711 -1.2592
 4943TIP3   OH236387   6.355   0.635   1.444 -0.4353 -0.1592  0.2555
 4943TIP3    H136388   6.312   0.589   1.372  1.6588  0.6256 -1.6075
 4943TIP3    H236389   6.396   0.566   1.496 -1.2301 -0.6718  0.2254
 4944TIP3   OH236390   6.380   1.985   8.624  0.4287  0.0452 -0.6585
 4944TIP3    H136391   6.354   2.076   8.640 -1.1454 -0.2427 -1.3746
 4944TIP3    H236392   6.428   1.960   8.703 -2.2333  0.3881  1.2434
 4945TIP3   OH236393   2.371   3.100   8.573  0.1561  0.0112 -0.6960
 4945TIP3    H136394   2.383   3.040   8.647  0.7627 -0.0652 -0.8521
 4945TIP3    H236395   2.300   3.060   8.522  1.1869 -1.0947 -1.3087
 4946TIP3   OH236396   6.076   3.785   8.233 -0.2168  0.3594 -0.2086
 4946TIP3    H136397   6.087   3.764   8.325 -0.5734  1.3596  0.0773
 4946TIP3    H236398   6.067   3.701   8.189 -0.8400 -0.0864  0.7720
 4947TIP3   OH236399   0.473   3.948   8.250 -0.7147 -0.1828  0.0047
 4947TIP3    H136400   0.544   3.893   8.217  1.2545  1.1586  1.7076
 4947TIP3    H236401   0.501   3.972   8.339 -3.1065  0.8033  0.5783
 4948TIP3   OH236402   5.962   0.009   3.384  0.6804  0.0464  0.3924
 4948TIP3    H136403   5.901  -0.007   3.456  3.5536  0.0426  2.9911
 4948TIP3    H236404   6.007  -0.074   3.371  3.7541  1.2417  2.2731
 4949TIP3   OH236405   2.689   5.059   1.935  0.1529  0.1648 -0.1363
 4949TIP3    H136406   2.672   5.037   2.027  0.3183  0.1493 -0.1092
 4949TIP3    H236407   2.644   4.990   1.886 -0.6035  0.6086 -0.0927
 4950TIP3   OH236408   0.405   1.900   1.588 -0.5340  0.5899  0.6047
 4950TIP3    H136409   0.497   1.884   1.608 -0.7664 -2.2531 -0.0706
 4950TIP3    H236410   0.357   1.858   1.660 -1.2685 -0.8741 -0.6674
 4951TIP3   OH236411   4.554   5.702   7.902 -0.4463 -0.9938  0.1063
 4951TIP3    H136412   4.518   5.616   7.882 -1.4124 -0.1714 -1.9527
 4951TIP3    H236413   4.602   5.727   7.823 -0.8897  0.7169  0.3446
 4952TIP3   OH236414   5.144   3.101   2.067 -0.7650  0.1652 -0.2574
 4952TIP3    H136415   5.099   3.182   2.043 -0.7313  0.2559 -0.0221
 4952TIP3    H236416   5.214   3.093   2.003 -0.3660  0.6687  0.1049
 4953TIP3   OH236417   0.467   5.639   7.140  0.3031  0.1210 -0.0716
 4953TIP3    H136418   0.383   5.598   7.160  0.6503  0.1632  1.6334
 4953TIP3    H236419   0.452   5.732   7.157  0.4560  0.2509 -0.6330
 4954TIP3   OH236420   4.638   3.522   1.443  0.2237  0.2603 -0.2895
 4954TIP3    H136421   4.635   3.617   1.456 -0.9030  0.4275 -1.5616
 4954TIP3    H236422   4.549   3.493   1.465  0.5488 -0.4956  0.0406
 4955TIP3   OH236423   1.955   4.213   8.896  0.4841  0.1394 -0.2215
 4955TIP3    H136424   1.941   4.240   8.987  1.0033  0.6347 -0.2818
 4955TIP3    H236425   1.868   4.218   8.856  0.6010  2.1510 -0.3290
 4956TIP3   OH236426   1.742   2.451   8.346  0.0501 -0.5500 -0.1335
 4956TIP3    H136427   1.717   2.475   8.256 -1.1047  0.6921  0.4802
 4956TIP3    H236428   1.824   2.402   8.336  0.4884  0.4375 -1.7870
 4957TIP3   OH236429   0.370   3.267   7.735 -0.2185  0.0419 -0.2831
 4957TIP3    H136430   0.400   3.228   7.653 -1.6303 -0.4997 -0.5634
 4957TIP3    H236431   0.438   3.244   7.799 -0.0693 -1.2199 -0.8744
 4958TIP3   OH236432   1.824   5.097   0.679 -0.0415  0.1214  0.2734
 4958TIP3    H136433   1.739   5.063   0.706  1.4454 -3.0480  1.5588
 4958TIP3    H236434   1.818   5.101   0.583 -1.6078 -0.1215  0.3323
 4959TIP3   OH236435   5.629   6.374   8.133  0.0215  0.3346 -0.1638
 4959TIP3    H136436   5.656   6.282   8.134  1.2792  0.6746 -0.7542
 4959TIP3    H236437   5.539   6.373   8.166 -0.0852 -1.1373 -0.4176
 4960TIP3   OH236438   3.636   1.044   2.332  1.0057 -0.0368  0.6462
 4960TIP3    H136439   3.669   1.134   2.332  1.7542 -0.2620 -0.9279
 4960TIP3    H236440   3.623   1.024   2.239 -3.5413 -0.0547  1.0750
 4961TIP3   OH236441   2.805   3.222   0.718  0.1185  0.1675 -0.3847
 4961TIP3    H136442   2.722   3.265   0.695 -1.7481 -1.8670  2.0342
 4961TIP3    H236443   2.794   3.132   0.689  1.4741 -0.1637  0.0642
 4962TIP3   OH236444   3.873   2.790   0.673  0.1470 -0.2456 -0.5307
 4962TIP3    H136445   3.815   2.721   0.705  1.0615  0.1295  2.2381
 4962TIP3    H236446   3.818   2.868   0.670  0.0158 -0.3092  0.0995
 4963TIP3   OH236447   5.975   1.937   1.332 -0.3274  0.1376  0.2773
 4963TIP3    H136448   5.982   1.931   1.428  2.4438 -0.7685  0.0967
 4963TIP3    H236449   6.009   1.854   1.300 -0.6307  0.6705 -1.5413
 4964TIP3   OH236450   1.948   0.934   2.081 -0.0753  0.1347  0.2144
 4964TIP3    H136451   1.954   0.980   2.164  0.6052 -0.7692  0.6855
 4964TIP3    H236452   1.914   0.848   2.103  0.4419 -0.2377 -0.3879
 4965TIP3   OH236453   0.157   3.571   1.282  0.0740 -0.0515 -0.0358
 4965TIP3    H136454   0.072   3.585   1.325 -1.1865  1.3409 -2.7034
 4965TIP3    H236455   0.161   3.477   1.268 -0.4663 -0.2758  1.1788
 4966TIP3   OH236456   2.557   3.963   2.487 -0.4827  0.3394  0.4942
 4966TIP3    H136457   2.496   3.956   2.560 -0.1603  1.0830  0.8363
 4966TIP3    H236458   2.611   3.884   2.493  0.9393  1.3661  2.3395
 4967TIP3   OH236459   2.218   5.769   8.680  0.0154  0.1601 -0.3125
 4967TIP3    H136460   2.299   5.719   8.678  1.4106  2.0940  2.0763
 4967TIP3    H236461   2.244   5.858   8.658 -0.8855  1.3134  2.6981
 4968TIP3   OH236462   1.081   0.899   1.808 -0.2316  0.2472 -0.3429
 4968TIP3    H136463   1.000   0.872   1.765 -0.4159 -0.5201  0.4439
 4968TIP3    H236464   1.150   0.853   1.760 -0.1613  1.5379 -1.5337
 4969TIP3   OH236465   5.943   5.474   0.367 -0.0418 -0.7137 -0.6410
 4969TIP3    H136466   6.016   5.424   0.403 -0.0895  0.1827  0.7827
 4969TIP3    H236467   5.959   5.564   0.396 -0.9984 -0.2666 -1.4541
 4970TIP3   OH236468   6.695   3.847   8.453  0.1770 -0.3730  0.1881
 4970TIP3    H136469   6.763   3.789   8.489 -0.6658 -1.9674 -0.6558
 4970TIP3    H236470   6.670   3.806   8.370 -2.7889 -0.6717  1.1071
 4971TIP3   OH236471   1.038   2.651   7.585  0.1977 -0.5539 -0.2682
 4971TIP3    H136472   1.038   2.700   7.503 -3.0881 -0.1383 -0.1320
 4971TIP3    H236473   0.956   2.602   7.584  0.1832 -0.7595  2.6236
 4972TIP3   OH236474   2.287   5.952   1.802  0.0520  0.1538  0.4615
 4972TIP3    H136475   2.279   5.991   1.888 -1.3895  1.8676 -0.3940
 4972TIP3    H236476   2.369   5.903   1.805 -0.0501  0.0384  2.8254
 4973TIP3   OH236477   6.645   0.633   7.139  0.0454 -0.2179  1.0663
 4973TIP3    H136478   6.557   0.595   7.136 -0.9715  1.9435  1.3572
 4973TIP3    H236479   6.668   0.647   7.047 -0.6480  0.7134  1.0175
 4974TIP3   OH236480   4.932   2.941   8.584 -0.4358 -0.0787 -0.4852
 4974TIP3    H136481   4.982   2.995   8.645 -1.0047 -0.2070  0.1089
 4974TIP3    H236482   4.875   2.888   8.640  1.4847 -2.7780 -0.8963
 4975TIP3   OH236483   4.904   0.487   1.940  0.1916 -0.1516 -0.4950
 4975TIP3    H136484   4.854   0.503   2.020  0.1642  0.1479 -0.5725
 4975TIP3    H236485   4.840   0.453   1.878  0.1723 -0.1891 -0.4549
 4976TIP3   OH236486   2.338   3.940   0.230  0.0759  0.0259 -0.1852
 4976TIP3    H136487   2.310   3.976   0.146 -2.6627  1.0911  1.0603
 4976TIP3    H236488   2.274   3.872   0.250  1.0499 -0.6597  0.7662
 4977TIP3   OH236489   6.061   1.905   2.826  0.0673  0.2206  0.3112
 4977TIP3    H136490   6.036   1.955   2.748  1.0868 -0.9805 -0.8467
 4977TIP3    H236491   5.985   1.852   2.847  0.0474 -0.0320 -0.3726
 4978TIP3   OH236492   4.073   4.245   6.807  0.5521 -0.0048  0.1949
 4978TIP3    H136493   4.070   4.215   6.898 -0.9331  0.1920  0.2310
 4978TIP3    H236494   4.007   4.192   6.762  2.0056 -0.8537 -1.0278
 4979TIP3   OH236495   1.768   5.605   8.072  0.1564 -0.0012  0.3419
 4979TIP3    H136496   1.679   5.577   8.052 -0.1700  1.6202 -0.6160
 4979TIP3    H236497   1.778   5.586   8.166 -0.7613 -1.2704  0.2077
 4980TIP3   OH236498   3.667   3.431   7.616 -0.0531 -0.1078  0.2098
 4980TIP3    H136499   3.748   3.469   7.582  0.0949 -0.3675  0.2759
 4980TIP3    H236500   3.686   3.338   7.628 -1.2293 -0.8353 -2.6409
 4981TIP3   OH236501   4.351   0.106   8.972 -0.3547  0.0345  0.1383
 4981TIP3    H136502   4.433   0.142   9.006  0.3742  0.0023 -1.4861
 4981TIP3    H236503   4.323   0.170   8.906 -0.0405 -1.3690 -1.4456
 4982TIP3   OH236504   0.935   4.517   2.673  0.3961 -0.0964  0.4528
 4982TIP3    H136505   0.894   4.435   2.701  0.9553 -0.0240  1.5517
 4982TIP3    H236506   0.867   4.583   2.686  0.6854 -0.0431  1.8356
 4983TIP3   OH236507   3.546   3.336   8.726 -0.0475  0.0187  0.2730
 4983TIP3    H136508   3.638   3.331   8.700 -0.1162 -0.6083  0.1547
 4983TIP3    H236509   3.539   3.420   8.772  0.0534  1.2500 -1.8062
 4984TIP3   OH236510   1.867   4.393   0.754  0.3359  0.2811  0.2590
 4984TIP3    H136511   1.915   4.325   0.707 -0.3244  0.8464 -1.3005
 4984TIP3    H236512   1.933   4.440   0.804  1.3386  0.6579 -1.3512
 4985TIP3   OH236513   5.693   2.944   2.609  0.2042 -0.2353 -0.5927
 4985TIP3    H136514   5.614   2.932   2.663  0.7849  0.4654  0.4318
 4985TIP3    H236515   5.684   2.878   2.540 -1.7620  0.4778 -1.0840
 4986TIP3   OH236516   2.658   0.406   0.331 -0.0242  0.0871  0.3380
 4986TIP3    H136517   2.676   0.313   0.322 -0.1164  0.2724 -2.9833
 4986TIP3    H236518   2.584   0.410   0.391  1.5402 -1.7278  2.5490
 4987TIP3   OH236519   4.963   1.329   1.223 -0.8164 -0.4897  0.3600
 4987TIP3    H136520   4.932   1.420   1.230  0.6334  0.1266 -0.6778
 4987TIP3    H236521   5.007   1.313   1.306 -1.6372 -0.4859  0.8096
 4988TIP3   OH236522   1.921   2.251   1.233  0.2025  0.1591 -0.1407
 4988TIP3    H136523   1.857   2.319   1.212 -0.0054  0.3907  1.1534
 4988TIP3    H236524   1.933   2.258   1.328 -0.2077 -1.9515  0.1165
 4989TIP3   OH236525   0.542   5.110   0.625  0.2846  0.4120  0.4718
 4989TIP3    H136526   0.582   5.028   0.653 -0.8665 -0.4763 -0.4216
 4989TIP3    H236527   0.616   5.165   0.599  0.9715 -1.6369 -2.3793
 4990TIP3   OH236528   0.324   0.348   2.604 -0.5012 -0.2071  0.5150
 4990TIP3    H136529   0.282   0.408   2.542  1.1885  0.2609 -0.2257
 4990TIP3    H236530   0.305   0.386   2.690  0.7908  1.6327  0.0451
 4991TIP3   OH236531   0.148   1.538   7.475 -0.4404 -0.0863  0.1815
 4991TIP3    H136532   0.148   1.490   7.392  0.3895  0.8445 -0.3899
 4991TIP3    H236533   0.182   1.476   7.539 -1.7291 -1.0331 -0.0219
 4992TIP3   OH236534   4.636   2.621   2.358 -0.4146 -0.2980  0.3764
 4992TIP3    H136535   4.731   2.633   2.369 -0.1117  0.7241 -2.4262
 4992TIP3    H236536   4.628   2.556   2.287 -1.7748  0.2578 -0.0138
 4993TIP3   OH236537   5.195   2.212   2.146 -0.4540 -0.1236 -0.0697
 4993TIP3    H136538   5.232   2.132   2.109  0.2214 -0.2413  0.8244
 4993TIP3    H236539   5.196   2.275   2.075  1.3747 -0.1563 -0.1058
 4994TIP3   OH236540   0.677   6.656   1.144 -0.3318  0.4440  0.2214
 4994TIP3    H136541   0.672   6.560   1.140 -1.4389  0.5102 -0.4470
 4994TIP3    H236542   0.676   6.677   1.237 -0.7427 -0.1624  0.3546
 4995TIP3   OH236543   4.388   3.052   0.433 -0.2741 -0.1432  0.4233
 4995TIP3    H136544   4.461   3.085   0.485  0.0090  0.4933 -0.3585
 4995TIP3    H236545   4.428   3.025   0.350 -0.5557 -2.1286  0.8804
 4996TIP3   OH236546   2.657   5.652   8.142 -0.2677 -0.4794 -0.1040
 4996TIP3    H136547   2.638   5.623   8.231 -0.3192 -0.0916  0.0110
 4996TIP3    H236548   2.694   5.740   8.153  0.9895 -0.9480 -0.3585
 4997TIP3   OH236549   3.796   6.299   1.913  0.5761  0.5613 -0.3178
 4997TIP3    H136550   3.777   6.263   1.826  2.8259 -1.7193  0.0173
 4997TIP3    H236551   3.875   6.253   1.941 -0.9213  0.0279  3.5930
 4998TIP3   OH236552   0.904   1.584   0.459 -0.3674 -0.0307  0.5461
 4998TIP3    H136553   0.821   1.552   0.495 -1.3254  0.1218 -1.4165
 4998TIP3    H236554   0.904   1.677   0.479  0.4271 -0.3882  2.4951
 4999TIP3   OH236555   1.772   3.148   2.932  0.5044  0.2299 -0.3141
 4999TIP3    H136556   1.759   3.101   2.850  0.0451 -1.1000  0.4829
 4999TIP3    H236557   1.832   3.219   2.910  0.1725  0.0687 -1.8429
 5000TIP3   OH236558   5.260   1.529   8.720 -0.0742 -0.4420 -0.1876
 5000TIP3    H136559   5.238   1.622   8.714  2.5635  0.4058  1.3979
 5000TIP3    H236560   5.221   1.501   8.803  0.6028 -0.2437  0.2072
 5001TIP3   OH236561   5.602   1.302   8.483  0.2718  0.6857  0.5258
 5001TIP3    H136562   5.508   1.285   8.494  0.4716  0.5884  2.3039
 5001TIP3    H236563   5.611   1.396   8.494  0.1341  1.0381 -1.8967
 5002TIP3   OH236564   1.353   5.211   1.286  0.3248 -0.1380 -0.2044
 5002TIP3    H136565   1.307   5.288   1.254 -2.0661 -1.2638  0.2708
 5002TIP3    H236566   1.283   5.150   1.310  2.1055 -1.9702  0.6189
 5003TIP3   OH236567   2.734   0.083   7.541  0.6579  0.8849 -0.3858
 5003TIP3    H136568   2.806   0.068   7.479 -0.1460  1.5439 -1.5122
 5003TIP3    H236569   2.687   0.001   7.543  0.7866  0.8069 -0.5165
 5004TIP3   OH236570   4.006   0.578   0.209 -0.1267 -0.1811 -0.3087
 5004TIP3    H136571   3.923   0.586   0.257  0.4917 -2.5578  1.3129
 5004TIP3    H236572   3.980   0.551   0.121 -1.0903 -0.6489  0.1051
 5005TIP3   OH236573   4.158   4.320   1.994 -0.0299  0.0018 -0.2791
 5005TIP3    H136574   4.189   4.229   1.998 -0.8150 -0.3253 -1.5127
 5005TIP3    H236575   4.063   4.314   1.994 -0.0913  0.8317 -0.5088
 5006TIP3   OH236576   5.989   6.688   1.653 -0.0969 -1.0301  0.0357
 5006TIP3    H136577   6.079   6.697   1.684  0.2903  0.1754 -1.2920
 5006TIP3    H236578   5.996   6.634   1.574 -0.5203 -0.9638 -0.0511
 5007TIP3   OH236579   2.743   5.125   1.234 -0.2255 -0.0302  0.0814
 5007TIP3    H136580   2.685   5.080   1.295 -2.3914  1.9844 -0.3477
 5007TIP3    H236581   2.690   5.197   1.199  1.9233  0.7303 -1.8647
 5008TIP3   OH236582   6.093   3.176   1.871 -0.1033  0.3745  0.2635
 5008TIP3    H136583   6.088   3.087   1.835  1.0907  0.9738 -1.5483
 5008TIP3    H236584   6.128   3.164   1.959 -0.6357 -0.9996  0.3160
 5009TIP3   OH236585   6.426   6.180   0.211  0.1507  0.0874  0.4489
 5009TIP3    H136586   6.476   6.100   0.193  2.4282  1.5339 -0.0212
 5009TIP3    H236587   6.409   6.177   0.306 -1.9991 -2.0782  0.1014
 5010TIP3   OH236588   6.511   3.144   7.892  0.9616  0.3239 -0.0379
 5010TIP3    H136589   6.539   3.135   7.801  0.5434 -0.9582 -0.0512
 5010TIP3    H236590   6.583   3.108   7.943  0.1466 -1.3062  0.0056
 5011TIP3   OH236591   3.273   4.270   7.606  0.3353  0.2137 -0.2544
 5011TIP3    H136592   3.306   4.348   7.650  1.8767 -0.2586 -0.5173
 5011TIP3    H236593   3.230   4.303   7.527  0.6864  0.8193 -0.1993
 5012TIP3   OH236594   0.167   5.302   7.826 -0.4667 -0.2766  0.4935
 5012TIP3    H136595   0.183   5.259   7.742  0.7630  0.2503  0.4336
 5012TIP3    H236596   0.094   5.362   7.809 -1.5060 -1.5631  0.3189
 5013TIP3   OH236597   1.064   1.966   1.143 -0.7464  0.0755  0.1202
 5013TIP3    H136598   0.970   1.980   1.141 -0.7456  0.9092  2.3995
 5013TIP3    H236599   1.075   1.872   1.130 -1.8752 -0.0041 -0.3294
 5014TIP3   OH236600   4.094   1.425   2.031  0.6358 -0.0852  0.0274
 5014TIP3    H136601   4.094   1.520   2.025  1.7846 -0.0701  0.1914
 5014TIP3    H236602   4.185   1.401   2.047  0.3162 -1.1963  0.2892
 5015TIP3   OH236603   6.669   3.063   0.128  0.0324 -0.0642  0.0842
 5015TIP3    H136604   6.758   3.076   0.159 -0.8429  0.2711  2.7006
 5015TIP3    H236605   6.636   3.151   0.111 -0.2767 -0.0556  0.6822
 5016TIP3   OH236606   4.026   6.124   8.107  0.5850  0.1840 -0.5683
 5016TIP3    H136607   3.936   6.104   8.084  1.3272 -2.1052 -1.8192
 5016TIP3    H236608   4.035   6.218   8.090 -1.2558  0.2476 -1.4144
 5017TIP3   OH236609   2.260   1.807   1.436  0.4588 -0.3229  0.1017
 5017TIP3    H136610   2.321   1.809   1.362 -0.6277 -2.1137 -0.9361
 5017TIP3    H236611   2.243   1.899   1.456 -0.1513  0.2973 -2.7420
 5018TIP3   OH236612   3.161   2.267   3.610 -0.0771 -0.5400 -0.0618
 5018TIP3    H136613   3.193   2.357   3.611 -1.3368 -0.0302 -1.5754
 5018TIP3    H236614   3.191   2.230   3.693  2.5143  0.5045 -0.4626
 5019TIP3   OH236615   4.054   1.498   8.575 -0.0973 -0.9258 -0.2315
 5019TIP3    H136616   4.061   1.583   8.534  2.0415 -0.8153  0.2754
 5019TIP3    H236617   4.041   1.437   8.503 -2.0184 -0.1776 -0.5667
 5020TIP3   OH236618   4.246   0.275   1.274  0.5471  0.3362 -0.5777
 5020TIP3    H136619   4.228   0.219   1.198 -0.3522  1.1886 -1.0116
 5020TIP3    H236620   4.331   0.315   1.255  0.4757  0.2958 -0.9840
 5021TIP3   OH236621   3.955   3.902   6.893 -0.2971  0.1517  0.3827
 5021TIP3    H136622   3.962   3.962   6.819 -0.9980  0.8168  0.8396
 5021TIP3    H236623   3.914   3.954   6.962 -0.0404 -0.5810  1.1018
 5022TIP3   OH236624   1.246   0.715   2.208 -0.2686  0.0227  0.6012
 5022TIP3    H136625   1.267   0.800   2.169  0.4239  0.3302  1.6151
 5022TIP3    H236626   1.160   0.727   2.247 -0.2388  0.2214  0.6079
 5023TIP3   OH236627   1.091   4.089   2.955  0.0661  0.0635 -0.0344
 5023TIP3    H136628   0.997   4.072   2.959 -0.1887  1.3577 -0.2291
 5023TIP3    H236629   1.131   4.011   2.993 -1.0385 -0.9136 -0.8088
 5024TIP3   OH236630   4.619   1.676   1.226 -0.0999  0.5022  0.6289
 5024TIP3    H136631   4.551   1.609   1.235  1.8347 -1.5244  0.8630
 5024TIP3    H236632   4.622   1.719   1.311 -1.7042  1.3049  0.3214
 5025TIP3   OH236633   3.951   3.115   8.870  0.0817 -0.0692  0.1196
 5025TIP3    H136634   3.875   3.135   8.925 -0.3706  0.6817 -0.7510
 5025TIP3    H236635   4.018   3.177   8.897  1.2901 -2.2394  2.5559
 5026TIP3   OH236636   5.330   3.426   2.331  0.1383  0.1478 -0.5046
 5026TIP3    H136637   5.245   3.389   2.357 -0.0577  0.9491  0.0213
 5026TIP3    H236638   5.394   3.380   2.386  0.0445 -0.3664 -0.8123
 5027TIP3   OH236639   1.370   5.654   8.270 -0.0247  0.3252 -0.2829
 5027TIP3    H136640   1.452   5.606   8.278 -0.2293  0.0573  0.2255
 5027TIP3    H236641   1.376   5.697   8.184  0.0210 -0.8814 -0.9092
 5028TIP3   OH236642   2.409   6.390   0.266 -0.2997 -0.4135 -0.1301
 5028TIP3    H136643   2.414   6.437   0.183 -0.4248 -1.2371 -0.6192
 5028TIP3    H236644   2.321   6.351   0.266  0.0857 -1.3192 -0.1240
 5029TIP3   OH236645   5.702   0.269   1.139  0.1285  0.3296  0.4137
 5029TIP3    H136646   5.790   0.255   1.104  0.2286  2.4327 -0.3646
 5029TIP3    H236647   5.675   0.352   1.100 -2.7819 -0.9132 -0.4428
 5030TIP3   OH236648   5.892   3.142   1.139 -0.1036 -0.3434  0.6406
 5030TIP3    H136649   5.917   3.167   1.229 -1.7485  1.4143  0.6880
 5030TIP3    H236650   5.974   3.145   1.090  0.4958  0.9885  1.6398
 5031TIP3   OH236651   3.496   3.720   0.103 -0.7004 -0.0153 -0.1783
 5031TIP3    H136652   3.539   3.797   0.142 -2.4740  0.6320  0.6003
 5031TIP3    H236653   3.402   3.736   0.115 -1.1277 -2.9831  1.3127
 5032TIP3   OH236654   1.371   6.257   1.617  0.3582  0.0596 -0.1161
 5032TIP3    H136655   1.401   6.231   1.704  1.8337 -0.8310 -0.8572
 5032TIP3    H236656   1.349   6.350   1.627 -0.2931 -0.2236  1.3844
 5033TIP3   OH236657   2.549   6.132   2.256 -0.2655  0.2908 -0.2544
 5033TIP3    H136658   2.563   6.087   2.339  0.2134 -0.6180 -0.8201
 5033TIP3    H236659   2.598   6.081   2.191 -0.9244  0.7731 -1.1664
 5034TIP3   OH236660   2.717   6.457   2.025  0.0033  0.1967 -0.1867
 5034TIP3    H136661   2.767   6.439   1.945 -0.8743 -1.4694 -0.4196
 5034TIP3    H236662   2.743   6.387   2.086 -2.0262 -0.8026 -0.3546
 5035TIP3   OH236663   2.848   5.931   7.371  0.3805  0.0625 -0.3140
 5035TIP3    H136664   2.810   6.012   7.336 -1.8027  0.1044  1.8419
 5035TIP3    H236665   2.896   5.959   7.449  0.4504 -0.5870 -0.1192
 5036TIP3   OH236666   0.589   0.156   0.510  0.0417  0.2072 -0.0815
 5036TIP3    H136667   0.579   0.200   0.594  1.3390  2.6894 -1.1127
 5036TIP3    H236668   0.500   0.143   0.478 -0.4380 -0.0710  1.3315
 5037TIP3   OH236669   1.138   3.383   1.342 -0.4921 -0.1249  0.2514
 5037TIP3    H136670   1.170   3.326   1.413  1.7839 -1.1401 -1.4580
 5037TIP3    H236671   1.114   3.322   1.272 -0.7617  0.9188 -0.5845
 5038TIP3   OH236672   4.944   4.624   7.181 -0.5771  0.0088 -0.6274
 5038TIP3    H136673   4.907   4.663   7.102 -1.0909 -1.8508 -1.3574
 5038TIP3    H236674   4.918   4.683   7.251 -0.9503  1.1847 -1.7174
 5039TIP3   OH236675   6.271   6.313   8.213 -0.2895 -0.0999  0.0989
 5039TIP3    H136676   6.176   6.310   8.226 -0.7510 -1.1389 -2.8283
 5039TIP3    H236677   6.305   6.243   8.269 -1.6613 -1.8451 -1.1463
 5040TIP3   OH236678   4.835   3.794   8.459  0.0505 -0.0638 -0.0525
 5040TIP3    H136679   4.820   3.739   8.536 -0.0355  0.5296  0.3661
 5040TIP3    H236680   4.756   3.849   8.454  0.9937  1.4448  0.7604
 5041TIP3   OH236681   4.411   6.018   1.140 -0.4860  0.1795  0.7344
 5041TIP3    H136682   4.361   5.955   1.190  1.3618 -0.5430  1.7770
 5041TIP3    H236683   4.378   6.011   1.051 -2.8418  0.4449  1.5281
 5042TIP3   OH236684   3.293   5.240   0.380  0.5538  0.1615 -0.0881
 5042TIP3    H136685   3.352   5.315   0.367  0.5541 -0.0214 -1.2852
 5042TIP3    H236686   3.323   5.176   0.316 -0.3585 -0.3022 -0.0564
 5043TIP3   OH236687   5.638   3.128   8.800  0.5249  0.5838  0.1786
 5043TIP3    H136688   5.613   3.191   8.733  0.9852 -0.7125 -1.2756
 5043TIP3    H236689   5.603   3.045   8.769  2.2347 -0.3629  0.6538
 5044TIP3   OH236690   2.570   5.036   0.008  0.1083  0.2686 -0.3127
 5044TIP3    H136691   2.579   4.942   0.024 -1.9117 -0.1516 -1.2655
 5044TIP3    H236692   2.475   5.051   0.012  0.4236  2.3293  0.1321
 5045TIP3   OH236693   1.661   3.882   2.641 -0.1887  0.3004  0.5016
 5045TIP3    H136694   1.689   3.865   2.731  0.5230  1.8599  0.5991
 5045TIP3    H236695   1.743   3.897   2.593 -0.6114  0.3192 -0.2296
 5046TIP3   OH236696   5.207   5.755   8.695  0.1534  0.5912  0.1119
 5046TIP3    H136697   5.144   5.800   8.751 -0.2669  1.7831 -1.2805
 5046TIP3    H236698   5.172   5.667   8.684 -0.8411  0.9906  0.0284
 5047TIP3   OH236699   2.072   0.162   8.478 -0.2661 -0.1906  0.3040
 5047TIP3    H136700   1.989   0.186   8.520 -0.7472  0.0618 -0.7623
 5047TIP3    H236701   2.054   0.165   8.384 -0.0113 -3.5074  0.0402
 5048TIP3   OH236702   3.107   1.674   7.632 -0.8631 -0.2372 -0.0582
 5048TIP3    H136703   3.113   1.579   7.646 -1.6156 -0.6420 -2.1212
 5048TIP3    H236704   3.028   1.685   7.579 -0.7250  1.5511  0.0616
 5049TIP3   OH236705   3.799   2.642   2.852  0.1229  0.1667 -0.0283
 5049TIP3    H136706   3.712   2.630   2.889 -0.0287  1.2518 -0.0058
 5049TIP3    H236707   3.855   2.658   2.928 -0.1142  1.9704 -0.1907
 5050TIP3   OH236708   2.003   5.846   0.961 -0.1734 -0.2995 -0.0677
 5050TIP3    H136709   2.056   5.818   1.036  1.7296 -1.7448 -1.8289
 5050TIP3    H236710   1.925   5.790   0.965  0.1638 -0.7344  0.5451
 5051TIP3   OH236711   5.968   4.076   0.214  0.0459  0.1352  0.0303
 5051TIP3    H136712   6.054   4.050   0.246  0.4160 -2.0957 -2.4305
 5051TIP3    H236713   5.984   4.155   0.163  0.4422  0.2694  0.3582
 5052TIP3   OH236714   1.168   0.288   7.822 -0.1511 -0.2467 -0.2750
 5052TIP3    H136715   1.109   0.314   7.752  0.2386  1.5138  0.0172
 5052TIP3    H236716   1.217   0.214   7.786  0.0217  0.5959 -1.8322
 5053TIP3   OH236717   6.471   2.454   0.459 -0.4972 -0.6301  0.1481
 5053TIP3    H136718   6.376   2.453   0.457 -0.5055  0.4852 -1.0841
 5053TIP3    H236719   6.497   2.497   0.378  1.0206  0.4539  1.1405
 5054TIP3   OH236720   6.358   1.142   2.334 -1.1562  0.5308 -0.2935
 5054TIP3    H136721   6.305   1.167   2.259 -1.6774  0.4557  0.0424
 5054TIP3    H236722   6.378   1.050   2.320  0.3187  0.9625 -1.2652
 5055TIP3   OH236723   2.877   1.016   8.152 -0.2446  0.0614 -0.2042
 5055TIP3    H136724   2.819   1.091   8.137 -0.6187 -0.6069 -2.3700
 5055TIP3    H236725   2.846   0.978   8.234 -0.3593  1.9478  0.6947
 5056TIP3   OH236726   5.550   3.300   8.595  0.2766  0.0820  0.7793
 5056TIP3    H136727   5.610   3.346   8.537  0.9901 -1.3868  0.2829
 5056TIP3    H236728   5.475   3.358   8.604  0.1762  0.4202 -1.5603
 5057TIP3   OH236729   5.630   2.241   1.098  0.1304 -0.7184  0.1294
 5057TIP3    H136730   5.665   2.193   1.023  0.8777 -1.0711  0.6934
 5057TIP3    H236731   5.551   2.284   1.064  1.3441  0.4931 -1.2948
 5058TIP3   OH236732   4.760   1.575   8.383 -0.1743 -0.2688 -0.5352
 5058TIP3    H136733   4.827   1.515   8.414 -0.9329 -0.9714 -0.2051
 5058TIP3    H236734   4.734   1.541   8.298  0.0135  0.1040 -0.7421
 5059TIP3   OH236735   4.845   3.927   1.819  0.0037 -0.0913  0.8849
 5059TIP3    H136736   4.935   3.932   1.788  0.5865 -1.9019  2.0826
 5059TIP3    H236737   4.837   3.999   1.882  0.9415 -0.4834  1.4802
 5060TIP3   OH236738   3.657   1.718   8.070 -0.4974 -0.3439 -0.2320
 5060TIP3    H136739   3.581   1.770   8.043 -1.2121  0.0671  2.2814
 5060TIP3    H236740   3.641   1.631   8.035 -0.9260  0.2970 -1.7195
 5061TIP3   OH236741   6.702   5.541   1.431  0.5027 -0.2703 -0.3688
 5061TIP3    H136742   6.712   5.456   1.389  2.1812 -0.5839  0.5902
 5061TIP3    H236743   6.791   5.575   1.439  0.1723  0.2214  1.9304
 5062TIP3   OH236744   1.680   4.804   8.059  0.9074  0.0362  0.5081
 5062TIP3    H136745   1.697   4.778   8.150 -0.5229 -1.1583  0.4601
 5062TIP3    H236746   1.748   4.759   8.009  2.5936  1.8089  1.0611
 5063TIP3   OH236747   3.420   3.326   0.933  0.4181 -0.4650  0.0246
 5063TIP3    H136748   3.439   3.418   0.917 -1.3303 -0.3569 -1.8102
 5063TIP3    H236749   3.478   3.279   0.874 -0.6140 -0.3921 -1.0770
 5064TIP3   OH236750   3.427   3.606   7.647  0.1619 -0.5574  0.2003
 5064TIP3    H136751   3.415   3.695   7.616  1.1827 -0.3717  0.3041
 5064TIP3    H236752   3.521   3.590   7.639 -0.1820 -2.1714 -1.3200
 5065TIP3   OH236753   6.411   4.131   7.561 -0.4756 -0.1623  0.1264
 5065TIP3    H136754   6.352   4.066   7.600 -0.6817 -0.0060  0.0746
 5065TIP3    H236755   6.397   4.122   7.467 -0.8892  0.3143  0.1372
 5066TIP3   OH236756   2.108   5.657   8.295 -0.3305 -0.1424  0.5259
 5066TIP3    H136757   2.189   5.707   8.281 -0.0324 -0.2151  1.8382
 5066TIP3    H236758   2.076   5.638   8.207  0.9156  0.1655 -0.0201
 5067TIP3   OH236759   5.197   4.357   2.499  0.2975 -0.4216 -0.5574
 5067TIP3    H136760   5.164   4.437   2.541  2.1418  1.1499 -1.9089
 5067TIP3    H236761   5.146   4.350   2.419 -1.1628 -1.7404  0.4246
 5068TIP3   OH236762   4.605   4.463   0.149 -0.5028  0.4183  0.0773
 5068TIP3    H136763   4.665   4.481   0.221  0.9388  1.2839 -1.2542
 5068TIP3    H236764   4.658   4.477   0.070 -2.3538  0.8206 -1.1687
 5069TIP3   OH236765   6.218   2.362   0.694  0.3547  0.2033  0.5650
 5069TIP3    H136766   6.239   2.276   0.658  1.2862  1.0266 -0.9473
 5069TIP3    H236767   6.211   2.419   0.618  1.4942  1.8333  1.6236
 5070TIP3   OH236768   4.137   2.902   8.506 -0.0463 -0.3058  0.0057
 5070TIP3    H136769   4.137   2.957   8.584 -0.9342 -1.2735  0.7113
 5070TIP3    H236770   4.047   2.873   8.497  0.5098 -2.2178  0.0860
 5071TIP3   OH236771   3.574   3.793   2.146 -0.4795  0.2786  0.1819
 5071TIP3    H136772   3.657   3.762   2.112 -0.7203  0.3723 -0.5036
 5071TIP3    H236773   3.594   3.824   2.235  0.6259  2.1334 -0.6671
 5072TIP3   OH236774   1.781   1.016   2.503  0.2825  0.3160 -0.0195
 5072TIP3    H136775   1.835   0.947   2.542 -0.1727 -0.2151 -0.3356
 5072TIP3    H236776   1.777   0.995   2.410 -0.5139  0.3271  0.0088
 5073TIP3   OH236777   4.731   4.313   1.218 -0.2882 -0.4141 -0.1860
 5073TIP3    H136778   4.684   4.268   1.289 -0.9205  0.8842  0.2465
 5073TIP3    H236779   4.804   4.356   1.261 -1.4651  1.5508 -0.0231
 5074TIP3   OH236780   2.670   5.382   2.641 -0.0920 -0.0333 -0.0490
 5074TIP3    H136781   2.695   5.304   2.691 -2.3353 -1.6155 -1.2357
 5074TIP3    H236782   2.739   5.391   2.576 -0.2366 -1.6167 -0.4730
 5075TIP3   OH236783   5.908   1.604   2.429  0.6273 -0.4150  0.1050
 5075TIP3    H136784   6.002   1.613   2.444  0.6382  0.3731 -0.3467
 5075TIP3    H236785   5.877   1.695   2.422  0.0738 -0.6906 -1.1935
 5076TIP3   OH236786   4.674   3.805   1.338  0.0043 -0.6496  0.0741
 5076TIP3    H136787   4.683   3.890   1.295 -0.0633 -0.8993 -0.4306
 5076TIP3    H236788   4.595   3.766   1.301 -0.4967 -0.5414  0.9863
 5077TIP3   OH236789   4.522   4.019   0.540 -0.1421  0.0022 -0.2788
 5077TIP3    H136790   4.511   3.928   0.566 -0.9460 -0.0840 -0.8905
 5077TIP3    H236791   4.575   4.015   0.460 -0.5514  0.0343 -0.5563
 5078TIP3   OH236792   5.088   0.394   0.483  0.0884  0.8398 -0.0907
 5078TIP3    H136793   5.149   0.441   0.539  0.5522 -0.7069  0.7612
 5078TIP3    H236794   5.002   0.425   0.511  0.3457  0.6002  1.0348
 5079TIP3   OH236795   5.248   5.122   0.470  0.4391  0.5185 -0.0279
 5079TIP3    H136796   5.317   5.059   0.491 -0.1687 -2.0032 -4.3487
 5079TIP3    H236797   5.167   5.076   0.491  0.0312  0.6821 -1.1562
 5080TIP3   OH236798   3.383   3.093   8.111  0.5687  0.3813  0.0537
 5080TIP3    H136799   3.381   3.075   8.017  0.1462 -2.0818  0.4854
 5080TIP3    H236800   3.293   3.083   8.140  0.5939  1.6561  0.6818
 5081TIP3   OH236801   0.847   5.571   1.938  0.2062  0.0184  0.4075
 5081TIP3    H136802   0.835   5.483   1.974  0.1928 -0.8167 -1.5259
 5081TIP3    H236803   0.759   5.609   1.936 -0.3742 -1.2878 -1.9621
 5082TIP3   OH236804   6.644   1.224   8.931  0.4486 -0.0563 -0.1977
 5082TIP3    H136805   6.631   1.288   8.860  1.2235  1.0848  0.6464
 5082TIP3    H236806   6.576   1.246   8.995 -0.6808 -1.5155 -0.8533
 5083TIP3   OH236807   5.066   5.781   1.139 -0.0450 -0.4891  0.1990
 5083TIP3    H136808   5.127   5.825   1.080 -0.6293  1.0835  0.7169
 5083TIP3    H236809   5.122   5.736   1.203  0.5763  0.1694  0.1269
 5084TIP3   OH236810   6.519   4.266   2.234  0.3750 -0.7931  0.5879
 5084TIP3    H136811   6.457   4.314   2.288  0.1570 -1.1298  0.6425
 5084TIP3    H236812   6.466   4.198   2.191  0.1980  0.5395 -1.4280
 5085TIP3   OH236813   5.519   2.553   2.720  0.6302 -0.6142 -0.2294
 5085TIP3    H136814   5.460   2.556   2.795 -0.6566 -0.1706 -1.2306
 5085TIP3    H236815   5.607   2.563   2.758 -0.0270  0.0499  1.1729
 5086TIP3   OH236816   1.251   2.657   8.579  0.3683 -0.2705  0.9360
 5086TIP3    H136817   1.242   2.746   8.545 -1.0772 -0.1146  1.6444
 5086TIP3    H236818   1.261   2.667   8.673  1.2874 -0.8306  0.9159
 5087TIP3   OH236819   2.358   4.225   8.022  0.4065  0.5523 -0.4856
 5087TIP3    H136820   2.407   4.145   8.044  0.1484  0.6431  0.4656
 5087TIP3    H236821   2.306   4.244   8.101  0.8546  1.9432 -0.4951
 5088TIP3   OH236822   3.149   0.769   1.053  0.0142  0.0002  0.0798
 5088TIP3    H136823   3.210   0.722   0.997 -1.8696 -0.3432 -1.8180
 5088TIP3    H236824   3.135   0.853   1.010 -1.1185 -0.0852  0.2386
 5089TIP3   OH236825   0.611   6.734   2.830  0.1276  0.4145  0.2033
 5089TIP3    H136826   0.679   6.793   2.797 -0.2673  0.2742 -0.9180
 5089TIP3    H236827   0.553   6.790   2.881  1.1145  0.5226  1.2478
 5090TIP3   OH236828   3.561   6.662   3.057 -0.1251 -0.4282 -0.5059
 5090TIP3    H136829   3.592   6.670   2.967 -0.3267  1.9522 -0.4279
 5090TIP3    H236830   3.639   6.679   3.111 -0.7452  2.0918 -0.2977
 5091TIP3   OH236831   6.415   3.662   8.438  0.0191  0.1483 -0.1976
 5091TIP3    H136832   6.327   3.629   8.457 -0.5975  1.6762 -0.2829
 5091TIP3    H236833   6.417   3.749   8.476  1.1589  0.5369 -1.0781
 5092TIP3   OH236834   4.928   0.027   0.791 -0.2768 -0.0101 -0.0853
 5092TIP3    H136835   4.884  -0.027   0.858  0.7302 -0.0801  0.5388
 5092TIP3    H236836   4.940   0.111   0.834  0.4992 -0.0964 -0.1274
 5093TIP3   OH236837   5.826   1.268   0.512 -0.1179 -0.0366  0.1088
 5093TIP3    H136838   5.800   1.235   0.426  1.7431  2.5933 -1.6468
 5093TIP3    H236839   5.792   1.204   0.575  0.9748 -3.6955 -2.6975
 5094TIP3   OH236840   4.601   4.723   0.730  0.0640 -0.5493  0.0016
 5094TIP3    H136841   4.624   4.630   0.732 -1.0803 -0.8714 -0.8915
 5094TIP3    H236842   4.553   4.734   0.648 -0.3595  0.6918  0.3988
 5095TIP3   OH236843   2.182   1.700   7.910  0.9482  0.2100 -0.1774
 5095TIP3    H136844   2.249   1.684   7.843  0.4964 -0.5742 -0.4609
 5095TIP3    H236845   2.101   1.666   7.871  0.5997  0.1151  0.6079
 5096TIP3   OH236846   2.192   3.057   2.581  0.4832 -0.0085 -0.2060
 5096TIP3    H136847   2.112   3.005   2.577  1.6713 -1.8885 -1.1223
 5096TIP3    H236848   2.221   3.050   2.672  0.0075  0.0351 -0.0527
 5097TIP3   OH236849   4.099   2.973   0.612  0.2141 -0.4114  0.1833
 5097TIP3    H136850   4.057   2.893   0.642  1.2237 -0.6634  0.9799
 5097TIP3    H236851   4.077   2.978   0.519 -0.5280 -1.1754  0.3017
 5098TIP3   OH236852   5.211   4.563   7.204 -0.0432 -0.8526 -0.2080
 5098TIP3    H136853   5.122   4.589   7.227  1.2335  1.0982  3.1742
 5098TIP3    H236854   5.226   4.602   7.118 -1.7595  0.5826  0.0948
 5099TIP3   OH236855   5.889   2.111   2.960 -0.1395 -0.1200 -0.0584
 5099TIP3    H136856   5.818   2.153   3.009 -1.4325 -1.7957 -0.3883
 5099TIP3    H236857   5.953   2.086   3.026  0.3896  1.8024  0.1999
 5100TIP3   OH236858   1.049   5.104   8.104  0.6726 -0.0184  0.3347
 5100TIP3    H136859   1.104   5.056   8.041  0.7100 -0.2808  0.5638
 5100TIP3    H236860   0.961   5.071   8.088  0.8271 -0.8559  1.1162
 5101TIP3   OH236861   2.242   6.760   1.687 -0.1817 -0.5212  0.2576
 5101TIP3    H136862   2.179   6.830   1.669  0.2885  0.1707  1.2615
 5101TIP3    H236863   2.208   6.685   1.637 -0.7731  0.3566 -0.7106
 5102TIP3   OH236864   3.896   3.842   1.650  0.5165  0.0580 -0.7768
 5102TIP3    H136865   3.847   3.771   1.691 -0.1738  1.1877  0.4103
 5102TIP3    H236866   3.987   3.815   1.656  0.2669 -0.7203 -0.3308
 5103TIP3   OH236867   2.815   4.015   1.724 -0.5065  0.6289 -0.5322
 5103TIP3    H136868   2.854   4.059   1.649 -0.1589 -1.2106 -1.4874
 5103TIP3    H236869   2.788   3.930   1.691  1.3936 -1.0378  1.8192
 5104TIP3   OH236870   0.460   4.115   8.835  0.3039 -0.4120 -0.2242
 5104TIP3    H136871   0.509   4.063   8.771  0.8381 -1.2853  0.8754
 5104TIP3    H236872   0.511   4.196   8.844  1.0029 -0.8865  0.1558
 5105TIP3   OH236873   1.597   3.122   1.084 -0.2655  0.0622 -0.3918
 5105TIP3    H136874   1.508   3.143   1.109 -0.3742  0.5887 -1.1664
 5105TIP3    H236875   1.593   3.109   0.989  0.3820 -0.4156 -0.3639
 5106TIP3   OH236876   1.031   2.382   7.789  0.0877 -0.5512  0.3161
 5106TIP3    H136877   0.977   2.303   7.785 -0.9274  0.1556 -0.3273
 5106TIP3    H236878   0.983   2.447   7.738  1.7447  0.0016 -0.6291
 5107TIP3   OH236879   6.503   5.376   7.581 -0.0919 -0.2932  0.1735
 5107TIP3    H136880   6.542   5.462   7.596 -1.5026 -0.0017  2.7334
 5107TIP3    H236881   6.478   5.377   7.489  0.3363  1.8474  0.0312
 5108TIP3   OH236882   5.242   0.298   1.091 -0.0269  0.4823  0.3021
 5108TIP3    H136883   5.278   0.215   1.123 -0.6303 -0.0878 -0.4853
 5108TIP3    H236884   5.270   0.302   1.000  1.5194  2.0107  0.7901
 5109TIP3   OH236885   2.639   1.887   8.577 -0.2243 -0.4417  0.0926
 5109TIP3    H136886   2.576   1.828   8.621 -1.6847 -0.1689 -1.5267
 5109TIP3    H236887   2.584   1.944   8.524  1.3983  0.1668 -0.9724
 5110TIP3   OH236888   5.558   2.579   1.199  0.3422  0.6261 -0.7795
 5110TIP3    H136889   5.578   2.569   1.292 -1.8251  0.3360 -0.2866
 5110TIP3    H236890   5.596   2.664   1.175  3.1330 -0.3786 -0.3471
 5111TIP3   OH236891   3.477   3.733   0.847 -0.0627  0.4701 -0.4644
 5111TIP3    H136892   3.493   3.645   0.881  0.3317  0.0190 -1.7816
 5111TIP3    H236893   3.437   3.780   0.921  0.8940 -0.4275  0.6547
 5112TIP3   OH236894   2.151   4.221   3.073 -0.0900 -0.0495 -0.3957
 5112TIP3    H136895   2.167   4.151   3.009 -0.7415  1.6441 -2.5261
 5112TIP3    H236896   2.234   4.268   3.078  0.2038 -0.6545  0.6711
 5113TIP3   OH236897   0.574   2.740   2.354 -0.2416  0.4795  0.1707
 5113TIP3    H136898   0.545   2.746   2.263 -0.4251  1.2289  0.2704
 5113TIP3    H236899   0.667   2.763   2.351 -0.6036  2.0546  0.3609
 5114TIP3   OH236900   4.849   0.587   0.298  0.6648 -0.4518 -0.1574
 5114TIP3    H136901   4.854   0.506   0.348  1.6319 -0.2780  0.0577
 5114TIP3    H236902   4.930   0.634   0.320  0.4134  0.2902 -0.7530
 5115TIP3   OH236903   4.894   4.161   6.676 -0.2511  0.1974  0.6563
 5115TIP3    H136904   4.823   4.226   6.681  0.0683  0.4924  1.7240
 5115TIP3    H236905   4.859   4.085   6.724 -0.2622 -0.0632  0.2339
 5116TIP3   OH236906   3.962   6.376   7.870  0.3757 -0.1244 -0.4186
 5116TIP3    H136907   3.875   6.400   7.901  0.4600 -1.5087  0.9799
 5116TIP3    H236908   4.018   6.382   7.948  2.1008  2.9523 -1.6805
 5117TIP3   OH236909   3.348   6.764   8.292  0.0223  0.7558  0.2005
 5117TIP3    H136910   3.378   6.854   8.297  0.3602  0.6233  0.5876
 5117TIP3    H236911   3.264   6.769   8.245 -0.2249  1.3297  0.6919
 5118TIP3   OH236912   3.685   4.922   8.179 -0.7867  0.0063 -0.2182
 5118TIP3    H136913   3.662   4.841   8.225 -1.7923 -0.5530 -1.6293
 5118TIP3    H236914   3.771   4.903   8.141 -0.9310 -0.3436 -0.3807
 5119TIP3   OH236915   4.077   0.962   1.569 -0.0443  0.0019 -0.5141
 5119TIP3    H136916   4.153   0.917   1.605  0.8304  0.8113 -1.2893
 5119TIP3    H236917   4.014   0.966   1.642  0.1004 -1.8490 -0.2429
 5120TIP3   OH236918   3.338   3.866   1.480 -0.4978  0.3035 -0.2047
 5120TIP3    H136919   3.427   3.899   1.465 -0.1567 -1.2934 -2.0121
 5120TIP3    H236920   3.334   3.854   1.575  2.1079 -1.7780 -0.2161
 5121TIP3   OH236921   4.019   6.188   7.116 -0.2218  0.3048 -0.6768
 5121TIP3    H136922   4.095   6.178   7.058  1.0252 -1.2435  1.1027
 5121TIP3    H236923   4.053   6.234   7.192 -2.0193  3.0565 -1.3860
 5122TIP3   OH236924   0.962   1.639   8.830  0.6962  0.0658  0.0350
 5122TIP3    H136925   0.938   1.548   8.845  1.7318 -0.7404 -2.5947
 5122TIP3    H236926   0.879   1.686   8.832  0.0850 -0.9929  0.8922
 5123TIP3   OH236927   1.413   2.009   2.468  0.0976 -0.1023 -0.6039
 5123TIP3    H136928   1.338   2.051   2.511  1.3719 -0.7972  2.5549
 5123TIP3    H236929   1.457   2.081   2.423 -2.1597  0.3913 -2.1876
 5124TIP3   OH236930   5.964   0.202   1.088 -0.0471  0.4518  0.4951
 5124TIP3    H136931   6.008   0.274   1.043 -1.7954  0.9323 -0.5292
 5124TIP3    H236932   5.990   0.124   1.039  2.0620  0.2727  1.7645
 5125TIP3   OH236933   1.051   6.539   2.895  0.1249 -1.0013  0.1238
 5125TIP3    H136934   1.085   6.586   2.971  1.7566 -2.0104  0.0796
 5125TIP3    H236935   1.020   6.455   2.931  0.2886 -1.2103 -0.2170
 5126TIP3   OH236936   5.154   4.228   0.070  0.6429  0.9441  0.4105
 5126TIP3    H136937   5.144   4.290  -0.002  0.8708  0.2326 -0.2593
 5126TIP3    H236938   5.223   4.168   0.039 -1.1766 -1.0591 -0.0185
 5127TIP3   OH236939   2.898   0.472   0.181 -0.7074 -0.3909 -0.2435
 5127TIP3    H136940   2.888   0.530   0.105  0.9653  0.7919  0.3598
 5127TIP3    H236941   2.812   0.470   0.222 -1.2110  0.3098 -1.2238
 5128TIP3   OH236942   6.391   4.734   2.445 -0.0820 -0.0404  0.0727
 5128TIP3    H136943   6.361   4.787   2.372 -1.3731  1.4555  1.6117
 5128TIP3    H236944   6.318   4.676   2.465  0.3031 -0.5179  0.1148
 5129TIP3   OH236945   1.631   0.347   0.808 -0.7550 -0.1047  0.4618
 5129TIP3    H136946   1.578   0.267   0.803 -0.1817 -0.4049 -1.7594
 5129TIP3    H236947   1.721   0.318   0.795 -0.5482  0.9112 -0.5109
 5130TIP3   OH236948   0.365   2.377   7.702 -0.1544  0.0571 -0.0991
 5130TIP3    H136949   0.429   2.305   7.702  1.1638  1.1731  0.5445
 5130TIP3    H236950   0.288   2.341   7.660  0.5989 -1.6268 -0.1081
 5131TIP3   OH236951   6.327   0.685   1.963 -0.2025 -0.1125  0.4157
 5131TIP3    H136952   6.393   0.724   2.021 -1.8048  0.4360  1.9572
 5131TIP3    H236953   6.312   0.597   1.999  1.8994 -1.5039 -1.8236
 5132TIP3   OH236954   2.355   4.834   2.030 -0.0822 -0.0870 -0.0005
 5132TIP3    H136955   2.302   4.760   2.061  0.0994  0.0805  0.7323
 5132TIP3    H236956   2.291   4.899   2.002 -0.2976  0.2005  1.0818
 5133TIP3   OH236957   5.675   2.777   0.083  0.2413 -0.1138  0.0290
 5133TIP3    H136958   5.717   2.812   0.162 -0.8491 -0.6096  0.8553
 5133TIP3    H236959   5.650   2.854   0.033 -0.0171  0.2357  0.6834
 5134TIP3   OH236960   6.173   1.567   0.204 -0.5819 -0.0918  0.3418
 5134TIP3    H136961   6.111   1.560   0.277  0.2393  2.5559  1.4038
 5134TIP3    H236962   6.183   1.477   0.172 -1.1423 -1.3413  3.3677
 5135TIP3   OH236963   6.616   1.286   3.143 -0.3427 -0.2480 -0.3230
 5135TIP3    H136964   6.609   1.293   3.239 -0.6477 -0.9682 -0.2907
 5135TIP3    H236965   6.649   1.198   3.127  2.0864  0.6624 -0.7954
 5136TIP3   OH236966   4.943   1.251   0.599 -0.0479 -0.1142 -0.1130
 5136TIP3    H136967   4.894   1.180   0.558  0.7194 -1.5471  1.3431
 5136TIP3    H236968   4.882   1.325   0.600 -1.4231 -1.2041 -0.2577
 5137TIP3   OH236969   3.895   6.307   2.616  0.2892  0.0672  0.1248
 5137TIP3    H136970   3.800   6.300   2.609  0.3374 -0.3058 -0.2341
 5137TIP3    H236971   3.910   6.392   2.658 -0.2010  0.1151  0.2117
 5138TIP3   OH236972   5.497   3.080   1.747 -0.4625 -0.3640  0.2026
 5138TIP3    H136973   5.484   2.988   1.771  1.0461 -0.6776 -0.1335
 5138TIP3    H236974   5.469   3.085   1.656  0.2018 -0.6811 -0.0256
 5139TIP3   OH236975   3.759   4.007   1.993  0.4476  0.1870 -0.0855
 5139TIP3    H136976   3.781   3.964   2.075  0.2884 -0.9719 -0.6264
 5139TIP3    H236977   3.691   4.071   2.016  0.9362  0.3953  0.7940
 5140TIP3   OH236978   0.556   1.682   0.975 -0.2218  0.2818 -0.1366
 5140TIP3    H136979   0.645   1.696   1.006 -0.0920 -1.2249  0.2257
 5140TIP3    H236980   0.501   1.716   1.046  0.0785 -0.3858  0.4294
 5141TIP3   OH236981   4.260   5.478   2.408 -0.2359  0.0120 -0.3004
 5141TIP3    H136982   4.165   5.478   2.417 -0.1608 -0.9636  0.7589
 5141TIP3    H236983   4.288   5.561   2.445 -0.5502 -0.5551  1.2867
 5142TIP3   OH236984   4.665   3.969   2.364  0.2095  0.4466 -0.3221
 5142TIP3    H136985   4.603   3.906   2.327 -2.1158  1.6855  1.1606
 5142TIP3    H236986   4.737   3.915   2.397  0.5561 -0.9656 -3.0868
 5143TIP3   OH236987   6.141   2.994   1.604  0.8721  0.1855  0.3594
 5143TIP3    H136988   6.170   2.940   1.531  0.1650 -0.7504  0.7437
 5143TIP3    H236989   6.221   3.031   1.641  1.5883 -1.9910  1.1515
 5144TIP3   OH236990   1.456   4.202   1.385 -0.2219  0.6107  0.5393
 5144TIP3    H136991   1.511   4.165   1.317 -0.6051 -0.6518  0.8901
 5144TIP3    H236992   1.369   4.166   1.369 -0.3592  0.4233  1.5800
 5145TIP3   OH236993   3.903   1.199   3.415  0.0792  0.4099 -0.5299
 5145TIP3    H136994   3.873   1.284   3.446 -1.4616 -0.5805  0.8746
 5145TIP3    H236995   3.988   1.216   3.375  0.1278  2.4748  0.3527
 5146TIP3   OH236996   3.390   4.518   0.094 -0.3351 -0.2325 -0.4227
 5146TIP3    H136997   3.397   4.511  -0.001 -1.9441  1.5851 -0.7606
 5146TIP3    H236998   3.311   4.467   0.116 -0.1591 -0.3734 -0.1165
 5147TIP3   OH236999   0.679   1.878   1.755  0.1239 -0.1240 -0.1850
 5147TIP3    H137000   0.774   1.870   1.747 -0.0196 -1.0326 -1.1664
 5147TIP3    H237001   0.661   1.860   1.847  0.8512 -0.5710 -0.1224
 5148TIP3   OH237002   2.225   5.481   8.552  0.6341 -0.1459  0.2163
 5148TIP3    H137003   2.259   5.396   8.525 -2.4885 -1.4627  0.0184
 5148TIP3    H237004   2.221   5.532   8.471  1.3872 -0.2191  0.1259
 5149TIP3   OH237005   3.970   5.126   1.224  1.0474 -0.3393 -0.8296
 5149TIP3    H137006   3.940   5.211   1.193  0.4293  0.3132  1.3556
 5149TIP3    H237007   3.916   5.062   1.178  0.8523  0.4912 -1.7766
 5150TIP3   OH237008   3.194   5.427   1.375  0.1218  0.3587  0.4746
 5150TIP3    H137009   3.278   5.456   1.340  0.2364 -0.4339  0.0734
 5150TIP3    H237010   3.132   5.493   1.344  0.1121 -0.6098 -1.8225
 5151TIP3   OH237011   6.290   5.179   1.275  0.7495  0.1381 -0.4958
 5151TIP3    H137012   6.203   5.174   1.235  0.4393  2.7427 -0.3122
 5151TIP3    H237013   6.283   5.124   1.353 -1.1021  1.1504  0.1178
 5152TIP3   OH237014   3.276   3.209   8.438  0.0672 -0.0217 -0.4326
 5152TIP3    H137015   3.309   3.120   8.431 -1.2398 -0.4653 -1.5148
 5152TIP3    H237016   3.181   3.199   8.439 -0.1030  1.3700 -0.6947
 5153TIP3   OH237017   3.308   1.078   1.259  0.0493  0.3512  0.3588
 5153TIP3    H137018   3.261   1.032   1.329 -0.6067  1.4032  0.6367
 5153TIP3    H237019   3.239   1.124   1.211  0.7510  1.6121  0.5399
 5154TIP3   OH237020   0.930   6.035   8.848  0.2064  0.4626 -0.1469
 5154TIP3    H137021   0.934   5.942   8.825 -0.0405  0.4638 -0.2024
 5154TIP3    H237022   1.008   6.073   8.809  0.5665  0.1852  0.3026
 5155TIP3   OH237023   5.289   0.812   1.248  0.1289  0.1566  0.2734
 5155TIP3    H137024   5.194   0.819   1.240 -0.0200 -1.1586  0.6461
 5155TIP3    H237025   5.307   0.828   1.340  0.1349 -0.7486  0.4373
 5156TIP3   OH237026   0.752   4.163   2.191  0.6452 -0.3997 -0.3627
 5156TIP3    H137027   0.771   4.198   2.104  0.5066 -0.9804 -0.6269
 5156TIP3    H237028   0.782   4.232   2.251  3.4727 -1.1497 -0.7407
 5157TIP3   OH237029   1.685   5.215   8.314  0.3924  0.4791 -0.1737
 5157TIP3    H137030   1.612   5.252   8.263  1.5619 -1.1049 -3.2544
 5157TIP3    H237031   1.763   5.244   8.268  1.4879 -1.9360  0.0008
 5158TIP3   OH237032   6.283   3.273   3.157  0.4066  0.5513 -0.0760
 5158TIP3    H137033   6.340   3.327   3.102  0.3643 -0.1392 -0.8239
 5158TIP3    H237034   6.298   3.305   3.246  1.2227  1.0377 -0.3719
 5159TIP3   OH237035   4.035   5.899   7.732 -0.4355 -0.0048  0.0706
 5159TIP3    H137036   3.976   5.963   7.692  0.3424  1.4094  1.0757
 5159TIP3    H237037   4.100   5.952   7.779  1.8853 -1.4502 -1.2679
 5160TIP3   OH237038   5.126   3.756   8.580  0.0639  0.1203  0.4540
 5160TIP3    H137039   5.049   3.787   8.533 -0.9122 -1.1154  1.1953
 5160TIP3    H237040   5.186   3.727   8.511 -0.5814  0.0667 -0.0987
 5161TIP3   OH237041   2.935   3.237   0.423  0.3010 -0.4510 -0.1271
 5161TIP3    H137042   2.946   3.332   0.419 -0.1439 -0.3800  0.2662
 5161TIP3    H237043   2.878   3.222   0.498 -0.2191 -0.9767 -0.6126
 5162TIP3   OH237044   0.530   2.857   0.418  0.8963 -0.0538  0.3949
 5162TIP3    H137045   0.507   2.799   0.491 -0.3884  2.3700  2.0386
 5162TIP3    H237046   0.599   2.914   0.453  0.5826  0.8478 -0.4157
 5163TIP3   OH237047   4.281   5.728   1.009 -0.0864 -0.5324 -0.1731
 5163TIP3    H137048   4.260   5.709   1.101 -1.0361  0.0230 -0.2574
 5163TIP3    H237049   4.375   5.715   1.003  0.2562  0.9237  1.2782
 5164TIP3   OH237050   3.582   6.715   2.798  0.1390 -0.6133  0.0063
 5164TIP3    H137051   3.490   6.689   2.789  0.0805 -0.0057 -1.3806
 5164TIP3    H237052   3.615   6.716   2.708  1.0315  0.8940  0.3261
 5165TIP3   OH237053   5.475   5.583   0.836  0.4099  0.2291 -0.5214
 5165TIP3    H137054   5.464   5.672   0.804 -1.1739 -0.4510 -2.0627
 5165TIP3    H237055   5.561   5.556   0.804  0.6163  0.9792 -0.6108
 5166TIP3   OH237056   3.057   0.929   7.958  0.4538 -0.0357 -0.1381
 5166TIP3    H137057   3.004   0.971   8.025  1.8349  0.6369  0.5736
 5166TIP3    H237058   3.043   0.835   7.971  0.3392  0.1033  0.8021
 5167TIP3   OH237059   0.178   1.294   2.704  0.0401 -0.3506 -0.1033
 5167TIP3    H137060   0.273   1.302   2.715  0.3219 -0.0173 -2.2534
 5167TIP3    H237061   0.151   1.233   2.773  2.0701 -1.7404 -0.4335
 5168TIP3   OH237062   2.181   1.214   1.314 -0.6606 -0.7947 -0.1805
 5168TIP3    H137063   2.101   1.265   1.323 -0.8351 -0.9528 -0.8431
 5168TIP3    H237064   2.169   1.141   1.375 -2.2486 -2.3532 -2.2102
 5169TIP3   OH237065   3.020   2.775   7.691 -0.6177 -0.3166  0.2849
 5169TIP3    H137066   2.991   2.731   7.610  1.2457 -2.4224  0.6771
 5169TIP3    H237067   2.996   2.867   7.677 -1.3644 -0.7880 -2.1843
 5170TIP3   OH237068   5.546   4.999   6.800  0.2543  0.0170  0.5416
 5170TIP3    H137069   5.460   5.020   6.765 -0.0931 -0.3693  1.1398
 5170TIP3    H237070   5.607   5.054   6.750 -0.1681 -0.8114 -0.9481
 5171TIP3   OH237071   2.215   4.333   8.804  0.0437  0.0846  0.2932
 5171TIP3    H137072   2.179   4.422   8.808 -1.1484 -0.2944 -1.0813
 5171TIP3    H237073   2.140   4.276   8.826  0.8195 -0.5872  1.2826
 5172TIP3   OH237074   3.136   6.340   1.571  0.7211  0.0252 -0.3751
 5172TIP3    H137075   3.048   6.309   1.551 -0.0234  2.1162 -0.5749
 5172TIP3    H237076   3.155   6.302   1.657 -0.9900  0.6840  0.3494
 5173TIP3   OH237077   3.889   5.281   0.388 -0.4879  0.0275 -0.4462
 5173TIP3    H137078   3.909   5.215   0.322  1.3285 -1.3284  1.3561
 5173TIP3    H237079   3.874   5.361   0.337  0.2036 -1.0914 -2.5253
 5174TIP3   OH237080   4.193   0.492   1.003 -0.2493 -0.0795 -0.3769
 5174TIP3    H137081   4.229   0.445   1.079 -0.2428  0.5709  0.0299
 5174TIP3    H237082   4.099   0.499   1.023  0.0728  2.0631  0.6816
 5175TIP3   OH237083   3.589   0.707   3.152 -0.9170  0.1583 -0.3152
 5175TIP3    H137084   3.539   0.764   3.093 -0.9589  1.3916  0.8734
 5175TIP3    H237085   3.658   0.763   3.187 -1.0544 -0.4698  1.0136
 5176TIP3   OH237086   5.449   5.218   1.211  0.1682  0.1264 -0.5753
 5176TIP3    H137087   5.513   5.225   1.282  1.0825  0.5180 -1.4265
 5176TIP3    H237088   5.399   5.300   1.217 -0.6900 -0.4465  0.4765
 5177TIP3   OH237089   4.892   6.481   2.772 -0.5093  0.0078 -0.1934
 5177TIP3    H137090   4.853   6.569   2.767  1.1833  0.7655 -0.8379
 5177TIP3    H237091   4.820   6.425   2.800 -1.4053  1.7754  1.3386
 5178TIP3   OH237092   5.658   4.752   8.838  0.5042  0.9011 -0.8904
 5178TIP3    H137093   5.679   4.804   8.761  2.0742  0.3812 -0.8497
 5178TIP3    H237094   5.717   4.785   8.906  1.0375 -0.4323 -0.6765
 5179TIP3   OH237095   5.173   1.551   0.001 -0.0174  0.4161  0.7056
 5179TIP3    H137096   5.104   1.601   0.046 -0.8122  0.7246 -0.8082
 5179TIP3    H237097   5.142   1.461   0.002 -0.5909  0.5933 -0.2053
 5180TIP3   OH237098   5.346   6.711   2.510 -0.7033 -0.5221 -0.3712
 5180TIP3    H137099   5.423   6.747   2.555 -0.5651 -1.5352  0.2443
 5180TIP3    H237100   5.365   6.721   2.417  0.1443 -0.6754 -0.2238
 5181TIP3   OH237101   0.038   6.337   1.606  0.4680 -0.2546  0.4030
 5181TIP3    H137102  -0.050   6.338   1.644 -0.1856  0.6516 -1.0669
 5181TIP3    H237103   0.068   6.427   1.613  0.6086 -0.2169 -0.6083
 5182TIP3   OH237104   1.516   6.648   2.618  0.3504 -0.1413 -0.3077
 5182TIP3    H137105   1.550   6.559   2.614 -1.5345 -0.8747 -1.0696
 5182TIP3    H237106   1.435   6.640   2.667 -1.1589  0.6796 -2.5300
 5183TIP3   OH237107   3.952   4.440   7.661 -0.3947  0.5952 -0.8246
 5183TIP3    H137108   4.000   4.406   7.736  0.5469 -2.4908 -2.6375
 5183TIP3    H237109   3.936   4.532   7.682 -0.1228 -0.0939  3.0346
 5184TIP3   OH237110   2.417   5.412   0.975 -1.2146  0.0314 -0.0127
 5184TIP3    H137111   2.411   5.319   0.956  1.6924 -0.7944  2.5312
 5184TIP3    H237112   2.459   5.450   0.898 -1.9995 -0.7830 -0.8634
 5185TIP3   OH237113   2.513   4.897   1.827 -0.0145 -0.1194  0.0525
 5185TIP3    H137114   2.491   4.842   1.752 -1.4660  0.2788  0.1733
 5185TIP3    H237115   2.453   4.869   1.896  1.6001 -0.8051  1.2474
 5186TIP3   OH237116   2.150   6.671   7.595  0.3830 -0.1538  0.4035
 5186TIP3    H137117   2.210   6.602   7.566 -0.2203 -0.4835 -0.0701
 5186TIP3    H237118   2.063   6.637   7.574  0.1319  1.4216 -1.3297
 5187TIP3   OH237119   0.955   6.375   2.677  0.0985 -0.1399  0.6039
 5187TIP3    H137120   1.012   6.452   2.686 -1.0928  0.6590  1.7136
 5187TIP3    H237121   0.942   6.345   2.766  0.6201 -1.7355  0.1712
 5188TIP3   OH237122   6.323   5.280   1.773 -0.5594  0.2679  0.2323
 5188TIP3    H137123   6.275   5.274   1.691 -0.2677  0.5652  0.0345
 5188TIP3    H237124   6.277   5.348   1.823 -0.7552  0.0657  0.3285
 5189TIP3   OH237125   1.260   2.175   1.235  0.1911  0.2422  0.0593
 5189TIP3    H137126   1.219   2.094   1.205  0.2624 -0.2731  1.2905
 5189TIP3    H237127   1.198   2.211   1.298  1.1344 -0.0248  1.1839
 5190TIP3   OH237128   1.386   2.617   0.270 -0.5441  0.2581  0.1886
 5190TIP3    H137129   1.431   2.658   0.344 -2.9293  0.2154  1.7622
 5190TIP3    H237130   1.404   2.523   0.280 -1.4333  0.1755  1.1810
 5191TIP3   OH237131   5.826   1.791   2.910 -0.4200 -0.2421 -0.0278
 5191TIP3    H137132   5.790   1.703   2.905 -2.1054  0.4466 -0.3787
 5191TIP3    H237133   5.809   1.818   3.001 -0.5816  0.0039 -0.1329
 5192TIP3   OH237134   0.401   4.704   1.574 -0.0530  0.1403  0.1984
 5192TIP3    H137135   0.316   4.746   1.560 -0.7193 -1.0185  0.6521
 5192TIP3    H237136   0.450   4.767   1.628 -0.6681  0.7481  0.0674
 5193TIP3   OH237137   3.550   3.694   1.303 -0.2913  0.4303 -0.4051
 5193TIP3    H137138   3.645   3.685   1.313 -0.6156 -1.6396  1.5900
 5193TIP3    H237139   3.516   3.683   1.392 -2.5938 -2.1753 -1.4850
 5194TIP3   OH237140   2.712   1.756   1.883 -0.0950  0.7026 -0.3197
 5194TIP3    H137141   2.741   1.711   1.962  0.3969  1.5375 -0.0154
 5194TIP3    H237142   2.726   1.693   1.813 -1.2273 -0.3248  0.3344
 5195TIP3   OH237143   0.069   1.071   2.164 -0.3993 -0.1465  0.6615
 5195TIP3    H137144   0.119   0.990   2.152  0.9645  0.5156  1.6372
 5195TIP3    H237145   0.135   1.140   2.171 -1.5242  1.0056  0.3012
 5196TIP3   OH237146   6.036   2.402   2.343  0.1547  0.0168  0.0653
 5196TIP3    H137147   6.088   2.322   2.344  1.5721  0.9068  1.2220
 5196TIP3    H237148   6.075   2.458   2.411 -1.4208  1.3009 -0.0063
 5197TIP3   OH237149   4.266   3.102   7.388  0.4940 -0.2485 -0.0111
 5197TIP3    H137150   4.216   3.165   7.337  2.0343 -0.0455 -1.3704
 5197TIP3    H237151   4.298   3.152   7.464  1.4204  0.5614 -0.9031
 5198TIP3   OH237152   3.472   0.166   3.035  0.4284  0.2887  0.0580
 5198TIP3    H137153   3.388   0.170   3.080 -0.4160 -1.2515 -1.3082
 5198TIP3    H237154   3.504   0.078   3.052  1.0422  0.3577 -0.6941
 5199TIP3   OH237155   4.276   0.753   1.644 -0.1588 -0.0627 -0.3048
 5199TIP3    H137156   4.232   0.792   1.719 -0.0434 -0.1118 -0.2109
 5199TIP3    H237157   4.302   0.666   1.674 -0.6190 -0.3013 -0.5896
 5200TIP3   OH237158   1.315   2.409   1.059  0.1453  0.4089  0.0028
 5200TIP3    H137159   1.405   2.387   1.034 -0.2627 -1.6344  0.1873
 5200TIP3    H237160   1.299   2.359   1.139 -0.9231  1.3531  0.4145
 5201TIP3   OH237161   5.017   1.771   1.008 -0.9214  0.4916  0.0692
 5201TIP3    H137162   5.097   1.747   1.055 -1.8257 -1.4086  0.7186
 5201TIP3    H237163   5.035   1.748   0.917 -0.9484 -0.5547  0.3179
 5202TIP3   OH237164   6.470   6.599   7.438  0.7520 -0.3492 -0.5578
 5202TIP3    H137165   6.374   6.590   7.434  0.1961  3.0379  0.8195
 5202TIP3    H237166   6.493   6.567   7.525  0.5951  0.3187 -0.2638
 5203TIP3   OH237167   2.895   5.354   1.545 -0.4531  0.1693 -0.1885
 5203TIP3    H137168   2.878   5.408   1.467 -1.4876  1.3648  0.8216
 5203TIP3    H237169   2.944   5.278   1.511 -0.4093  0.9090 -1.9096
 5204TIP3   OH237170   4.850   4.068   2.062 -0.3836 -0.1696  1.0001
 5204TIP3    H137171   4.907   4.003   2.103 -0.7347 -0.0109  1.7571
 5204TIP3    H237172   4.828   4.128   2.134 -3.1413 -1.3355  1.2309
 5205TIP3   OH237173   5.174   3.517   8.384 -0.2747 -0.2198 -0.4731
 5205TIP3    H137174   5.132   3.458   8.447 -0.6060  0.2497 -0.2473
 5205TIP3    H237175   5.232   3.460   8.333 -0.4109 -0.6995 -0.1048
 5206TIP3   OH237176   1.648   2.041   2.107 -0.1976 -0.4794  0.8562
 5206TIP3    H137177   1.597   2.117   2.079 -0.1169 -0.3573  1.0353
 5206TIP3    H237178   1.583   1.980   2.142 -0.1548 -0.0259  1.7489
 5207TIP3   OH237179   0.941   3.348   8.293  0.4043 -0.8662  0.1598
 5207TIP3    H137180   0.974   3.363   8.204  0.9799  0.0413  0.5110
 5207TIP3    H237181   1.010   3.381   8.350 -0.4716 -0.3223  0.9323
 5208TIP3   OH237182   5.163   5.353   7.391 -0.0733  0.0359  0.1917
 5208TIP3    H137183   5.199   5.392   7.311 -0.5021  0.1348  0.0452
 5208TIP3    H237184   5.240   5.322   7.439  0.0962 -1.4588 -0.9933
 5209TIP3   OH237185   6.335   5.134   0.374  0.5460 -0.7286 -0.5739
 5209TIP3    H137186   6.412   5.183   0.344 -0.2235  1.6365  1.0049
 5209TIP3    H237187   6.368   5.075   0.441  0.9950  0.3606  0.1785
 5210TIP3   OH237188   3.939   5.153   0.114  0.2970  0.4700  0.1348
 5210TIP3    H137189   3.956   5.221   0.048  0.7474  0.9813  0.7621
 5210TIP3    H237190   3.925   5.073   0.063  1.0359  0.7741 -0.5676
 5211TIP3   OH237191   6.168   3.611   8.535  0.4788  0.7761  0.3993
 5211TIP3    H137192   6.175   3.645   8.624  0.2918 -0.7304  1.0072
 5211TIP3    H237193   6.074   3.605   8.518  0.4836 -0.6073  0.7774
 5212TIP3   OH237194   1.106   3.016   0.163  0.3696  0.0500 -0.4367
 5212TIP3    H137195   1.051   3.028   0.085 -0.5747 -0.2785  0.1617
 5212TIP3    H237196   1.175   2.956   0.135  0.1223  0.0487 -1.0538
 5213TIP3   OH237197   4.689   2.319   8.864  0.3909 -0.0240 -0.1110
 5213TIP3    H137198   4.751   2.389   8.842  0.1821 -0.1345 -1.1363
 5213TIP3    H237199   4.665   2.335   8.955 -0.6362  2.0233 -0.6704
 5214TIP3   OH237200   1.705   1.072   7.575  0.2794  0.0655  0.6584
 5214TIP3    H137201   1.633   1.114   7.528  0.4329  0.7935  1.0599
 5214TIP3    H237202   1.781   1.088   7.519  0.1056 -0.9167  0.1111
 5215TIP3   OH237203   6.499   4.373   8.868 -0.6995 -0.1380 -0.0928
 5215TIP3    H137204   6.458   4.405   8.788  0.1211  1.8472  0.2341
 5215TIP3    H237205   6.576   4.428   8.880 -0.2367 -1.0528  1.5406
 5216TIP3   OH237206   2.463   4.377   8.710 -0.3852 -0.3244  0.2341
 5216TIP3    H137207   2.459   4.431   8.631  0.8322  1.5345  1.3740
 5216TIP3    H237208   2.372   4.363   8.734 -0.7514  1.6457  0.1384
 5217TIP3   OH237209   5.900   3.138   1.661  0.1808  0.3461 -0.4312
 5217TIP3    H137210   5.974   3.080   1.680  0.0960  0.6893  1.1386
 5217TIP3    H237211   5.906   3.206   1.729 -0.6813  1.2461 -1.2265
 5218TIP3   OH237212   3.672   3.546   0.598  0.0617 -0.0832 -0.1009
 5218TIP3    H137213   3.611   3.490   0.549  1.7976  0.8022 -3.6628
 5218TIP3    H237214   3.755   3.499   0.594  0.6266  0.8463  0.5457
 5219TIP3   OH237215   4.106   6.645   7.630 -0.1216  0.0014  0.2901
 5219TIP3    H137216   4.118   6.730   7.588 -0.3621  0.2871  0.7881
 5219TIP3    H237217   4.162   6.649   7.707  1.1997 -0.9488 -0.5871
 5220TIP3   OH237218   4.471   5.989   1.513 -0.4868  1.0549  0.9116
 5220TIP3    H137219   4.476   6.080   1.484  1.3289  0.2911 -1.4803
 5220TIP3    H237220   4.514   5.989   1.599  2.7319  2.0158 -0.5151
 5221TIP3   OH237221   1.643   4.081   1.549  0.1108  0.2560 -0.1792
 5221TIP3    H137222   1.699   4.159   1.554 -0.9661  0.9517  2.9590
 5221TIP3    H237223   1.562   4.112   1.509 -0.1751  0.6589  0.7105
 5222TIP3   OH237224   3.558   1.172   8.837  0.1946  0.6880  0.5191
 5222TIP3    H137225   3.639   1.220   8.855  0.8326  0.7624 -2.1914
 5222TIP3    H237226   3.489   1.227   8.875  1.1696  2.1781  0.2211
 5223TIP3   OH237227   5.859   6.570   8.685 -0.1075  0.1763  0.3916
 5223TIP3    H137228   5.811   6.609   8.612 -1.7877  0.9475  1.8378
 5223TIP3    H237229   5.929   6.633   8.704  0.2558  0.0345 -0.4419
 5224TIP3   OH237230   2.483   4.909   2.604  0.4172  0.0364 -0.0968
 5224TIP3    H137231   2.564   4.859   2.588  1.1700  0.4724  2.0422
 5224TIP3    H237232   2.413   4.846   2.593  1.1736 -0.8123 -0.1476
 5225TIP3   OH237233   0.740   1.800   7.895 -0.4946  0.4143 -0.8721
 5225TIP3    H137234   0.808   1.774   7.834  0.6657 -0.6778  0.7866
 5225TIP3    H237235   0.777   1.781   7.982 -1.9863  2.0451  0.1926
 5226TIP3   OH237236   0.545   3.505   0.330  0.4293 -0.2822  0.1992
 5226TIP3    H137237   0.517   3.535   0.416  3.5251 -2.6103  2.2733
 5226TIP3    H237238   0.571   3.585   0.284  0.6455  0.8961  2.2515
 5227TIP3   OH237239   3.743   5.188   1.874 -0.1001  0.0578 -0.3329
 5227TIP3    H137240   3.768   5.278   1.853 -0.1839 -0.3789 -2.5031
 5227TIP3    H237241   3.767   5.178   1.967  0.0975  2.2260 -0.0937
 5228TIP3   OH237242   6.381   1.233   0.356 -0.2375  0.0441 -0.2288
 5228TIP3    H137243   6.453   1.262   0.300  0.8079 -0.2982  0.8955
 5228TIP3    H237244   6.335   1.168   0.303  0.3952  0.1279 -0.9077
 5229TIP3   OH237245   3.312   2.438   2.317 -0.2870 -0.1155 -0.6753
 5229TIP3    H137246   3.382   2.398   2.265  1.9504  1.3081  1.0877
 5229TIP3    H237247   3.312   2.389   2.399  0.7797  1.8140  0.5292
 5230TIP3   OH237248   0.740   1.134   1.196  0.0267 -0.1136 -0.3905
 5230TIP3    H137249   0.681   1.088   1.255 -1.8223  1.9647 -0.4918
 5230TIP3    H237250   0.716   1.104   1.109 -1.1992  0.9642 -0.4588
 5231TIP3   OH237251   0.788   1.057   8.015 -0.3098 -0.0180 -0.0479
 5231TIP3    H137252   0.787   1.012   7.931  0.7033 -1.3964  0.6245
 5231TIP3    H237253   0.719   1.123   8.008 -1.3707 -1.1886 -1.3647
 5232TIP3   OH237254   4.616   1.328   2.531 -0.0208 -0.6435  0.7089
 5232TIP3    H137255   4.643   1.243   2.564  1.1632 -0.3811  0.4673
 5232TIP3    H237256   4.684   1.352   2.467 -0.9928 -0.0811 -0.1430
 5233TIP3   OH237257   1.029   0.158   8.835  0.1861  0.1855  0.5459
 5233TIP3    H137258   0.999   0.249   8.839  1.4047  0.5919  0.5843
 5233TIP3    H237259   1.123   0.162   8.853  0.0107 -1.2373  2.0175
 5234TIP3   OH237260   0.099   6.073   1.329 -0.1803  0.0480  0.1820
 5234TIP3    H137261   0.132   6.100   1.415  0.3516 -2.0150  0.6839
 5234TIP3    H237262   0.032   6.137   1.308 -0.3286  0.6085  2.1449
 5235TIP3   OH237263   3.266   3.772   8.666  0.1556  0.3024 -0.2506
 5235TIP3    H137264   3.195   3.725   8.622 -0.3628 -0.3330  1.2185
 5235TIP3    H237265   3.345   3.746   8.617 -0.2777 -1.1537 -0.2137
 5236TIP3   OH237266   1.408   2.035   0.987  0.9041  0.7295 -0.3546
 5236TIP3    H137267   1.348   2.070   0.921 -2.0890 -0.3720  1.5726
 5236TIP3    H237268   1.384   2.080   1.068  1.3643 -1.1125  0.8745
 5237TIP3   OH237269   0.599   5.777   2.392  0.1927  0.3961  0.0840
 5237TIP3    H137270   0.603   5.804   2.300 -1.3069  0.9082  0.1518
 5237TIP3    H237271   0.655   5.699   2.396  0.8715  0.7921 -1.0897
 5238TIP3   OH237272   0.636   4.598   1.877 -0.4707  0.5407 -0.5250
 5238TIP3    H137273   0.710   4.650   1.907  1.2467 -1.9819 -0.1081
 5238TIP3    H237274   0.664   4.562   1.793 -1.5241  0.1194 -0.7129
 5239TIP3   OH237275   0.520   1.530   8.322 -0.2975  0.3722 -0.1059
 5239TIP3    H137276   0.435   1.572   8.313 -0.1793  0.8535  0.9133
 5239TIP3    H237277   0.518   1.489   8.408 -0.2256 -1.3400 -0.8710
 5240TIP3   OH237278   6.111   4.293   8.806 -0.2019  0.0384  0.1487
 5240TIP3    H137279   6.056   4.289   8.728 -0.0349 -1.2620  0.0808
 5240TIP3    H237280   6.144   4.383   8.807 -1.0167  0.3655 -0.7069
 5241TIP3   OH237281   4.791   5.713   8.715  0.0856 -0.1896  0.4051
 5241TIP3    H137282   4.719   5.747   8.768  0.8884  0.4673  1.0982
 5241TIP3    H237283   4.870   5.749   8.755  0.6834  1.2590 -1.8495
 5242TIP3   OH237284   0.743   2.900   7.551  0.5741 -0.2638  0.3946
 5242TIP3    H137285   0.752   2.844   7.629  0.6717 -0.3961  0.2891
 5242TIP3    H237286   0.660   2.945   7.564  0.9587  0.3071  0.9588
 5243TIP3   OH237287   4.652   0.170   7.273 -0.4966 -0.5671  0.2369
 5243TIP3    H137288   4.687   0.123   7.349  0.0243  1.3540  1.2389
 5243TIP3    H237289   4.716   0.154   7.203 -1.6357 -3.4445 -0.2887
 5244TIP3   OH237290   5.421   4.625   8.788 -0.3241 -0.0437  0.3613
 5244TIP3    H137291   5.502   4.670   8.811  1.0722 -2.5821  0.7664
 5244TIP3    H237292   5.408   4.563   8.859 -2.5953  0.1941  0.2267
 5245TIP3   OH237293   1.064   5.155   0.272 -0.6153 -0.0129 -0.7838
 5245TIP3    H137294   1.042   5.180   0.362  1.0969  3.3860 -1.1365
 5245TIP3    H237295   0.980   5.156   0.226 -1.2803  0.1841  0.3873
 5246TIP3   OH237296   0.442   1.716   7.967 -0.2752  0.4991  0.2983
 5246TIP3    H137297   0.450   1.760   8.051 -0.5518  0.0367  0.5675
 5246TIP3    H237298   0.365   1.755   7.926 -1.8356 -1.2228  1.4554
 5247TIP3   OH237299   0.095   4.412   1.955  0.3756 -0.0643 -0.5570
 5247TIP3    H137300   0.117   4.320   1.967 -1.7210 -0.2916  2.9561
 5247TIP3    H237301   0.179   4.454   1.934  1.9650 -2.3422  0.7679
 5248TIP3   OH237302   1.662   0.786   2.778 -0.3435  0.3615 -0.4326
 5248TIP3    H137303   1.709   0.866   2.802  3.5330 -1.3506 -1.5721
 5248TIP3    H237304   1.648   0.741   2.861  0.9614  0.4792 -0.1349
 5249TIP3   OH237305   2.339   1.243   2.791 -0.5688  0.2404 -0.3243
 5249TIP3    H137306   2.326   1.320   2.736  0.5296 -0.0058 -0.9576
 5249TIP3    H237307   2.414   1.198   2.752  0.6052  0.3400  1.6861
 5250TIP3   OH237308   1.573   2.383   0.960  0.5809  0.1007 -0.6544
 5250TIP3    H137309   1.560   2.445   0.889  0.4088  0.2813 -0.4679
 5250TIP3    H237310   1.637   2.320   0.926  1.1326  0.6601 -0.6671
 5251TIP3   OH237311   3.003   2.188   3.419  0.4107 -0.1585  0.0161
 5251TIP3    H137312   3.067   2.221   3.482  1.7907 -1.3618 -0.6856
 5251TIP3    H237313   2.921   2.230   3.443  1.1921  0.4561  1.7481
 5252TIP3   OH237314   0.186   0.756   2.207 -0.5809  0.3062  0.7008
 5252TIP3    H137315   0.181   0.800   2.121  1.9500  3.6714  2.0218
 5252TIP3    H237316   0.096   0.733   2.228 -1.4991  0.9304 -2.1153
 5253TIP3   OH237317   3.655   6.185   0.572  0.4840 -0.4714  0.1134
 5253TIP3    H137318   3.736   6.138   0.554  1.1281  1.4620 -2.7404
 5253TIP3    H237319   3.590   6.144   0.515  0.9340  1.5501 -2.0180
 5254TIP3   OH237320   1.186   3.192   2.224  0.0989 -0.4017  0.2085
 5254TIP3    H137321   1.163   3.272   2.176 -0.9151 -0.6712  0.2151
 5254TIP3    H237322   1.216   3.223   2.310  3.2720  0.1778 -0.9934
 5255TIP3   OH237323   0.193   4.473   0.367 -0.2340  0.7906  0.0969
 5255TIP3    H137324   0.161   4.440   0.283 -1.5713 -0.9868  1.2235
 5255TIP3    H237325   0.277   4.429   0.379 -0.1513  0.8620 -0.2128
 5256TIP3   OH237326   2.555   2.962   1.802 -0.2224 -0.5079  0.0988
 5256TIP3    H137327   2.565   2.914   1.720 -3.3016 -2.5305  0.7430
 5256TIP3    H237328   2.501   3.038   1.779 -1.3721 -1.2545  0.2417
 5257TIP3   OH237329   4.801   6.571   1.744  0.0458  0.2729 -0.5835
 5257TIP3    H137330   4.875   6.513   1.727 -0.0369  0.1431 -0.4916
 5257TIP3    H237331   4.727   6.529   1.700 -0.4770 -0.7619  1.2187
 5258TIP3   OH237332   1.408   0.804   8.362  0.5970  0.3378 -0.2962
 5258TIP3    H137333   1.438   0.868   8.298 -0.3452 -0.3982 -1.5385
 5258TIP3    H237334   1.317   0.785   8.336  0.3094 -0.2588  1.0440
 5259TIP3   OH237335   4.455   0.427   0.691  0.0253 -0.0613  0.3977
 5259TIP3    H137336   4.460   0.408   0.598 -0.0973 -0.8071  0.5375
 5259TIP3    H237337   4.369   0.467   0.703 -0.2031 -0.5103  0.2812
 5260TIP3   OH237338   6.612   6.275   0.025 -0.2298  0.3890 -0.0220
 5260TIP3    H137339   6.574   6.361   0.008  0.1330  0.3882 -0.8959
 5260TIP3    H237340   6.555   6.237   0.092 -0.5571  1.1952  0.1729
 5261TIP3   OH237341   6.351   3.722   0.216 -0.1586 -0.0605  0.2515
 5261TIP3    H137342   6.387   3.735   0.129 -3.3764  2.6943 -0.8962
 5261TIP3    H237343   6.417   3.759   0.275  0.6002  1.2716 -1.3509
 5262TIP3   OH237344   1.023   2.705   8.340 -0.1943  0.0119  0.8645
 5262TIP3    H137345   0.975   2.713   8.422  0.7545 -0.6147  1.5004
 5262TIP3    H237346   0.970   2.647   8.286 -0.4550 -0.1707  1.3136
 5263TIP3   OH237347   1.207   1.183   2.852 -0.6898 -0.4662  0.0737
 5263TIP3    H137348   1.282   1.124   2.865 -1.5913 -1.4624  0.8797
 5263TIP3    H237349   1.147   1.161   2.922 -0.6457  2.1328  1.0255
 5264TIP3   OH237350   6.327   2.405   8.212  0.5940 -0.6469 -0.4741
 5264TIP3    H137351   6.243   2.443   8.239 -0.0326 -2.0154 -0.4420
 5264TIP3    H237352   6.314   2.311   8.217  1.8068 -0.8940 -1.5026
 5265TIP3   OH237353   1.718   1.117   7.205 -0.1508  0.3930 -0.0466
 5265TIP3    H137354   1.765   1.049   7.253 -0.2858  0.7067  0.5460
 5265TIP3    H237355   1.753   1.199   7.240 -0.9192  0.6298  0.1949
 5266TIP3   OH237356   4.107   3.731   1.147 -0.1909  0.0794 -0.8122
 5266TIP3    H137357   4.013   3.734   1.165 -0.1616 -0.4352 -0.5566
 5266TIP3    H237358   4.148   3.713   1.232  0.2318  1.5017 -0.6939
 5267TIP3   OH237359   4.543   0.347   7.471  1.0072 -0.2954  0.2126
 5267TIP3    H137360   4.470   0.294   7.502  0.5120  0.8789  1.1475
 5267TIP3    H237361   4.572   0.303   7.391  0.8362 -2.1288  1.1021
 5268TIP3   OH237362   2.322   2.437   8.638 -0.2753 -0.3811  0.7696
 5268TIP3    H137363   2.373   2.414   8.715 -1.2913 -0.0659  1.5711
 5268TIP3    H237364   2.385   2.438   8.566  0.7052 -0.6248  1.6013
 5269TIP3   OH237365   4.372   5.423   8.195  0.0038  0.0028  0.1807
 5269TIP3    H137366   4.391   5.412   8.101 -2.7890 -0.1433 -0.4487
 5269TIP3    H237367   4.364   5.518   8.206  0.9550  0.0622  0.4368
 5270TIP3   OH237368   2.585   6.314   0.449  0.4617  0.2212 -0.3758
 5270TIP3    H137369   2.625   6.398   0.473 -1.2072  0.5364  1.5470
 5270TIP3    H237370   2.514   6.338   0.389  0.6185  0.0542 -0.6327
 5271TIP3   OH237371   1.108   0.364   1.574  0.0451  0.0218 -0.0559
 5271TIP3    H137372   1.046   0.347   1.503  0.3122 -1.6267  0.0721
 5271TIP3    H237373   1.068   0.435   1.624  0.4966  2.2702 -2.5928
 5272TIP3   OH237374   1.260   2.831   8.060 -0.4997 -0.5981 -0.3224
 5272TIP3    H137375   1.335   2.840   8.119 -1.3934 -1.1897  0.9548
 5272TIP3    H237376   1.296   2.786   7.984  0.4155 -1.0121  0.3258
 5273TIP3   OH237377   4.293   4.354   2.272  0.0122  0.1272 -0.5003
 5273TIP3    H137378   4.325   4.434   2.230  2.3021 -0.4489  0.0161
 5273TIP3    H237379   4.323   4.360   2.362 -0.7014 -0.8456 -0.1810
 5274TIP3   OH237380   2.910   1.876   1.683  0.0176  0.2901  0.2861
 5274TIP3    H137381   2.847   1.846   1.748 -1.4071  0.0092 -1.1799
 5274TIP3    H237382   2.882   1.965   1.660  1.1518  0.8102  0.8167
 5275TIP3   OH237383   0.752   0.030   0.255 -0.7018 -0.7977  0.0234
 5275TIP3    H137384   0.659   0.009   0.245 -0.3684 -1.9487 -0.6892
 5275TIP3    H237385   0.754   0.085   0.334 -2.2327  1.0091 -1.0914
 5276TIP3   OH237386   2.455   1.888   0.900  0.1563  0.9233 -0.1004
 5276TIP3    H137387   2.397   1.964   0.896 -0.6592  0.4066  1.2143
 5276TIP3    H237388   2.396   1.814   0.907  0.9774  0.3411  0.7486
 5277TIP3   OH237389   1.656   4.032   8.559 -0.0296 -0.3713 -0.5201
 5277TIP3    H137390   1.621   4.120   8.546  0.1466 -0.4249 -1.3590
 5277TIP3    H237391   1.580   3.975   8.555 -0.7163 -0.0315  3.3790
 5278TIP3   OH237392   3.239   1.888   8.197  0.3498 -0.5237 -0.6219
 5278TIP3    H137393   3.221   1.969   8.149 -0.3363 -0.1078  0.3216
 5278TIP3    H237394   3.206   1.819   8.140  3.1712 -0.3972 -2.6134
 5279TIP3   OH237395   3.108   3.801   7.019  0.1792  0.0571 -0.4280
 5279TIP3    H137396   3.195   3.760   7.025 -0.0168 -0.4410 -1.0034
 5279TIP3    H237397   3.050   3.741   7.065 -0.0083 -0.0085 -0.7541
 5280TIP3   OH237398   3.986   0.605   7.789 -0.5391  0.0711 -0.3198
 5280TIP3    H137399   4.010   0.696   7.770  1.7614 -0.2879  0.5552
 5280TIP3    H237400   4.063   0.569   7.833 -2.3653 -1.5540  1.7617
 5281TIP3   OH237401   2.831   5.628   8.400  0.1221 -0.4737 -0.3152
 5281TIP3    H137402   2.811   5.686   8.474  1.8940 -0.2598  0.0337
 5281TIP3    H237403   2.905   5.670   8.356  1.0143 -2.1193 -0.4527
 5282TIP3   OH237404   1.713   3.640   8.270 -0.3938 -0.0229 -0.3566
 5282TIP3    H137405   1.685   3.548   8.270 -1.8904  0.3894 -1.4187
 5282TIP3    H237406   1.632   3.689   8.287  0.1779  1.1473 -0.9347
 5283TIP3   OH237407   4.080   2.794   1.235 -0.3804  0.3632 -0.2289
 5283TIP3    H137408   4.014   2.855   1.270 -0.0861  1.6114 -1.7587
 5283TIP3    H237409   4.157   2.809   1.290 -0.7751  0.2586  0.3658
 5284TIP3   OH237410   0.722   3.915   0.512  0.4376  0.1075  0.6940
 5284TIP3    H137411   0.810   3.936   0.481  0.4660  0.5635  1.0790
 5284TIP3    H237412   0.733   3.835   0.563  0.5778  0.0054  0.5069
 5285TIP3   OH237413   6.355   2.992   0.133  0.2630 -0.0310  0.1768
 5285TIP3    H137414   6.340   2.984   0.227  1.0950  0.8992  0.4076
 5285TIP3    H237415   6.449   3.005   0.125  0.3264 -0.9913 -0.8604
 5286TIP3   OH237416   6.591   5.755   7.780 -0.3158  0.4300  0.5358
 5286TIP3    H137417   6.508   5.776   7.737  0.9466  2.2387 -1.1768
 5286TIP3    H237418   6.580   5.788   7.870 -2.3644 -1.8636  1.2568
 5287TIP3   OH237419   6.019   2.117   2.102 -0.1920  0.7127  0.0631
 5287TIP3    H137420   6.097   2.062   2.096 -0.2520  0.4481  1.4412
 5287TIP3    H237421   5.956   2.074   2.043 -0.2835 -0.8125  1.2031
 5288TIP3   OH237422   2.577   0.663   0.536  0.2203  0.3022 -0.3475
 5288TIP3    H137423   2.588   0.682   0.442 -0.6715  0.6201 -0.3950
 5288TIP3    H237424   2.487   0.633   0.544  0.9741 -2.0429  0.0602
 5289TIP3   OH237425   5.703   4.052   0.642  0.0416 -0.3266 -0.6539
 5289TIP3    H137426   5.769   4.106   0.687 -2.0406 -0.5042  3.0408
 5289TIP3    H237427   5.754   3.998   0.582  2.9109  1.4391 -0.0157
 5290TIP3   OH237428   4.806   1.502   0.610  0.2933 -0.1765 -0.0444
 5290TIP3    H137429   4.744   1.562   0.651  1.1286 -0.0516  1.1009
 5290TIP3    H237430   4.772   1.488   0.522 -2.0200 -1.0538  0.9136
 5291TIP3   OH237431   4.904   2.909   0.591  1.1070 -0.5416  0.5712
 5291TIP3    H137432   4.831   2.897   0.530  1.9618  0.3643 -0.6755
 5291TIP3    H237433   4.956   2.829   0.582  2.8114  0.7323 -2.1779
 5292TIP3   OH237434   4.600   1.122   2.118 -0.4201  0.0572 -0.4640
 5292TIP3    H137435   4.652   1.202   2.113 -0.4964  0.1251 -0.2175
 5292TIP3    H237436   4.649   1.058   2.067  0.2521 -0.0631  0.3158
 5293TIP3   OH237437   1.344   1.763   7.818  0.1160 -0.2698 -0.4075
 5293TIP3    H137438   1.419   1.734   7.871  0.7510  2.2930  0.2310
 5293TIP3    H237439   1.382   1.823   7.754 -0.8686 -2.1416 -2.9028
 5294TIP3   OH237440   3.666   0.548   2.529  0.2065 -0.5456  0.6974
 5294TIP3    H137441   3.724   0.623   2.519  1.1867 -1.1476  1.6640
 5294TIP3    H237442   3.724   0.477   2.558 -0.6077 -1.8051 -0.6345
 5295TIP3   OH237443   2.452   6.505   8.110 -0.0026  0.5923 -0.4759
 5295TIP3    H137444   2.396   6.457   8.170  1.5100 -0.3016  0.2850
 5295TIP3    H237445   2.541   6.479   8.134  0.9202  3.7003 -0.1108
 5296TIP3   OH237446   6.493   2.488   7.967 -0.0052 -0.3224  0.6669
 5296TIP3    H137447   6.456   2.501   8.054 -0.3566  1.0143  0.3401
 5296TIP3    H237448   6.531   2.574   7.944  0.3788 -0.7475 -0.3569
 5297TIP3   OH237449   6.192   1.677   8.743 -0.5349 -0.3263 -0.1831
 5297TIP3    H137450   6.126   1.682   8.674 -1.0054 -0.0774  0.2773
 5297TIP3    H237451   6.147   1.708   8.822 -0.2039 -1.2193  0.3776
 5298TIP3   OH237452   1.759   0.008   8.329 -0.2179  0.8459 -0.4211
 5298TIP3    H137453   1.754  -0.061   8.395  1.1392  0.6667 -0.4760
 5298TIP3    H237454   1.703   0.077   8.362  0.0793  0.5652  0.6998
 5299TIP3   OH237455   2.123   1.439   8.322  0.2610  0.2403  0.2292
 5299TIP3    H137456   2.080   1.430   8.407 -0.7949 -1.0527 -0.3814
 5299TIP3    H237457   2.091   1.522   8.287 -0.1463  0.2701  0.6638
 5300TIP3   OH237458   0.538   1.778   7.675 -0.1351  0.1784 -0.0238
 5300TIP3    H137459   0.597   1.800   7.747 -0.4473  0.3631  0.1778
 5300TIP3    H237460   0.451   1.792   7.710 -0.3705 -1.8046  0.2459
 5301TIP3   OH237461   5.076   0.910   8.811 -0.1860 -0.2731 -0.2883
 5301TIP3    H137462   5.084   0.916   8.906  0.6141 -1.2495 -0.2818
 5301TIP3    H237463   5.138   0.974   8.777 -0.2387 -0.1532 -0.1600
 5302TIP3   OH237464   6.468   5.962   0.870  0.0744 -0.2338  0.4722
 5302TIP3    H137465   6.417   5.987   0.947  1.4364 -0.2679  1.4116
 5302TIP3    H237466   6.457   5.867   0.865 -1.7390 -0.0218 -0.6745
 5303TIP3   OH237467   1.800   1.522   2.084 -0.5260 -0.0897 -0.5052
 5303TIP3    H137468   1.893   1.542   2.096 -0.8124  0.8215  0.3002
 5303TIP3    H237469   1.794   1.428   2.102 -0.1718  0.3367  2.3455
 5304TIP3   OH237470   2.637   3.604   0.767  0.3091  0.2796  0.3839
 5304TIP3    H137471   2.676   3.578   0.850  0.1359  0.5928  0.5662
 5304TIP3    H237472   2.614   3.696   0.779  0.8534  0.5018 -0.2250
 5305TIP3   OH237473   4.920   4.430   1.391 -0.6281 -0.3483 -0.2255
 5305TIP3    H137474   4.843   4.467   1.434  0.2791 -0.2495  1.3830
 5305TIP3    H237475   4.930   4.343   1.432  0.3596 -0.1765 -0.0852
 5306TIP3   OH237476   1.489   2.473   1.654 -0.0706  0.0727 -0.2138
 5306TIP3    H137477   1.394   2.467   1.667 -0.2251 -1.5648 -1.7788
 5306TIP3    H237478   1.522   2.385   1.673  1.2217  0.7196  0.7050
 5307TIP3   OH237479   6.545   1.705   1.725  0.0026 -0.5443 -0.1530
 5307TIP3    H137480   6.628   1.660   1.738  0.3406 -0.4408 -1.8108
 5307TIP3    H237481   6.569   1.795   1.704 -0.6723  0.7151  3.5877
 5308TIP3   OH237482   3.882   5.510   0.214 -0.1523 -0.1818 -0.1158
 5308TIP3    H137483   3.907   5.591   0.170 -0.2848 -0.5893 -0.9605
 5308TIP3    H237484   3.786   5.510   0.212 -0.1678 -0.0317  0.4992
 5309TIP3   OH237485   4.038   2.448   1.789 -0.1326 -0.2497  0.1542
 5309TIP3    H137486   4.107   2.476   1.728 -0.1520 -0.5540 -0.0058
 5309TIP3    H237487   3.998   2.372   1.748 -0.5141 -0.1233  0.2869
 5310TIP3   OH237488   2.063   1.578   2.158 -0.7407  0.0056 -0.8295
 5310TIP3    H137489   2.117   1.562   2.080  1.9947 -0.6338  1.0312
 5310TIP3    H237490   2.097   1.661   2.193 -1.1726 -0.2745  0.2689
 5311TIP3   OH237491   2.043   0.350   0.165  0.7856  0.0685  0.6203
 5311TIP3    H137492   1.983   0.421   0.141 -0.1042 -1.5976 -2.7929
 5311TIP3    H237493   2.110   0.351   0.096  0.9955 -2.0888  0.7284
 5312TIP3   OH237494   3.197   4.862   0.244 -0.0494 -0.4874 -0.0433
 5312TIP3    H137495   3.227   4.879   0.155 -0.3931 -0.4896 -0.1628
 5312TIP3    H237496   3.130   4.929   0.259  0.5083 -0.0299  0.4766
 5313TIP3   OH237497   4.831   0.133   8.725 -0.0878  0.1689 -0.5118
 5313TIP3    H137498   4.806   0.221   8.696  1.6823  0.0501 -2.6555
 5313TIP3    H237499   4.799   0.075   8.656  0.0911 -0.7140  0.1269
 5314TIP3   OH237500   4.993   0.131   1.781  0.3066 -0.1412 -0.0865
 5314TIP3    H137501   4.917   0.178   1.747  1.2314  1.0821 -0.5212
 5314TIP3    H237502   5.060   0.198   1.792  1.2392 -1.1475  0.5760
 5315TIP3   OH237503   0.694   3.505   3.010  0.0955  0.6946  0.4812
 5315TIP3    H137504   0.766   3.501   3.072 -0.7786 -1.5201  1.4660
 5315TIP3    H237505   0.654   3.591   3.023 -0.1453  0.2555  3.1497
 5316TIP3   OH237506   5.768   2.044   1.993 -0.4374 -0.5336 -0.7808
 5316TIP3    H137507   5.689   2.011   2.036  0.7402  0.0408  1.9785
 5316TIP3    H237508   5.744   2.134   1.967 -1.4354 -1.1739 -2.2706
 5317TIP3   OH237509   3.361   0.330   3.324  0.7008  0.0542  0.1439
 5317TIP3    H137510   3.346   0.277   3.402 -3.5248  3.2647  1.8971
 5317TIP3    H237511   3.319   0.281   3.253  2.9688 -1.9978  0.0662
 5318TIP3   OH237512   1.182   1.021   1.536  0.6086  0.5791  0.1590
 5318TIP3    H137513   1.203   0.929   1.551 -1.2268  0.0901 -0.0588
 5318TIP3    H237514   1.189   1.061   1.623  1.7142  0.3225  0.2026
 5319TIP3   OH237515   6.570   2.656   2.903 -0.6249  0.3533  0.4358
 5319TIP3    H137516   6.537   2.614   2.982 -0.4202 -0.4513  0.0979
 5319TIP3    H237517   6.550   2.749   2.915 -2.3133  0.0061  0.5796
 5320TIP3   OH237518   0.672   3.271   0.266  0.1418 -0.3764 -0.5909
 5320TIP3    H137519   0.738   3.263   0.335 -0.7809 -1.3377  0.2279
 5320TIP3    H237520   0.619   3.347   0.292 -0.0377 -0.5726 -0.3725
 5321TIP3   OH237521   1.404   3.233   2.439 -0.2985  0.0828 -0.4463
 5321TIP3    H137522   1.419   3.283   2.359 -0.1308  0.6346 -0.0773
 5321TIP3    H237523   1.477   3.256   2.496 -0.1259 -0.7162 -0.3293
 5322TIP3   OH237524   2.862   5.474   7.845 -0.2525  0.3357 -0.1841
 5322TIP3    H137525   2.846   5.513   7.931 -1.9670  0.0688 -0.3396
 5322TIP3    H237526   2.869   5.380   7.862 -0.7016  0.2710 -0.3303
 5323TIP3   OH237527   5.932   3.514   2.126  0.0713  0.5229 -0.4020
 5323TIP3    H137528   5.898   3.603   2.118  1.2194  1.1352  1.1069
 5323TIP3    H237529   5.925   3.493   2.219  0.6651 -0.6229 -0.5910
 5324TIP3   OH237530   1.431   5.895   1.027 -0.2561  0.0687  0.1382
 5324TIP3    H137531   1.463   5.831   0.963 -1.1431  0.3199 -0.5805
 5324TIP3    H237532   1.336   5.893   1.017 -0.3684  0.5940  1.0024
 5325TIP3   OH237533   0.393   3.931   0.059 -0.1093 -0.1019  0.8681
 5325TIP3    H137534   0.417   3.977  -0.021 -2.2217  0.5825  0.5790
 5325TIP3    H237535   0.456   3.961   0.124  0.1527  1.1994  0.0489
 5326TIP3   OH237536   3.069   3.508   8.116 -0.4220  0.7972  0.6083
 5326TIP3    H137537   3.136   3.482   8.179 -0.7120  0.4680  0.7827
 5326TIP3    H237538   3.116   3.559   8.050  0.1937 -0.2987  0.1715
 5327TIP3   OH237539   6.410   6.716   0.077  0.5674 -0.2570  0.3063
 5327TIP3    H137540   6.334   6.732   0.020  0.9789 -0.4994 -0.3219
 5327TIP3    H237541   6.420   6.797   0.126  0.2234 -0.0290  0.0095
 5328TIP3   OH237542   6.634   1.396   7.358  0.0529 -0.0371 -0.2585
 5328TIP3    H137543   6.653   1.308   7.392 -0.9987  0.2289  1.1013
 5328TIP3    H237544   6.540   1.407   7.371  0.4486  2.0320  1.4914
 5329TIP3   OH237545   1.107   4.819   1.405  0.0404  0.2193  0.1092
 5329TIP3    H137546   1.047   4.853   1.472 -0.5776  1.2928 -0.9561
 5329TIP3    H237547   1.134   4.896   1.355  0.6117 -0.5358 -0.7772
 5330TIP3   OH237548   3.128   1.493   1.332  0.0069 -0.8516  0.1438
 5330TIP3    H137549   3.103   1.586   1.335  2.4959 -0.1095  2.3837
 5330TIP3    H237550   3.112   1.461   1.420 -1.0332 -2.6791 -0.6633
 5331TIP3   OH237551   1.687   6.170   2.077  0.2423 -0.2346 -0.0035
 5331TIP3    H137552   1.777   6.137   2.083  0.7521  0.5240 -2.3078
 5331TIP3    H237553   1.636   6.111   2.132  1.7437 -2.4053 -0.7855
 5332TIP3   OH237554   1.584   5.398   1.601 -0.1844  0.3018 -0.0440
 5332TIP3    H137555   1.532   5.354   1.669  1.4276 -1.3112  0.2222
 5332TIP3    H237556   1.609   5.328   1.541  3.2417  0.5748  0.8639
 5333TIP3   OH237557   4.596   0.591   0.183 -0.3867  0.0822  0.2693
 5333TIP3    H137558   4.585   0.545   0.100 -1.7933  1.2476 -0.2288
 5333TIP3    H237559   4.690   0.587   0.200 -0.3133 -1.9581 -0.3087
 5334TIP3   OH237560   5.605   2.126   7.234  0.5769 -0.5904  0.0190
 5334TIP3    H137561   5.526   2.181   7.231  1.3382  0.5464  0.1268
 5334TIP3    H237562   5.572   2.038   7.249 -0.6517 -0.0712  0.5295
 5335TIP3   OH237563   0.414   2.675   0.202  0.4833 -0.5778  0.2665
 5335TIP3    H137564   0.355   2.748   0.179  0.0940 -1.1183 -0.4971
 5335TIP3    H237565   0.501   2.715   0.208  0.0322  0.2901  1.6727
 5336TIP3   OH237566   4.191   1.035   0.930  0.2167  0.1350 -0.5255
 5336TIP3    H137567   4.134   1.111   0.944  0.8856  0.6366 -0.4772
 5336TIP3    H237568   4.145   0.982   0.865 -1.3360 -0.5498  1.0553
 5337TIP3   OH237569   5.947   2.560   8.660  0.5704  0.3636  0.1215
 5337TIP3    H137570   5.944   2.603   8.745 -1.1309 -0.3274  0.4478
 5337TIP3    H237571   5.908   2.624   8.600 -0.0260  0.0887  0.2181
 5338TIP3   OH237572   0.712   0.901   0.435  0.4717 -0.2219  0.1915
 5338TIP3    H137573   0.720   0.806   0.429  0.0511 -0.2319 -0.2738
 5338TIP3    H237574   0.801   0.934   0.427  0.7863 -0.6337  1.6298
 5339TIP3   OH237575   4.196   3.299   2.733  0.1845  0.0285 -0.6968
 5339TIP3    H137576   4.285   3.285   2.700  0.3584  1.8923 -1.1717
 5339TIP3    H237577   4.197   3.389   2.765 -1.3187 -0.1964  0.0451
 5340TIP3   OH237578   4.922   2.962   0.049  0.0326  0.0310  0.3815
 5340TIP3    H137579   4.846   3.008   0.014  0.0521 -0.9963 -1.0836
 5340TIP3    H237580   4.886   2.881   0.086  0.3389 -0.1900  0.1983
 5341TIP3   OH237581   0.525   3.979   1.794  0.1031  0.1179  0.9270
 5341TIP3    H137582   0.471   3.960   1.717  0.8990  0.0689  0.3607
 5341TIP3    H237583   0.580   3.902   1.804  1.5923  1.0278  0.1477
 5342TIP3   OH237584   4.212   0.347   7.853  0.4540  0.3449  0.1206
 5342TIP3    H137585   4.205   0.418   7.917  0.2879  0.2819  0.1708
 5342TIP3    H237586   4.300   0.311   7.868  0.2683  0.0757  0.5783
 5343TIP3   OH237587   0.148   3.036   0.294  0.5183 -0.3409 -0.3311
 5343TIP3    H137588   0.237   3.036   0.260  0.1729 -0.0823 -1.2808
 5343TIP3    H237589   0.153   2.987   0.376  1.3088 -1.3428 -0.9614
 5344TIP3   OH237590   4.595   0.775   0.847 -0.2560 -0.1523  0.4922
 5344TIP3    H137591   4.557   0.714   0.910  1.5094 -0.7588  1.0536
 5344TIP3    H237592   4.637   0.842   0.901  0.5145 -0.1934 -0.0376
 5345TIP3   OH237593   4.439   4.044   8.636 -0.0083 -0.2267  0.2022
 5345TIP3    H137594   4.364   4.097   8.611 -0.1862 -0.5617  0.0083
 5345TIP3    H237595   4.460   4.072   8.725  1.2640  1.6892 -0.6414
 5346TIP3   OH237596   4.255   0.630   8.033 -0.2797  0.3513 -0.0430
 5346TIP3    H137597   4.298   0.606   8.115 -0.7527 -0.9189 -0.1426
 5346TIP3    H237598   4.324   0.624   7.967 -0.4034 -0.9643 -0.0867
 5347TIP3   OH237599   6.541   5.049   1.591 -0.1532  0.0103 -0.2547
 5347TIP3    H137600   6.559   4.956   1.604 -1.0190 -0.2660 -0.9292
 5347TIP3    H237601   6.559   5.089   1.676  0.6492 -0.7004 -0.0811
 5348TIP3   OH237602   2.373   5.751   8.240  0.4165  0.8991 -0.4833
 5348TIP3    H137603   2.403   5.760   8.331  1.0310 -1.2981 -0.4092
 5348TIP3    H237604   2.453   5.733   8.190  0.1796  2.7222 -1.6085
 5349TIP3   OH237605   2.818   1.301   1.593 -0.0989 -0.1960 -0.3771
 5349TIP3    H137606   2.747   1.326   1.533 -1.7532 -2.1417  0.6203
 5349TIP3    H237607   2.853   1.220   1.555  1.1661  0.3770 -0.4780
 5350TIP3   OH237608   0.223   5.932   0.053 -0.3502  0.3143 -0.5620
 5350TIP3    H137609   0.292   5.958  -0.008 -1.3003  0.9851 -1.3895
 5350TIP3    H237610   0.191   6.014   0.089 -0.3779 -0.0282  0.2131
 5351TIP3   OH237611   5.067   4.470   7.867 -0.8581  0.0699 -0.2207
 5351TIP3    H137612   5.018   4.549   7.843 -3.3643 -1.2562  0.2640
 5351TIP3    H237613   5.114   4.447   7.787 -0.9639  1.4161 -0.7099
 5352TIP3   OH237614   2.903   6.650   2.120 -0.1015 -0.8506 -0.2920
 5352TIP3    H137615   2.886   6.731   2.072 -1.1550 -0.0738  1.3079
 5352TIP3    H237616   2.849   6.584   2.077  0.0984 -0.5120 -1.0724
 5353TIP3   OH237617   4.592   5.156   2.600  0.4462 -0.7808 -0.5322
 5353TIP3    H137618   4.650   5.087   2.632 -2.1839 -2.8336  0.1550
 5353TIP3    H237619   4.593   5.222   2.669  1.9226 -0.7196 -0.5618
 5354TIP3   OH237620   6.080   0.767   8.102 -0.0499  0.5071  0.3176
 5354TIP3    H137621   6.044   0.680   8.083  0.6059  0.0296  1.2178
 5354TIP3    H237622   6.049   0.787   8.190  1.7231  0.1354  1.0741
 5355TIP3   OH237623   3.252   1.358   8.800 -0.6706 -0.3316 -0.0819
 5355TIP3    H137624   3.251   1.268   8.832  1.0588 -0.1452  0.5664
 5355TIP3    H237625   3.172   1.397   8.835  0.2409 -0.6495  2.5887
 5356TIP3   OH237626   1.296   5.616   1.818 -0.1418 -0.4898  0.2852
 5356TIP3    H137627   1.384   5.579   1.823  0.8673  1.7126 -0.0129
 5356TIP3    H237628   1.281   5.630   1.725 -0.4630 -0.0676  0.3972
 5357TIP3   OH237629   1.812   1.698   0.551  0.4738 -0.8461  0.4704
 5357TIP3    H137630   1.854   1.667   0.470 -1.3513  3.3274 -2.4418
 5357TIP3    H237631   1.721   1.668   0.543  0.3543 -0.7045  1.2274
 5358TIP3   OH237632   3.172   3.248   0.854 -0.1009  0.0168 -0.6066
 5358TIP3    H137633   3.258   3.247   0.897 -0.6001 -0.0725  0.4217
 5358TIP3    H237634   3.191   3.224   0.763  0.7932 -1.5899 -0.0492
 5359TIP3   OH237635   0.622   2.837   0.089 -0.5124  0.2262 -0.1971
 5359TIP3    H137636   0.684   2.769   0.062 -0.6040  0.2479 -0.4635
 5359TIP3    H237637   0.674   2.917   0.093 -0.3689  0.1152  0.2719
 5360TIP3   OH237638   2.292   5.225   1.871  0.1452  0.0076  0.5298
 5360TIP3    H137639   2.378   5.266   1.859 -0.8623  2.5709  1.3878
 5360TIP3    H237640   2.259   5.210   1.782  0.6937  0.7807  0.1941
 5361TIP3   OH237641   5.801   2.498   8.149  0.0276 -0.1621 -0.0516
 5361TIP3    H137642   5.811   2.403   8.156  1.0616 -0.2018 -1.5139
 5361TIP3    H237643   5.800   2.515   8.055  1.3322  1.3903  0.1615
 5362TIP3   OH237644   2.285   3.921   0.500 -0.1860 -0.0750  0.3739
 5362TIP3    H137645   2.306   3.830   0.483 -0.0268  0.1413 -0.6735
 5362TIP3    H237646   2.300   3.965   0.416 -0.6099  0.8471  0.7668
 5363TIP3   OH237647   4.715   1.035   0.217 -0.3974  0.7403  0.1061
 5363TIP3    H137648   4.686   1.071   0.134 -1.6738  0.5395  0.4451
 5363TIP3    H237649   4.778   0.967   0.193 -1.6043 -0.1155 -0.7727
 5364TIP3   OH237650   5.083   3.958   1.649 -0.4766  0.0379  0.4106
 5364TIP3    H137651   5.040   3.908   1.579 -0.5600 -1.7090  1.6267
 5364TIP3    H237652   5.157   3.903   1.674  1.6792  2.2765 -0.6194
 5365TIP3   OH237653   3.421   0.277   8.280 -0.0487 -0.0582  0.3163
 5365TIP3    H137654   3.432   0.372   8.291  0.7079 -0.0833 -0.1667
 5365TIP3    H237655   3.456   0.259   8.193 -0.2828 -0.7713  0.3666
 5366TIP3   OH237656   1.497   0.735   7.776  0.3854 -0.4651 -0.2659
 5366TIP3    H137657   1.462   0.799   7.838  0.5039 -1.2514  0.6187
 5366TIP3    H237658   1.587   0.765   7.759  1.6069 -2.0426  2.5936
 5367TIP3   OH237659   4.538   4.853   2.647  0.0421 -0.0468  0.0589
 5367TIP3    H137660   4.625   4.880   2.619 -0.3310  0.7944 -0.3459
 5367TIP3    H237661   4.499   4.812   2.570  0.7754 -2.2844  0.8034
 5368TIP3   OH237662   4.302   5.132   8.774  0.2880 -0.4105 -0.1169
 5368TIP3    H137663   4.249   5.072   8.827 -0.6784  0.7205  0.2521
 5368TIP3    H237664   4.247   5.211   8.766  0.9055 -0.1253 -1.8287
 5369TIP3   OH237665   6.487   0.983   3.414  0.1756 -0.2756 -0.6054
 5369TIP3    H137666   6.431   1.053   3.447  0.4790 -0.0465 -0.5660
 5369TIP3    H237667   6.503   0.926   3.489  0.3965 -0.0691 -0.4926
 5370TIP3   OH237668   3.636   1.992   2.213  0.3064  0.1613  0.0962
 5370TIP3    H137669   3.640   2.061   2.279  1.0680  0.1779  0.0427
 5370TIP3    H237670   3.543   1.969   2.207  0.0604  1.1229  0.1676
 5371TIP3   OH237671   2.746   1.269   8.744  0.1133 -0.2838  0.2367
 5371TIP3    H137672   2.772   1.336   8.680 -2.6847  1.5143  0.8245
 5371TIP3    H237673   2.726   1.319   8.823 -3.4227 -1.5361  0.2975
 5372TIP3   OH237674   1.490   4.370   0.509  0.3094 -0.0121 -0.9242
 5372TIP3    H137675   1.432   4.352   0.435 -0.6555 -1.1772  0.0723
 5372TIP3    H237676   1.430   4.386   0.582  1.2452 -0.2453 -0.0919
 5373TIP3   OH237677   2.008   3.686   2.062 -0.1011 -0.3742  0.2176
 5373TIP3    H137678   1.925   3.695   2.016  0.7113 -0.0241 -1.2357
 5373TIP3    H237679   2.022   3.771   2.104  0.4755  0.2828 -1.2383
 5374TIP3   OH237680   3.482   4.189   2.394  0.5462 -0.1311 -0.3061
 5374TIP3    H137681   3.497   4.129   2.321 -0.1526 -0.0578 -0.5202
 5374TIP3    H237682   3.503   4.137   2.472 -0.6323 -0.8707 -0.4529
 5375TIP3   OH237683   1.341   2.523   0.003 -0.4977 -0.0049  0.6389
 5375TIP3    H137684   1.336   2.557   0.092 -0.5908  1.7876 -0.0111
 5375TIP3    H237685   1.338   2.428   0.013 -3.4687  0.1753  2.3661
 5376TIP3   OH237686   1.500   0.036   0.562 -0.7810 -0.4536 -0.2468
 5376TIP3    H137687   1.465  -0.041   0.517 -0.7729 -0.4705 -0.2246
 5376TIP3    H237688   1.425   0.094   0.573 -0.6948 -0.2589 -0.6743
 5377TIP3   OH237689   6.572   5.534   0.771  0.1535  0.2936  0.2253
 5377TIP3    H137690   6.513   5.460   0.787  0.9707 -0.1672  1.2780
 5377TIP3    H237691   6.547   5.599   0.836 -0.7764  1.1031 -0.9086
 5378TIP3   OH237692   2.995   4.672   8.843  0.1792 -0.3232  0.6495
 5378TIP3    H137693   2.967   4.688   8.933  1.8591 -1.0838  1.3436
 5378TIP3    H237694   2.997   4.577   8.835  0.4965 -0.2614 -0.0497
 5379TIP3   OH237695   5.190   5.018   7.867 -0.0420  0.7874 -0.2051
 5379TIP3    H137696   5.106   5.038   7.826 -1.0645  0.4887  1.6298
 5379TIP3    H237697   5.242   4.978   7.797 -1.4403  0.9138 -1.3622
 5380TIP3   OH237698   1.372   1.320   1.961 -0.0065  0.4163  0.3276
 5380TIP3    H137699   1.456   1.276   1.943  0.0461  0.6078  0.1053
 5380TIP3    H237700   1.374   1.336   2.055 -0.1571 -0.3271  0.4694
 5381TIP3   OH237701   0.254   4.934   7.396 -0.0006  0.1011  0.2423
 5381TIP3    H137702   0.255   4.997   7.324 -2.0960  0.1705  0.2108
 5381TIP3    H237703   0.232   4.986   7.474 -1.3725 -0.4788  0.2764
 5382TIP3   OH237704   2.568   4.944   2.181  0.0260 -0.9540  0.5951
 5382TIP3    H137705   2.622   4.870   2.208  1.4603 -0.5601 -0.9788
 5382TIP3    H237706   2.498   4.904   2.129  2.1425 -1.1844 -2.3526
 5383TIP3   OH237707   4.527   3.056   1.849 -0.0239  0.5155 -0.5192
 5383TIP3    H137708   4.557   2.969   1.823  1.3916  0.7482  0.2417
 5383TIP3    H237709   4.464   3.040   1.919  1.1731  0.1149  0.5055
 5384TIP3   OH237710   1.122   5.940   8.153  0.1222  0.5554  0.0243
 5384TIP3    H137711   1.147   5.954   8.061  1.2526  1.6847  0.4657
 5384TIP3    H237712   1.029   5.963   8.156 -0.5599 -1.7162 -1.2543
 5385TIP3   OH237713   5.656   0.147   3.354 -0.2286  1.1569 -0.4614
 5385TIP3    H137714   5.647   0.057   3.324 -1.2855  1.3483 -0.7612
 5385TIP3    H237715   5.638   0.200   3.277 -5.4452  1.7221  0.7625
 5386TIP3   OH237716   1.927   5.651   1.495  0.1440 -0.5003 -0.1634
 5386TIP3    H137717   1.973   5.712   1.553 -2.8465  0.0102  1.9183
 5386TIP3    H237718   1.866   5.705   1.446 -0.9268 -1.5275 -0.0044
 5387TIP3   OH237719   1.363   3.570   8.352 -0.2520 -0.0251  0.1892
 5387TIP3    H137720   1.378   3.649   8.299 -3.8689  1.1379  0.6463
 5387TIP3    H237721   1.416   3.584   8.431  2.2673 -0.0454 -1.3688
 5388TIP3   OH237722   4.069   6.664   8.028  0.0170  0.1457 -0.2078
 5388TIP3    H137723   4.141   6.668   7.964  0.4510 -2.1027  0.0289
 5388TIP3    H237724   3.991   6.685   7.977  0.4901 -0.4733 -1.2383
 5389TIP3   OH237725   2.822   1.054   0.593 -0.1561 -0.5883 -0.3790
 5389TIP3    H137726   2.885   1.114   0.631 -2.2187 -0.0927  2.6332
 5389TIP3    H237727   2.824   1.073   0.499  0.4452  3.0755  0.2223
 5390TIP3   OH237728   2.948   5.691   0.295  0.5799  0.2131 -0.1874
 5390TIP3    H137729   3.020   5.630   0.279  0.2544 -0.3112  0.3403
 5390TIP3    H237730   2.966   5.728   0.381  1.3530  1.6857 -0.9390
 5391TIP3   OH237731   2.342   0.312   8.320  0.3039  0.2492 -0.0172
 5391TIP3    H137732   2.296   0.387   8.282  0.9407  0.1556 -1.0156
 5391TIP3    H237733   2.281   0.275   8.383 -0.0219  1.6069  0.4843
 5392TIP3   OH237734   5.966   1.478   0.380 -0.0668  0.2162  0.2855
 5392TIP3    H137735   5.927   1.409   0.435 -0.1578 -2.0371 -2.3680
 5392TIP3    H237736   5.890   1.526   0.346 -0.1748 -0.0478  0.1429
 5393TIP3   OH237737   1.837   1.906   0.295  0.3234 -0.0075 -0.3741
 5393TIP3    H137738   1.807   1.816   0.307  0.2274  0.1619  0.8603
 5393TIP3    H237739   1.895   1.903   0.219 -0.7903 -0.8332 -1.2115
 5394TIP3   OH237740   0.616   1.827   0.119  0.1032 -0.5050  0.5535
 5394TIP3    H137741   0.574   1.912   0.128  0.0651 -0.3604 -0.7413
 5394TIP3    H237742   0.705   1.840   0.151 -0.2034 -0.2645  1.3300
 5395TIP3   OH237743   4.758   1.197   3.083 -0.4231  0.5366  0.1411
 5395TIP3    H137744   4.667   1.216   3.058 -0.8261 -1.1529  0.1978
 5395TIP3    H237745   4.752   1.169   3.174  0.1256  0.2364  0.0893
 5396TIP3   OH237746   3.205   0.762   8.342 -1.0118  0.0168  0.1353
 5396TIP3    H137747   3.125   0.716   8.315 -0.8126  0.3389 -1.0695
 5396TIP3    H237748   3.183   0.854   8.336  0.0893  0.1987 -2.5122
 5397TIP3   OH237749   5.696   2.795   2.385  0.5716 -0.0811  0.2193
 5397TIP3    H137750   5.772   2.755   2.343  1.3768  0.8392  0.7893
 5397TIP3    H237751   5.633   2.722   2.393  1.5801 -0.9786  0.2266
 5398TIP3   OH237752   5.444   3.569   1.794  0.1790  0.4615  0.3396
 5398TIP3    H137753   5.466   3.479   1.816  2.0372  0.9075  0.5232
 5398TIP3    H237754   5.401   3.603   1.873 -0.8068 -0.3159  0.1618
 5399TIP3   OH237755   3.691   2.263   0.675  0.3906  0.1257  0.4697
 5399TIP3    H137756   3.672   2.251   0.768  1.3624 -4.8731  0.3108
 5399TIP3    H237757   3.605   2.274   0.634 -0.3407 -0.8826  1.6662
 5400TIP3   OH237758   0.153   5.174   0.413 -0.1238  0.4611 -0.0803
 5400TIP3    H137759   0.190   5.255   0.376  0.1516 -0.2370 -1.3814
 5400TIP3    H237760   0.063   5.172   0.382  0.4012 -0.6454 -1.6599
 5401TIP3   OH237761   6.145   1.692   3.027  0.5192  0.2674 -0.0216
 5401TIP3    H137762   6.101   1.719   2.947 -1.3498 -0.7783  0.6022
 5401TIP3    H237763   6.158   1.774   3.076  0.2369  0.7119 -0.6760
 5402TIP3   OH237764   4.692   4.013   2.659 -0.0436 -0.6730  0.0755
 5402TIP3    H137765   4.681   3.948   2.729  1.2614 -0.1002  0.8542
 5402TIP3    H237766   4.774   3.989   2.616  0.0792  0.0254 -0.0971
 5403TIP3   OH237767   3.583   6.536   1.441  0.1140  0.2970  0.0203
 5403TIP3    H137768   3.613   6.585   1.364  1.5625 -0.0766  0.3107
 5403TIP3    H237769   3.652   6.550   1.506 -1.6971  1.6884  1.7617
 5404TIP3   OH237770   3.348   5.779   1.416  0.0072 -0.2305  0.5272
 5404TIP3    H137771   3.373   5.747   1.329  0.5376  0.2053  0.5138
 5404TIP3    H237772   3.358   5.874   1.410 -0.9859 -0.0995  0.7460
 5405TIP3   OH237773   2.699   1.470   3.137  0.1826  0.1484  0.0069
 5405TIP3    H137774   2.606   1.492   3.143 -0.0823 -0.8767 -0.0605
 5405TIP3    H237775   2.720   1.429   3.221  0.4981  0.1314 -0.0769
 5406TIP3   OH237776   4.749   4.955   6.962  0.7410 -0.0867 -0.2782
 5406TIP3    H137777   4.803   5.002   6.899 -0.0512 -0.6027 -1.3767
 5406TIP3    H237778   4.663   4.947   6.919 -0.0516  0.2370  1.1914
 5407TIP3   OH237779   5.529   3.306   0.791 -0.0801 -0.2336 -0.4474
 5407TIP3    H137780   5.618   3.283   0.817 -0.2492 -1.9992 -1.2383
 5407TIP3    H237781   5.482   3.316   0.874  0.9182  1.0875 -0.0186
 5408TIP3   OH237782   4.676   3.277   2.515  0.6464 -0.2048 -0.0437
 5408TIP3    H137783   4.742   3.346   2.506  0.7066 -0.4481 -1.8100
 5408TIP3    H237784   4.726   3.196   2.527  0.5763 -0.0226  1.8942
 5409TIP3   OH237785   1.584   6.019   2.289 -0.3536  0.0189 -0.2255
 5409TIP3    H137786   1.620   6.090   2.342  1.5786 -1.5096  0.6380
 5409TIP3    H237787   1.627   5.940   2.321 -0.7385 -1.2766 -2.6130
 5410TIP3   OH237788   1.504   4.484   8.656  0.4993 -0.6394  0.1658
 5410TIP3    H137789   1.533   4.575   8.662  0.7267 -0.4790 -2.3469
 5410TIP3    H237790   1.410   4.490   8.639  0.4344 -0.8893  0.4300
 5411TIP3   OH237791   0.285   4.258   1.303  0.0718  0.2069 -0.0719
 5411TIP3    H137792   0.352   4.315   1.266 -0.1252  0.6499  0.2414
 5411TIP3    H237793   0.221   4.318   1.342 -0.7940 -0.1763 -0.8461
 5412TIP3   OH237794   2.790   0.424   2.569 -1.2239  0.2043  0.3181
 5412TIP3    H137795   2.875   0.449   2.532 -1.8389  0.1148 -1.2508
 5412TIP3    H237796   2.812   0.370   2.645  0.1108  0.9874  0.5263
 5413TIP3   OH237797   5.698   0.535   1.989  0.0592  0.3807 -0.0417
 5413TIP3    H137798   5.691   0.568   1.899  1.1753  0.0869 -0.2614
 5413TIP3    H237799   5.644   0.456   1.990  1.4938 -0.6942 -1.0380
 5414TIP3   OH237800   3.611   3.249   0.757  0.0242  0.2399  0.0963
 5414TIP3    H137801   3.638   3.186   0.823  0.1384  0.2483  0.0581
 5414TIP3    H237802   3.653   3.331   0.782  1.0602 -0.0348 -0.6452
 5415TIP3   OH237803   3.369   4.074   1.862 -0.3049 -0.4958  0.1296
 5415TIP3    H137804   3.328   4.133   1.799  1.3491  0.5758  0.0021
 5415TIP3    H237805   3.440   4.032   1.813  0.5514 -0.1787  1.0637
 5416TIP3   OH237806   3.376   3.286   3.401 -0.3661  0.1078  0.7349
 5416TIP3    H137807   3.284   3.273   3.377 -0.3821 -1.8073  1.6175
 5416TIP3    H237808   3.400   3.370   3.362 -2.2140  0.1946 -0.3143
 5417TIP3   OH237809   5.148   5.005   0.818  0.1953 -0.4608  0.5289
 5417TIP3    H137810   5.064   5.043   0.842 -0.2772 -2.6301  2.6495
 5417TIP3    H237811   5.211   5.050   0.874  0.5116  1.0242 -0.9219
 5418TIP3   OH237812   5.516   2.075   1.289  0.6407  0.3234 -0.0319
 5418TIP3    H137813   5.568   2.131   1.231 -0.3973  0.3073 -1.0047
 5418TIP3    H237814   5.451   2.134   1.328 -0.3881 -0.1613 -0.9766
 5419TIP3   OH237815   2.983   5.132   1.372 -0.3960  0.6088  0.0156
 5419TIP3    H137816   2.937   5.096   1.447 -0.6196  1.3496  0.2432
 5419TIP3    H237817   2.914   5.162   1.313 -0.2210  0.0852 -0.4700
 5420TIP3   OH237818   1.151   5.501   8.235  0.2543 -0.2382 -0.1084
 5420TIP3    H137819   1.229   5.556   8.246  0.6105 -0.3993 -1.6107
 5420TIP3    H237820   1.152   5.443   8.312  0.2898  1.3076  1.1154
 5421TIP3   OH237821   6.683   3.334   1.803  0.1459 -0.2008  0.2176
 5421TIP3    H137822   6.735   3.371   1.732  0.4296 -0.7601  0.1212
 5421TIP3    H237823   6.625   3.404   1.830 -0.2203 -0.0929 -0.8117
 5422TIP3   OH237824   1.855   4.479   0.332 -0.1825 -0.3083  0.3685
 5422TIP3    H137825   1.945   4.478   0.364 -0.3856 -1.0798  0.9500
 5422TIP3    H237826   1.854   4.413   0.262 -0.0922  0.3230 -0.2327
 5423TIP3   OH237827   3.010   3.049   2.630 -0.0925 -0.1567 -0.0369
 5423TIP3    H137828   3.054   3.128   2.662  0.9211 -0.2171 -1.1993
 5423TIP3    H237829   2.959   3.018   2.705  1.2532  0.3514  1.1569
 5424TIP3   OH237830   1.917   1.866   8.505  0.0065  0.4713  0.5243
 5424TIP3    H137831   2.005   1.829   8.513 -0.2828 -0.5901 -0.8787
 5424TIP3    H237832   1.927   1.957   8.533  1.8847  0.7860 -0.9432
 5425TIP3   OH237833   2.706   4.041   0.704  0.3886 -0.0933 -0.4170
 5425TIP3    H137834   2.696   4.056   0.798  0.4373  0.1773 -0.4564
 5425TIP3    H237835   2.617   4.049   0.669  0.2422 -0.9803 -0.2818
 5426TIP3   OH237836   5.881   6.297   8.635 -0.4411  0.5659  0.0828
 5426TIP3    H137837   5.896   6.390   8.652 -0.2819  0.9546 -1.9229
 5426TIP3    H237838   5.926   6.252   8.707 -1.2323  2.0245  1.5536
 5427TIP3   OH237839   0.730   3.515   8.795 -0.1527 -0.0356 -0.0124
 5427TIP3    H137840   0.712   3.609   8.795 -0.1630 -0.0360  0.3856
 5427TIP3    H237841   0.753   3.495   8.704 -3.7322 -0.3357 -0.9970
 5428TIP3   OH237842   5.175   3.384   1.652  0.0349 -0.2467 -0.2895
 5428TIP3    H137843   5.136   3.471   1.659  0.2614 -0.2499  1.1601
 5428TIP3    H237844   5.260   3.399   1.610 -0.8268 -0.0632 -2.0723
 5429TIP3   OH237845   4.339   0.189   0.815 -0.2619  0.4516  0.3121
 5429TIP3    H137846   4.415   0.156   0.864  0.2486 -0.3441 -0.9663
 5429TIP3    H237847   4.366   0.276   0.785  0.0630  0.2734  0.0752
 5430TIP3   OH237848   2.957   1.252   0.706 -0.1159 -0.3354 -0.2698
 5430TIP3    H137849   2.992   1.278   0.792  1.0528 -1.4037 -0.4007
 5430TIP3    H237850   3.000   1.311   0.644  0.6237 -0.9053 -0.3139
 5431TIP3   OH237851   1.945   6.594   8.232 -0.1454  0.8895  0.7119
 5431TIP3    H137852   1.973   6.608   8.142  0.0877 -1.3772  0.3682
 5431TIP3    H237853   1.871   6.654   8.244  0.7475  2.2928 -0.4675
 5432TIP3   OH237854   0.778   1.411   2.791 -0.1257 -0.0031 -0.6487
 5432TIP3    H137855   0.764   1.464   2.870  1.4214  0.1001 -0.3956
 5432TIP3    H237856   0.765   1.321   2.820  0.1521  0.0538 -0.3248
 5433TIP3   OH237857   5.848   5.163   0.468 -0.7942  0.1199 -0.0616
 5433TIP3    H137858   5.890   5.217   0.401 -1.6139 -2.3840 -2.8082
 5433TIP3    H237859   5.758   5.195   0.473 -0.0902  2.0848  2.0219
 5434TIP3   OH237860   0.311   1.106   2.885  0.1175  0.2342 -0.0222
 5434TIP3    H137861   0.318   1.029   2.941  0.2875 -0.0978 -0.4912
 5434TIP3    H237862   0.400   1.123   2.856 -0.1295 -0.4055 -1.2467
 5435TIP3   OH237863   3.772   0.939   8.045  0.6457  0.4338 -0.0313
 5435TIP3    H137864   3.704   0.932   7.979  1.6081  0.9989 -1.1217
 5435TIP3    H237865   3.810   0.852   8.050  0.5798  0.3925 -0.2488
 5436TIP3   OH237866   6.761   2.270   1.091  0.2007  0.4247  0.2526
 5436TIP3    H137867   6.811   2.191   1.073  0.5310  0.5763  0.4892
 5436TIP3    H237868   6.695   2.242   1.155  1.0266  0.5760  1.1966
 5437TIP3   OH237869   6.500   6.752   0.396 -0.2163 -0.0490 -0.1281
 5437TIP3    H137870   6.446   6.673   0.400  0.9509 -1.0057 -1.7365
 5437TIP3    H237871   6.446   6.816   0.351 -0.7018 -0.3544  0.0056
 5438TIP3   OH237872   5.155   4.686   0.170  0.6340  0.4925 -0.0420
 5438TIP3    H137873   5.226   4.745   0.194  2.1505 -1.2877  0.0791
 5438TIP3    H237874   5.166   4.672   0.076  1.8325 -1.4169  0.3200
 5439TIP3   OH237875   5.908   2.375   0.499  1.1467 -0.1933  0.0148
 5439TIP3    H137876   5.925   2.289   0.460 -0.2917 -1.0186  1.1357
 5439TIP3    H237877   5.913   2.361   0.593  0.3035  0.8074  0.2344
 5440TIP3   OH237878   1.887   5.541   7.522  0.7507  0.4677  0.1599
 5440TIP3    H137879   1.934   5.610   7.474 -0.2995  1.1855  0.1365
 5440TIP3    H237880   1.881   5.573   7.611 -2.3549  1.8790 -0.4364
 5441TIP3   OH237881   0.164   1.752   7.055  0.1660 -0.2914 -0.1917
 5441TIP3    H137882   0.097   1.760   6.987  0.0144  1.7315  0.1382
 5441TIP3    H237883   0.143   1.821   7.118  2.3418  0.1703  0.0976
 5442TIP3   OH237884   6.706   6.138   0.831 -0.3183  0.5811 -0.7900
 5442TIP3    H137885   6.725   6.163   0.740  1.3555 -2.3522 -1.3957
 5442TIP3    H237886   6.620   6.097   0.828  0.2957 -0.7575 -1.4365
 5443TIP3   OH237887   6.511   0.583   7.717 -0.0839  0.7344 -0.4128
 5443TIP3    H137888   6.519   0.653   7.652  0.8280  0.1778 -0.9187
 5443TIP3    H237889   6.477   0.508   7.667 -0.1096  0.5243 -0.0811
 5444TIP3   OH237890   6.044   3.831   0.108  0.7852  0.4782  0.3236
 5444TIP3    H137891   6.030   3.784   0.026 -1.7448 -0.8793  1.4057
 5444TIP3    H237892   6.020   3.921   0.089 -2.0580 -0.2532  0.0395
 5445TIP3   OH237893   0.221   1.287   0.509 -0.5004 -0.1402 -0.9282
 5445TIP3    H137894   0.185   1.355   0.452 -0.7147  0.5851  0.0556
 5445TIP3    H237895   0.172   1.296   0.591 -1.1005 -2.0036 -1.0315
 5446TIP3   OH237896   1.252   3.985   8.142  0.4463 -0.0814  0.3080
 5446TIP3    H137897   1.193   4.059   8.147  2.1829  1.2827  1.8101
 5446TIP3    H237898   1.198   3.914   8.107 -1.1373  1.9813 -1.7473
 5447TIP3   OH237899   1.435   0.038   8.692 -0.3394 -0.1682  0.1972
 5447TIP3    H137900   1.371   0.074   8.753 -2.7187 -2.9437 -0.4681
 5447TIP3    H237901   1.492  -0.018   8.747  0.8583  1.3592  0.5897
 5448TIP3   OH237902   2.705   6.444   8.199  0.0340 -0.2992  0.5800
 5448TIP3    H137903   2.782   6.477   8.244  1.2900 -0.8818 -1.0363
 5448TIP3    H237904   2.666   6.382   8.260 -0.9735  2.2462  2.6628
 5449TIP3   OH237905   1.615   5.869   1.877  0.3040  0.4522 -0.0163
 5449TIP3    H137906   1.614   5.775   1.857 -0.0746 -0.1594  2.5535
 5449TIP3    H237907   1.668   5.908   1.807  0.9050 -1.7218 -0.8482
 5450TIP3   OH237908   0.824   3.041   1.331 -0.0142 -0.1339  0.2632
 5450TIP3    H137909   0.773   3.031   1.411 -0.6150 -2.1561 -0.3076
 5450TIP3    H237910   0.915   3.023   1.358  0.0390  0.8691  0.7859
 5451TIP3   OH237911   2.422   6.079   1.555  0.2397 -0.4081 -0.2756
 5451TIP3    H137912   2.364   6.053   1.627 -1.0330  0.4532 -0.9437
 5451TIP3    H237913   2.462   5.997   1.526 -1.3954 -1.2073 -0.3962
 5452TIP3   OH237914   3.706   0.136   8.331  0.3146 -0.7408  0.0025
 5452TIP3    H137915   3.632   0.187   8.296  0.0378 -1.1469 -0.0159
 5452TIP3    H237916   3.665   0.058   8.369  0.6719 -0.5886  0.7020
 5453TIP3   OH237917   1.455   6.287   0.422  0.5916 -0.0975 -0.1343
 5453TIP3    H137918   1.438   6.216   0.360 -0.0253  0.8339 -1.0767
 5453TIP3    H237919   1.368   6.312   0.454  0.7444  0.5914 -0.2394
 5454TIP3   OH237920   4.576   3.797   7.762  0.6640 -0.5408 -0.6419
 5454TIP3    H137921   4.654   3.767   7.809 -0.2082  0.0209  1.2466
 5454TIP3    H237922   4.506   3.738   7.791 -0.3399  1.1113  0.4862
 5455TIP3   OH237923   4.266   4.578   0.830  0.2045 -0.1276 -0.2182
 5455TIP3    H137924   4.299   4.506   0.884  1.4111  1.1924  0.8806
 5455TIP3    H237925   4.285   4.550   0.740  0.8748 -1.0817  0.2003
 5456TIP3   OH237926   2.865   5.032   0.947  0.1614 -0.0957 -0.1625
 5456TIP3    H137927   2.862   5.126   0.965 -0.5639 -0.2250  0.4611
 5456TIP3    H237928   2.810   4.993   1.015 -1.6785 -0.7416 -1.9217
 5457TIP3   OH237929   2.009   2.820   7.939 -0.2564 -0.1205 -0.3448
 5457TIP3    H137930   1.989   2.731   7.911  1.9362 -0.5815 -0.6390
 5457TIP3    H237931   2.013   2.871   7.858 -0.2617 -0.0252 -0.2858
 5458TIP3   OH237932   6.624   5.799   8.075 -0.1086  0.2768 -0.2767
 5458TIP3    H137933   6.669   5.717   8.099 -0.5678 -0.4209 -1.6977
 5458TIP3    H237934   6.663   5.865   8.132  0.7130 -0.8219  0.4766
 5459TIP3   OH237935   4.649   5.017   0.514  0.6648  0.1043  0.0793
 5459TIP3    H137936   4.719   4.952   0.517  0.7454  0.2265  1.5777
 5459TIP3    H237937   4.690   5.096   0.478  0.7528 -0.4299 -1.0303
 5460TIP3   OH237938   5.907   5.922   8.121 -0.3976  0.2357  0.1260
 5460TIP3    H137939   5.947   5.911   8.035 -1.1030 -0.7635 -0.0916
 5460TIP3    H237940   5.978   5.955   8.177  0.5699 -0.9237 -0.3809
 5461TIP3   OH237941   1.588   0.389   2.568 -0.2412  0.1080 -0.2392
 5461TIP3    H137942   1.551   0.451   2.505  0.6611  0.6192 -0.2817
 5461TIP3    H237943   1.550   0.305   2.544  0.2570  0.2512 -1.6203
 5462TIP3   OH237944   6.577   5.514   8.085 -0.2921  0.3291  0.5603
 5462TIP3    H137945   6.564   5.484   8.174  2.4214  1.4318  1.4212
 5462TIP3    H237946   6.658   5.473   8.056 -1.8241 -1.1980 -2.0497
 5463TIP3   OH237947   0.489   1.206   2.707  0.4636  0.2780 -0.3638
 5463TIP3    H137948   0.453   1.230   2.622 -0.0719  0.5043 -0.0836
 5463TIP3    H237949   0.575   1.169   2.688  0.2852  0.1885 -1.0109
 5464TIP3   OH237950   1.522   0.874   1.209 -0.2282 -0.2082  0.1345
 5464TIP3    H137951   1.568   0.942   1.259 -1.6287  1.6859 -1.0428
 5464TIP3    H237952   1.540   0.793   1.257  4.3589  0.3216 -0.2661
 5465TIP3   OH237953   5.808   0.980   0.357 -0.3388  0.0490 -0.1231
 5465TIP3    H137954   5.865   1.038   0.307 -0.0105  2.2118  2.5233
 5465TIP3    H237955   5.867   0.938   0.421 -1.1491 -0.5023  0.2824
 5466TIP3   OH237956   4.829   3.325   8.882 -0.1347  0.0692 -0.0278
 5466TIP3    H137957   4.815   3.392   8.814  2.1504  0.2132 -0.4206
 5466TIP3    H237958   4.899   3.361   8.936 -0.5704 -0.9457  1.2394
 5467TIP3   OH237959   3.429   2.012   0.348 -0.0376  0.7091  0.0902
 5467TIP3    H137960   3.397   1.934   0.302 -0.0811  0.8434 -0.1095
 5467TIP3    H237961   3.349   2.054   0.381  0.0014  0.5571  0.3794
 5468TIP3   OH237962   5.056   3.997   0.222 -0.2497  0.5240  0.3929
 5468TIP3    H137963   5.101   4.072   0.183  1.2077 -0.3990  0.1865
 5468TIP3    H237964   5.045   3.936   0.149 -0.1122 -0.0385  0.8325
 5469TIP3   OH237965   3.139   3.219   3.286  0.5163 -0.0670  0.5681
 5469TIP3    H137966   3.194   3.256   3.217  2.5764 -0.8386  1.6929
 5469TIP3    H237967   3.059   3.192   3.242  1.2761  0.5438 -1.2761
 5470TIP3   OH237968   2.916   6.126   1.881 -0.0433 -0.0722  0.1721
 5470TIP3    H137969   2.940   6.119   1.973  0.2165 -0.6052  0.0678
 5470TIP3    H237970   2.920   6.220   1.862  0.7623 -0.0415  0.4734
 5471TIP3   OH237971   5.466   1.345   1.440 -0.3226  0.2009  0.0439
 5471TIP3    H137972   5.374   1.329   1.462 -0.4986 -0.0275 -0.8303
 5471TIP3    H237973   5.508   1.260   1.448 -0.0238  0.4334  1.1393
 5472TIP3   OH237974   0.564   0.955   1.319 -0.1718  0.4974 -0.5838
 5472TIP3    H137975   0.591   0.884   1.377 -0.8785 -0.7040 -1.6562
 5472TIP3    H237976   0.480   0.925   1.282  0.1502  1.2991 -2.0407
 5473TIP3   OH237977   0.324   4.765   8.145 -0.3295 -0.3676  0.0400
 5473TIP3    H137978   0.278   4.844   8.173  0.3302  0.2629 -0.6139
 5473TIP3    H237979   0.272   4.732   8.071 -1.0158 -0.9831  0.7660
 5474TIP3   OH237980   0.336   0.585   1.201  0.4391 -0.5028 -0.1329
 5474TIP3    H137981   0.323   0.608   1.293  1.8407  2.3700 -0.5291
 5474TIP3    H237982   0.410   0.525   1.202 -0.1321 -1.2202  0.6481
 5475TIP3   OH237983   5.415   4.517   0.087 -0.3396  0.6239 -0.0636
 5475TIP3    H137984   5.432   4.544   0.178  1.1460  1.2561 -0.4900
 5475TIP3    H237985   5.497   4.476   0.059 -0.8950  0.1482 -1.0199
 5476TIP3   OH237986   3.099   0.880   1.328  0.3560 -0.1716  0.1603
 5476TIP3    H137987   3.092   0.853   1.236  0.7115 -0.6396  0.2678
 5476TIP3    H237988   3.138   0.805   1.372 -2.5005 -1.1323  1.2669
 5477TIP3   OH237989   1.826   6.053   1.292 -0.2062 -0.4300  0.4922
 5477TIP3    H137990   1.773   5.988   1.246  0.3536 -0.1937 -0.5097
 5477TIP3    H237991   1.879   6.094   1.223 -1.3839  1.9067  0.8628
 5478TIP3   OH237992   0.179   0.575   0.989 -0.0838  0.3627  0.1734
 5478TIP3    H137993   0.139   0.496   1.024 -0.4617  0.7983  0.7539
 5478TIP3    H237994   0.252   0.593   1.048  0.5465 -0.0425 -0.4764
 5479TIP3   OH237995   1.712   4.366   8.060  0.0819 -0.0560  0.4305
 5479TIP3    H137996   1.692   4.383   7.968 -0.6829  0.2159  0.6308
 5479TIP3    H237997   1.801   4.333   8.060  1.2579  2.8561 -0.1309
 5480TIP3   OH237998   3.016   3.996   0.049 -0.0287  0.1726 -0.2016
 5480TIP3    H137999   3.063   4.004   0.132  0.3099  0.9414 -0.4570
 5480TIP3    H238000   2.941   3.940   0.069 -0.0130  0.4441  0.6496
 5481TIP3   OH238001   1.468   1.707   0.636  0.1395 -0.2628  0.1203
 5481TIP3    H138002   1.452   1.648   0.710  1.0173 -2.2353 -1.1718
 5481TIP3    H238003   1.426   1.664   0.562 -0.7644  1.6998 -0.5634
 5482TIP3   OH238004   2.779   1.577   3.767  0.1140  0.0586 -0.2322
 5482TIP3    H138005   2.818   1.648   3.715 -0.0565  0.4813  0.2153
 5482TIP3    H238006   2.693   1.564   3.727 -0.4499  1.1042  0.5791
 5483TIP3   OH238007   4.735   3.159   2.015  0.1065 -0.1442  0.1400
 5483TIP3    H138008   4.798   3.210   1.965 -2.9795  2.7873 -1.1675
 5483TIP3    H238009   4.678   3.119   1.950 -1.4430  0.1980  1.2224
 5484TIP3   OH238010   2.261   1.150   3.069  0.2746 -0.0831  0.8992
 5484TIP3    H138011   2.296   1.180   2.986  0.3172  0.6421  1.1709
 5484TIP3    H238012   2.284   1.219   3.131 -1.3785  0.2949  1.1349
 5485TIP3   OH238013   0.586   3.283   8.875  0.6917 -0.3329  0.3720
 5485TIP3    H138014   0.570   3.252   8.786  0.4586 -0.1134  0.3377
 5485TIP3    H238015   0.666   3.335   8.869  3.4894 -4.1026  1.1105
 5486TIP3   OH238016   3.038   0.445   8.620 -0.1263 -0.2206 -0.0274
 5486TIP3    H138017   3.089   0.425   8.541 -0.4403 -0.6628 -0.1212
 5486TIP3    H238018   3.103   0.446   8.691 -0.1300 -1.8821  0.0340
 5487TIP3   OH238019   0.769   4.733   2.655  0.7098  0.0310  0.2414
 5487TIP3    H138020   0.698   4.676   2.683  1.9683 -2.0198 -0.5175
 5487TIP3    H238021   0.727   4.800   2.601 -0.9563  0.5353  2.0499
 5488TIP3   OH238022   3.159   5.349   1.938  0.0336  0.7529  0.2315
 5488TIP3    H138023   3.242   5.302   1.947 -0.6853 -0.5048  0.3811
 5488TIP3    H238024   3.175   5.410   1.865  0.5808 -0.6441 -0.8690
 5489TIP3   OH238025   6.238   4.883   2.655  0.3678  0.4907  0.1133
 5489TIP3    H138026   6.184   4.940   2.601  0.1068  1.8534  1.7315
 5489TIP3    H238027   6.181   4.810   2.678 -0.4696  1.3928  0.9560
 5490TIP3   OH238028   2.179   1.048   7.876 -0.0568  0.0054  0.1568
 5490TIP3    H138029   2.205   0.957   7.869 -1.0717 -0.1890 -1.7916
 5490TIP3    H238030   2.094   1.046   7.921  0.3588  0.0993  0.9687
 5491TIP3   OH238031   3.284   1.263   7.931  0.4362 -0.0819 -0.2401
 5491TIP3    H138032   3.276   1.304   7.844 -1.0470 -1.7106 -0.9383
 5491TIP3    H238033   3.237   1.322   7.990 -1.8923 -0.7856 -1.2678
 5492TIP3   OH238034   1.779   0.820   0.109  0.1531  0.2022 -0.1953
 5492TIP3    H138035   1.825   0.790   0.187 -1.4850 -2.8007 -0.2272
 5492TIP3    H238036   1.742   0.905   0.134  1.5910  0.4000  1.4579
 5493TIP3   OH238037   4.437   2.970   7.913  0.4453 -0.1168  0.5601
 5493TIP3    H138038   4.490   2.895   7.941  0.6880  0.3326  1.3523
 5493TIP3    H238039   4.483   3.004   7.835  1.2773  0.1883  1.1613
 5494TIP3   OH238040   0.046   4.111   7.940 -0.1019  0.2551 -0.4535
 5494TIP3    H138041   0.135   4.142   7.953 -0.0853  0.8090 -1.7284
 5494TIP3    H238042   0.043   4.084   7.848 -0.5693 -2.0846  0.1716
 5495TIP3   OH238043   1.748   0.378   3.547 -0.5530 -0.0635  0.1345
 5495TIP3    H138044   1.710   0.437   3.612  0.1297  0.5667 -0.0221
 5495TIP3    H238045   1.793   0.436   3.485 -0.0074 -0.7357 -0.1211
 5496TIP3   OH238046   2.708   2.547   8.584  0.0999  0.6064 -0.0336
 5496TIP3    H138047   2.694   2.496   8.504 -1.2925  0.3619  0.3208
 5496TIP3    H238048   2.625   2.593   8.597  0.1153  0.2555  1.5227
 5497TIP3   OH238049   2.045   6.066   8.276 -0.1693 -0.1721  0.4287
 5497TIP3    H138050   2.033   6.160   8.283 -0.7985 -0.2639  0.6579
 5497TIP3    H238051   2.011   6.031   8.359  0.5011 -0.5603  0.5480
 5498TIP3   OH238052   2.480   4.002   1.782 -0.1737  0.5732  0.1787
 5498TIP3    H138053   2.517   3.914   1.786  0.9337  1.0638  1.8700
 5498TIP3    H238054   2.444   4.017   1.870 -2.7078  0.8804 -0.8226
 5499TIP3   OH238055   5.654   6.233   1.305  0.1940 -0.0340 -0.0945
 5499TIP3    H138056   5.599   6.307   1.330 -0.9383 -0.7429 -0.4094
 5499TIP3    H238057   5.643   6.169   1.375  0.3070 -0.3422 -0.3512
 5500TIP3   OH238058   6.356   5.380   1.500 -0.3964 -0.5180  0.1829
 5500TIP3    H138059   6.328   5.352   1.413  2.3197  0.1991 -1.0477
 5500TIP3    H238060   6.315   5.465   1.513  0.9664  0.4525 -1.4810
 5501TIP3   OH238061   5.934   6.368   7.925  0.5152 -0.2085  0.5200
 5501TIP3    H138062   5.913   6.303   7.857  0.9552  1.5859 -1.4610
 5501TIP3    H238063   5.936   6.318   8.006 -1.5737 -2.2005 -0.5479
 5502TIP3   OH238064   2.387   4.393   2.079  0.1453  0.5299 -0.4514
 5502TIP3    H138065   2.337   4.325   2.036  3.0163 -2.5712  0.6640
 5502TIP3    H238066   2.470   4.397   2.030  0.3370  2.7915 -0.0648
 5503TIP3   OH238067   5.035   1.449   0.403  0.5146  0.0809 -0.0093
 5503TIP3    H138068   5.097   1.378   0.420  0.9993  0.5092  0.0655
 5503TIP3    H238069   5.011   1.481   0.490 -0.8160 -0.9094  0.0128
 5504TIP3   OH238070   3.145   2.920   1.406 -0.5229  0.2486  0.1853
 5504TIP3    H138071   3.088   2.917   1.483 -0.8899 -1.0009 -0.0996
 5504TIP3    H238072   3.232   2.896   1.439 -0.0370  2.5139  0.6853
 5505TIP3   OH238073   0.563   1.231   8.322 -0.2807  0.0959 -0.0357
 5505TIP3    H138074   0.553   1.299   8.389 -0.8682  0.4357 -0.4608
 5505TIP3    H238075   0.519   1.267   8.245  0.9065 -0.0263 -0.8030
 5506TIP3   OH238076   4.449   3.913   0.977 -0.0913  0.7053  0.4851
 5506TIP3    H138077   4.405   3.907   0.893  0.7499 -0.5048  0.1142
 5506TIP3    H238078   4.512   3.984   0.967  0.8069 -0.1755 -0.3080
 5507TIP3   OH238079   5.393   5.272   2.491 -0.3684  0.0588 -0.0245
 5507TIP3    H138080   5.374   5.256   2.584  0.1406  1.7136  0.3921
 5507TIP3    H238081   5.467   5.213   2.472 -1.0900 -1.0005  0.3315
 5508TIP3   OH238082   3.125   4.055   7.687  0.4201  0.4180 -0.1549
 5508TIP3    H138083   3.081   4.060   7.602  1.1274 -0.4602 -0.5789
 5508TIP3    H238084   3.173   4.137   7.694  1.3482 -0.0270 -1.1568
 5509TIP3   OH238085   4.767   4.140   7.358 -0.3347  0.1679  0.3990
 5509TIP3    H138086   4.816   4.059   7.347 -0.5068 -0.1712  1.8727
 5509TIP3    H238087   4.694   4.116   7.415 -1.9187  0.7831 -1.2925
 5510TIP3   OH238088   0.110   3.572   8.256  0.0540 -0.7558 -0.6969
 5510TIP3    H138089   0.168   3.553   8.329  0.0264  1.3088 -0.0901
 5510TIP3    H238090   0.022   3.568   8.293  0.0302  0.1270 -0.6493
 5511TIP3   OH238091   1.372   5.855   2.003  0.3551 -0.2390  0.0042
 5511TIP3    H138092   1.452   5.891   1.964  0.1656 -0.2411 -0.3959
 5511TIP3    H238093   1.386   5.760   2.003  0.5157 -0.2160  0.3009
 5512TIP3   OH238094   5.194   4.214   1.959  0.2944 -0.4300  0.1386
 5512TIP3    H138095   5.233   4.126   1.959  0.0721 -0.5285  0.2307
 5512TIP3    H238096   5.179   4.234   2.051  3.3702  1.0573  0.4492
 5513TIP3   OH238097   4.556   2.743   1.754  0.3507 -0.1424 -0.1668
 5513TIP3    H138098   4.595   2.679   1.813  2.0218 -1.3692 -2.4400
 5513TIP3    H238099   4.462   2.722   1.754  0.0937  0.6616  2.8360
 5514TIP3   OH238100   5.106   0.686   0.350 -0.1335  0.2163  0.2141
 5514TIP3    H138101   5.151   0.762   0.388 -1.5423  0.5963  1.2259
 5514TIP3    H238102   5.175   0.622   0.335  0.9212  1.2669  0.4442
 5515TIP3   OH238103   3.733   0.199   1.340  0.0095 -0.0407  0.2351
 5515TIP3    H138104   3.823   0.221   1.319 -0.1103  0.0720 -0.1787
 5515TIP3    H238105   3.729   0.201   1.435  0.2181  0.8898  0.2337
 5516TIP3   OH238106   6.107   1.354   1.586  0.0886 -0.4090 -0.1548
 5516TIP3    H138107   6.101   1.264   1.618  1.0482 -0.5347 -0.2901
 5516TIP3    H238108   6.094   1.346   1.491  0.5034 -0.4489 -0.2092
 5517TIP3   OH238109   2.466   2.090   3.499  0.5145 -0.2456 -0.4231
 5517TIP3    H138110   2.461   2.090   3.403  0.1603  1.7729 -0.4579
 5517TIP3    H238111   2.552   2.128   3.518  0.8939 -1.3275  0.0748
 5518TIP3   OH238112   6.080   3.074   8.401 -0.8412  0.1206  0.6526
 5518TIP3    H138113   6.039   3.017   8.336  0.8664 -2.0974  1.4182
 5518TIP3    H238114   6.048   3.041   8.485 -0.3036  0.6985  1.0912
 5519TIP3   OH238115   5.460   0.859   1.015 -0.3846 -0.6616  0.1085
 5519TIP3    H138116   5.422   0.853   1.103 -1.3965  3.3036  0.1060
 5519TIP3    H238117   5.526   0.927   1.021  0.3722 -1.1285 -1.9681
 5520TIP3   OH238118   1.930   0.421   1.555  0.2623  0.0290 -0.4665
 5520TIP3    H138119   1.842   0.387   1.570  0.3103 -0.4989 -1.3105
 5520TIP3    H238120   1.953   0.389   1.468  0.8640  1.0596 -0.7027
 5521TIP3   OH238121   6.541   3.513   0.749 -0.1603  0.2185 -0.1737
 5521TIP3    H138122   6.522   3.599   0.786  2.0815  1.0833 -0.8660
 5521TIP3    H238123   6.502   3.516   0.661 -1.9569 -0.3356  0.5547
 5522TIP3   OH238124   1.349   3.490   1.188 -0.0914  0.6451 -0.1095
 5522TIP3    H138125   1.301   3.525   1.113 -0.0789  0.0916 -0.3862
 5522TIP3    H238126   1.284   3.483   1.258 -0.6757 -0.9637 -0.7495
 5523TIP3   OH238127   2.448   3.085   2.453 -0.2745  0.7266 -0.6177
 5523TIP3    H138128   2.361   3.103   2.488  0.8731  0.0356  3.0096
 5523TIP3    H238129   2.506   3.088   2.529  2.8746  0.8416 -2.8165
 5524TIP3   OH238130   0.064   3.205   2.288 -0.0987 -0.3489 -0.1006
 5524TIP3    H138131   0.077   3.233   2.378 -1.6218 -0.2296  0.0942
 5524TIP3    H238132   0.006   3.271   2.250 -0.1243 -0.8373 -0.9276
 5525TIP3   OH238133   3.396   1.858   2.329 -0.6724  0.3909 -0.0850
 5525TIP3    H138134   3.455   1.789   2.297 -0.1504  1.0294 -0.5242
 5525TIP3    H238135   3.357   1.821   2.408  0.8627  0.2039  0.6265
 5526TIP3   OH238136   2.518   1.066   7.647 -0.2149  0.5034 -0.0481
 5526TIP3    H138137   2.489   1.138   7.589  0.5203  0.4074 -0.5479
 5526TIP3    H238138   2.601   1.037   7.609 -1.3236 -1.8094 -0.9264
 5527TIP3   OH238139   6.722   1.851   0.244  0.0477  0.9320  0.4289
 5527TIP3    H138140   6.728   1.843   0.340  1.0353 -0.5933  0.2868
 5527TIP3    H238141   6.729   1.761   0.213 -3.1736  1.0472 -0.9929
 5528TIP3   OH238142   6.358   4.036   1.223  0.5012 -0.3491 -0.2516
 5528TIP3    H138143   6.440   3.990   1.237  1.1093  0.4494 -1.0395
 5528TIP3    H238144   6.291   3.979   1.262  1.3025 -1.4858 -0.4902
 5529TIP3   OH238145   3.554   3.626   8.158 -0.0654  0.1921 -0.0090
 5529TIP3    H138146   3.467   3.657   8.184 -0.5654  1.0049 -2.3864
 5529TIP3    H238147   3.537   3.544   8.111  0.5566 -0.1112  0.2828
 5530TIP3   OH238148   1.136   0.051   1.706  0.1208  0.4337  0.0780
 5530TIP3    H138149   1.084   0.131   1.702 -2.2935 -0.9371  1.3453
 5530TIP3    H238150   1.163   0.044   1.798  0.0085 -0.3631  0.0603
 5531TIP3   OH238151   4.079   2.131   2.668  0.3771  0.2743  0.3718
 5531TIP3    H138152   3.997   2.167   2.636 -0.8507 -0.4348  2.5224
 5531TIP3    H238153   4.113   2.197   2.729  0.6900 -0.0252  0.5293
 5532TIP3   OH238154   2.184   4.710   0.725  0.3208 -0.4039  0.5226
 5532TIP3    H138155   2.161   4.639   0.786 -0.1229 -0.0417  0.7862
 5532TIP3    H238156   2.240   4.669   0.660 -2.3503 -1.7713 -1.1033
 5533TIP3   OH238157   1.842   5.488   8.328  0.0127  0.1329  0.3574
 5533TIP3    H138158   1.908   5.430   8.291 -0.4190  0.6914 -1.4200
 5533TIP3    H238159   1.892   5.551   8.379  0.8987  0.5305 -0.9307
 5534TIP3   OH238160   2.402   4.564   0.572  0.1781  0.0553 -0.2736
 5534TIP3    H138161   2.402   4.565   0.476  0.3950 -1.2448 -0.2936
 5534TIP3    H238162   2.426   4.475   0.596  0.3208  0.4157  1.0018
 5535TIP3   OH238163   5.970   6.632   0.185 -0.3517 -0.0195  0.7380
 5535TIP3    H138164   5.948   6.721   0.158  1.5074 -0.0229 -1.0121
 5535TIP3    H238165   5.886   6.589   0.196 -1.2719  1.6711  0.6913
 5536TIP3   OH238166   5.649   5.141   8.969 -0.0342 -0.4810  0.0999
 5536TIP3    H138167   5.615   5.090   8.896  0.7073  0.9556 -1.3215
 5536TIP3    H238168   5.655   5.231   8.936  0.1225  0.2781  2.0094
 5537TIP3   OH238169   6.067   5.563   2.099  0.5673  0.1610  0.0330
 5537TIP3    H138170   6.144   5.582   2.045  0.3885 -2.7853 -1.4339
 5537TIP3    H238171   6.097   5.577   2.189  2.3000  0.6720 -0.5914
 5538TIP3   OH238172   0.830   4.596   2.191 -0.2983  0.1309  1.1651
 5538TIP3    H138173   0.870   4.642   2.266 -1.1793 -1.3284  2.5932
 5538TIP3    H238174   0.736   4.602   2.207 -0.4519 -1.8009  1.2129
 5539TIP3   OH238175   1.908   2.081   2.118  0.6087  0.3914 -0.5738
 5539TIP3    H138176   1.813   2.069   2.127  0.2736  2.5033 -0.7265
 5539TIP3    H238177   1.943   2.057   2.204 -0.4430  2.4244  0.4999
 5540TIP3   OH238178   3.096   3.641   8.879  0.0983  0.0631  0.1988
 5540TIP3    H138179   3.108   3.653   8.973  0.5478 -1.6987  0.3986
 5540TIP3    H238180   3.138   3.717   8.839  0.5698  0.4495  1.3967
 5541TIP3   OH238181   3.632   2.563   8.375 -0.6968 -0.6168  0.4863
 5541TIP3    H138182   3.656   2.565   8.283 -0.7064  1.6020  0.4587
 5541TIP3    H238183   3.700   2.512   8.418 -0.5592 -1.4593 -0.6962
 5542TIP3   OH238184   4.584   3.200   2.249 -0.7297 -0.2591  0.1258
 5542TIP3    H138185   4.629   3.182   2.167 -0.7771 -1.0809  0.2714
 5542TIP3    H238186   4.652   3.237   2.306 -0.5976 -0.0968 -0.1313
 5543TIP3   OH238187   5.487   1.072   3.005  0.6314  0.3798  0.0657
 5543TIP3    H138188   5.494   0.981   2.974  1.7459  0.3411  0.4056
 5543TIP3    H238189   5.435   1.116   2.938  1.6050 -0.0923 -1.0387
 5544TIP3   OH238190   0.070   0.601   0.133  0.2897  0.7330  0.3501
 5544TIP3    H138191   0.087   0.529   0.194  0.8401  0.5590 -0.0013
 5544TIP3    H238192   0.078   0.680   0.186 -1.5063  0.5105  1.0116
 5545TIP3   OH238193   1.336   3.843   1.469  0.1527 -0.4743 -0.0012
 5545TIP3    H138194   1.280   3.916   1.444  0.0401 -0.5112  0.1451
 5545TIP3    H238195   1.349   3.793   1.388 -0.9301 -1.0867  0.1832
 5546TIP3   OH238196   0.496   5.997   8.180 -0.7085 -0.2683  0.5989
 5546TIP3    H138197   0.555   6.000   8.255 -1.2547 -0.3483  1.0433
 5546TIP3    H238198   0.511   5.911   8.140  2.5755  1.2220 -1.8987
 5547TIP3   OH238199   3.302   4.263   7.092  0.2408  0.0902 -0.0177
 5547TIP3    H138200   3.354   4.342   7.079  2.2675 -0.7410  2.3755
 5547TIP3    H238201   3.360   4.192   7.066 -0.5229 -0.7692  0.5714
 5548TIP3   OH238202   1.967   6.162   1.064 -0.0516 -0.2075 -0.8397
 5548TIP3    H138203   1.973   6.193   0.974  0.5688  0.6541 -0.5147
 5548TIP3    H238204   1.951   6.241   1.116 -0.5395 -0.7136 -0.2017
 5549TIP3   OH238205   4.374   3.766   8.530  0.7280 -0.1301  0.3746
 5549TIP3    H138206   4.388   3.831   8.598  1.5135 -0.5177  0.5953
 5549TIP3    H238207   4.288   3.788   8.492  0.6676  0.5890  0.9189
 5550TIP3   OH238208   4.335   4.028   8.910 -0.1338  0.2404 -0.7218
 5550TIP3    H138209   4.388   4.085   8.966 -1.4898 -0.4809  1.4325
 5550TIP3    H238210   4.249   4.025   8.953 -1.1651 -0.6228 -2.7059
 5551TIP3   OH238211   1.182   5.423   1.246  0.4108 -0.1258 -0.4348
 5551TIP3    H138212   1.224   5.505   1.270  0.0783 -0.2164  0.4801
 5551TIP3    H238213   1.088   5.441   1.249  0.3434 -0.3748 -0.8497
 5552TIP3   OH238214   5.400   2.336   1.671 -0.1856 -0.3228  0.3492
 5552TIP3    H138215   5.336   2.340   1.743  1.6352  0.5885  2.0019
 5552TIP3    H238216   5.479   2.375   1.708  0.5160  1.2139 -2.5254
 5553TIP3   OH238217   4.225   3.216   8.264 -0.0962  0.1263  0.1750
 5553TIP3    H138218   4.207   3.296   8.313  0.6240  0.1290  0.4474
 5553TIP3    H238219   4.139   3.188   8.231 -0.7150 -0.2177  1.9581
 5554TIP3   OH238220   5.062   1.309   8.955  0.1202 -0.0825 -0.1958
 5554TIP3    H138221   5.103   1.226   8.929  0.0403  0.0342 -0.7027
 5554TIP3    H238222   5.035   1.295   9.046 -2.1293 -1.5256 -0.9844
 5555TIP3   OH238223   1.345   0.382   3.360  0.1532 -0.0304 -0.1972
 5555TIP3    H138224   1.270   0.337   3.320 -0.8121  1.0196  0.3422
 5555TIP3    H238225   1.330   0.474   3.340  1.5149  0.1661 -0.3758
 5556TIP3   OH238226   6.234   5.775   2.577 -0.1057 -0.0254 -0.0664
 5556TIP3    H138227   6.239   5.758   2.672 -0.4598  0.7454  0.1000
 5556TIP3    H238228   6.142   5.758   2.555 -0.2141  0.5626 -0.1034
 5557TIP3   OH238229   3.250   3.587   0.151 -0.0816 -0.5875  0.2125
 5557TIP3    H138230   3.249   3.570   0.245 -0.5713 -0.2306  0.2756
 5557TIP3    H238231   3.299   3.514   0.114  2.2080  0.4437  0.9794
 5558TIP3   OH238232   1.359   6.636   2.844 -0.2095  0.1168  0.6631
 5558TIP3    H138233   1.309   6.672   2.917  0.0461 -0.3493  1.0706
 5558TIP3    H238234   1.391   6.552   2.876  0.7104  0.3419  0.3533
 5559TIP3   OH238235   0.370   1.270   0.990 -0.3592  0.5091  0.2873
 5559TIP3    H138236   0.334   1.182   0.984 -1.2897  0.8168  1.0678
 5559TIP3    H238237   0.327   1.309   1.066 -0.6818  1.9703 -0.5931
 5560TIP3   OH238238   0.294   6.191   8.176  0.3372 -0.6680 -0.0895
 5560TIP3    H138239   0.362   6.132   8.144  1.5335  0.6536 -0.0858
 5560TIP3    H238240   0.268   6.154   8.261  0.7252 -1.4358 -0.2939
 5561TIP3   OH238241   5.290   1.816   1.699  0.4607 -0.0370  0.2420
 5561TIP3    H138242   5.382   1.787   1.702  0.1191 -1.0838  1.5069
 5561TIP3    H238243   5.249   1.755   1.637  0.9311  1.5186 -1.7006
 5562TIP3   OH238244   2.349   4.278   0.076  0.1749 -0.4102 -0.4065
 5562TIP3    H138245   2.328   4.321  -0.007  1.2817 -0.9134 -0.9716
 5562TIP3    H238246   2.331   4.186   0.061  1.0426 -0.6045 -0.3391
 5563TIP3   OH238247   1.752   4.700   8.502 -0.2103 -0.0731 -0.0620
 5563TIP3    H138248   1.764   4.647   8.422  1.1758 -0.7027  0.5218
 5563TIP3    H238249   1.798   4.650   8.570  0.5198  1.5255  0.6595
 5564TIP3   OH238250   4.217   6.233   7.661  0.1440  0.5349  0.5828
 5564TIP3    H138251   4.284   6.262   7.599 -2.2951  1.0838 -2.0503
 5564TIP3    H238252   4.225   6.138   7.662 -0.6916  0.3618 -1.9027
 5565TIP3   OH238253   2.616   1.667   0.158  0.4208 -0.0130 -0.5166
 5565TIP3    H138254   2.599   1.635   0.070 -1.5719  1.3957 -0.7037
 5565TIP3    H238255   2.534   1.706   0.187  0.8638 -0.8061  2.1707
 5566TIP3   OH238256   5.037   0.042   8.962 -0.0750  0.2389 -0.2109
 5566TIP3    H138257   5.045   0.121   8.908 -2.1475  0.2930 -0.5107
 5566TIP3    H238258   5.127   0.012   8.974  0.6011  1.4917 -1.8178
 5567TIP3   OH238259   6.036   3.962   8.712 -0.2692 -0.6501 -0.0979
 5567TIP3    H138260   6.032   3.973   8.617  0.5415 -0.3509 -0.0991
 5567TIP3    H238261   6.125   3.985   8.736 -0.2417 -1.4811  0.6491
 5568TIP3   OH238262   4.118   4.129   1.507  0.4409  0.9668 -0.7472
 5568TIP3    H138263   4.079   4.123   1.595  2.2090  0.3242  0.0461
 5568TIP3    H238264   4.068   4.197   1.463  0.5426  2.4637  1.3331
 5569TIP3   OH238265   4.176   4.831   2.829  0.0529 -0.2565  0.2747
 5569TIP3    H138266   4.268   4.841   2.853  0.2892 -0.8435 -0.3480
 5569TIP3    H238267   4.144   4.921   2.821  0.7597 -0.0288 -0.1563
 5570TIP3   OH238268   1.532   5.483   7.131 -0.5119 -0.5156  0.7353
 5570TIP3    H138269   1.551   5.390   7.117 -0.7768 -0.4353 -0.1886
 5570TIP3    H238270   1.613   5.518   7.168 -0.3720 -1.0899  0.9830
 5571TIP3   OH238271   5.473   0.341   0.263 -0.1527  0.4854 -0.3572
 5571TIP3    H138272   5.522   0.308   0.338  0.5089  0.3551 -0.8309
 5571TIP3    H238273   5.472   0.436   0.273 -2.9478  0.3662  1.5623
 5572TIP3   OH238274   5.808   3.760   7.447  0.1705  0.8384 -0.5882
 5572TIP3    H138275   5.903   3.763   7.455  0.2083  0.4186 -0.8553
 5572TIP3    H238276   5.781   3.851   7.451  0.4236  0.8693  1.3014
 5573TIP3   OH238277   6.321   4.225   8.513  1.0205 -0.5821 -0.2580
 5573TIP3    H138278   6.266   4.191   8.443  0.8743  0.6475 -0.7645
 5573TIP3    H238279   6.411   4.204   8.487  0.9488 -0.3407 -0.7079
 5574TIP3   OH238280   4.143   6.601   8.367 -0.6146 -0.1746 -0.4585
 5574TIP3    H138281   4.145   6.510   8.396  0.5297 -0.0738 -0.1624
 5574TIP3    H238282   4.233   6.618   8.338 -0.9294  0.7282 -0.9191
 5575TIP3   OH238283   1.301   3.526   8.816  0.6469 -0.1455 -0.4077
 5575TIP3    H138284   1.235   3.474   8.862 -0.7529  0.1097 -2.0336
 5575TIP3    H238285   1.253   3.602   8.783  1.4524 -0.5347 -2.6478
 5576TIP3   OH238286   3.365   1.617   3.161  0.4176  0.3469 -0.1828
 5576TIP3    H138287   3.454   1.587   3.146  1.0436  1.6967  0.7156
 5576TIP3    H238288   3.361   1.638   3.254  0.0518  2.9557 -0.6966
 5577TIP3   OH238289   1.883   3.297   0.025 -0.7750  0.8652  0.8498
 5577TIP3    H138290   1.843   3.382   0.011  0.0448  1.6669  3.0254
 5577TIP3    H238291   1.971   3.305  -0.013 -1.5073  0.1463 -1.0983
 5578TIP3   OH238292   5.632   4.453   1.524 -0.5052  0.0103 -0.7591
 5578TIP3    H138293   5.560   4.485   1.471 -2.6006  0.1316  1.9210
 5578TIP3    H238294   5.606   4.365   1.552  0.3721  0.0335  0.2362
 5579TIP3   OH238295   3.000   5.929   1.245  0.4866 -0.1938 -0.1251
 5579TIP3    H138296   3.003   5.901   1.153 -1.4045  0.8941 -0.5682
 5579TIP3    H238297   2.987   5.847   1.294  0.6800 -0.7002 -0.8996
 5580TIP3   OH238298   4.069   2.826   7.132 -1.0031 -0.5411  0.0976
 5580TIP3    H138299   4.093   2.873   7.053  0.5524  0.6042  1.1967
 5580TIP3    H238300   3.975   2.837   7.140 -1.2316 -0.9513 -1.7341
 5581TIP3   OH238301   1.954   2.570   1.481  0.4535  0.1104  0.0103
 5581TIP3    H138302   1.897   2.637   1.441 -0.1658 -1.3832 -1.7549
 5581TIP3    H238303   1.899   2.492   1.485  2.1932 -1.2484 -1.2700
 5582TIP3   OH238304   4.266   2.395   7.899 -0.6874  0.2356 -0.4604
 5582TIP3    H138305   4.315   2.334   7.954  0.6918  2.8991  1.5449
 5582TIP3    H238306   4.326   2.414   7.826 -0.5644  0.1560 -0.3808
 5583TIP3   OH238307   2.770   0.972   8.751 -0.2404  0.1989 -0.3097
 5583TIP3    H138308   2.848   0.964   8.697  0.1862 -1.4002  0.4771
 5583TIP3    H238309   2.763   1.066   8.769 -0.3114  0.7676 -2.9176
 5584TIP3   OH238310   6.203   3.285   2.375  0.5651 -0.1451 -0.2309
 5584TIP3    H138311   6.130   3.344   2.395  0.9453  0.5562 -0.8329
 5584TIP3    H238312   6.205   3.222   2.447  0.4080  0.8295  0.6334
 5585TIP3   OH238313   1.321   6.525   1.679 -0.6276  0.4850 -0.1784
 5585TIP3    H138314   1.358   6.602   1.636 -0.2090  0.8238  0.7521
 5585TIP3    H238315   1.349   6.533   1.770  2.3618 -2.5182 -0.6566
 5586TIP3   OH238316   0.729   2.474   7.849 -0.2289 -0.2712  0.3869
 5586TIP3    H138317   0.636   2.494   7.855 -0.0896  0.5528 -0.0246
 5586TIP3    H238318   0.735   2.404   7.785 -0.4512  0.7188 -0.7656
 5587TIP3   OH238319   5.891   0.499   0.693 -0.3687 -0.6095  0.3486
 5587TIP3    H138320   5.964   0.441   0.713  0.2630  0.1654  0.3296
 5587TIP3    H238321   5.892   0.507   0.597  0.4568  0.5656  0.4339
 5588TIP3   OH238322   2.768   4.513   0.553  0.0318  0.0657 -0.1256
 5588TIP3    H138323   2.745   4.579   0.619  0.1108  0.0280 -0.0604
 5588TIP3    H238324   2.833   4.457   0.596 -0.0890 -0.0978 -0.1578
 5589TIP3   OH238325   6.236   3.648   1.800 -0.4042  0.2371  0.5747
 5589TIP3    H138326   6.203   3.558   1.801 -2.5318  0.9422  1.5327
 5589TIP3    H238327   6.237   3.672   1.707  0.3217 -0.8104  0.3038
 5590TIP3   OH238328   5.327   6.633   0.856  0.2371 -0.1328  0.0259
 5590TIP3    H138329   5.268   6.688   0.908  0.1257 -0.0135 -0.2237
 5590TIP3    H238330   5.335   6.680   0.773  0.5017 -0.2674 -0.0233
 5591TIP3   OH238331   3.925   2.216   1.043  0.5126 -0.0525 -0.2550
 5591TIP3    H138332   3.912   2.307   1.015  2.8624  0.8158  1.2200
 5591TIP3    H238333   3.916   2.165   0.962  2.2114  1.8502 -1.7696
 5592TIP3   OH238334   1.959   2.627   0.827 -0.5667 -0.5642 -0.2191
 5592TIP3    H138335   1.907   2.658   0.901 -0.6431 -4.0969  1.4052
 5592TIP3    H238336   1.931   2.536   0.815  2.4190 -1.3772 -1.9172
 5593TIP3   OH238337   1.460   6.202   1.876  0.5304 -0.1897 -0.1287
 5593TIP3    H138338   1.528   6.160   1.929  0.9379  2.0926  1.3389
 5593TIP3    H238339   1.379   6.187   1.925  0.3721 -0.7983 -0.5693
 5594TIP3   OH238340   2.194   2.897   3.487 -0.9667  0.2953 -0.1759
 5594TIP3    H138341   2.176   2.973   3.432 -0.2903 -2.4960 -4.8540
 5594TIP3    H238342   2.288   2.903   3.507 -1.1581  1.2018  0.4943
 5595TIP3   OH238343   5.185   6.651   8.470  0.2612 -0.2132 -0.3388
 5595TIP3    H138344   5.148   6.732   8.433 -0.6328 -0.9546 -1.1095
 5595TIP3    H238345   5.119   6.621   8.533  0.9536  0.0633  0.5407
 5596TIP3   OH238346   0.221   1.681   2.633  0.0892 -0.2425  0.3169
 5596TIP3    H138347   0.258   1.726   2.709  2.0360 -0.6354 -0.3246
 5596TIP3    H238348   0.151   1.738   2.603  0.5314  0.8663  1.2816
 5597TIP3   OH238349   1.213   2.201   0.878  0.2415 -0.0840  0.2543
 5597TIP3    H138350   1.182   2.256   0.806  1.3375 -0.7840 -0.7762
 5597TIP3    H238351   1.237   2.263   0.947  0.6247  0.6731 -0.5507
 5598TIP3   OH238352   6.286   0.930   0.333  0.2728  0.2718  0.3363
 5598TIP3    H138353   6.357   0.907   0.393  1.2439  0.2792 -0.7635
 5598TIP3    H238354   6.206   0.911   0.382  1.0265 -0.7766  1.2206
 5599TIP3   OH238355   3.387   6.025   8.517 -0.3576  0.6315 -0.1621
 5599TIP3    H138356   3.419   5.958   8.456  0.0837  0.0525  0.7030
 5599TIP3    H238357   3.293   6.006   8.525  0.0602 -0.9865  1.4114
 5600TIP3   OH238358   0.888   3.933   2.761 -0.5217  0.2070  0.2581
 5600TIP3    H138359   0.794   3.939   2.751 -0.5651  0.2880  0.6644
 5600TIP3    H238360   0.900   3.887   2.844 -0.1966 -1.9600 -0.9233
 5601TIP3   OH238361   0.457   2.173   8.167  0.2921 -0.2973 -0.1433
 5601TIP3    H138362   0.366   2.144   8.172 -0.1365  1.0820  0.6862
 5601TIP3    H238363   0.502   2.120   8.233 -0.4354  0.7501  1.2275
 5602TIP3   OH238364   5.600   1.482   2.066  0.3214 -0.2815 -0.0161
 5602TIP3    H138365   5.507   1.496   2.081  0.6496  1.6643  0.5241
 5602TIP3    H238366   5.637   1.472   2.154  1.0036  2.1095  0.0446
 5603TIP3   OH238367   4.763   2.848   1.563  0.3126 -0.0463  0.2081
 5603TIP3    H138368   4.822   2.824   1.491  1.8821 -0.3837  1.5541
 5603TIP3    H238369   4.719   2.767   1.587  1.6995 -0.5017  1.2912
 5604TIP3   OH238370   4.634   2.093   3.233  0.4228 -0.2788 -0.1603
 5604TIP3    H138371   4.560   2.107   3.293 -1.5709 -0.7440 -2.3992
 5604TIP3    H238372   4.675   2.012   3.264  0.5855  0.4311  1.6191
 5605TIP3   OH238373   4.883   3.624   0.221 -0.2554  0.0597  0.0722
 5605TIP3    H138374   4.961   3.644   0.169 -0.3817 -0.6708 -0.4052
 5605TIP3    H238375   4.907   3.649   0.310  0.0296  1.1409 -0.2932
 5606TIP3   OH238376   3.352   6.663   1.475 -0.5991 -0.1772 -0.5408
 5606TIP3    H138377   3.437   6.621   1.480  0.4185  1.8478  0.2165
 5606TIP3    H238378   3.330   6.662   1.381  1.1075  0.8147 -0.9941
 5607TIP3   OH238379   1.580   4.277   8.507 -0.6731 -0.0462 -0.4171
 5607TIP3    H138380   1.614   4.300   8.421 -1.5135 -0.9608 -1.0245
 5607TIP3    H238381   1.558   4.360   8.548  1.3427  0.5175 -0.3730
 5608TIP3   OH238382   0.992   0.000   2.670 -0.7605  0.1548 -0.2408
 5608TIP3    H138383   1.031  -0.029   2.588  2.7768  0.0908  1.2765
 5608TIP3    H238384   1.002  -0.074   2.729 -3.5744  0.0605  0.2631
 5609TIP3   OH238385   1.840   5.491   6.979  0.0596  0.1731  0.5461
 5609TIP3    H138386   1.791   5.412   6.956 -0.1128 -0.1109  1.8140
 5609TIP3    H238387   1.819   5.507   7.071  0.6731  1.2799  0.5205
 5610TIP3   OH238388   3.999   0.119   7.500 -0.0932 -0.2066 -0.4935
 5610TIP3    H138389   4.030   0.106   7.410 -2.7640  0.2497 -1.5972
 5610TIP3    H238390   3.906   0.142   7.489  0.1813  2.7482  2.2305
 5611TIP3   OH238391   3.030   5.280   1.130 -0.0508 -0.5838 -0.2126
 5611TIP3    H138392   3.037   5.295   1.224  0.6140 -0.2975 -0.3006
 5611TIP3    H238393   3.118   5.255   1.103  0.2283  1.2335 -1.0835
 5612TIP3   OH238394   5.378   2.471   2.493 -0.4374  0.0565  0.6456
 5612TIP3    H138395   5.401   2.512   2.576 -0.4776 -0.8056  1.1004
 5612TIP3    H238396   5.378   2.377   2.512  1.9555 -0.3274 -0.9207
 5613TIP3   OH238397   6.137   2.598   7.334  0.5545 -0.1577 -0.2413
 5613TIP3    H138398   6.155   2.536   7.263  0.0155 -0.6779  0.0670
 5613TIP3    H238399   6.095   2.672   7.291  2.7270  0.7922 -0.8781
 5614TIP3   OH238400   0.687   3.227   1.661 -0.5514  0.1629 -0.0043
 5614TIP3    H138401   0.650   3.139   1.647  1.2350 -0.8966  1.4957
 5614TIP3    H238402   0.780   3.211   1.678  0.0818  2.4851 -0.9660
 5615TIP3   OH238403   1.687   0.906   0.927 -0.2861  0.5051 -0.8083
 5615TIP3    H138404   1.670   1.000   0.921 -0.0397  0.7064  1.1498
 5615TIP3    H238405   1.651   0.880   1.011  1.0226 -0.8436 -0.6144
 5616TIP3   OH238406   5.298   2.043   1.916  0.6554  0.0249  0.3576
 5616TIP3    H138407   5.275   1.986   1.843 -0.1223 -0.4175  0.9456
 5616TIP3    H238408   5.313   2.129   1.875  1.3371 -0.4627 -0.4589
 5617TIP3   OH238409   2.187   4.606   2.643  0.2610  0.0566  0.1671
 5617TIP3    H138410   2.176   4.639   2.554  0.4833 -0.4799 -0.0684
 5617TIP3    H238411   2.282   4.597   2.653  0.2992  1.1126  0.8354
 5618TIP3   OH238412   3.049   4.266   7.950  0.3109 -0.2750 -0.3873
 5618TIP3    H138413   3.011   4.331   8.010  1.0920 -2.1065  2.3154
 5618TIP3    H238414   3.143   4.279   7.957  0.5076 -1.9422  0.6223
 5619TIP3   OH238415   0.485   1.281   2.440  0.1431  0.1545 -0.1686
 5619TIP3    H138416   0.572   1.312   2.467  0.7238 -0.6818 -0.9983
 5619TIP3    H238417   0.427   1.355   2.456  1.1010  0.9070 -0.0703
 5620TIP3   OH238418   5.339   1.819   8.135 -0.0868  0.3253 -0.3891
 5620TIP3    H138419   5.385   1.738   8.154 -0.1737  0.2111 -0.6698
 5620TIP3    H238420   5.312   1.811   8.044 -1.1406  0.1562 -0.0740
 5621TIP3   OH238421   4.869   2.736   1.315  0.2505  0.0469 -0.0968
 5621TIP3    H138422   4.914   2.658   1.348 -0.5249 -2.0876 -3.4843
 5621TIP3    H238423   4.776   2.718   1.330  0.0941  0.5359 -0.4364
 5622TIP3   OH238424   4.142   4.269   1.097 -0.2151 -0.3864  0.6306
 5622TIP3    H138425   4.050   4.263   1.074 -0.5798  0.5191  1.7583
 5622TIP3    H238426   4.165   4.183   1.131 -0.6209 -0.6459  0.2456
 5623TIP3   OH238427   3.491   5.620   1.668  0.3220 -0.2737  0.2926
 5623TIP3    H138428   3.438   5.669   1.605 -2.4020  0.4853  2.9315
 5623TIP3    H238429   3.538   5.556   1.615 -2.3935 -0.2530 -2.4259
 5624TIP3   OH238430   5.053   5.432   2.099  0.0077 -0.4866  0.2179
 5624TIP3    H138431   5.003   5.514   2.096 -2.0628 -1.7070 -0.3788
 5624TIP3    H238432   4.986   5.364   2.109  1.5253 -2.2552 -1.1134
 5625TIP3   OH238433   3.505   2.555   2.693  0.1319  0.0854  0.2794
 5625TIP3    H138434   3.508   2.572   2.788  0.8013  1.7612 -0.0147
 5625TIP3    H238435   3.469   2.635   2.655  0.7708 -0.1980 -0.9725
 5626TIP3   OH238436   3.116   3.124   1.926  0.6215 -0.4211  0.3256
 5626TIP3    H138437   3.037   3.120   1.979  0.2946  0.5142 -0.0696
 5626TIP3    H238438   3.116   3.212   1.889  1.2135 -0.8151 -0.6571
 5627TIP3   OH238439   1.379   4.552   8.044 -0.3073  0.3261 -0.3234
 5627TIP3    H138440   1.338   4.534   7.960 -0.0712 -0.6794 -0.2258
 5627TIP3    H238441   1.416   4.640   8.034 -0.2614  0.2065 -1.2724
 5628TIP3   OH238442   2.230   3.839   2.574  0.1680 -0.2988 -0.0792
 5628TIP3    H138443   2.235   3.744   2.583  0.8902 -0.5542 -2.5129
 5628TIP3    H238444   2.311   3.871   2.613  0.4520 -0.7779 -0.2625
 5629TIP3   OH238445   2.258   6.319   8.218 -0.3576  0.0652 -0.1600
 5629TIP3    H138446   2.251   6.249   8.153 -2.1116  0.6365 -0.6529
 5629TIP3    H238447   2.196   6.295   8.286  3.1450 -1.7819  2.6896
 5630TIP3   OH238448   6.225   5.089   2.880 -0.1357 -0.1627  0.1512
 5630TIP3    H138449   6.247   5.005   2.920 -1.1991 -0.1848  0.7341
 5630TIP3    H238450   6.203   5.068   2.789  1.6256 -0.2048 -0.3055
 5631TIP3   OH238451   4.566   6.209   8.760 -0.8738  0.0791 -0.7585
 5631TIP3    H138452   4.493   6.190   8.819 -0.8011  0.1762 -0.6365
 5631TIP3    H238453   4.612   6.283   8.801  0.8558 -1.6098  0.5821
 5632TIP3   OH238454   2.129   3.294   8.602 -0.5186  0.2644 -0.6756
 5632TIP3    H138455   2.132   3.352   8.678 -2.4132 -0.1939 -0.1993
 5632TIP3    H238456   2.218   3.259   8.595 -0.0802  1.0113  0.7722
 5633TIP3   OH238457   5.954   2.106   8.918  0.4724 -0.2525  0.3764
 5633TIP3    H138458   5.987   2.196   8.916 -0.3637  0.0617  0.1723
 5633TIP3    H238459   5.889   2.106   8.989  0.8823 -0.8502  0.7577
 5634TIP3   OH238460   2.049   0.624   2.630 -0.8755  0.1999  0.1675
 5634TIP3    H138461   2.036   0.543   2.680  0.9901 -0.1000  0.2370
 5634TIP3    H238462   2.075   0.594   2.543 -2.5834  0.7359 -0.5593
 5635TIP3   OH238463   4.138   4.178   8.216  0.2640  0.5853  0.1701
 5635TIP3    H138464   4.076   4.169   8.144  0.7295 -0.0664 -0.1608
 5635TIP3    H238465   4.097   4.131   8.289  0.3886  0.1121 -0.0629
 5636TIP3   OH238466   3.655   3.765   7.521 -0.4140  0.2017 -0.0289
 5636TIP3    H138467   3.710   3.687   7.519 -0.7542 -0.0409 -1.9322
 5636TIP3    H238468   3.643   3.788   7.428 -2.2542  1.1165  0.3851
 5637TIP3   OH238469   1.014   3.711   0.087  0.3145  0.5696 -0.2761
 5637TIP3    H138470   0.951   3.685   0.154 -0.8838 -1.0099 -1.9321
 5637TIP3    H238471   1.090   3.656   0.102  0.6583  1.2742  0.6674
 5638TIP3   OH238472   2.084   6.002   2.445  0.9968  0.0173 -0.0964
 5638TIP3    H138473   2.032   5.922   2.431  1.2938 -0.0688 -0.7532
 5638TIP3    H238474   2.040   6.047   2.518  0.5195 -0.4861 -0.0662
 5639TIP3   OH238475   2.160   6.604   0.233  0.3653  0.3049 -0.5478
 5639TIP3    H138476   2.224   6.595   0.163  0.3263  1.3134 -0.7307
 5639TIP3    H238477   2.086   6.550   0.205  0.6412  0.1185 -0.9231
 5640TIP3   OH238478   4.215   0.160   0.573 -0.0870 -0.1814  0.2018
 5640TIP3    H138479   4.257   0.169   0.659 -1.1273 -0.4901  0.7642
 5640TIP3    H238480   4.287   0.168   0.510  0.5963  0.8104  1.0617
 5641TIP3   OH238481   5.097   6.224   0.505  0.1109 -0.1806 -0.5095
 5641TIP3    H138482   5.165   6.160   0.483 -0.2354 -0.2135 -1.5272
 5641TIP3    H238483   5.136   6.277   0.575  1.8638  0.8758 -2.1796
 5642TIP3   OH238484   1.501   5.538   8.010  0.3799 -0.1632  0.2649
 5642TIP3    H138485   1.528   5.448   7.997 -1.0196 -0.6442  0.5377
 5642TIP3    H238486   1.407   5.539   7.990  0.0697  0.9375  1.5696
 5643TIP3   OH238487   2.776   2.570   0.773 -0.5111  0.2287  0.3844
 5643TIP3    H138488   2.789   2.576   0.867  0.9453 -1.8980  0.3962
 5643TIP3    H238489   2.838   2.633   0.736 -1.6128  1.6212  0.8036
 5644TIP3   OH238490   4.768   0.758   8.700 -0.4607  0.2496  0.0204
 5644TIP3    H138491   4.828   0.822   8.662  0.3618  0.5136  1.6981
 5644TIP3    H238492   4.698   0.810   8.739 -0.7893  0.0167 -0.2385
 5645TIP3   OH238493   1.654   1.450   0.303 -0.3531  0.1561 -0.0736
 5645TIP3    H138494   1.565   1.427   0.277 -0.7818 -0.1472  1.5488
 5645TIP3    H238495   1.692   1.489   0.225 -1.8455  0.1234 -0.8588
 5646TIP3   OH238496   3.851   3.150   8.339  0.4846  0.2152  0.2053
 5646TIP3    H138497   3.755   3.145   8.338  0.4637  0.5541 -0.5395
 5646TIP3    H238498   3.873   3.175   8.428 -0.1653  0.8012  0.2080
 5647TIP3   OH238499   1.571   5.404   1.027 -0.2528 -0.2814 -0.1726
 5647TIP3    H138500   1.539   5.464   1.094 -0.1317 -1.2058  0.7291
 5647TIP3    H238501   1.613   5.333   1.076  0.8817 -0.3920 -1.2539
 5648TIP3   OH238502   0.798   0.206   1.688  0.4057 -0.3127 -0.0696
 5648TIP3    H138503   0.830   0.264   1.619  0.7412 -0.9398 -0.4446
 5648TIP3    H238504   0.821   0.251   1.769 -0.9128  0.9330 -0.3529
 5649TIP3   OH238505   3.772   3.123   1.968  0.2828 -0.4207 -0.1541
 5649TIP3    H138506   3.780   3.196   2.030  0.0826 -0.7469  0.2644
 5649TIP3    H238507   3.848   3.132   1.910  1.4270 -1.0814  1.1785
 5650TIP3   OH238508   0.513   3.678   0.554 -0.3891 -0.5986  0.3285
 5650TIP3    H138509   0.564   3.720   0.624  0.6956 -0.8039 -0.3180
 5650TIP3    H238510   0.442   3.633   0.600  0.2748 -0.6895  1.2950
 5651TIP3   OH238511   1.102   4.055   0.140 -0.3391  0.4136  0.1814
 5651TIP3    H138512   1.095   4.030   0.047 -0.3841 -0.5047  0.4223
 5651TIP3    H238513   1.125   4.148   0.138  1.1762  0.0531 -0.7653
 5652TIP3   OH238514   1.486   4.659   0.916 -0.2816  0.5507 -0.1954
 5652TIP3    H138515   1.550   4.613   0.970 -1.7011 -0.6932  0.5186
 5652TIP3    H238516   1.452   4.729   0.972  0.4557  1.2380 -0.5886
 5653TIP3   OH238517   3.475   1.098   2.006 -0.4949  0.0804 -0.0313
 5653TIP3    H138518   3.541   1.082   1.939 -0.3122  2.0849 -0.4066
 5653TIP3    H238519   3.464   1.014   2.051  3.1086 -0.0953  0.7989
 5654TIP3   OH238520   2.918   3.494   7.830 -0.5600  0.3958  0.1967
 5654TIP3    H138521   2.875   3.478   7.746 -0.3644  2.0850 -0.2654
 5654TIP3    H238522   2.991   3.432   7.833  1.2015  2.1733 -2.2297
 5655TIP3   OH238523   1.536   6.389   8.730 -0.2898  0.4162  0.3405
 5655TIP3    H138524   1.524   6.309   8.782 -0.2022 -0.6710 -1.2463
 5655TIP3    H238525   1.555   6.357   8.642 -1.2501  2.2014 -0.5542
 5656TIP3   OH238526   2.361   6.594   7.853  0.3429 -0.5473 -0.1304
 5656TIP3    H138527   2.358   6.569   7.946 -0.4437 -4.1054 -0.9624
 5656TIP3    H238528   2.315   6.523   7.808  0.2257  1.3356 -3.2437
 5657TIP3   OH238529   1.069   3.785   8.285  0.3422 -0.4835 -0.4206
 5657TIP3    H138530   1.106   3.872   8.304 -0.3964 -1.0362  5.3184
 5657TIP3    H238531   1.004   3.801   8.217  0.9610  3.2533 -0.3475
 5658TIP3   OH238532   0.056   6.695   8.945 -0.0463  0.0289 -0.0406
 5658TIP3    H138533  -0.026   6.744   8.936  0.3737  0.7529  0.0312
 5658TIP3    H238534   0.076   6.698   9.038 -0.2400 -0.6650  0.0333
 5659TIP3   OH238535   3.211   1.826   8.640  0.1317  0.3088  0.4766
 5659TIP3    H138536   3.203   1.815   8.735  0.4393 -1.3637  0.3245
 5659TIP3    H238537   3.296   1.790   8.618 -0.6292 -0.8952 -0.6531
 5660TIP3   OH238538   5.890   6.545   2.142 -0.0152  0.0905  0.0566
 5660TIP3    H138539   5.924   6.465   2.102 -0.3626  0.3424 -0.7621
 5660TIP3    H238540   5.889   6.608   2.070 -1.2045  0.3866  0.3283
 5661TIP3   OH238541   4.920   3.777   8.127 -0.4470  0.1411  0.6797
 5661TIP3    H138542   4.888   3.691   8.156  1.4714 -0.4452  1.1743
 5661TIP3    H238543   4.988   3.800   8.190 -0.4350  1.7133  0.1339
 5662TIP3   OH238544   1.948   5.438   0.641 -0.0324 -0.3733  0.4879
 5662TIP3    H138545   1.974   5.348   0.663 -0.0507 -0.8759 -1.4203
 5662TIP3    H238546   1.874   5.456   0.700 -1.3420 -2.3723 -0.4392
 5663TIP3   OH238547   5.308   0.022   1.158 -0.1930 -0.3775 -0.8534
 5663TIP3    H138548   5.242   0.006   1.225  0.6627  0.2398  0.1733
 5663TIP3    H238549   5.390  -0.009   1.198  0.3554  0.1284 -1.5606
 5664TIP3   OH238550   4.333   2.454   1.700  0.2688  0.5306 -0.6475
 5664TIP3    H138551   4.392   2.452   1.775  0.4286  0.6563 -0.7684
 5664TIP3    H238552   4.296   2.542   1.700 -1.9108 -0.3107  0.9451
 5665TIP3   OH238553   6.230   3.332   8.375  0.1199 -0.2200 -0.0569
 5665TIP3    H138554   6.208   3.239   8.381 -2.1143  0.2089 -0.6135
 5665TIP3    H238555   6.148   3.374   8.352  0.5583  2.1669  2.2814
 5666TIP3   OH238556   3.820   3.389   8.681  0.0116 -0.2253  0.2663
 5666TIP3    H138557   3.782   3.449   8.618 -0.5355 -0.0489  0.7477
 5666TIP3    H238558   3.882   3.336   8.631 -0.3777 -0.0556 -0.4008
 5667TIP3   OH238559   1.005   1.162   2.676  0.2565  0.7839 -0.1046
 5667TIP3    H138560   0.968   1.249   2.689 -2.1617 -0.3587  1.6041
 5667TIP3    H238561   1.083   1.159   2.731  0.3958  1.8620 -0.2334
 5668TIP3   OH238562   4.726   3.317   1.700  0.5822 -0.3224  0.8078
 5668TIP3    H138563   4.735   3.410   1.680  1.0196 -0.3518  0.8708
 5668TIP3    H238564   4.815   3.286   1.715  0.2821 -0.2552  3.0583
 5669TIP3   OH238565   5.017   2.349   1.674  0.3766  0.8656  0.5267
 5669TIP3    H138566   5.053   2.434   1.701  0.7322  0.7052  0.5734
 5669TIP3    H238567   4.965   2.321   1.749  1.1436  0.5467  0.9556
 5670TIP3   OH238568   0.460   5.649   0.517  0.4028 -0.1241 -0.1225
 5670TIP3    H138569   0.396   5.592   0.559  0.5352 -1.2594 -1.4021
 5670TIP3    H238570   0.437   5.647   0.424  1.4303  0.5890 -0.4106
 5671TIP3   OH238571   2.130   4.249   1.031  0.3722 -0.0024 -0.2209
 5671TIP3    H138572   2.224   4.267   1.025  0.1727  1.1109 -0.3773
 5671TIP3    H238573   2.123   4.156   1.051  1.4845 -0.4182 -1.6394
 5672TIP3   OH238574   5.947   4.738   1.388  0.5601  0.2741  0.6255
 5672TIP3    H138575   5.962   4.833   1.385 -1.6604  0.7866  2.4761
 5672TIP3    H238576   5.865   4.725   1.340 -0.1071 -0.4062  1.8969
 5673TIP3   OH238577   2.999   6.410   0.354  0.1267  0.2565  0.4362
 5673TIP3    H138578   2.979   6.320   0.380  0.7198 -0.4967 -1.5125
 5673TIP3    H238579   2.915   6.455   0.353 -0.7488 -1.2662 -1.9741
 5674TIP3   OH238580   1.971   5.932   0.719 -0.0774 -0.0100 -0.1122
 5674TIP3    H138581   1.929   6.018   0.725 -0.1480  0.1039 -1.8209
 5674TIP3    H238582   1.984   5.905   0.810  1.2827  2.4546  0.4969
 5675TIP3   OH238583   3.523   1.742   1.240  0.1983 -0.2409  0.5459
 5675TIP3    H138584   3.484   1.657   1.263  0.1226 -0.0524  1.1271
 5675TIP3    H238585   3.511   1.796   1.317  0.1749  0.3346  0.1466
 5676TIP3   OH238586   5.781   5.230   7.035  0.5974 -0.1402  0.2012
 5676TIP3    H138587   5.777   5.316   7.076 -0.3963 -0.6131  1.1325
 5676TIP3    H238588   5.866   5.195   7.061  0.9058  0.4569  0.0126
 5677TIP3   OH238589   2.705   1.431   2.493  0.2386 -0.0466  0.6260
 5677TIP3    H138590   2.634   1.368   2.480 -0.6693  0.5074  2.4763
 5677TIP3    H238591   2.772   1.406   2.430  0.0040 -2.9945  1.4135
 5678TIP3   OH238592   4.951   6.445   3.055 -0.3868  0.2070 -0.4004
 5678TIP3    H138593   4.855   6.443   3.050 -0.3958  1.0953 -0.7160
 5678TIP3    H238594   4.970   6.489   3.138 -0.2344 -0.7673  0.1049
 5679TIP3   OH238595   4.031   4.498   0.581 -0.1531  0.8174 -0.0463
 5679TIP3    H138596   4.008   4.407   0.603 -0.3845  0.4910 -1.4978
 5679TIP3    H238597   4.122   4.493   0.552  0.2405  1.2835  1.0741
 5680TIP3   OH238598   1.698   3.473   8.896  0.3748 -0.4110  0.3485
 5680TIP3    H138599   1.730   3.511   8.814  0.3231 -0.8949  0.0972
 5680TIP3    H238600   1.607   3.450   8.877 -0.2553  1.2531  1.1554
 5681TIP3   OH238601   0.485   3.541   2.324 -0.7480  0.1254 -0.1099
 5681TIP3    H138602   0.546   3.559   2.253  0.4090 -0.2545  0.7639
 5681TIP3    H238603   0.423   3.614   2.321  1.0873  1.7701  0.4020
 5682TIP3   OH238604   0.106   1.525   8.605  0.4803 -0.4779  0.0951
 5682TIP3    H138605   0.114   1.512   8.510  0.2924  1.0774 -0.1597
 5682TIP3    H238606   0.024   1.572   8.616  1.2294  0.6769  0.8862
 5683TIP3   OH238607   6.746   6.741   7.631 -0.5235 -0.1431  0.1309
 5683TIP3    H138608   6.785   6.775   7.712  3.2339 -0.4046 -1.3899
 5683TIP3    H238609   6.752   6.646   7.640  2.2443 -0.1993 -1.3170
 5684TIP3   OH238610   4.938   6.297   0.181 -0.0868 -0.0208  0.1141
 5684TIP3    H138611   4.939   6.353   0.259  0.7128 -0.6762  0.6025
 5684TIP3    H238612   4.857   6.248   0.188 -0.4429  0.5479  0.0654
 5685TIP3   OH238613   4.217   2.341   0.455  0.2628  0.0108  0.2958
 5685TIP3    H138614   4.250   2.369   0.540 -0.3908 -2.5888  1.4979
 5685TIP3    H238615   4.122   2.353   0.460  0.3387  1.2267 -0.6630
 5686TIP3   OH238616   4.203   6.426   8.947 -0.2508 -0.4667 -0.4985
 5686TIP3    H138617   4.237   6.442   8.858 -0.5692  0.8498 -0.4119
 5686TIP3    H238618   4.169   6.511   8.974  1.0441 -0.4906  1.4060
 5687TIP3   OH238619   0.966   6.319   8.615  0.5345 -0.4092  0.2922
 5687TIP3    H138620   0.994   6.407   8.589 -0.2328 -0.2430 -0.0121
 5687TIP3    H238621   1.029   6.261   8.573  0.5579 -0.0373 -0.2071
 5688TIP3   OH238622   0.709   4.742   7.905 -0.0283  0.2945 -0.7697
 5688TIP3    H138623   0.743   4.791   7.830  1.8349  0.4280  0.1116
 5688TIP3    H238624   0.741   4.790   7.981 -1.8612  0.1486  0.1420
 5689TIP3   OH238625   1.796   2.151   2.408 -0.5153 -0.3557 -0.6690
 5689TIP3    H138626   1.840   2.235   2.423  1.7103 -1.7184  1.0114
 5689TIP3    H238627   1.818   2.098   2.485 -2.7266 -2.1645 -1.1799
 5690TIP3   OH238628   5.396   6.423   8.262  0.5643  0.3893  0.1810
 5690TIP3    H138629   5.373   6.476   8.186 -0.8930 -1.5789 -0.8298
 5690TIP3    H238630   5.331   6.352   8.263  2.5963 -1.5987  1.2207
 5691TIP3   OH238631   4.672   3.570   7.947 -0.0189 -0.2959  0.2703
 5691TIP3    H138632   4.674   3.477   7.966 -0.2054 -0.1737  0.9092
 5691TIP3    H238633   4.763   3.599   7.956 -0.0561 -0.3004  0.6889
 5692TIP3   OH238634   5.866   1.169   8.427 -0.1549 -0.5145  0.2922
 5692TIP3    H138635   5.841   1.169   8.335  0.5266  1.9693  0.0577
 5692TIP3    H238636   5.946   1.221   8.431  0.7716 -1.9388  2.0955
 5693TIP3   OH238637   1.571   4.946   2.630 -0.5856  0.7449  0.1281
 5693TIP3    H138638   1.655   4.973   2.590  0.5650 -0.7179  1.4437
 5693TIP3    H238639   1.513   5.021   2.615  0.4461  1.1813 -2.2286
 5694TIP3   OH238640   5.072   0.266   8.608  0.6961 -0.6278  0.6695
 5694TIP3    H138641   5.087   0.352   8.569  0.2182 -0.0334  1.7553
 5694TIP3    H238642   5.048   0.209   8.535  1.7142 -0.0201 -0.1609
 5695TIP3   OH238643   4.616   2.329   1.798 -0.1655  0.5866  0.3263
 5695TIP3    H138644   4.701   2.359   1.831 -0.6942  0.4895  1.9022
 5695TIP3    H238645   4.615   2.235   1.815 -0.1404  0.3730 -0.7804
 5696TIP3   OH238646   2.523   1.566   0.676  0.0975  0.7246 -0.0086
 5696TIP3    H138647   2.528   1.471   0.681 -1.6007  0.6461  0.9362
 5696TIP3    H238648   2.545   1.596   0.764  1.8499  1.3151 -0.6074
 5697TIP3   OH238649   6.281   5.912   8.951 -0.7350 -0.6488  0.2500
 5697TIP3    H138650   6.314   5.896   9.040  1.6076  1.1760 -0.1698
 5697TIP3    H238651   6.236   5.996   8.958 -0.3656 -0.3997 -0.2909
 5698TIP3   OH238652   6.645   1.773   3.264  0.1417  0.3527  0.0726
 5698TIP3    H138653   6.640   1.696   3.321 -0.3883 -0.2819 -0.8063
 5698TIP3    H238654   6.619   1.846   3.320 -1.9785 -0.4734  0.2853
 5699TIP3   OH238655   1.206   6.124   2.331 -0.4405 -0.2390 -0.2841
 5699TIP3    H138656   1.209   6.062   2.259 -0.3456  0.8815 -1.2677
 5699TIP3    H238657   1.160   6.077   2.401 -1.2821 -1.0598 -1.3458
 5700TIP3   OH238658   2.228   3.326   2.629  0.1035 -0.4942 -0.1147
 5700TIP3    H138659   2.281   3.319   2.708 -1.1087  2.1998  1.0680
 5700TIP3    H238660   2.169   3.251   2.632 -0.9978  0.3666  2.4649
 5701TIP3   OH238661   0.161   6.445   0.165  0.0620 -0.5757  0.3215
 5701TIP3    H138662   0.213   6.509   0.214 -1.2828 -0.2032  1.3173
 5701TIP3    H238663   0.078   6.441   0.212 -0.0986 -2.6545 -0.0339
 5702TIP3   OH238664   4.259   3.717   1.381  0.0569  0.1321 -0.2658
 5702TIP3    H138665   4.270   3.797   1.433  0.4003 -0.2164  0.2058
 5702TIP3    H238666   4.347   3.696   1.349 -0.1712  0.4186 -1.1114
 5703TIP3   OH238667   5.739   4.606   0.459 -0.0012  0.7383  0.4868
 5703TIP3    H138668   5.747   4.701   0.452 -0.5197  0.7049 -0.9032
 5703TIP3    H238669   5.677   4.582   0.390  0.6522 -0.6761  0.3492
 5704TIP3   OH238670   0.271   1.580   7.811  0.0437  0.3381 -0.2342
 5704TIP3    H138671   0.354   1.588   7.859  0.3507  0.6606 -0.8126
 5704TIP3    H238672   0.273   1.492   7.773 -0.5374 -0.2069  0.9524
 5705TIP3   OH238673   4.183   5.955   8.964  0.0674 -0.2133  0.2348
 5705TIP3    H138674   4.175   5.873   8.916  0.5972  1.0835 -2.2287
 5705TIP3    H238675   4.107   6.007   8.936  0.4128  0.6057  0.7700
 5706TIP3   OH238676   1.651   1.834   8.473  0.0732 -0.6210  0.5107
 5706TIP3    H138677   1.637   1.739   8.473  1.2326 -0.8109  0.6621
 5706TIP3    H238678   1.746   1.844   8.484  0.2206  0.5086 -1.3837
 5707TIP3   OH238679   6.293   4.819   2.978  0.2359 -0.0334  0.3959
 5707TIP3    H138680   6.305   4.751   2.912  0.5329 -0.3069  0.7310
 5707TIP3    H238681   6.315   4.777   3.061 -0.5666  0.1831  0.7268
 5708TIP3   OH238682   4.782   4.603   2.042  0.7194  0.1711 -0.2244
 5708TIP3    H138683   4.854   4.661   2.067  0.6134  0.8435 -1.4050
 5708TIP3    H238684   4.786   4.600   1.946 -0.4579 -0.2650 -0.2738
 5709TIP3   OH238685   1.565   2.814   8.898 -0.0960  0.6690 -0.3219
 5709TIP3    H138686   1.650   2.797   8.857  0.0153  2.2270 -0.7969
 5709TIP3    H238687   1.587   2.849   8.985 -0.2140  1.7057 -0.6966
 5710TIP3   OH238688   2.691   2.704   2.037 -0.5595  0.0816  0.1165
 5710TIP3    H138689   2.623   2.678   1.975 -1.8521  2.3294  0.5028
 5710TIP3    H238690   2.769   2.656   2.008 -1.6416 -0.5579 -1.9304
 5711TIP3   OH238691   4.237   6.756   3.189  0.3310 -0.0920  0.4210
 5711TIP3    H138692   4.182   6.834   3.199  1.0797  0.3941  0.7732
 5711TIP3    H238693   4.179   6.683   3.214  0.0963  0.4863  1.6675
 5712TIP3   OH238694   0.973   3.579   1.357 -0.9549  0.1600  0.3991
 5712TIP3    H138695   1.021   3.509   1.401 -1.6111  2.0324  4.6677
 5712TIP3    H238696   0.883   3.546   1.350 -0.5258 -0.7658 -1.2186
 5713TIP3   OH238697   6.672   2.432   0.653  0.3785  0.4245  0.6242
 5713TIP3    H138698   6.582   2.448   0.627  1.1539  0.7406 -2.1754
 5713TIP3    H238699   6.666   2.368   0.724 -2.0558  1.3579  1.3434
 5714TIP3   OH238700   5.692   5.998   1.472 -0.4227 -0.2320  0.4662
 5714TIP3    H138701   5.754   5.929   1.492 -0.1464  0.3416  1.6502
 5714TIP3    H238702   5.702   6.062   1.542  0.0149  1.4959 -1.0713
 5715TIP3   OH238703   6.142   4.860   2.282 -0.2370 -0.4060  0.2082
 5715TIP3    H138704   6.078   4.790   2.272 -0.5729 -0.0474 -0.2303
 5715TIP3    H238705   6.104   4.917   2.349  0.3163 -0.9457  0.9916
 5716TIP3   OH238706   0.939   6.006   0.623 -0.0438 -0.3781 -0.0287
 5716TIP3    H138707   0.848   6.010   0.654 -0.5459 -1.4012 -1.2576
 5716TIP3    H238708   0.990   6.041   0.695 -1.2826 -1.2175  1.3225
 5717TIP3   OH238709   3.135   1.082   1.959  0.0811  0.3533 -0.0192
 5717TIP3    H138710   3.227   1.077   1.933  0.0012 -1.1889 -0.0896
 5717TIP3    H238711   3.087   1.071   1.877 -0.1642  0.0474  0.1670
 5718TIP3   OH238712   1.643   2.885   8.556  0.0482  0.2062 -0.3836
 5718TIP3    H138713   1.667   2.840   8.638  0.0783  1.4107  0.2938
 5718TIP3    H238714   1.701   2.847   8.490  1.5522  0.7265  0.5902
 5719TIP3   OH238715   4.764   0.500   1.290 -0.3475  0.3171  0.2083
 5719TIP3    H138716   4.757   0.581   1.340  0.8093  1.4087 -1.3008
 5719TIP3    H238717   4.792   0.434   1.354  0.6735  1.5656  1.0931
 5720TIP3   OH238718   5.173   1.918   2.305 -0.3974 -0.1923  0.4989
 5720TIP3    H138719   5.106   1.980   2.333  0.4722  1.5952 -1.1789
 5720TIP3    H238720   5.250   1.939   2.359 -0.8739 -1.7649  1.9109
 5721TIP3   OH238721   3.569   4.397   0.264 -0.2980 -0.6904  0.6463
 5721TIP3    H138722   3.511   4.324   0.287 -0.8629 -1.1068 -1.8239
 5721TIP3    H238723   3.511   4.462   0.226  0.6686 -0.5318 -0.5984
 5722TIP3   OH238724   4.743   5.543   2.186  0.7637  0.5290  0.5531
 5722TIP3    H138725   4.776   5.475   2.127  1.1028  1.7781 -0.7692
 5722TIP3    H238726   4.669   5.502   2.230  1.0094 -0.7245 -0.1508
 5723TIP3   OH238727   1.333   0.240   0.599  0.5198  0.4673  0.4917
 5723TIP3    H138728   1.403   0.298   0.571 -0.7632  2.0412  0.4116
 5723TIP3    H238729   1.298   0.281   0.679  0.3464 -0.8368  1.1119
 5724TIP3   OH238730   1.247   0.365   3.078  0.0130 -0.0514 -0.6143
 5724TIP3    H138731   1.299   0.344   3.000  1.2234  0.3398  0.0605
 5724TIP3    H238732   1.223   0.279   3.114 -0.1662 -0.2343 -1.1615
 5725TIP3   OH238733   1.070   0.697   1.312 -0.6997  0.1997 -0.2883
 5725TIP3    H138734   0.998   0.725   1.369 -2.0715  0.3101 -1.9922
 5725TIP3    H238735   1.097   0.778   1.267 -1.0628 -0.2143 -1.2903
 5726TIP3   OH238736   2.911   1.572   2.290  0.5561 -0.2811  0.5317
 5726TIP3    H138737   2.917   1.477   2.301 -0.5176 -0.1370  3.0270
 5726TIP3    H238738   2.979   1.606   2.348 -0.8884  0.4748  1.8607
 5727TIP3   OH238739   2.189   5.555   1.025  0.2888 -0.5575 -0.4723
 5727TIP3    H138740   2.227   5.641   1.044 -0.1415 -0.6581  1.0274
 5727TIP3    H238741   2.262   5.494   1.036 -0.0775 -0.6901  1.8331
 5728TIP3   OH238742   6.287   1.530   1.452 -0.2036 -0.1121 -0.1173
 5728TIP3    H138743   6.259   1.517   1.542 -1.4171  1.1689 -0.2655
 5728TIP3    H238744   6.260   1.450   1.406 -1.6226  0.1445  0.2269
 5729TIP3   OH238745   1.022   0.571   1.732  0.6879  0.2941  0.4590
 5729TIP3    H138746   0.960   0.636   1.699  3.2587  2.1029 -1.1686
 5729TIP3    H238747   1.031   0.592   1.825 -0.8468  0.1823  0.6599
 5730TIP3   OH238748   1.457   3.756   7.618 -0.7867  0.0434 -0.4201
 5730TIP3    H138749   1.474   3.846   7.591 -1.5342  0.2209 -0.3153
 5730TIP3    H238750   1.497   3.749   7.705 -0.4735  0.1874 -0.5513
 5731TIP3   OH238751   5.818   0.551   2.852 -0.3784 -0.0815  0.1363
 5731TIP3    H138752   5.910   0.577   2.863 -0.1283 -1.0376  0.4039
 5731TIP3    H238753   5.777   0.625   2.808  0.3634  0.6521  0.6575
 5732TIP3   OH238754   0.196   3.549   2.038 -0.0358 -0.8252 -0.5396
 5732TIP3    H138755   0.224   3.607   1.966 -0.3996 -0.6882 -0.5739
 5732TIP3    H238756   0.156   3.608   2.102  0.1487 -0.9668 -0.2905
 5733TIP3   OH238757   1.680   4.496   7.765 -0.7208 -0.1176  0.4524
 5733TIP3    H138758   1.703   4.511   7.673 -0.1424  0.5455  0.6927
 5733TIP3    H238759   1.724   4.567   7.812 -0.8025 -0.6012  1.2722
 5734TIP3   OH238760   0.875   6.510   0.981  0.0289  0.5892 -0.4553
 5734TIP3    H138761   0.941   6.550   1.039 -0.5704  0.0836  0.6123
 5734TIP3    H238762   0.881   6.561   0.900 -0.1871  2.3767  0.5800
 5735TIP3   OH238763   2.852   0.252   2.787 -0.1519 -0.0496  0.5639
 5735TIP3    H138764   2.945   0.238   2.804 -0.1209  0.6743  1.0030
 5735TIP3    H238765   2.810   0.173   2.821  0.0839  0.5735  2.4134
 5736TIP3   OH238766   0.700   6.672   1.410  0.2971  0.6278  0.7456
 5736TIP3    H138767   0.703   6.712   1.497  0.0815  0.0159  1.0373
 5736TIP3    H238768   0.752   6.592   1.419 -0.8292 -0.1307  0.6783
 5737TIP3   OH238769   4.017   2.126   8.784  0.3564  0.1994  0.2284
 5737TIP3    H138770   4.086   2.167   8.837  1.7037  0.3072 -1.5180
 5737TIP3    H238771   4.007   2.185   8.709 -1.4967  0.0422  0.3100
 5738TIP3   OH238772   2.828   1.328   1.252 -0.2256  0.2960 -0.0403
 5738TIP3    H138773   2.734   1.317   1.270 -0.0002 -0.3248  0.8588
 5738TIP3    H238774   2.836   1.417   1.220 -1.3217 -0.1096 -1.5533
 5739TIP3   OH238775   5.803   2.120   2.487  0.0765  0.4037 -0.1919
 5739TIP3    H138776   5.853   2.045   2.518  2.9383  2.3893  0.3652
 5739TIP3    H238777   5.827   2.191   2.546 -3.8322  1.4764  0.3782
 5740TIP3   OH238778   2.057   2.913   2.224 -0.4096 -0.3070 -0.1736
 5740TIP3    H138779   2.145   2.915   2.186  0.1434 -2.8510  0.7809
 5740TIP3    H238780   2.071   2.918   2.318 -1.2476 -0.9405 -0.0000
 5741TIP3   OH238781   5.235   6.483   1.219 -0.2060  0.4805  0.8506
 5741TIP3    H138782   5.189   6.439   1.148 -0.6014  1.2406  0.6350
 5741TIP3    H238783   5.279   6.557   1.178  1.7136 -0.5392  0.9394
 5742TIP3   OH238784   1.908   2.212   0.260 -0.4430 -0.3717  0.2593
 5742TIP3    H138785   1.847   2.153   0.303  0.1430 -0.9898  0.2667
 5742TIP3    H238786   1.968   2.240   0.329 -0.2040 -0.4414  0.0820
 5743TIP3   OH238787   2.209   1.824   8.386  0.0587 -0.5363  0.2542
 5743TIP3    H138788   2.263   1.847   8.310  0.7274 -1.0683  0.5649
 5743TIP3    H238789   2.208   1.904   8.440 -1.6652  0.3746 -1.0005
 5744TIP3   OH238790   2.777   0.563   8.642 -0.4147 -0.0569 -0.4124
 5744TIP3    H138791   2.859   0.514   8.646 -1.0923 -1.1449  1.4233
 5744TIP3    H238792   2.784   0.627   8.713 -1.3100 -0.4516  0.0485
 5745TIP3   OH238793   5.654   5.404   1.007 -0.1420 -0.8949 -0.2304
 5745TIP3    H138794   5.575   5.407   0.953 -0.2664 -1.5583 -0.0949
 5745TIP3    H238795   5.632   5.456   1.085 -0.1454 -0.3761 -0.5726
 5746TIP3   OH238796   4.509   0.498   2.197  0.3088 -0.4961  0.4147
 5746TIP3    H138797   4.415   0.481   2.185  0.4885 -0.4266 -1.5087
 5746TIP3    H238798   4.512   0.576   2.252 -0.8569  0.7811 -1.2149
 5747TIP3   OH238799   2.715   1.279   0.890 -0.3659  0.1830  0.4504
 5747TIP3    H138800   2.666   1.313   0.815  1.0525  0.6641 -0.3033
 5747TIP3    H238801   2.787   1.229   0.850  0.4421  0.4900  1.4866
 5748TIP3   OH238802   2.470   1.736   2.701 -0.2191 -0.3334  0.6777
 5748TIP3    H138803   2.510   1.676   2.763  1.0190 -0.1284  0.1183
 5748TIP3    H238804   2.542   1.793   2.673 -1.0284  0.4052  0.0338
 5749TIP3   OH238805   3.072   0.228   0.425 -0.4486  0.0587  0.3190
 5749TIP3    H138806   3.131   0.206   0.497  0.0756 -1.2137 -0.4625
 5749TIP3    H238807   3.124   0.286   0.369  0.2846 -1.4415 -0.6164
 5750TIP3   OH238808   0.939   4.384   1.016 -0.0678 -0.3896  0.8266
 5750TIP3    H138809   1.009   4.411   0.957  1.3698 -0.8122  2.2625
 5750TIP3    H238810   0.985   4.354   1.095 -1.9220  0.8694  2.4694
 5751TIP3   OH238811   1.736   0.127   2.352 -0.2060  0.1187  0.8817
 5751TIP3    H138812   1.721   0.187   2.280  0.1270  0.2210  0.8942
 5751TIP3    H238813   1.649   0.108   2.387 -0.5440 -1.2118 -0.5772
 5752TIP3   OH238814   0.387   1.424   2.883 -0.4926  0.3582  0.1209
 5752TIP3    H138815   0.460   1.373   2.846  0.2690  0.8067  0.9544
 5752TIP3    H238816   0.428   1.505   2.913 -1.4510  0.8674  0.0741
 5753TIP3   OH238817   3.679   4.240   1.774 -0.8569 -0.0358 -0.2952
 5753TIP3    H138818   3.656   4.244   1.866  0.4988  1.1786  0.0177
 5753TIP3    H238819   3.640   4.319   1.736  0.1229  0.4092 -0.3848
 5754TIP3   OH238820   0.148   5.690   2.132  0.6069  0.5968 -0.4550
 5754TIP3    H138821   0.086   5.623   2.104 -0.4317  1.2103  0.2694
 5754TIP3    H238822   0.214   5.643   2.182 -1.1628  0.2686  1.7533
 5755TIP3   OH238823   5.197   2.021   1.518 -0.0449  0.3617 -0.1268
 5755TIP3    H138824   5.151   1.964   1.456  1.2110  0.2826 -1.0316
 5755TIP3    H238825   5.234   1.962   1.583  2.7017 -0.1520 -1.9912
 5756TIP3   OH238826   1.529   3.316   2.152 -0.8422 -0.0780  0.1593
 5756TIP3    H138827   1.594   3.255   2.187 -0.3625 -0.2343 -0.9517
 5756TIP3    H238828   1.534   3.305   2.057 -0.2868  2.1154 -0.1399
 5757TIP3   OH238829   2.438   5.222   1.432  0.4612  0.0629 -0.3559
 5757TIP3    H138830   2.511   5.254   1.484  1.0880  0.6283 -1.5486
 5757TIP3    H238831   2.464   5.236   1.342 -1.1454  0.3196 -0.8194
 5758TIP3   OH238832   2.349   3.856   0.906  0.3334 -0.5184 -0.0545
 5758TIP3    H138833   2.288   3.888   0.973  0.2634 -1.2116  0.2319
 5758TIP3    H238834   2.428   3.833   0.956  0.7832  0.2415 -0.4043
 5759TIP3   OH238835   1.930   6.069   2.073  0.0906 -0.4466 -0.5913
 5759TIP3    H138836   1.939   6.074   1.977  1.0117 -1.2216 -0.5486
 5759TIP3    H238837   1.984   5.995   2.099 -1.8459 -1.6139  0.3157
 5760TIP3   OH238838   6.518   2.533   3.141 -0.1890 -0.3301 -0.0631
 5760TIP3    H138839   6.509   2.517   3.235  0.7284 -1.1347 -0.1000
 5760TIP3    H238840   6.482   2.455   3.100  0.9505 -0.7315 -0.3329
 5761TIP3   OH238841   3.820   2.427   1.201  0.0979 -0.2044 -0.6956
 5761TIP3    H138842   3.877   2.497   1.230 -0.6619  0.2784 -0.3354
 5761TIP3    H238843   3.872   2.347   1.212  1.0102  0.3059 -1.2308
 5762TIP3   OH238844   4.869   1.585   1.224 -0.8772 -0.2544  0.8172
 5762TIP3    H138845   4.778   1.612   1.215 -0.5118  0.3946 -1.7950
 5762TIP3    H238846   4.918   1.649   1.173  0.7280 -2.2121 -0.2479
 5763TIP3   OH238847   3.784   0.901   0.588 -0.3269  0.7068 -0.1259
 5763TIP3    H138848   3.738   0.852   0.519  0.1994 -0.3953  0.2916
 5763TIP3    H238849   3.719   0.911   0.657 -0.8523  1.7983 -0.7431
 5764TIP3   OH238850   4.625   4.285   8.363 -0.5735  0.3254  0.3150
 5764TIP3    H138851   4.554   4.269   8.301 -1.6276 -0.2110  1.6366
 5764TIP3    H238852   4.586   4.338   8.432 -0.8385 -3.2471  3.1303
 5765TIP3   OH238853   5.948   3.208   7.880 -0.2810  1.0940 -0.0268
 5765TIP3    H138854   5.948   3.207   7.976  1.1628  1.4411 -0.0087
 5765TIP3    H238855   5.912   3.123   7.856  0.6693  0.4248  0.8357
 5766TIP3   OH238856   1.089   5.047   1.904 -0.5467  0.8764 -0.0533
 5766TIP3    H138857   1.065   5.083   1.818 -1.0362  0.5779 -0.0492
 5766TIP3    H238858   1.009   5.004   1.935 -0.3493  0.9135  0.5202
 5767TIP3   OH238859   5.867   4.342   8.004 -0.1895  0.0580  0.3099
 5767TIP3    H138860   5.889   4.249   7.993  0.6601  0.3154 -0.2345
 5767TIP3    H238861   5.842   4.350   8.096  0.7597 -0.5119  0.6299
 5768TIP3   OH238862   1.196   1.922   8.377  0.1469  0.1954  0.4080
 5768TIP3    H138863   1.272   1.886   8.331  0.2118  0.5942  0.2001
 5768TIP3    H238864   1.139   1.955   8.308 -1.8872 -3.1456  0.2503
 5769TIP3   OH238865   2.898   3.304   1.855 -0.4633 -0.4589 -0.4056
 5769TIP3    H138866   2.876   3.282   1.946  1.7563 -1.8313 -0.1252
 5769TIP3    H238867   2.870   3.395   1.845 -1.4225 -0.5076  1.4162
 5770TIP3   OH238868   3.092   2.431   2.572 -0.7080  0.1773  0.3503
 5770TIP3    H138869   3.155   2.362   2.554  0.7810  1.5852 -0.1831
 5770TIP3    H238870   3.020   2.415   2.510  1.2648  1.0928 -2.3836
 5771TIP3   OH238871   6.304   0.783   7.576  0.1138  0.1243 -0.1408
 5771TIP3    H138872   6.346   0.727   7.511  1.0153  0.1996  0.3574
 5771TIP3    H238873   6.352   0.866   7.572  1.3551 -0.4145  1.7604
 5772TIP3   OH238874   4.737   1.106   0.492 -0.5576  0.2323  0.0176
 5772TIP3    H138875   4.722   1.083   0.400 -1.5487 -1.8358  0.6219
 5772TIP3    H238876   4.650   1.108   0.531 -0.0779 -0.0275  1.1396
 5773TIP3   OH238877   5.515   5.414   2.142 -0.4995  0.0272 -0.2865
 5773TIP3    H138878   5.550   5.423   2.054 -0.3671 -0.2958 -0.2698
 5773TIP3    H238879   5.426   5.382   2.130 -0.1681 -0.9435 -0.2872
 5774TIP3   OH238880   2.826   3.407   8.076 -0.3436 -0.0204 -0.6410
 5774TIP3    H138881   2.902   3.432   8.128 -0.1559 -1.3240 -0.2493
 5774TIP3    H238882   2.852   3.426   7.986  0.6948 -0.9667 -0.5680
 5775TIP3   OH238883   4.344   4.471   6.973 -0.7208  0.0351 -0.1031
 5775TIP3    H138884   4.312   4.381   6.968 -1.8329  0.4739 -1.3005
 5775TIP3    H238885   4.399   4.482   6.896  1.0852 -0.2063  1.0951
 5776TIP3   OH238886   3.356   4.597   8.075  0.2682  0.0966 -0.5275
 5776TIP3    H138887   3.269   4.634   8.059 -0.3521 -0.9656  0.2410
 5776TIP3    H238888   3.417   4.659   8.034 -0.8155  1.1284 -0.6241
 5777TIP3   OH238889   5.703   3.940   1.544  0.3748  0.1525 -0.0145
 5777TIP3    H138890   5.625   3.969   1.497  0.1586  0.6608  0.6439
 5777TIP3    H238891   5.686   3.848   1.564  0.4566 -0.0615 -0.8844
 5778TIP3   OH238892   4.233   1.211   1.362 -0.0586  0.2352  0.6939
 5778TIP3    H138893   4.157   1.189   1.416 -0.8273 -0.4284 -0.6196
 5778TIP3    H238894   4.218   1.165   1.279  1.3523  0.7986  0.0956
 5779TIP3   OH238895   5.377   4.075   8.976  0.1525  0.1495 -0.4209
 5779TIP3    H138896   5.385   4.007   8.909  0.5635  0.1334 -0.3546
 5779TIP3    H238897   5.442   4.053   9.042  0.6160  0.8651 -0.6207
 5780TIP3   OH238898   3.631   1.846   1.826 -0.3404  0.0546  1.0899
 5780TIP3    H138899   3.658   1.916   1.766  0.5533 -0.3753  0.9684
 5780TIP3    H238900   3.537   1.859   1.838 -0.5145  0.2233 -0.3141
 5781TIP3   OH238901   6.316   1.847   7.893 -0.4302  0.2424 -0.1525
 5781TIP3    H138902   6.284   1.760   7.918 -1.2202  0.4166 -0.5625
 5781TIP3    H238903   6.409   1.833   7.875 -0.0842 -0.1319  1.7058
 5782TIP3   OH238904   4.853   3.937   0.439 -0.2975  0.0417 -0.4423
 5782TIP3    H138905   4.780   3.965   0.383  0.0458 -0.2588 -1.0473
 5782TIP3    H238906   4.919   3.904   0.378 -0.6373 -2.0118  0.2274
 5783TIP3   OH238907   2.220   6.299   0.694 -0.9304  0.1951  0.1024
 5783TIP3    H138908   2.250   6.362   0.629 -2.1478  0.2706 -0.4033
 5783TIP3    H238909   2.268   6.322   0.773  0.8560 -0.1417 -0.8408
 5784TIP3   OH238910   5.595   1.902   0.695  0.6348  0.0851  0.6481
 5784TIP3    H138911   5.516   1.862   0.658  1.3285  0.0208 -0.8507
 5784TIP3    H238912   5.562   1.962   0.762 -0.7336  0.4549 -0.3082
 5785TIP3   OH238913   0.608   5.740   8.019  0.2776  0.2810  0.0745
 5785TIP3    H138914   0.686   5.753   7.965 -0.0902 -0.8152 -0.7576
 5785TIP3    H238915   0.622   5.654   8.060 -0.7656 -0.2033 -0.5599
 5786TIP3   OH238916   4.934   0.204   1.269  0.1952 -0.3154  0.2149
 5786TIP3    H138917   4.872   0.156   1.216  0.2189  1.6085 -1.6911
 5786TIP3    H238918   5.017   0.157   1.259  0.1659 -0.0656 -1.4030
 5787TIP3   OH238919   1.992   2.427   2.942  0.0732 -0.0195  0.5240
 5787TIP3    H138920   1.922   2.362   2.949  1.2695 -1.3175  0.9297
 5787TIP3    H238921   1.959   2.503   2.989 -1.1346 -0.5334  0.5496
 5788TIP3   OH238922   1.369   1.094   0.846 -0.0497 -0.1172 -0.4656
 5788TIP3    H138923   1.451   1.108   0.798  0.1057 -0.4029 -0.2915
 5788TIP3    H238924   1.308   1.060   0.781 -0.6688  2.0093 -1.0781
 5789TIP3   OH238925   6.745   1.940   1.200  0.6307 -0.0348 -0.0082
 5789TIP3    H138926   6.755   1.903   1.288  1.9761  0.8585  0.2396
 5789TIP3    H238927   6.657   1.977   1.199  0.8896  0.6691  1.2559
 5790TIP3   OH238928   2.451   0.160   2.712  0.1978  0.2447  0.8587
 5790TIP3    H138929   2.455   0.102   2.788 -0.1585  0.0173  0.7114
 5790TIP3    H238930   2.389   0.228   2.738 -0.7139 -0.3858  0.4196
 5791TIP3   OH238931   4.907   6.415   0.745 -0.5180 -0.1139  0.1859
 5791TIP3    H138932   4.998   6.385   0.734 -0.6659  0.0900 -2.0183
 5791TIP3    H238933   4.905   6.500   0.702 -1.8968 -0.3562 -0.2612
 5792TIP3   OH238934   2.338   3.246   1.161 -0.2431 -0.4854  0.2639
 5792TIP3    H138935   2.312   3.175   1.219 -1.7675  0.6345  1.0171
 5792TIP3    H238936   2.288   3.322   1.191  0.3355  0.5994 -1.3425
 5793TIP3   OH238937   0.922   3.016   2.472 -0.3393 -0.3068 -0.5383
 5793TIP3    H138938   1.011   3.035   2.503  0.0985 -1.1266 -1.2212
 5793TIP3    H238939   0.867   3.023   2.550  0.8814 -3.5194  0.8116
 5794TIP3   OH238940   0.714   3.507   1.275 -0.0194  0.1998  0.1113
 5794TIP3    H138941   0.656   3.514   1.200 -0.8899  2.2741  0.9170
 5794TIP3    H238942   0.656   3.510   1.351  0.9759 -0.0018  0.9113
 5795TIP3   OH238943   4.435   3.396   3.140 -0.2593 -0.5273 -0.3736
 5795TIP3    H138944   4.487   3.355   3.208 -1.5965  0.3712  1.2551
 5795TIP3    H238945   4.344   3.385   3.168 -0.7913  0.7763 -1.4639
 5796TIP3   OH238946   6.191   6.427   7.860 -0.1295 -0.3943  0.1034
 5796TIP3    H138947   6.173   6.491   7.791 -0.2874  1.2728  1.6096
 5796TIP3    H238948   6.107   6.383   7.876 -0.0592 -0.8824 -0.8320
 5797TIP3   OH238949   4.827   3.527   8.201  0.5013  0.2845  0.2643
 5797TIP3    H138950   4.827   3.506   8.294  0.2501 -0.0644  0.1902
 5797TIP3    H238951   4.776   3.457   8.161  0.9909  0.1813 -0.1936
 5798TIP3   OH238952   5.883   3.139   0.721 -0.4995  0.3757 -0.4803
 5798TIP3    H138953   5.890   3.076   0.649  0.6392  0.4984 -0.4895
 5798TIP3    H238954   5.843   3.216   0.682 -3.2682 -0.7519 -0.1758
 5799TIP3   OH238955   1.282   3.267   8.636  0.2120 -0.4225 -0.1388
 5799TIP3    H138956   1.252   3.239   8.723  0.4036 -0.3072 -0.0334
 5799TIP3    H238957   1.359   3.321   8.654 -0.4202  0.5634 -0.3106
 5800TIP3   OH238958   1.379   3.095   0.366 -0.2867  0.1763  0.4802
 5800TIP3    H138959   1.337   3.094   0.452 -1.5805  0.4319 -0.1373
 5800TIP3    H238960   1.324   3.039   0.311  2.0454 -2.3549  0.4724
 5801TIP3   OH238961   3.790   4.562   0.082 -0.2234  0.1750  0.2847
 5801TIP3    H138962   3.737   4.636   0.053  0.5306 -0.2309 -2.4132
 5801TIP3    H238963   3.738   4.521   0.150 -2.8305  0.5080 -1.3580
 5802TIP3   OH238964   1.650   5.359   8.933  0.7405 -0.4699 -0.7004
 5802TIP3    H138965   1.705   5.359   9.012  0.1750  1.2993 -0.2489
 5802TIP3    H238966   1.706   5.398   8.866  0.8182 -0.8607 -0.8646
 5803TIP3   OH238967   0.633   6.038   1.838 -0.0124 -0.4531 -0.4220
 5803TIP3    H138968   0.623   5.943   1.843 -2.3243 -0.2228  0.8424
 5803TIP3    H238969   0.677   6.062   1.919 -0.6953 -0.3330 -0.0821
 5804TIP3   OH238970   6.532   4.533   8.167  0.2919  0.3096  0.2342
 5804TIP3    H138971   6.455   4.546   8.111  0.5643 -0.8288 -0.4338
 5804TIP3    H238972   6.514   4.452   8.214  1.0236  0.1191  0.1866
 5805TIP3   OH238973   1.721   3.355   1.233 -0.2479 -0.2276  0.0150
 5805TIP3    H138974   1.783   3.404   1.179  0.9593  0.1317  1.6230
 5805TIP3    H238975   1.690   3.284   1.177  0.3757  0.5435 -1.3576
 5806TIP3   OH238976   2.468   3.799   2.242 -0.3470 -0.4083  0.7274
 5806TIP3    H138977   2.549   3.849   2.231 -0.8407  0.8555  2.3764
 5806TIP3    H238978   2.433   3.789   2.154  0.4823  0.9691  0.2134
 5807TIP3   OH238979   6.106   5.778   7.160  0.0520 -0.0369 -0.3639
 5807TIP3    H138980   6.092   5.830   7.239 -0.4098  0.0089 -0.4754
 5807TIP3    H238981   6.021   5.739   7.141  0.5385 -1.3743  0.0957
 5808TIP3   OH238982   4.020   4.318   2.807  0.6375  0.2672  0.4917
 5808TIP3    H138983   3.958   4.381   2.845  0.7993 -0.0726  1.3300
 5808TIP3    H238984   4.105   4.362   2.812  1.1714 -0.9103  3.3339
 5809TIP3   OH238985   3.984   3.444   1.762  0.7266 -0.4061 -0.0111
 5809TIP3    H138986   3.900   3.490   1.763  1.1619  0.4460 -0.9364
 5809TIP3    H238987   3.961   3.352   1.755 -0.1389 -0.2190  0.2531
 5810TIP3   OH238988   3.625   3.952   1.566  0.3461  0.4645 -0.6900
 5810TIP3    H138989   3.608   3.952   1.660  1.3053 -1.1376 -0.4890
 5810TIP3    H238990   3.719   3.937   1.558  0.2728  0.5055 -1.9121
 5811TIP3   OH238991   6.393   1.879   8.883  0.3252 -0.3529  0.2389
 5811TIP3    H138992   6.433   1.792   8.875  1.4487  0.0665  1.1367
 5811TIP3    H238993   6.314   1.863   8.936  1.3468 -0.6102  1.7420
 5812TIP3   OH238994   0.213   5.306   8.764  0.3178 -0.2467  0.3531
 5812TIP3    H138995   0.258   5.377   8.719 -0.7157 -0.6513 -1.4021
 5812TIP3    H238996   0.165   5.349   8.835 -1.0123  0.9928 -1.2244
 5813TIP3   OH238997   1.104   3.576   8.435  0.3041  0.0455 -0.7162
 5813TIP3    H138998   1.069   3.648   8.382  2.4337  0.3008 -1.8789
 5813TIP3    H238999   1.198   3.576   8.416  0.7945 -1.2681  1.4308
 5814TIP3   OH239000   3.848   0.039   7.942  0.1465  0.4712  0.3061
 5814TIP3    H139001   3.832   0.109   8.006 -0.2585  0.4791  0.1961
 5814TIP3    H239002   3.914   0.076   7.883 -0.2715  0.8698  0.0820
 5815TIP3   OH239003   4.982   6.589   2.260 -0.2403  0.2865  0.2962
 5815TIP3    H139004   4.950   6.586   2.170 -0.3889  2.0317  0.2521
 5815TIP3    H239005   4.904   6.604   2.313 -0.0878 -0.2347  0.6750
 5816TIP3   OH239006   1.572   2.282   3.132  0.1822  0.6600  0.2150
 5816TIP3    H139007   1.532   2.345   3.192 -1.1738 -0.1350  0.1826
 5816TIP3    H239008   1.499   2.247   3.081  0.7698 -1.5456  0.7872
 5817TIP3   OH239009   0.878   1.052   8.918  0.3552 -0.3145  0.1909
 5817TIP3    H139010   0.788   1.052   8.888  0.4405  1.9949 -0.2401
 5817TIP3    H239011   0.928   1.015   8.846 -0.0349  0.3444 -0.4288
 5818TIP3   OH239012   6.634   3.909   0.169 -0.4887  0.4463 -0.1678
 5818TIP3    H139013   6.629   3.981   0.107  1.5500  0.1730 -0.7448
 5818TIP3    H239014   6.693   3.846   0.127  0.5592  0.0263  1.8158
 5819TIP3   OH239015   2.229   0.552   8.251 -0.0267  0.2275 -0.3259
 5819TIP3    H139016   2.140   0.574   8.224 -0.4268 -1.5279 -0.5137
 5819TIP3    H239017   2.268   0.637   8.274 -1.7052  1.0378 -0.3069
 5820TIP3   OH239018   4.072   3.974   1.917 -0.2974  0.8131 -0.4987
 5820TIP3    H139019   3.986   4.006   1.890  0.4019  2.2665 -1.0984
 5820TIP3    H239020   4.132   4.047   1.900  0.9655  0.0504  0.4766
 5821TIP3   OH239021   2.393   3.170   0.778 -0.1070  0.0095  0.3115
 5821TIP3    H139022   2.461   3.163   0.845 -0.3437  1.0149  0.6785
 5821TIP3    H239023   2.355   3.256   0.792 -2.1594 -0.9175  0.7627
 5822TIP3   OH239024   2.754   4.859   7.878 -0.3580  0.1175 -0.0562
 5822TIP3    H139025   2.792   4.892   7.797 -1.8852 -0.0886 -0.8833
 5822TIP3    H239026   2.795   4.913   7.947 -0.7315  1.8653 -1.1467
 5823TIP3   OH239027   5.164   5.049   8.887  0.1959  0.3481 -0.0078
 5823TIP3    H139028   5.086   5.093   8.921  0.0222  1.0711 -1.2814
 5823TIP3    H239029   5.234   5.113   8.897  0.7516 -0.4386  1.4973
 5824TIP3   OH239030   4.781   2.256   0.386  0.1230  0.1967 -0.0572
 5824TIP3    H139031   4.741   2.170   0.399 -0.3284  0.6395  1.8435
 5824TIP3    H239032   4.741   2.311   0.453  0.6476  1.8203 -1.0290
 5825TIP3   OH239033   0.072   4.128   1.440 -0.2841  0.4233 -0.1653
 5825TIP3    H139034   0.160   4.158   1.417 -0.2718  1.0444  0.6625
 5825TIP3    H239035   0.085   4.075   1.519 -0.6564  0.5711 -0.0036
 5826TIP3   OH239036   0.410   6.188   0.804 -0.2747 -0.0805 -0.2535
 5826TIP3    H139037   0.396   6.111   0.748  0.7296 -1.3950  1.2059
 5826TIP3    H239038   0.424   6.151   0.891 -0.7232  1.8434  0.6683
 5827TIP3   OH239039   0.814   0.778   1.739  0.5502  0.1089  0.3067
 5827TIP3    H139040   0.751   0.756   1.807  1.0319 -0.5547  0.5575
 5827TIP3    H239041   0.763   0.777   1.658 -0.2264  1.8279  0.7299
 5828TIP3   OH239042   2.102   3.698   1.123 -0.1781  0.2028 -0.3313
 5828TIP3    H139043   2.115   3.603   1.115 -1.8698 -0.2569  1.3529
 5828TIP3    H239044   2.176   3.728   1.175  0.5117 -0.1326 -1.1015
 5829TIP3   OH239045   6.448   2.168   2.264  0.3611 -0.4778  0.2583
 5829TIP3    H139046   6.452   2.219   2.183 -0.0728 -1.3761 -0.3334
 5829TIP3    H239047   6.513   2.099   2.252  1.9664  0.6843  1.6262
 5830TIP3   OH239048   3.415   2.131   0.056 -0.9835  0.4962 -0.4526
 5830TIP3    H139049   3.442   2.057   0.110 -1.5831 -0.0927 -0.9415
 5830TIP3    H239050   3.354   2.181   0.110  1.1389  1.9531  0.7411
 5831TIP3   OH239051   1.097   1.399   0.551 -0.5822  0.3070 -0.0753
 5831TIP3    H139052   1.015   1.441   0.526 -1.1479  0.0950  1.3662
 5831TIP3    H239053   1.073   1.337   0.619  0.7884  0.2733  0.4056
 5832TIP3   OH239054   3.757   2.496   2.512  0.8413 -0.2005  0.0328
 5832TIP3    H139055   3.816   2.556   2.557 -0.4386  0.2067  1.2611
 5832TIP3    H239056   3.677   2.496   2.565 -1.1265  0.9692 -2.6381
 5833TIP3   OH239057   5.597   5.306   0.388 -0.6999 -0.1461 -0.3680
 5833TIP3    H139058   5.627   5.396   0.406  0.2764 -0.3850 -0.7544
 5833TIP3    H239059   5.502   5.310   0.400 -0.5900  0.7687  0.3401
 5834TIP3   OH239060   0.145   3.584   2.861 -0.6446 -0.2456 -0.1099
 5834TIP3    H139061   0.180   3.652   2.804  1.9164  0.7690  2.4229
 5834TIP3    H239062   0.068   3.625   2.902  0.9967  1.4030  1.5617
 5835TIP3   OH239063   0.290   6.307   1.270  0.3458 -0.5008 -0.4945
 5835TIP3    H139064   0.235   6.229   1.259 -0.2234 -0.2638  0.4537
 5835TIP3    H239065   0.368   6.289   1.218  0.6518 -2.1241  0.4429
 5836TIP3   OH239066   2.657   3.449   2.414  0.6289 -0.3349  0.1049
 5836TIP3    H139067   2.579   3.476   2.367  0.5704 -2.5982 -1.2536
 5836TIP3    H239068   2.625   3.418   2.499  0.1178 -0.6178 -0.1893
 5837TIP3   OH239069   6.664   4.850   7.904 -0.4877 -0.3505  0.5040
 5837TIP3    H139070   6.687   4.907   7.977 -0.2562 -0.9490  0.9026
 5837TIP3    H239071   6.646   4.765   7.944  0.5828 -0.9462 -0.2157
 5838TIP3   OH239072   3.876   3.302   2.165  0.0059 -0.2315 -0.5031
 5838TIP3    H139073   3.841   3.379   2.209 -1.9171 -1.2110 -0.1898
 5838TIP3    H239074   3.959   3.284   2.210 -0.3874  0.6105  0.6106
 5839TIP3   OH239075   3.510   4.471   1.137  0.5262 -0.4478  0.0596
 5839TIP3    H139076   3.420   4.481   1.167  0.1304  1.6461 -1.6106
 5839TIP3    H239077   3.514   4.381   1.105 -0.7955 -0.7675  0.7154
 5840TIP3   OH239078   4.318   1.643   1.206 -0.4728 -0.2935 -0.0669
 5840TIP3    H139079   4.268   1.620   1.128 -1.3502 -0.2032  0.4643
 5840TIP3    H239080   4.270   1.715   1.246 -0.2929 -0.6481  0.8195
 5841TIP3   OH239081   2.698   3.669   8.933 -0.0256 -0.6657  0.7545
 5841TIP3    H139082   2.671   3.662   8.841  1.0280 -0.4373  0.4082
 5841TIP3    H239083   2.736   3.583   8.953 -1.2621 -1.1015  1.3394
 5842TIP3   OH239084   3.800   5.610   1.355 -0.6837 -0.1519 -0.1687
 5842TIP3    H139085   3.813   5.695   1.397 -0.8224 -0.0926 -0.2493
 5842TIP3    H239086   3.843   5.618   1.270 -0.6144 -0.1949 -0.1389
 5843TIP3   OH239087   4.474   5.690   0.393 -0.0314 -0.4508 -0.1109
 5843TIP3    H139088   4.438   5.736   0.317 -2.9545 -0.1109  1.3157
 5843TIP3    H239089   4.418   5.612   0.401 -1.0543  0.4461  2.6679
 5844TIP3   OH239090   5.307   5.533   8.949  0.4045  0.4394 -0.2621
 5844TIP3    H139091   5.395   5.569   8.958 -0.3520  2.7474 -1.2770
 5844TIP3    H239092   5.274   5.570   8.867 -1.4674 -0.4851  0.0048
 5845TIP3   OH239093   4.818   5.376   0.831  0.5491  0.2020 -0.6570
 5845TIP3    H139094   4.845   5.434   0.902 -1.6114 -1.5561  1.7844
 5845TIP3    H239095   4.885   5.308   0.829 -0.6625 -1.2000  1.6856
 5846TIP3   OH239096   5.632   2.700   8.308  0.2325  0.1282 -0.1534
 5846TIP3    H139097   5.667   2.625   8.260  2.3926  0.7091  0.4183
 5846TIP3    H239098   5.610   2.764   8.240  1.2791  0.1396 -0.4948
 5847TIP3   OH239099   5.445   6.174   0.775 -0.3868 -0.1908 -0.4147
 5847TIP3    H139100   5.351   6.191   0.777 -0.1016  1.7346  1.9870
 5847TIP3    H239101   5.476   6.222   0.699 -1.4957 -2.4821 -2.4465
 5848TIP3   OH239102   1.955   4.532   1.772  0.4292  0.4439  0.3722
 5848TIP3    H139103   1.861   4.535   1.751 -0.3719  0.1114  3.3898
 5848TIP3    H239104   1.978   4.623   1.791 -0.0540  0.2244  2.2457
 5849TIP3   OH239105   2.877   5.397   0.592 -0.6108  0.6378  0.1893
 5849TIP3    H139106   2.811   5.466   0.594 -0.8134  0.4384  1.8364
 5849TIP3    H239107   2.933   5.420   0.518 -0.5527  2.6838  0.8048
 5850TIP3   OH239108   4.400   0.525   3.507  0.1386  0.0834  0.1410
 5850TIP3    H139109   4.324   0.476   3.476  0.5524 -0.6876  0.3200
 5850TIP3    H239110   4.364   0.591   3.566 -0.4572  0.2234 -0.3654
 5851TIP3   OH239111   5.705   5.324   2.415 -0.0605 -0.1636 -0.5123
 5851TIP3    H139112   5.689   5.231   2.433 -1.6014  0.3181  0.8207
 5851TIP3    H239113   5.699   5.331   2.319  0.6100 -1.5046 -0.6810
 5852TIP3   OH239114   2.203   2.686   8.516 -0.0124  0.4565 -0.6385
 5852TIP3    H139115   2.195   2.623   8.587 -0.3748  2.5254  1.2542
 5852TIP3    H239116   2.274   2.651   8.461  0.9611 -0.7331  1.2643
 5853TIP3   OH239117   4.731   1.889   8.349 -0.2691 -0.1152  0.7642
 5853TIP3    H139118   4.825   1.908   8.349 -0.1769 -0.3761 -0.7563
 5853TIP3    H239119   4.726   1.793   8.347 -0.5847 -0.1115  1.2391
 5854TIP3   OH239120   5.822   6.721   3.165  0.1932  0.1034 -0.0665
 5854TIP3    H139121   5.875   6.768   3.230  0.0106  0.2858 -0.0481
 5854TIP3    H239122   5.786   6.646   3.213  0.7659 -0.2527 -0.1867
 5855TIP3   OH239123   1.505   2.224   1.356  0.6532  0.0789 -0.2544
 5855TIP3    H139124   1.409   2.215   1.351  0.7409 -1.2859  0.0969
 5855TIP3    H239125   1.525   2.214   1.449  1.2726 -1.3907 -0.5277
 5856TIP3   OH239126   0.067   3.332   0.085 -0.8003  0.0838 -0.1984
 5856TIP3    H139127   0.086   3.371   0.000  0.8182 -1.6338 -0.6998
 5856TIP3    H239128   0.137   3.364   0.143 -1.4716  0.6642  0.3038
 5857TIP3   OH239129   6.433   3.076   2.566 -0.2365  0.6719  0.7282
 5857TIP3    H139130   6.339   3.075   2.583 -0.5322 -2.3667 -0.3769
 5857TIP3    H239131   6.443   3.125   2.485 -1.1009 -0.1848  0.0816
 5858TIP3   OH239132   5.770   5.594   7.969  0.7314  0.3916 -0.3377
 5858TIP3    H139133   5.858   5.603   7.933  1.0205 -0.4502  0.1099
 5858TIP3    H239134   5.778   5.621   8.060  0.1405  1.9278 -0.7228
 5859TIP3   OH239135   3.876   6.542   2.761  0.6807  0.2614  0.1871
 5859TIP3    H139136   3.951   6.585   2.721  0.0418  0.8780 -0.3838
 5859TIP3    H239137   3.831   6.612   2.809  1.9804 -0.6323  2.9421
 5860TIP3   OH239138   0.318   1.727   8.372 -0.3112 -0.2501 -0.2956
 5860TIP3    H139139   0.340   1.731   8.465  0.6019  0.2657 -0.5255
 5860TIP3    H239140   0.245   1.788   8.362  0.8314  1.1652 -0.2444
 5861TIP3   OH239141   5.741   6.501   8.395  0.2893 -0.0068  0.5551
 5861TIP3    H139142   5.777   6.532   8.311 -0.0701 -1.4699 -0.1644
 5861TIP3    H239143   5.729   6.407   8.383 -0.6553 -0.0890  1.9381
 5862TIP3   OH239144   6.193   3.146   2.127 -0.0365 -0.4298  0.0290
 5862TIP3    H139145   6.232   3.205   2.191 -0.4642  1.2090 -1.1196
 5862TIP3    H239146   6.229   3.060   2.146  2.2809  0.5699  0.4838
 5863TIP3   OH239147   6.165   0.881   7.807 -0.1069  0.0553  0.0493
 5863TIP3    H139148   6.080   0.842   7.789 -0.8641  1.2887  0.8228
 5863TIP3    H239149   6.218   0.861   7.730 -0.9434 -1.1179 -0.2425
 5864TIP3   OH239150   6.702   3.263   0.713 -0.2268  0.3401 -0.0279
 5864TIP3    H139151   6.756   3.305   0.781 -0.3695 -1.1632  1.0675
 5864TIP3    H239152   6.631   3.325   0.697  0.1264  0.9746  0.7672
 5865TIP3   OH239153   3.501   5.212   6.718  0.3706 -0.6298 -0.0036
 5865TIP3    H139154   3.565   5.265   6.671 -1.1524 -0.0996 -1.5499
 5865TIP3    H239155   3.458   5.274   6.777  0.1232 -0.6179 -0.1957
 5866TIP3   OH239156   0.414   4.399   2.198  0.0935  0.3874 -0.0009
 5866TIP3    H139157   0.331   4.408   2.151 -0.5999 -0.0451  1.0933
 5866TIP3    H239158   0.474   4.362   2.134 -0.4392  1.0886 -0.9333
 5867TIP3   OH239159   3.991   5.491   0.900  0.1732  0.3367 -0.6673
 5867TIP3    H139160   4.083   5.503   0.877  0.1457  1.4014 -0.2652
 5867TIP3    H239161   3.960   5.423   0.840  0.9433  0.7402 -1.5485
 5868TIP3   OH239162   0.570   0.210   2.616 -0.4561 -0.4969  0.4282
 5868TIP3    H139163   0.614   0.257   2.686 -1.1302 -0.5823  0.9206
 5868TIP3    H239164   0.493   0.262   2.596  1.4100  1.3515 -2.6253
 5869TIP3   OH239165   2.697   3.503   7.177 -0.7195  0.4043  0.0541
 5869TIP3    H139166   2.725   3.444   7.247 -1.5362 -0.8416 -0.6341
 5869TIP3    H239167   2.607   3.476   7.157 -1.7753  2.9995  0.8584
 5870TIP3   OH239168   2.091   3.766   8.485 -0.4736 -0.8583 -0.0059
 5870TIP3    H139169   2.016   3.794   8.538  0.2721 -1.0393  1.1789
 5870TIP3    H239170   2.058   3.691   8.435 -1.4262 -0.1699 -0.4407
 5871TIP3   OH239171   6.701   4.559   8.823  0.4139 -0.3175 -0.0084
 5871TIP3    H139172   6.688   4.597   8.737 -0.1515 -0.2610  0.0979
 5871TIP3    H239173   6.791   4.527   8.822  0.5980  0.1940 -0.4169
 5872TIP3   OH239174   0.388   4.015   1.215  0.9853 -0.4872 -0.1617
 5872TIP3    H139175   0.342   4.099   1.214 -0.3666 -1.1451 -2.7110
 5872TIP3    H239176   0.480   4.038   1.227  0.4993  1.2353  0.5965
 5873TIP3   OH239177   5.589   4.030   0.181 -0.4239  0.0050  0.2939
 5873TIP3    H139178   5.559   4.014   0.271  0.3380  1.9618  0.9553
 5873TIP3    H239179   5.673   4.074   0.192 -1.3678  2.3737 -1.2964
 5874TIP3   OH239180   5.850   3.406   0.619 -0.3020  0.1746  0.2870
 5874TIP3    H139181   5.939   3.402   0.653 -0.2231 -0.3181  0.0270
 5874TIP3    H239182   5.858   3.447   0.533 -0.1132 -1.2266 -0.4044
 5875TIP3   OH239183   1.336   0.527   1.976 -0.3445 -0.1744 -0.0703
 5875TIP3    H139184   1.355   0.442   2.016  0.7421  0.1889  0.2257
 5875TIP3    H239185   1.331   0.587   2.050  0.7133  0.3294 -0.3837
 5876TIP3   OH239186   4.525   4.238   0.702 -0.0564  0.0806  0.1701
 5876TIP3    H139187   4.451   4.240   0.762 -1.0353 -3.8475 -0.6370
 5876TIP3    H239188   4.511   4.160   0.649  4.0709 -0.2044 -0.8447
 5877TIP3   OH239189   4.590   1.854   2.322  0.1503 -0.3274 -0.1034
 5877TIP3    H139190   4.557   1.942   2.304  1.2378  0.6972  2.4966
 5877TIP3    H239191   4.511   1.800   2.331 -0.6814  1.0270  1.1384
 5878TIP3   OH239192   5.743   4.250   7.405 -0.2348  0.0103 -0.0702
 5878TIP3    H139193   5.704   4.266   7.319 -0.3389  3.1974  0.4529
 5878TIP3    H239194   5.837   4.243   7.387 -0.4656 -2.4517 -0.7119
 5879TIP3   OH239195   5.392   0.373   2.466 -0.3276 -0.0338 -0.0596
 5879TIP3    H139196   5.321   0.431   2.495 -0.0093 -0.1095  0.8961
 5879TIP3    H239197   5.471   0.414   2.501  0.0470 -0.2729 -0.6163
 5880TIP3   OH239198   0.989   3.527   2.249 -0.2177 -0.2392 -0.3568
 5880TIP3    H139199   0.925   3.456   2.247  1.1923 -1.5750 -2.3067
 5880TIP3    H239200   1.001   3.546   2.342 -1.4985 -1.7673  0.1625
 5881TIP3   OH239201   5.728   3.941   7.841  0.0826 -0.2458 -0.4059
 5881TIP3    H139202   5.702   4.028   7.870  2.3197  0.4367 -0.2730
 5881TIP3    H239203   5.769   3.901   7.918  1.0208 -0.5704 -1.0594
 5882TIP3   OH239204   2.016   1.402   0.916  0.4062 -0.2021  0.1631
 5882TIP3    H139205   2.062   1.460   0.854  0.0794 -3.1090 -3.1191
 5882TIP3    H239206   2.079   1.333   0.936 -0.6229 -1.1265  0.3115
 5883TIP3   OH239207   3.005   5.720   2.415  0.3160  0.4914  0.1542
 5883TIP3    H139208   3.005   5.726   2.511  2.1265 -1.7746  0.3961
 5883TIP3    H239209   2.989   5.809   2.386  0.3745  1.3884  2.5784
 5884TIP3   OH239210   5.861   4.889   0.231 -0.0002  0.3686  0.2138
 5884TIP3    H139211   5.851   4.897   0.136  0.8529  0.0429  0.0897
 5884TIP3    H239212   5.954   4.904   0.247  0.5768 -2.8657  0.6093
 5885TIP3   OH239213   5.141   5.732   1.673  0.2580 -0.0769 -0.4265
 5885TIP3    H139214   5.185   5.655   1.636 -0.9987 -1.1356  0.1920
 5885TIP3    H239215   5.068   5.748   1.613  0.7489  0.9110 -0.7785
 5886TIP3   OH239216   1.632   2.044   6.985 -0.7200 -0.1971 -0.3890
 5886TIP3    H139217   1.637   2.128   7.030 -0.6605 -0.5991  0.3728
 5886TIP3    H239218   1.706   2.044   6.925 -0.1254 -0.1100  0.3294
 5887TIP3   OH239219   5.269   3.320   2.655 -0.5322  0.3248  0.5510
 5887TIP3    H139220   5.286   3.235   2.613  0.1974  0.2029  1.0692
 5887TIP3    H239221   5.177   3.317   2.680 -0.7794  0.0912 -0.3407
 5888TIP3   OH239222   4.049   2.270   8.566 -0.0950 -0.1995 -0.2553
 5888TIP3    H139223   4.139   2.282   8.536 -0.1818 -1.2479 -0.9993
 5888TIP3    H239224   4.002   2.348   8.535  0.1793 -0.4938 -1.4288
 5889TIP3   OH239225   2.396   5.601   8.970 -0.3508  0.3342 -0.6795
 5889TIP3    H139226   2.465   5.544   9.004 -1.7759 -1.2683 -0.3450
 5889TIP3    H239227   2.386   5.668   9.037  0.0481 -0.1213 -0.1559
 5890TIP3   OH239228   1.133   1.843   0.812  0.1119 -0.2865  0.6287
 5890TIP3    H139229   1.173   1.920   0.772  1.0907 -1.4010 -0.6071
 5890TIP3    H239230   1.109   1.787   0.738 -0.4905 -1.2205  1.5069
 5891TIP3   OH239231   4.515   0.514   7.918 -0.1181  0.0565  0.1999
 5891TIP3    H139232   4.499   0.420   7.917 -2.4444  0.3686  1.1091
 5891TIP3    H239233   4.481   0.545   7.833 -2.5313  0.4276  1.2160
 5892TIP3   OH239234   5.298   4.737   8.002 -0.4101  0.1110  0.2852
 5892TIP3    H139235   5.298   4.733   8.098  0.9302  0.6491  0.3368
 5892TIP3    H239236   5.373   4.792   7.981  1.7180 -3.0279 -1.1371
 5893TIP3   OH239237   2.306   0.848   8.314  0.0362  0.2494  0.0869
 5893TIP3    H139238   2.355   0.915   8.266  0.0908  0.4134  0.3677
 5893TIP3    H239239   2.224   0.891   8.339 -0.0973  0.0870 -0.0757
 5894TIP3   OH239240   6.224   3.023   3.036  0.1779  0.4121  0.0456
 5894TIP3    H139241   6.250   3.096   3.092  1.8698  1.4145 -1.8999
 5894TIP3    H239242   6.177   3.064   2.963 -0.7974 -0.7143  0.0090
 5895TIP3   OH239243   1.354   1.308   1.573 -0.2518 -0.0252 -0.0619
 5895TIP3    H139244   1.334   1.224   1.615 -0.7052 -0.3074 -0.8178
 5895TIP3    H239245   1.326   1.296   1.482  0.8362  0.5222 -0.4902
 5896TIP3   OH239246   2.689   4.031   0.998  0.8431 -0.0840 -0.3197
 5896TIP3    H139247   2.782   4.050   1.010  0.3697  1.6348  1.1648
 5896TIP3    H239248   2.647   4.066   1.077 -1.0237 -1.1654 -0.7721
 5897TIP3   OH239249   5.372   2.929   7.478  0.9125  0.2190 -0.3416
 5897TIP3    H139250   5.325   2.925   7.395 -0.4715  0.9082  0.3794
 5897TIP3    H239251   5.339   2.856   7.529  0.9678  0.4291 -0.0020
 5898TIP3   OH239252   5.142   4.041   7.314  0.2522  0.6761 -0.7298
 5898TIP3    H139253   5.124   4.005   7.227  0.8063 -0.0066 -0.5659
 5898TIP3    H239254   5.221   4.093   7.302 -1.1379  2.8051 -1.2135
 5899TIP3   OH239255   4.397   4.261   0.189 -0.1064 -0.3087 -0.0623
 5899TIP3    H139256   4.483   4.299   0.208 -0.4874  0.6783 -0.2409
 5899TIP3    H239257   4.341   4.337   0.175 -0.7639 -0.9604 -1.0232
 5900TIP3   OH239258   3.742   0.619   7.964  0.6870 -0.4358  0.0923
 5900TIP3    H139259   3.737   0.551   7.897  1.0476  0.6864 -1.1312
 5900TIP3    H239260   3.836   0.631   7.978  0.7528  1.2025 -1.2701
 5901TIP3   OH239261   4.096   2.341   1.444 -0.6033  0.3005 -0.1029
 5901TIP3    H139262   4.085   2.434   1.460 -0.9831  0.6011 -1.8789
 5901TIP3    H239263   4.118   2.335   1.351  1.1216 -1.2696  0.3495
 5902TIP3   OH239264   0.647   3.606   2.102 -0.1997  0.1127 -0.1200
 5902TIP3    H139265   0.671   3.697   2.120 -0.4911  0.3607 -0.9246
 5902TIP3    H239266   0.723   3.555   2.130 -0.8987  0.3523  2.5026
 5903TIP3   OH239267   1.728   6.565   8.536 -0.3677  0.0384 -0.3203
 5903TIP3    H139268   1.677   6.486   8.516  0.8557 -0.5527 -1.2295
 5903TIP3    H239269   1.814   6.532   8.561 -0.4936  1.0095  1.5193
 5904TIP3   OH239270   0.155   3.925   8.833  0.9638 -0.4007 -0.1470
 5904TIP3    H139271   0.209   3.977   8.892  1.0078  0.8225 -1.2334
 5904TIP3    H239272   0.202   3.925   8.750 -0.8486  1.0266 -1.2377
 5905TIP3   OH239273   5.059   5.487   8.430  0.4808 -0.3086 -0.7708
 5905TIP3    H139274   5.077   5.575   8.397  1.8782 -0.8357 -1.5062
 5905TIP3    H239275   4.984   5.457   8.378  0.7389  0.0076 -1.3314
 5906TIP3   OH239276   2.174   3.918   8.264 -0.1556  0.4233  0.2229
 5906TIP3    H139277   2.268   3.926   8.281  0.1908 -0.6114 -0.9815
 5906TIP3    H239278   2.140   3.869   8.339  0.5351 -0.4062  0.0100
 5907TIP3   OH239279   2.122   0.968   0.832  0.7657  0.2738 -0.3784
 5907TIP3    H139280   2.210   0.994   0.860  1.0971 -0.2055 -0.9708
 5907TIP3    H239281   2.136   0.907   0.760 -0.0817  1.3707 -1.5126
 5908TIP3   OH239282   1.676   1.776   2.304 -0.0602 -0.4680  0.0554
 5908TIP3    H139283   1.711   1.714   2.240 -0.4645 -0.2356 -0.4036
 5908TIP3    H239284   1.593   1.805   2.266  0.2912  0.6186  0.0843
 5909TIP3   OH239285   2.898   0.568   8.205 -0.4211 -0.0621  0.2202
 5909TIP3    H139286   2.841   0.491   8.208  0.2418 -0.6357 -0.8675
 5909TIP3    H239287   2.875   0.619   8.282  0.5706 -2.4043  2.2096
 5910TIP3   OH239288   3.835   0.698   1.261 -0.2073 -0.2856 -0.3866
 5910TIP3    H139289   3.859   0.635   1.193  0.1342 -1.1884  0.5475
 5910TIP3    H239290   3.850   0.652   1.343 -0.4210  0.8557  0.3171
 5911TIP3   OH239291   6.738   4.569   1.231 -0.2533 -0.3391 -0.0805
 5911TIP3    H139292   6.709   4.586   1.142 -0.8065 -0.3614  0.0882
 5911TIP3    H239293   6.664   4.524   1.272  0.1812 -0.7688  0.2495
 5912TIP3   OH239294   3.382   5.492   7.372  0.1593  0.6433 -0.4659
 5912TIP3    H139295   3.425   5.409   7.353 -2.1650 -1.0144  1.0208
 5912TIP3    H239296   3.327   5.509   7.295  2.0185  1.8727 -1.6028
 5913TIP3   OH239297   5.347   1.298   8.563  0.2026  0.6006  0.1760
 5913TIP3    H139298   5.292   1.368   8.598  1.1880  2.2173 -1.3946
 5913TIP3    H239299   5.301   1.269   8.484  0.4541  0.3518  0.1211
 5914TIP3   OH239300   1.021   1.496   0.243 -0.3273 -0.2930  0.2242
 5914TIP3    H139301   1.059   1.575   0.203 -1.0472 -0.7664 -1.5217
 5914TIP3    H239302   0.997   1.523   0.332  1.6617  0.7378  0.5027
 5915TIP3   OH239303   0.107   6.733   1.471  0.1211  0.3618 -0.3742
 5915TIP3    H139304   0.109   6.693   1.384  1.6342  1.0083 -0.6624
 5915TIP3    H239305   0.181   6.793   1.472 -1.1281  1.9900  0.5945
 5916TIP3   OH239306   1.587   6.505   2.290  0.1460 -0.3127 -1.0987
 5916TIP3    H139307   1.612   6.460   2.210  0.9058 -1.5860 -0.1887
 5916TIP3    H239308   1.671   6.521   2.335 -0.2217  0.8853 -0.8208
 5917TIP3   OH239309   0.266   1.903   7.871 -0.3824  0.0789 -0.4487
 5917TIP3    H139310   0.184   1.893   7.822  1.0779  2.6610 -3.8639
 5917TIP3    H239311   0.273   1.997   7.887  0.8215 -0.3472  1.9633
 5918TIP3   OH239312   2.362   0.711   1.951  0.1123  0.6256  0.8843
 5918TIP3    H139313   2.416   0.634   1.933  1.7343  1.6779  0.9834
 5918TIP3    H239314   2.359   0.758   1.868  0.6258  1.3196  1.2465
 5919TIP3   OH239315   0.193   6.442   8.854 -0.3775 -0.3822  0.6908
 5919TIP3    H139316   0.177   6.348   8.843 -0.7020 -0.2583 -0.0119
 5919TIP3    H239317   0.179   6.459   8.947 -0.6549 -0.9718  0.7581
 5920TIP3   OH239318   5.913   4.361   8.607 -0.1538 -0.9509 -0.1052
 5920TIP3    H139319   5.818   4.366   8.620 -0.2260 -0.5208 -0.7803
 5920TIP3    H239320   5.924   4.361   8.512  0.5869  0.2012 -0.0294
 5921TIP3   OH239321   4.645   2.720   0.514  0.0482 -0.6742 -0.0296
 5921TIP3    H139322   4.621   2.764   0.433  1.1129  0.5463  0.2913
 5921TIP3    H239323   4.575   2.745   0.575  1.0134  1.2859  0.3639
 5922TIP3   OH239324   4.956   5.061   7.716 -0.0878 -1.1178 -0.3108
 5922TIP3    H139325   4.942   4.999   7.644 -0.6825 -0.6700 -0.5906
 5922TIP3    H239326   4.987   5.141   7.673 -1.1462 -0.6033 -0.1674
 5923TIP3   OH239327   0.061   0.462   1.710 -0.3855 -0.6201 -0.1101
 5923TIP3    H139328   0.140   0.512   1.729 -0.4996 -0.2586 -0.5651
 5923TIP3    H239329   0.093   0.377   1.680 -0.1603 -0.3394 -0.6711
 5924TIP3   OH239330   3.966   5.631   1.136  0.7438  0.2189 -0.3632
 5924TIP3    H139331   3.987   5.722   1.117 -0.0564  0.0921 -2.0224
 5924TIP3    H239332   3.975   5.586   1.052 -1.0422 -0.7955 -0.0638
 5925TIP3   OH239333   1.558   0.594   1.317 -0.2468 -0.0140  0.0405
 5925TIP3    H139334   1.475   0.547   1.312 -0.6998  0.8095 -0.3445
 5925TIP3    H239335   1.623   0.526   1.334 -1.2085 -0.5022  2.1639
 5926TIP3   OH239336   4.409   2.202   8.081 -0.1481  0.8055  0.3997
 5926TIP3    H139337   4.471   2.246   8.139  1.3758  0.8419 -1.2093
 5926TIP3    H239338   4.441   2.112   8.074 -0.1752  0.8585 -0.5579
 5927TIP3   OH239339   2.290   5.590   0.423  0.0703  0.3196  0.0640
 5927TIP3    H139340   2.209   5.549   0.395  0.0662  0.3908 -0.0281
 5927TIP3    H239341   2.356   5.520   0.415 -0.2192 -0.1336  1.4052
 5928TIP3   OH239342   6.301   6.265   0.997 -0.5360  0.1265 -0.1979
 5928TIP3    H139343   6.365   6.324   1.036  2.0836 -0.4866 -3.0833
 5928TIP3    H239344   6.250   6.320   0.937 -1.1612  0.2111  0.4048
 5929TIP3   OH239345   1.795   3.979   0.042  0.0867  0.1154  0.1614
 5929TIP3    H139346   1.822   4.066   0.013 -1.3191  0.8842  0.9959
 5929TIP3    H239347   1.860   3.954   0.108  0.3003  0.7083  0.1816
 5930TIP3   OH239348   3.615   5.417   8.541 -0.2763 -0.0930  0.4193
 5930TIP3    H139349   3.671   5.342   8.562 -0.2232 -0.3271 -0.5404
 5930TIP3    H239350   3.535   5.379   8.507  0.2951  0.2710 -1.4470
 5931TIP3   OH239351   3.640   3.492   0.867  1.0366 -0.7979 -0.0085
 5931TIP3    H139352   3.651   3.525   0.778 -1.1577  2.4880  0.7934
 5931TIP3    H239353   3.713   3.531   0.916  0.4394  0.0501  0.2288
 5932TIP3   OH239354   4.205   4.476   8.386 -0.0720 -0.0020  0.6110
 5932TIP3    H139355   4.111   4.459   8.376  0.2187 -0.3582 -2.3816
 5932TIP3    H239356   4.239   4.398   8.430 -0.8499 -0.9383 -0.3927
 5933TIP3   OH239357   5.659   3.752   0.402 -0.8839  0.1270 -0.6154
 5933TIP3    H139358   5.660   3.682   0.467 -0.9354 -1.1933 -1.9842
 5933TIP3    H239359   5.568   3.781   0.399 -0.7219  0.7880  0.4890
 5934TIP3   OH239360   4.202   4.593   1.954 -0.0276 -0.1141  0.9330
 5934TIP3    H139361   4.238   4.629   2.035 -0.7626 -2.0094  2.1731
 5934TIP3    H239362   4.227   4.501   1.955  0.4744 -0.0614 -1.3466
 5935TIP3   OH239363   3.230   3.518   2.771 -0.0378  0.2327 -0.4482
 5935TIP3    H139364   3.306   3.505   2.828 -0.4250  0.0839  0.0478
 5935TIP3    H239365   3.187   3.597   2.807 -1.0909 -0.6867  0.3986
 5936TIP3   OH239366   4.240   5.594   0.783 -0.1731 -0.1640  0.0114
 5936TIP3    H139367   4.314   5.596   0.723 -0.3399 -0.2452 -0.1984
 5936TIP3    H239368   4.270   5.643   0.860 -0.0189  0.0820 -0.2047
 5937TIP3   OH239369   6.743   1.002   1.171 -0.1649 -0.0666  0.2932
 5937TIP3    H139370   6.774   0.917   1.140 -1.5520  0.0093 -1.5067
 5937TIP3    H239371   6.728   1.053   1.091  0.2902  1.7669  1.3154
 5938TIP3   OH239372   5.986   0.849   0.513 -0.6719 -0.2358  0.5785
 5938TIP3    H139373   5.994   0.827   0.606 -1.2279  0.1517  0.7217
 5938TIP3    H239374   6.007   0.767   0.467 -2.2313 -0.9540  1.0940
 5939TIP3   OH239375   4.412   0.669   1.042  0.3486 -0.3023 -0.2263
 5939TIP3    H139376   4.403   0.754   1.084 -0.8675 -1.3859  1.9075
 5939TIP3    H239377   4.324   0.631   1.045  0.7840 -1.4926 -1.4503
 5940TIP3   OH239378   2.316   3.642   2.036  0.9744 -0.1340  0.6594
 5940TIP3    H139379   2.226   3.672   2.050  1.3170  1.0143  0.5290
 5940TIP3    H239380   2.307   3.548   2.019 -0.3997  0.2565 -1.1999
 5941TIP3   OH239381   5.316   5.165   0.188  0.5968  0.2628 -0.0395
 5941TIP3    H139382   5.257   5.118   0.130 -0.0639  1.3157 -0.2504
 5941TIP3    H239383   5.286   5.143   0.276 -0.6112  1.3621 -0.1476
 5942TIP3   OH239384   0.074   3.431   1.622  0.2222 -0.5153 -0.2712
 5942TIP3    H139385   0.038   3.485   1.551 -2.6152  0.7086  1.9038
 5942TIP3    H239386   0.162   3.467   1.636  0.9308 -0.8808 -3.1321
 5943TIP3   OH239387   5.162   0.475   7.634 -0.0875 -0.4889 -0.0747
 5943TIP3    H139388   5.172   0.499   7.542 -0.5381 -2.0046 -0.5544
 5943TIP3    H239389   5.172   0.380   7.635 -3.1029 -0.8968  0.9925
 5944TIP3   OH239390   1.838   2.110   8.781  0.1576 -0.2536  0.2940
 5944TIP3    H139391   1.772   2.117   8.712  1.8444 -0.0496 -1.3888
 5944TIP3    H239392   1.851   2.016   8.792  0.3835 -0.2858 -0.2042
 5945TIP3   OH239393   5.554   2.016   0.223 -0.5748  0.1843  0.0686
 5945TIP3    H139394   5.647   2.034   0.208 -0.5697  0.8490  0.8365
 5945TIP3    H239395   5.520   1.994   0.137 -0.0882  1.7132 -0.5368
 5946TIP3   OH239396   1.900   6.001   8.018 -0.3635 -0.1585  0.0177
 5946TIP3    H139397   1.810   5.975   8.039 -0.0805  0.5521  2.5158
 5946TIP3    H239398   1.934   6.034   8.101  1.7416  0.9735 -1.2356
 5947TIP3   OH239399   2.370   0.974   1.366  0.2271 -0.5732 -0.1410
 5947TIP3    H139400   2.423   0.977   1.287  0.1246  1.7176 -0.1776
 5947TIP3    H239401   2.321   0.892   1.359  0.4356 -0.5642 -2.2937
 5948TIP3   OH239402   5.928   4.831   7.977  0.1146  0.1003  0.0280
 5948TIP3    H139403   5.887   4.880   7.906 -3.2947 -0.3684  1.4779
 5948TIP3    H239404   5.919   4.739   7.952 -0.0232 -0.0202  0.4996
 5949TIP3   OH239405   2.041   5.554   2.836 -0.2877 -0.9522 -0.0640
 5949TIP3    H139406   2.032   5.531   2.744  0.7465  0.3303 -0.5224
 5949TIP3    H239407   2.108   5.495   2.869 -0.5462 -1.3077 -0.1678
 5950TIP3   OH239408   0.636   2.408   8.432  0.0583 -0.1049  0.6662
 5950TIP3    H139409   0.637   2.404   8.336 -0.7846 -0.1797  0.6536
 5950TIP3    H239410   0.717   2.366   8.459  0.8430  0.8969 -0.0493
 5951TIP3   OH239411   3.421   3.908   0.612  0.0676  0.6940 -0.6446
 5951TIP3    H139412   3.386   3.845   0.549 -0.9873  0.2337  0.3731
 5951TIP3    H239413   3.433   3.857   0.692  1.4975  1.2494 -0.4801
 5952TIP3   OH239414   3.940   2.694   2.633 -0.0367  0.0228 -0.3395
 5952TIP3    H139415   4.034   2.695   2.617 -0.2724  1.4332 -1.8626
 5952TIP3    H239416   3.931   2.662   2.723  1.9986  1.5456  0.4707
 5953TIP3   OH239417   4.924   2.980   1.754 -0.8066 -0.0076  0.3754
 5953TIP3    H139418   4.921   2.965   1.848  1.0292 -1.4283  0.2525
 5953TIP3    H239419   4.893   2.899   1.715  1.0622 -0.4840 -0.2323
 5954TIP3   OH239420   0.026   4.570   8.232 -0.2943  0.0693 -0.1226
 5954TIP3    H139421   0.064   4.487   8.259  0.2747  0.8149  1.4472
 5954TIP3    H239422  -0.065   4.549   8.212 -0.3149 -0.8134  0.8518
 5955TIP3   OH239423   4.450   5.481   2.710 -0.0995 -0.0669 -0.8115
 5955TIP3    H139424   4.422   5.400   2.754 -1.0333  1.2764  1.2452
 5955TIP3    H239425   4.368   5.525   2.687  0.3938  0.3745 -1.7929
 5956TIP3   OH239426   1.362   0.832   2.614 -0.4433  0.2088  0.7406
 5956TIP3    H139427   1.441   0.802   2.660 -0.2599 -1.5811 -0.6406
 5956TIP3    H239428   1.384   0.920   2.583  0.4411  0.3295  1.6441
 5957TIP3   OH239429   2.979   5.317   2.160  0.0228  0.2843 -0.3611
 5957TIP3    H139430   2.945   5.228   2.149 -1.6837  0.9024 -0.3484
 5957TIP3    H239431   3.047   5.325   2.092 -0.4794 -0.6949 -1.0038
 5958TIP3   OH239432   5.738   4.766   2.329 -0.0978  0.5318  0.4286
 5958TIP3    H139433   5.766   4.850   2.364  0.9872 -0.5822  2.3770
 5958TIP3    H239434   5.658   4.786   2.281  0.9984  2.9240 -0.5909
 5959TIP3   OH239435   4.480   0.543   7.657  0.2177  0.2950 -0.7328
 5959TIP3    H139436   4.433   0.615   7.618  1.9405  0.7573 -2.0816
 5959TIP3    H239437   4.516   0.494   7.583  3.1755  0.9245  0.1241
 5960TIP3   OH239438   5.249   3.164   1.805  0.8843 -0.0231  0.3936
 5960TIP3    H139439   5.344   3.156   1.809  0.9942  1.3632  3.3023
 5960TIP3    H239440   5.234   3.249   1.763  0.8802 -0.4486 -0.4892
 5961TIP3   OH239441   3.155   1.253   2.323  0.7149  0.0182 -0.0736
 5961TIP3    H139442   3.168   1.161   2.300 -1.4154 -0.1475 -0.8555
 5961TIP3    H239443   3.225   1.299   2.279 -0.0971 -0.9108 -2.5080
 5962TIP3   OH239444   2.928   2.047   0.323  0.0786  0.2671  0.1357
 5962TIP3    H139445   2.965   2.119   0.273  1.0909  0.6077  1.3106
 5962TIP3    H239446   2.839   2.037   0.290  0.3320  1.2276 -0.8924
 5963TIP3   OH239447   5.189   4.516   1.328  0.2063 -0.2599 -0.4022
 5963TIP3    H139448   5.102   4.477   1.319 -0.5245  1.0212  0.7560
 5963TIP3    H239449   5.185   4.566   1.409  2.0694 -0.2440 -0.2752
 5964TIP3   OH239450   3.094   1.026   0.999 -0.0186  0.1318 -0.0913
 5964TIP3    H139451   3.042   1.024   0.919 -0.8009  1.2690  0.3623
 5964TIP3    H239452   3.079   1.113   1.035  1.0006 -0.0597  0.8526
 5965TIP3   OH239453   6.568   2.853   1.693  0.1109 -0.0918 -0.0533
 5965TIP3    H139454   6.544   2.762   1.711 -0.6240  0.2705  0.8481
 5965TIP3    H239455   6.586   2.855   1.599 -1.3186 -0.8608 -0.3625
 5966TIP3   OH239456   0.978   2.695   3.324  0.4187  0.3874 -0.0265
 5966TIP3    H139457   0.893   2.688   3.281 -0.0773  3.0305  0.3109
 5966TIP3    H239458   1.017   2.608   3.317 -2.1753 -0.8234 -0.4614
 5967TIP3   OH239459   2.482   4.665   2.406  0.1044 -0.4649  0.6542
 5967TIP3    H139460   2.402   4.657   2.354  0.4330  0.2706  0.0155
 5967TIP3    H239461   2.454   4.647   2.496 -0.2676 -2.8482  0.1336
 5968TIP3   OH239462   4.834   3.490   7.247 -0.0388 -0.8487  0.0356
 5968TIP3    H139463   4.916   3.460   7.286  0.2636 -1.4759 -1.0529
 5968TIP3    H239464   4.861   3.533   7.166 -0.8005 -1.2700 -0.4503
 5969TIP3   OH239465   0.838   4.496   1.403  0.0755 -0.0714  0.0230
 5969TIP3    H139466   0.860   4.579   1.445  1.3906 -0.4571  0.1507
 5969TIP3    H239467   0.828   4.518   1.310  2.3640 -0.0297 -0.2857
 5970TIP3   OH239468   4.291   6.283   0.688 -0.0748  0.3836 -0.5229
 5970TIP3    H139469   4.295   6.377   0.669 -0.5842  0.3999 -0.5587
 5970TIP3    H239470   4.269   6.243   0.604 -0.1104  0.2546 -0.4518
 5971TIP3   OH239471   6.186   6.127   1.857  0.1632  0.3001 -0.3477
 5971TIP3    H139472   6.091   6.142   1.865 -0.1640 -1.2424 -1.0081
 5971TIP3    H239473   6.194   6.035   1.833  1.7635  0.7552 -1.8261
 5972TIP3   OH239474   4.117   0.080   0.256 -0.4820 -0.1061  0.2545
 5972TIP3    H139475   4.078   0.164   0.231 -0.0790  0.4497  1.3928
 5972TIP3    H239476   4.207   0.103   0.281  0.3139 -1.2061 -1.4031
 5973TIP3   OH239477   2.095   1.832   2.724 -0.0936 -0.2103  0.2594
 5973TIP3    H139478   2.028   1.771   2.692 -0.3859  0.4914 -0.5178
 5973TIP3    H239479   2.157   1.839   2.651 -0.3513  0.8297  0.1243
 5974TIP3   OH239480   0.344   4.237   7.916 -0.1900  0.3321  0.6929
 5974TIP3    H139481   0.423   4.262   7.965  1.0225 -0.1988 -0.8745
 5974TIP3    H239482   0.339   4.142   7.927 -0.4818  0.3384  0.5968
 5975TIP3   OH239483   5.829   3.933   3.013  0.3330  0.3125  0.2720
 5975TIP3    H139484   5.770   4.004   2.986  0.5207 -0.9335 -4.0726
 5975TIP3    H239485   5.910   3.949   2.965  0.2560 -2.9474 -1.2060
 5976TIP3   OH239486   3.323   1.311   2.103 -0.5757  0.4640 -0.5675
 5976TIP3    H139487   3.374   1.237   2.068 -0.7061  0.7352 -1.3404
 5976TIP3    H239488   3.381   1.350   2.168 -0.8414 -0.8508  0.5129
 5977TIP3   OH239489   2.646   2.932   8.969  0.1828  0.0196 -0.4724
 5977TIP3    H139490   2.618   2.927   9.061  0.8545 -2.1662 -0.3090
 5977TIP3    H239491   2.566   2.952   8.921 -0.2518  0.8514  0.5621
 5978TIP3   OH239492   1.619   5.172   1.426  0.1752  0.1067 -0.1107
 5978TIP3    H139493   1.686   5.201   1.364  0.4796 -1.6095 -0.6353
 5978TIP3    H239494   1.536   5.195   1.385  0.3975  0.2297 -0.4974
 5979TIP3   OH239495   2.280   2.702   1.782  0.1175 -1.1445  0.2651
 5979TIP3    H139496   2.213   2.771   1.775  1.7113  0.3889 -0.5513
 5979TIP3    H239497   2.234   2.622   1.758 -1.1007  0.0788 -1.7970
 5980TIP3   OH239498   3.905   1.228   2.044  0.2161 -0.3478 -0.2174
 5980TIP3    H139499   3.820   1.268   2.057  0.6087  0.5604 -0.3450
 5980TIP3    H239500   3.965   1.302   2.034  1.1074 -0.9524  0.4135
 5981TIP3   OH239501   4.912   2.156   8.625  0.0895 -0.2693 -0.1050
 5981TIP3    H139502   5.007   2.152   8.633  0.2546 -0.5337 -1.8071
 5981TIP3    H239503   4.881   2.088   8.684  0.9045  0.2631  0.9714
 5982TIP3   OH239504   4.157   1.903   0.993 -0.0091 -0.5680  0.2055
 5982TIP3    H139505   4.072   1.859   0.998  0.0336 -0.6255  0.4377
 5982TIP3    H239506   4.184   1.912   1.085  0.8287 -1.6846  0.0892
 5983TIP3   OH239507   4.764   0.054   8.974 -0.5668  0.3587  0.0730
 5983TIP3    H139508   4.860   0.051   8.981 -0.6390 -1.0677  0.8501
 5983TIP3    H239509   4.747   0.077   8.883  0.5265 -1.0076 -0.5115
 5984TIP3   OH239510   4.612   4.591   1.294 -0.1168  0.1579 -0.0112
 5984TIP3    H139511   4.597   4.504   1.332  0.1320  0.6188  1.1786
 5984TIP3    H239512   4.667   4.574   1.217  0.7099 -0.6503  0.7396
 5985TIP3   OH239513   0.178   0.286   1.335 -0.0197 -0.1484  0.0536
 5985TIP3    H139514   0.271   0.272   1.318  0.0326 -0.0035  0.2186
 5985TIP3    H239515   0.173   0.304   1.429 -0.4860 -2.7161  0.5917
 5986TIP3   OH239516   5.353   6.575   2.768 -0.1747  0.2162  0.0016
 5986TIP3    H139517   5.441   6.602   2.793 -0.7396  1.5578  0.6402
 5986TIP3    H239518   5.352   6.580   2.672  0.8927 -1.3656 -0.1279
 5987TIP3   OH239519   5.521   4.975   8.287 -0.4148 -0.4828 -0.4053
 5987TIP3    H139520   5.593   5.003   8.230 -0.7785 -1.5155 -1.4002
 5987TIP3    H239521   5.442   4.988   8.234 -1.0306  0.8660  0.7545
 5988TIP3   OH239522   0.702   3.272   2.843 -0.3358 -0.4042  0.2990
 5988TIP3    H139523   0.717   3.346   2.903 -0.1401 -0.8959  0.8622
 5988TIP3    H239524   0.615   3.240   2.867 -0.1298 -0.7932  0.5294
 5989TIP3   OH239525   3.888   4.535   7.090 -0.7857 -0.2516 -0.1591
 5989TIP3    H139526   3.812   4.540   7.032 -0.4015  2.5414 -0.5356
 5989TIP3    H239527   3.953   4.594   7.051  0.4517 -0.2771  1.7276
 5990TIP3   OH239528   6.065   4.622   0.075  0.0266 -0.0362 -0.1322
 5990TIP3    H139529   6.038   4.622   0.167 -0.1036 -3.1814 -0.0600
 5990TIP3    H239530   6.160   4.634   0.078  0.0881 -0.6156  0.4684
 5991TIP3   OH239531   3.012   0.925   7.549 -0.0564  0.0760 -0.6418
 5991TIP3    H139532   3.039   0.835   7.530  0.2688  0.0393 -0.0350
 5991TIP3    H239533   2.918   0.926   7.533 -0.4581 -0.9280  1.3350
 5992TIP3   OH239534   2.633   6.187   8.674  0.1201 -0.2516  0.0247
 5992TIP3    H139535   2.641   6.158   8.765 -0.5553 -0.1454  0.1185
 5992TIP3    H239536   2.591   6.273   8.679  0.3417 -0.1160 -0.3735
 5993TIP3   OH239537   3.534   2.712   8.615  0.1645  0.1766 -0.1947
 5993TIP3    H139538   3.558   2.684   8.527 -0.4383 -0.0951 -0.2763
 5993TIP3    H239539   3.524   2.630   8.664 -0.0996  0.3031 -0.0357
 5994TIP3   OH239540   3.121   2.196   1.652 -0.0333 -0.4491 -0.5147
 5994TIP3    H139541   3.194   2.163   1.599  0.4747 -1.5663  0.8420
 5994TIP3    H239542   3.046   2.193   1.592  0.9659  0.6516 -1.9161
 5995TIP3   OH239543   2.828   4.215   2.307 -0.3492 -0.2860  0.3188
 5995TIP3    H139544   2.898   4.251   2.253  2.0109 -2.4584  1.6830
 5995TIP3    H239545   2.826   4.272   2.384  1.2890 -1.1930  1.0994
 5996TIP3   OH239546   3.477   4.293   7.900 -0.2701 -0.1683 -0.2598
 5996TIP3    H139547   3.521   4.376   7.880  0.6853 -0.6134 -0.0491
 5996TIP3    H239548   3.387   4.318   7.917 -0.5820  0.5653 -2.5665
 5997TIP3   OH239549   3.413   5.196   1.434  0.2622  0.2518 -0.1497
 5997TIP3    H139550   3.340   5.135   1.423  1.1767 -1.1990  1.4367
 5997TIP3    H239551   3.450   5.204   1.346 -1.7812  1.0599 -0.9966
 5998TIP3   OH239552   2.516   2.501   0.497 -0.0499 -0.3994 -0.4279
 5998TIP3    H139553   2.592   2.556   0.479  0.7440 -1.4194 -0.2816
 5998TIP3    H239554   2.441   2.553   0.467  0.7189  0.5054 -0.8347
 5999TIP3   OH239555   6.344   5.438   2.536  0.2470  0.1552 -0.0848
 5999TIP3    H139556   6.391   5.359   2.564 -0.4991  0.5211  2.4472
 5999TIP3    H239557   6.375   5.507   2.595 -0.0695  1.4705 -1.4064
 6000TIP3   OH239558   2.791   1.002   2.997  0.0982 -0.4071  0.8147
 6000TIP3    H139559   2.824   1.068   3.059 -0.7637  1.5546 -0.7068
 6000TIP3    H239560   2.866   0.983   2.941  0.7074 -1.7321  2.0174
 6001TIP3   OH239561   0.390   4.349   3.020 -0.2648 -0.2390  0.1923
 6001TIP3    H139562   0.467   4.389   2.979 -1.0353  0.4809 -0.6037
 6001TIP3    H239563   0.341   4.312   2.946 -0.2563 -1.4558  0.7775
 6002TIP3   OH239564   2.891   6.764   1.854 -0.0654 -0.3705 -0.5405
 6002TIP3    H139565   2.932   6.845   1.824  1.1420 -0.5966  0.4502
 6002TIP3    H239566   2.951   6.695   1.828 -1.4560 -1.0708 -2.0784
 6003TIP3   OH239567   2.861   6.301   1.504  0.1991 -0.5978 -0.0301
 6003TIP3    H139568   2.782   6.352   1.524  0.7002 -0.4358  1.7327
 6003TIP3    H239569   2.828   6.224   1.457 -1.2382 -1.2323  1.8493
 6004TIP3   OH239570   3.782   4.523   0.454 -0.2181  0.6243 -0.3469
 6004TIP3    H139571   3.759   4.431   0.446  0.8972  0.4434 -6.0724
 6004TIP3    H239572   3.876   4.523   0.473 -0.5160  0.6826  1.1973
 6005TIP3   OH239573   2.245   6.304   2.832  0.1693  0.1091  0.3671
 6005TIP3    H139574   2.293   6.384   2.814  0.3692  0.0462  0.6128
 6005TIP3    H239575   2.163   6.333   2.873 -1.5529  0.4613 -2.9665
 6006TIP3   OH239576   5.000   4.460   8.137  0.3086  0.2879 -0.6341
 6006TIP3    H139577   4.914   4.420   8.131  1.2085 -2.2048  1.4635
 6006TIP3    H239578   5.039   4.446   8.051 -0.4443 -0.9119 -0.7970
 6007TIP3   OH239579   4.571   0.223   0.098 -0.0449 -0.0483  0.7486
 6007TIP3    H139580   4.642   0.160   0.088  0.7082  0.8068  0.5860
 6007TIP3    H239581   4.609   0.294   0.150 -0.6794  0.5727  0.3859
 6008TIP3   OH239582   0.359   2.024   2.675  0.5602 -0.5578  0.1712
 6008TIP3    H139583   0.279   2.071   2.699 -0.3725 -0.1841 -3.1900
 6008TIP3    H239584   0.369   1.957   2.743 -1.2368  0.8848  1.9790
 6009TIP3   OH239585   3.353   5.425   0.043  0.4627 -0.6720 -0.1256
 6009TIP3    H139586   3.373   5.439  -0.050  0.2742  1.6979  0.1439
 6009TIP3    H239587   3.347   5.330   0.052  0.9792 -0.9730 -2.4317
 6010TIP3   OH239588   4.239   6.663   7.273 -0.1390  0.0174 -0.8788
 6010TIP3    H139589   4.145   6.683   7.271 -0.5046 -1.3730  0.4979
 6010TIP3    H239590   4.249   6.592   7.210 -0.5169 -1.6224  0.8515
 6011TIP3   OH239591   3.896   1.767   3.163  0.1196  0.0141 -0.2039
 6011TIP3    H139592   3.986   1.756   3.135  0.2171 -0.9245  0.4293
 6011TIP3    H239593   3.857   1.680   3.153  0.2388 -0.4812  2.7271
 6012TIP3   OH239594   4.838   2.230   3.065 -0.2352 -0.2744 -0.0145
 6012TIP3    H139595   4.782   2.163   3.105  0.3258 -1.4896 -1.1703
 6012TIP3    H239596   4.910   2.181   3.025  1.5755  1.2221  1.2329
 6013TIP3   OH239597   1.768   2.720   1.356  0.3644  0.6202  0.5076
 6013TIP3    H139598   1.809   2.781   1.295 -1.4432  0.5825 -0.8023
 6013TIP3    H239599   1.675   2.724   1.336  0.1268 -2.2922  0.5973
 6014TIP3   OH239600   6.060   2.637   0.253 -0.4881  0.3241  0.1273
 6014TIP3    H139601   6.127   2.581   0.214 -1.4545 -0.6664 -0.1587
 6014TIP3    H239602   6.057   2.714   0.197 -1.5063 -0.8535 -1.5562
 6015TIP3   OH239603   3.042   5.622   7.710 -0.7330 -0.1252  0.0215
 6015TIP3    H139604   2.957   5.586   7.737  0.1809 -2.4496  0.0219
 6015TIP3    H239605   3.105   5.583   7.770  0.5060  0.3888 -0.8938
 6016TIP3   OH239606   4.023   2.634   0.494 -0.6235  0.1562  0.3202
 6016TIP3    H139607   4.018   2.540   0.508 -1.3383  0.2717  0.8894
 6016TIP3    H239608   3.960   2.671   0.556 -1.0804  0.9461 -0.5959
 6017TIP3   OH239609   3.722   1.724   2.592  0.2562  0.1306 -0.3439
 6017TIP3    H139610   3.811   1.761   2.594  0.2421  0.2416 -1.2851
 6017TIP3    H239611   3.665   1.801   2.593  0.1644  0.0548  0.4124
 6018TIP3   OH239612   1.196   5.606   2.593 -0.0220  0.0475  0.0749
 6018TIP3    H139613   1.220   5.513   2.593 -0.4724 -0.0829  0.8050
 6018TIP3    H239614   1.257   5.646   2.655  1.0934  0.5119 -1.2870
 6019TIP3   OH239615   3.676   0.474   0.212 -0.5781 -0.5791 -0.5537
 6019TIP3    H139616   3.626   0.495   0.133 -0.3117 -1.4406 -0.9640
 6019TIP3    H239617   3.609   0.460   0.280 -0.7900  0.6337 -0.4924
 6020TIP3   OH239618   0.138   5.650   6.964  0.1028  1.2750 -0.0208
 6020TIP3    H139619   0.185   5.568   6.948  0.1647  1.3825 -0.4034
 6020TIP3    H239620   0.103   5.675   6.878 -1.2645  0.8307  0.3699
 6021TIP3   OH239621   4.947   1.268   0.221 -0.2932  0.0168 -0.0820
 6021TIP3    H139622   4.983   1.321   0.292  0.1920 -0.4307  0.0148
 6021TIP3    H239623   4.907   1.193   0.265  0.0460 -0.2844 -0.2756
 6022TIP3   OH239624   1.600   6.066   0.109  0.5048 -0.4171  0.0961
 6022TIP3    H139625   1.693   6.079   0.093  0.7638 -0.5514  1.3587
 6022TIP3    H239626   1.595   6.038   0.201 -1.0354  3.1634  1.2909
 6023TIP3   OH239627   3.352   4.569   0.903  0.4601 -0.1755  0.1397
 6023TIP3    H139628   3.446   4.586   0.906  0.3223  0.4525  1.5285
 6023TIP3    H239629   3.329   4.542   0.992 -1.1526  2.3880  0.6158
 6024TIP3   OH239630   2.403   4.019   2.055 -0.3825  0.0388 -0.1992
 6024TIP3    H139631   2.453   4.040   2.134  0.8487  0.4237 -1.0527
 6024TIP3    H239632   2.325   4.073   2.062 -0.4440 -0.1590  0.8995
 6025TIP3   OH239633   2.557   2.056   0.594  0.3755  0.6436  0.0543
 6025TIP3    H139634   2.546   2.108   0.515 -2.2044  0.1466  0.0044
 6025TIP3    H239635   2.579   1.968   0.562  2.2082  1.0453  0.0622
 6026TIP3   OH239636   1.758   5.019   2.274  0.1911 -0.5904 -0.0085
 6026TIP3    H139637   1.809   5.032   2.354  0.9383  1.4337 -0.7596
 6026TIP3    H239638   1.667   5.030   2.302  0.4354 -0.0265  0.5999
 6027TIP3   OH239639   3.423   5.206   7.566  0.8153  0.4426  0.0429
 6027TIP3    H139640   3.337   5.166   7.552  0.8927  0.3670 -0.2157
 6027TIP3    H239641   3.404   5.297   7.589  0.5175 -0.2501  2.8261
 6028TIP3   OH239642   6.223   4.581   1.368 -0.2297  0.1878  0.2966
 6028TIP3    H139643   6.208   4.636   1.292 -0.5173 -0.2845  0.0044
 6028TIP3    H239644   6.142   4.588   1.419 -0.9404 -1.2580 -0.5755
 6029TIP3   OH239645   5.218   5.623   0.791  0.0078  0.4692 -0.2373
 6029TIP3    H139646   5.225   5.707   0.836  0.5338 -0.1367  0.8451
 6029TIP3    H239647   5.303   5.582   0.803  0.6313  0.8048 -2.9303
 6030TIP3   OH239648   5.109   5.430   8.096 -0.1177 -0.1599 -0.0990
 6030TIP3    H139649   5.200   5.433   8.068 -0.4873  0.2907 -1.3175
 6030TIP3    H239650   5.092   5.337   8.114  0.4670 -0.2927 -0.2141
 6031TIP3   OH239651   6.528   3.775   0.845 -0.0062  0.0011  0.4490
 6031TIP3    H139652   6.553   3.837   0.914 -1.6817  0.8092  0.3784
 6031TIP3    H239653   6.580   3.803   0.769  1.7010 -0.7705  1.2772
 6032TIP3   OH239654   6.037   4.022   8.452  0.0479 -0.8428  0.3705
 6032TIP3    H139655   5.973   4.059   8.391  0.8996 -0.9968 -0.6278
 6032TIP3    H239656   6.116   4.009   8.400  0.0584 -3.2922  0.8855
 6033TIP3   OH239657   1.847   0.110   1.904  0.1352  0.9859 -0.6060
 6033TIP3    H139658   1.775   0.171   1.889 -0.5147  0.2661 -0.4296
 6033TIP3    H239659   1.837   0.082   1.995  0.7928  1.0761 -0.5012
 6034TIP3   OH239660   3.062   2.255   1.220  0.3069 -0.1414  0.3509
 6034TIP3    H139661   3.133   2.314   1.247 -0.5520  1.0327  0.1325
 6034TIP3    H239662   3.033   2.290   1.136  0.4500 -1.5145 -0.2826
 6035TIP3   OH239663   4.888   4.260   8.428  0.2543  0.9596 -0.2614
 6035TIP3    H139664   4.916   4.314   8.502  1.5034  0.8740 -0.6660
 6035TIP3    H239665   4.803   4.297   8.403  0.0143  1.2577  0.9367
 6036TIP3   OH239666   2.627   0.179   0.007  0.0377  0.1079  0.1474
 6036TIP3    H139667   2.604   0.242  -0.061  0.5270 -0.1681 -0.2752
 6036TIP3    H239668   2.669   0.107  -0.039 -0.5161 -0.5410  0.6256
 6037TIP3   OH239669   0.403   5.608   8.299 -0.1507  0.4486 -0.2588
 6037TIP3    H139670   0.405   5.546   8.226 -0.5753  0.1788 -0.0452
 6037TIP3    H239671   0.495   5.621   8.322  0.0786  1.4393 -1.5966
 6038TIP3   OH239672   3.110   1.969   7.797 -0.0144 -0.0174 -0.2719
 6038TIP3    H139673   3.026   2.014   7.798 -0.0539 -0.0269 -1.7853
 6038TIP3    H239674   3.096   1.891   7.851 -0.4373  0.8722  0.9558
 6039TIP3   OH239675   1.675   6.445   2.013  0.1293 -1.0981 -0.0273
 6039TIP3    H139676   1.715   6.468   1.929  0.2545  0.8688  0.5195
 6039TIP3    H239677   1.685   6.350   2.019  1.1606 -1.1384 -1.6977
 6040TIP3   OH239678   0.300   3.679   1.789 -0.2230  0.3632 -0.2108
 6040TIP3    H139679   0.378   3.718   1.829 -0.6075  0.4010  0.5208
 6040TIP3    H239680   0.335   3.615   1.726  0.5184 -2.3363  2.6458
 6041TIP3   OH239681   2.652   6.496   1.600 -0.3287 -0.1463 -0.6918
 6041TIP3    H139682   2.640   6.557   1.673 -1.3088 -1.0078 -0.1119
 6041TIP3    H239683   2.571   6.445   1.597  0.6193 -1.7034 -0.8945
 6042TIP3   OH239684   1.928   5.081   1.675 -0.1528  0.0212 -0.1202
 6042TIP3    H139685   1.978   5.160   1.693 -1.2202  0.5705  0.5095
 6042TIP3    H239686   1.928   5.074   1.579 -0.0263  0.7661 -0.1801
 6043TIP3   OH239687   1.498   6.620   1.222 -0.4955 -0.3545  1.0673
 6043TIP3    H139688   1.469   6.707   1.193 -1.0707 -0.9277 -0.1391
 6043TIP3    H239689   1.587   6.613   1.188 -0.1162  0.1034  1.9382
 6044TIP3   OH239690   1.425   4.564   8.323  0.7136 -0.2766 -0.3203
 6044TIP3    H139691   1.350   4.551   8.380  1.2263 -0.2591  0.3746
 6044TIP3    H239692   1.388   4.570   8.235 -0.1191  0.0211  0.0419
 6045TIP3   OH239693   5.140   5.757   8.408  1.1232 -0.1209 -0.3554
 6045TIP3    H139694   5.167   5.778   8.497  0.8357 -1.0922 -0.0211
 6045TIP3    H239695   5.115   5.840   8.369 -0.9584  0.0614  1.2108
 6046TIP3   OH239696   0.531   2.477   2.907 -0.3826  0.0047  0.0637
 6046TIP3    H139697   0.540   2.529   2.986 -2.1144  1.0090 -0.3449
 6046TIP3    H239698   0.497   2.393   2.936 -2.0435  0.7407  0.3086
 6047TIP3   OH239699   2.701   5.275   8.176  0.2465  0.0359  0.0487
 6047TIP3    H139700   2.659   5.238   8.098 -1.8172 -0.0879  1.1707
 6047TIP3    H239701   2.634   5.330   8.216 -0.3471 -3.0618  3.9625
 6048TIP3   OH239702   3.030   6.019   0.448 -0.7164  0.0302  0.1138
 6048TIP3    H139703   2.946   6.064   0.455 -0.2954  0.8505 -0.0485
 6048TIP3    H239704   3.095   6.089   0.451 -0.1215 -0.3103 -2.6153
 6049TIP3   OH239705   2.820   3.559   1.007 -0.8057  0.4340  0.6010
 6049TIP3    H139706   2.871   3.641   1.010 -1.6364  1.0783 -1.3842
 6049TIP3    H239707   2.874   3.499   0.956 -1.4775  0.7337 -0.4910
 6050TIP3   OH239708   4.923   2.167   1.506  0.3122 -0.5481  0.0085
 6050TIP3    H139709   4.951   2.237   1.565  0.2122 -2.4494  2.4802
 6050TIP3    H239710   5.003   2.121   1.483  0.2500 -0.3276 -0.6698
 6051TIP3   OH239711   3.619   4.088   0.552 -0.0858 -0.1218 -0.3936
 6051TIP3    H139712   3.584   4.164   0.599 -1.1061 -0.6566 -0.2541
 6051TIP3    H239713   3.549   4.023   0.557 -1.1985  0.4760 -4.4833
 6052TIP3   OH239714   4.211   1.527   7.450  0.0925 -0.3508 -0.1301
 6052TIP3    H139715   4.267   1.604   7.440 -1.4846  0.6723 -1.8020
 6052TIP3    H239716   4.239   1.468   7.379 -1.5098  0.6017 -1.6340
 6053TIP3   OH239717   4.888   2.355   1.907  0.1624 -0.0392  0.0023
 6053TIP3    H139718   4.924   2.395   1.986  0.6528 -0.8136  0.1834
 6053TIP3    H239719   4.877   2.263   1.929 -2.2712  0.1964  0.0550
 6054TIP3   OH239720   0.739   2.781   0.858  0.2157  0.0359 -0.6606
 6054TIP3    H139721   0.730   2.696   0.815 -1.8408  1.6947 -3.9024
 6054TIP3    H239722   0.833   2.788   0.876  0.7379 -2.0734 -2.1544
 6055TIP3   OH239723   1.769   3.016   7.639 -1.1709  0.1264 -0.5421
 6055TIP3    H139724   1.693   2.960   7.649 -1.0318  0.1966  1.0797
 6055TIP3    H239725   1.844   2.959   7.657 -0.8607  0.2407 -1.3883
 6056TIP3   OH239726   4.757   1.984   0.301 -0.3496  0.5735 -0.3861
 6056TIP3    H139727   4.757   1.952   0.391 -0.0457 -2.6904 -1.4055
 6056TIP3    H239728   4.850   1.991   0.279 -0.3667  3.1435  0.0010
 6057TIP3   OH239729   4.152   5.926   1.538  0.0323  0.3126  0.0009
 6057TIP3    H139730   4.245   5.938   1.517 -0.1938  0.1837 -1.1810
 6057TIP3    H239731   4.151   5.873   1.617  0.9650  0.3713  0.0622
 6058TIP3   OH239732   2.621   5.554   2.409  0.5564  0.0479 -0.2757
 6058TIP3    H139733   2.711   5.552   2.376  0.5393  1.7317 -0.4942
 6058TIP3    H239734   2.626   5.507   2.493  2.1246  1.9270  0.7650
 6059TIP3   OH239735   1.386   1.457   2.880  0.0900 -0.0333  0.3012
 6059TIP3    H139736   1.362   1.509   2.956  0.1694 -3.6289  3.0352
 6059TIP3    H239737   1.313   1.396   2.868  0.4036 -0.0554 -2.1092
 6060TIP3   OH239738   3.530   2.956   8.732 -0.8635 -0.3771  0.0255
 6060TIP3    H139739   3.534   2.870   8.691 -0.7566 -0.1001 -0.5469
 6060TIP3    H239740   3.440   2.985   8.717 -0.8372 -0.2939  0.0298
 6061TIP3   OH239741   3.570   3.130   8.331 -0.0556  1.1768  0.6153
 6061TIP3    H139742   3.535   3.076   8.402  1.4593 -1.1381 -0.2452
 6061TIP3    H239743   3.500   3.133   8.266  0.0907 -0.5916  0.3133
 6062TIP3   OH239744   0.392   0.202   3.473 -0.1397  0.4137  0.4129
 6062TIP3    H139745   0.362   0.289   3.502  1.2602  1.1785 -0.3308
 6062TIP3    H239746   0.365   0.197   3.381 -0.5911 -0.1349  0.5705
 6063TIP3   OH239747   5.375   6.067   2.511  0.3965 -0.7849 -0.1663
 6063TIP3    H139748   5.286   6.040   2.490  0.3057 -0.0479 -0.7548
 6063TIP3    H239749   5.378   6.069   2.607 -0.3226 -0.4884 -0.1448
 6064TIP3   OH239750   2.995   0.147   8.622  0.9446  0.6232 -0.1998
 6064TIP3    H139751   2.952   0.136   8.537  0.3041  0.6118  0.1214
 6064TIP3    H239752   3.032   0.236   8.619 -1.1916  1.5971  0.4253
 6065TIP3   OH239753   1.907   1.182   0.589  0.0092  0.3980  0.1044
 6065TIP3    H139754   1.965   1.127   0.536  0.4244  1.1855 -0.2792
 6065TIP3    H239755   1.841   1.214   0.529 -1.1435 -0.8867  0.6438
 6066TIP3   OH239756   3.277   3.440   8.309  0.7976 -1.1421  0.3773
 6066TIP3    H139757   3.304   3.381   8.380  1.2331 -0.2780  0.9519
 6066TIP3    H239758   3.274   3.527   8.350 -0.8391 -0.8943 -0.1829
 6067TIP3   OH239759   0.058   1.920   1.811  0.4419 -0.1745  0.8838
 6067TIP3    H139760   0.054   2.015   1.824  0.1735  0.0601 -0.6490
 6067TIP3    H239761   0.029   1.883   1.894  0.7771  1.0834  1.5844
 6068TIP3   OH239762   2.144   1.404   7.978  0.1143  0.0372  0.6447
 6068TIP3    H139763   2.091   1.445   7.910  0.5992  0.2627  0.4002
 6068TIP3    H239764   2.150   1.470   8.047 -0.0461 -0.0444  0.7374
 6069TIP3   OH239765   5.500   3.087   8.458  0.5305  0.1089  0.0071
 6069TIP3    H139766   5.577   3.094   8.401  0.8887  0.0018  0.4645
 6069TIP3    H239767   5.521   3.145   8.532  0.4317 -0.3796  0.4197
 6070TIP3   OH239768   0.219   6.218   3.126 -0.0906 -0.4570 -0.0094
 6070TIP3    H139769   0.200   6.128   3.151 -1.1758  0.1256  1.4165
 6070TIP3    H239770   0.298   6.240   3.175 -0.1467 -0.4604  0.0829
 6071TIP3   OH239771   4.736   1.212   8.079 -0.1741  0.1216  0.2266
 6071TIP3    H139772   4.804   1.266   8.121 -0.6530  1.1311 -0.2471
 6071TIP3    H239773   4.670   1.275   8.051 -1.3643 -0.8621  0.7607
 6072TIP3   OH239774   0.257   4.489   0.694  0.4383 -0.1925 -0.2266
 6072TIP3    H139775   0.276   4.446   0.778 -1.5330  0.1156  0.4501
 6072TIP3    H239776   0.174   4.450   0.667  1.2651 -0.6198 -2.3079
 6073TIP3   OH239777   0.107   2.183   7.797  0.7350 -0.5753 -0.3416
 6073TIP3    H139778   0.102   2.217   7.707 -0.3990  0.7353  0.1763
 6073TIP3    H239779   0.108   2.262   7.852 -1.7003 -1.3086  0.9005
 6074TIP3   OH239780   3.645   4.489   2.308  0.0089 -0.1187 -0.0006
 6074TIP3    H139781   3.735   4.478   2.278 -0.4159  1.4215 -2.0768
 6074TIP3    H239782   3.645   4.455   2.397  2.2406 -1.6632 -0.5053
 6075TIP3   OH239783   1.488   3.519   0.175  0.2664  0.1487  0.2831
 6075TIP3    H139784   1.503   3.613   0.184 -1.2232  0.6884 -1.9021
 6075TIP3    H239785   1.545   3.492   0.102 -3.0023  0.6062 -2.7365
 6076TIP3   OH239786   5.884   4.675   8.536  0.0921  0.5948  0.0406
 6076TIP3    H139787   5.825   4.750   8.529  1.2778  1.5434 -0.1704
 6076TIP3    H239788   5.831   4.600   8.508 -0.8388  1.4933 -0.6792
 6077TIP3   OH239789   5.178   2.658   2.404 -0.2307 -0.4001  0.3515
 6077TIP3    H139790   5.265   2.620   2.419 -0.0921 -0.0501  0.4384
 6077TIP3    H239791   5.181   2.743   2.448 -0.3405 -0.0257 -0.3562
 6078TIP3   OH239792   4.436   0.995   2.569  0.2743 -0.1062 -0.1339
 6078TIP3    H139793   4.502   0.990   2.500 -1.2399  1.7017 -1.8475
 6078TIP3    H239794   4.486   1.012   2.649  1.8822  2.4434 -1.5344
 6079TIP3   OH239795   5.553   1.123   0.959  0.0084  0.0152 -0.0697
 6079TIP3    H139796   5.486   1.177   0.916 -0.2139  0.0180  0.2752
 6079TIP3    H239797   5.605   1.185   1.009  2.1016  0.4461 -2.5845
 6080TIP3   OH239798   5.379   1.343   0.915 -0.4854 -0.1342 -0.3849
 6080TIP3    H139799   5.335   1.302   0.990 -0.9880 -0.9200 -1.0867
 6080TIP3    H239800   5.312   1.399   0.875 -0.4463 -0.2718 -0.6520
 6081TIP3   OH239801   0.554   3.210   1.310  0.0529  0.3163  0.3693
 6081TIP3    H139802   0.640   3.235   1.343  1.1611 -1.2502 -1.1892
 6081TIP3    H239803   0.533   3.278   1.246  0.5428  0.2096  0.0934
 6082TIP3   OH239804   3.473   4.726   2.328 -0.1921  0.1422 -0.3329
 6082TIP3    H139805   3.501   4.729   2.420 -1.5556  0.6947  0.0886
 6082TIP3    H239806   3.486   4.635   2.303  0.8013  0.1194  0.2005
 6083TIP3   OH239807   0.133   3.225   7.946  0.5410 -0.8294 -0.5314
 6083TIP3    H139808   0.105   3.317   7.945  2.6271 -0.1577 -1.7217
 6083TIP3    H239809   0.195   3.220   8.019 -1.4745 -1.9882  1.2261
 6084TIP3   OH239810   2.765   0.324   8.262  0.1963 -0.4361 -0.6871
 6084TIP3    H139811   2.809   0.243   8.290  0.8465  0.0057 -0.4055
 6084TIP3    H239812   2.680   0.295   8.230  0.0115 -1.1321  0.3863
 6085TIP3   OH239813   1.643   3.748   0.195  0.5832  0.3596  0.0716
 6085TIP3    H139814   1.630   3.791   0.280 -1.4907 -0.0660  0.0194
 6085TIP3    H239815   1.645   3.820   0.132  0.5199  0.5847  0.3247
 6086TIP3   OH239816   4.483   0.732   0.578 -0.4243 -0.2641  0.0799
 6086TIP3    H139817   4.425   0.673   0.625 -0.7185  1.0698  1.4836
 6086TIP3    H239818   4.539   0.770   0.647 -1.0696  1.9924 -0.5492
 6087TIP3   OH239819   2.693   5.560   0.101 -0.0844 -0.4783  0.3446
 6087TIP3    H139820   2.671   5.490   0.162  1.0713  0.0289  1.3877
 6087TIP3    H239821   2.782   5.586   0.125 -0.5109  1.3993  0.0416
 6088TIP3   OH239822   3.384   3.874   7.650  0.6690  0.5175 -0.5730
 6088TIP3    H139823   3.407   3.915   7.567  1.0179  0.9958 -0.2462
 6088TIP3    H239824   3.308   3.923   7.681  1.3133  1.1924 -0.0004
 6089TIP3   OH239825   3.131   0.972   2.200  0.3142 -0.2560 -0.0982
 6089TIP3    H139826   3.073   0.905   2.164 -1.1844  1.2346 -0.5669
 6089TIP3    H239827   3.174   1.010   2.123 -1.6682  1.8176 -0.3015
 6090TIP3   OH239828   3.486   3.408   0.433 -0.4020 -0.4813 -0.5311
 6090TIP3    H139829   3.532   3.439   0.355  0.0013 -0.3039 -0.2253
 6090TIP3    H239830   3.479   3.313   0.420  0.7227 -0.6207 -0.2397
 6091TIP3   OH239831   4.228   6.327   1.494  0.6388 -0.1138  0.8065
 6091TIP3    H139832   4.263   6.386   1.427  0.6093  0.4894  1.3118
 6091TIP3    H239833   4.306   6.300   1.543  0.5814 -0.0107  0.9541
 6092TIP3   OH239834   4.573   3.457   0.554 -0.0325 -0.2285  0.5454
 6092TIP3    H139835   4.568   3.547   0.584 -0.7684  0.3335 -1.1628
 6092TIP3    H239836   4.491   3.442   0.506  0.0033 -1.8554  0.9084
 6093TIP3   OH239837   2.446   0.207   1.134 -0.3482  0.4834 -0.1714
 6093TIP3    H139838   2.472   0.185   1.224  0.1207  0.7794 -0.2361
 6093TIP3    H239839   2.516   0.172   1.079 -1.4773 -1.3069 -0.5823
 6094TIP3   OH239840   3.804   6.550   1.621  0.3867  0.5387 -0.1448
 6094TIP3    H139841   3.874   6.487   1.603  0.7855  1.0207 -0.3082
 6094TIP3    H239842   3.777   6.532   1.711  1.7241  1.2968  0.4392
 6095TIP3   OH239843   0.797   1.307   0.237  0.4768 -0.2678  0.2227
 6095TIP3    H139844   0.872   1.367   0.231  0.3879 -0.1344  0.4421
 6095TIP3    H239845   0.804   1.269   0.325  0.8851 -1.0407 -0.1327
 6096TIP3   OH239846   1.223   5.675   1.355 -0.3442  0.0027 -0.5592
 6096TIP3    H139847   1.281   5.696   1.428 -0.3287 -1.9548  0.0528
 6096TIP3    H239848   1.151   5.626   1.395 -0.9513 -0.0672 -1.6942
 6097TIP3   OH239849   2.793   1.825   2.247 -0.2605 -0.1617 -0.2322
 6097TIP3    H139850   2.838   1.741   2.245  1.5881  0.6749  1.9170
 6097TIP3    H239851   2.831   1.875   2.174 -0.5701 -0.7746 -0.8259
 6098TIP3   OH239852   0.209   2.977   7.816 -0.0011 -0.2142 -0.3216
 6098TIP3    H139853   0.196   3.056   7.867  1.8153 -0.4662  0.6010
 6098TIP3    H239854   0.124   2.933   7.819 -0.0653 -0.0615  2.2569
 6099TIP3   OH239855   3.905   4.880   0.005  0.2244 -0.6106  0.1412
 6099TIP3    H139856   3.866   4.867  -0.082 -1.2553  0.0047  0.6832
 6099TIP3    H239857   3.831   4.881   0.065  1.1902 -0.5772  1.3758
 6100TIP3   OH239858   4.140   3.907   0.512  0.6741 -0.2454 -0.0742
 6100TIP3    H139859   4.184   3.986   0.482 -0.7760 -0.1424 -2.2001
 6100TIP3    H239860   4.047   3.931   0.515  0.4768 -1.0575  2.1489
 6101TIP3   OH239861   3.917   0.042   1.634 -0.0945 -0.2820 -0.0189
 6101TIP3    H139862   3.838   0.093   1.620  0.4430  0.5179 -0.2155
 6101TIP3    H239863   3.893  -0.048   1.609  0.0091  0.5099 -3.4426
 6102TIP3   OH239864   0.059   4.850   8.235  0.0572  0.1032 -0.6104
 6102TIP3    H139865   0.049   4.756   8.220  0.5020  0.0619 -0.6592
 6102TIP3    H239866   0.005   4.868   8.312 -1.0454  0.0457 -1.3485
 6103TIP3   OH239867   5.841   2.235   8.155  0.4192 -0.0862 -0.1275
 6103TIP3    H139868   5.786   2.183   8.097  0.2433  1.8232 -1.8186
 6103TIP3    H239869   5.858   2.179   8.230 -0.5262 -2.1715 -1.3878
 6104TIP3   OH239870   0.876   1.027   0.915  0.6141 -0.6234 -0.1554
 6104TIP3    H139871   0.892   0.959   0.850 -1.1862  0.1883 -1.5376
 6104TIP3    H239872   0.783   1.049   0.905  1.0114  1.6814  0.5709
 6105TIP3   OH239873   5.558   4.761   1.648 -0.3756 -0.2715  0.0269
 6105TIP3    H139874   5.609   4.760   1.729 -0.9842  0.1678  0.4245
 6105TIP3    H239875   5.572   4.674   1.609 -0.7786 -0.8083  1.0486
 6106TIP3   OH239876   2.763   3.694   2.011 -0.4172 -0.2750 -0.2255
 6106TIP3    H139877   2.780   3.763   2.075  0.8669 -1.5929  0.9146
 6106TIP3    H239878   2.750   3.615   2.063 -0.9835 -1.0674 -1.5303
 6107TIP3   OH239879   3.176   5.549   7.192  0.4434  0.2741  0.5701
 6107TIP3    H139880   3.192   5.538   7.098  2.7737  1.1392  0.8011
 6107TIP3    H239881   3.132   5.634   7.199 -0.4233 -0.1385  0.2182
 6108TIP3   OH239882   5.345   2.152   0.663  0.1051 -0.1236  0.4142
 6108TIP3    H139883   5.424   2.184   0.621 -0.4906  2.4647  1.1150
 6108TIP3    H239884   5.276   2.213   0.636 -1.0102 -0.4686  2.2650
 6109TIP3   OH239885   0.389   1.386   0.721 -0.3142 -0.2598  0.4497
 6109TIP3    H139886   0.370   1.475   0.751  1.2272  0.1542  0.2535
 6109TIP3    H239887   0.413   1.338   0.801  1.0572  0.1133  0.2867
 6110TIP3   OH239888   2.642   4.693   8.106  0.1578  1.3003  0.3091
 6110TIP3    H139889   2.715   4.703   8.167  1.3827 -1.4791 -0.5572
 6110TIP3    H239890   2.681   4.705   8.020 -1.1146  2.9184 -0.1010
 6111TIP3   OH239891   4.713   3.951   8.113  0.3791  0.4743 -0.4434
 6111TIP3    H139892   4.675   3.972   8.198  3.8869  1.9247  0.9848
 6111TIP3    H239893   4.777   3.882   8.132  2.3391  1.8961 -1.4724
 6112TIP3   OH239894   2.208   1.828   1.927  0.0147  0.3919  0.0667
 6112TIP3    H139895   2.134   1.866   1.881  0.6187  1.6296  0.0937
 6112TIP3    H239896   2.265   1.794   1.858 -0.9826 -1.4351  0.0671
 6113TIP3   OH239897   0.385   0.484   0.508  0.9871  0.3084 -0.0380
 6113TIP3    H139898   0.293   0.460   0.515  0.7739  1.0137 -0.3377
 6113TIP3    H239899   0.422   0.464   0.594  0.6710 -0.4586 -0.0753
 6114TIP3   OH239900   2.872   6.690   0.658 -0.1693 -0.1011 -0.1331
 6114TIP3    H139901   2.801   6.681   0.722 -1.8459 -0.1563 -1.8924
 6114TIP3    H239902   2.866   6.781   0.629  0.9904  0.1011  0.2087
 6115TIP3   OH239903   1.022   1.803   0.541  0.3079 -1.0532  0.6717
 6115TIP3    H139904   1.085   1.826   0.472 -1.1850 -1.3491 -0.8493
 6115TIP3    H239905   1.013   1.883   0.593 -1.2388  0.4089 -1.6785
 6116TIP3   OH239906   6.531   4.785   7.154  0.5383 -0.2344  0.3504
 6116TIP3    H139907   6.460   4.743   7.204  1.1888 -2.1658 -0.2512
 6116TIP3    H239908   6.495   4.795   7.066  0.9244 -0.9886  0.1055
 6117TIP3   OH239909   2.558   1.657   1.486  0.1419 -0.1035 -0.4902
 6117TIP3    H139910   2.516   1.678   1.402  1.1405 -0.9034 -1.2191
 6117TIP3    H239911   2.631   1.719   1.492 -0.4234  0.4988  0.1938
 6118TIP3   OH239912   5.379   4.963   1.258  0.1058  0.5543 -0.0200
 6118TIP3    H139913   5.416   5.047   1.234  2.6108 -0.7151 -0.9333
 6118TIP3    H239914   5.424   4.939   1.339  0.1374 -0.3412 -0.2941
 6119TIP3   OH239915   1.441   6.163   1.099  0.3520 -0.4417  0.4361
 6119TIP3    H139916   1.501   6.172   1.172  0.8117  1.7379 -0.1336
 6119TIP3    H239917   1.448   6.071   1.073  1.8310 -0.7317  1.7252
 6120TIP3   OH239918   1.046   1.008   8.100 -0.4848  0.1854 -0.0049
 6120TIP3    H139919   1.071   1.095   8.070  0.8446 -0.7218 -1.6368
 6120TIP3    H239920   0.951   1.012   8.108 -0.6103  1.2876 -1.7062
 6121TIP3   OH239921   3.471   0.567   0.038 -0.0591 -0.6484 -1.0442
 6121TIP3    H139922   3.482   0.634  -0.029  1.0635  1.0666  0.7262
 6121TIP3    H239923   3.380   0.576   0.066  0.3823  0.9960 -0.0332
 6122TIP3   OH239924   0.595   3.780   1.197  0.1451 -0.3715 -0.4947
 6122TIP3    H139925   0.583   3.762   1.290  1.6544  0.3225 -0.1446
 6122TIP3    H239926   0.582   3.696   1.154  0.6269 -0.9457  0.4673
 6123TIP3   OH239927   6.244   2.770   8.865 -0.2632 -0.2953 -0.1264
 6123TIP3    H139928   6.278   2.831   8.800 -0.8470  1.2262  0.9406
 6123TIP3    H239929   6.321   2.724   8.899  0.2122  0.0084 -0.7797
 6124TIP3   OH239930   5.313   2.581   8.964  0.3915  0.5534  0.4737
 6124TIP3    H139931   5.292   2.655   8.907 -2.6073 -0.4201  0.1669
 6124TIP3    H239932   5.243   2.580   9.029  1.2267 -1.1063  1.4126
 6125TIP3   OH239933   2.654   1.251   2.842 -0.6539 -0.4952  0.0082
 6125TIP3    H139934   2.681   1.172   2.890  0.3903 -0.0444  0.1899
 6125TIP3    H239935   2.709   1.252   2.764  0.5996  0.9690  0.8742
 6126TIP3   OH239936   5.387   3.462   2.867 -0.1359  0.0259 -0.0065
 6126TIP3    H139937   5.332   3.425   2.797  0.0124  0.1328 -0.1819
 6126TIP3    H239938   5.474   3.426   2.850 -0.1016  0.0474  0.1276
 6127TIP3   OH239939   1.736   5.672   0.031  0.0831  0.7618  0.0054
 6127TIP3    H139940   1.745   5.622  -0.050  0.8163 -1.7922  1.5467
 6127TIP3    H239941   1.824   5.673   0.069 -0.4534  0.8954  1.3079
 6128TIP3   OH239942   5.932   5.757   8.410 -1.2297 -0.0091  0.4123
 6128TIP3    H139943   5.989   5.819   8.364 -0.4123 -1.0449 -0.0261
 6128TIP3    H239944   5.990   5.714   8.474 -1.4980 -1.0673 -0.0324
 6129TIP3   OH239945   4.213   2.113   3.280  0.6898  0.2887  0.0140
 6129TIP3    H139946   4.280   2.077   3.338  0.4417  0.5406  0.4699
 6129TIP3    H239947   4.137   2.057   3.294  1.0695 -0.5852 -1.2122
 6130TIP3   OH239948   4.810   5.232   0.451  0.0114 -0.3609  0.5219
 6130TIP3    H139949   4.892   5.245   0.404  0.4891 -1.6016  0.9753
 6130TIP3    H239950   4.755   5.306   0.424  1.5210  0.9168  0.7943
 6131TIP3   OH239951   1.681   4.500   1.699 -0.8442 -0.7117  0.1795
 6131TIP3    H139952   1.649   4.590   1.704 -1.9804 -1.1792  2.6183
 6131TIP3    H239953   1.604   4.446   1.721  0.0257 -2.2343 -0.3855
 6132TIP3   OH239954   1.871   1.261   0.148  0.2620 -0.0697 -0.1624
 6132TIP3    H139955   1.828   1.244   0.231 -1.2058  1.7947 -0.4791
 6132TIP3    H239956   1.806   1.238   0.081  1.2888 -1.2031 -0.8246
 6133TIP3   OH239957   0.422   3.471   1.642  0.1969 -0.5205 -0.5654
 6133TIP3    H139958   0.385   3.383   1.646 -0.2727 -0.3027 -0.1008
 6133TIP3    H239959   0.489   3.472   1.710  0.0815 -0.4659 -0.4516
 6134TIP3   OH239960   5.769   1.861   3.169 -0.2663 -0.1193 -0.6069
 6134TIP3    H139961   5.724   1.834   3.250  0.0578 -0.2507 -0.4723
 6134TIP3    H239962   5.839   1.918   3.199 -0.4817  0.2674 -0.8373
 6135TIP3   OH239963   1.045   0.694   7.207 -0.4610  0.0944  0.0700
 6135TIP3    H139964   1.126   0.647   7.231  0.6494  1.9575  0.1461
 6135TIP3    H239965   1.074   0.763   7.148 -2.2878 -0.3291 -1.4107
 6136TIP3   OH239966   6.426   6.190   0.730  0.5738 -0.1724 -0.0549
 6136TIP3    H139967   6.426   6.104   0.772 -0.8176 -0.3288 -0.3440
 6136TIP3    H239968   6.386   6.248   0.794 -0.3608 -0.1561 -0.6311
 6137TIP3   OH239969   1.764   1.532   1.587 -0.6521  0.6302 -0.4189
 6137TIP3    H139970   1.828   1.461   1.593  1.8438  2.6888 -0.5787
 6137TIP3    H239971   1.795   1.586   1.515 -2.5985  1.7618 -0.4783
 6138TIP3   OH239972   0.459   4.753   7.798 -0.6215  0.7310  0.1526
 6138TIP3    H139973   0.549   4.772   7.824 -0.4934  1.4868 -0.7764
 6138TIP3    H239974   0.415   4.838   7.801 -1.4862  0.2692  1.2203
 6139TIP3   OH239975   4.084   4.678   1.459 -0.1801  0.7395  0.1371
 6139TIP3    H139976   4.079   4.628   1.540  1.4732 -0.6844 -0.5673
 6139TIP3    H239977   4.166   4.727   1.466 -0.5686  1.4646 -0.2238
 6140TIP3   OH239978   0.687   2.012   0.469 -0.3393  0.0376 -0.5598
 6140TIP3    H139979   0.772   1.985   0.435 -0.9128 -0.8662 -1.3406
 6140TIP3    H239980   0.636   2.035   0.391 -1.0887 -0.2798 -0.1732
 6141TIP3   OH239981   2.633   5.232   0.623 -0.2863 -0.1154  0.6707
 6141TIP3    H139982   2.660   5.142   0.609 -0.1876  0.0477 -0.2335
 6141TIP3    H239983   2.712   5.276   0.655 -1.2334 -1.1533  5.0461
 6142TIP3   OH239984   1.354   3.010   8.865 -0.2021 -0.1071  1.0191
 6142TIP3    H139985   1.280   2.952   8.884  0.3589 -1.4233 -0.4984
 6142TIP3    H239986   1.425   2.950   8.843  0.4679  1.1445 -0.4134
 6143TIP3   OH239987   6.071   2.342   8.297  0.1444 -0.9681 -0.8076
 6143TIP3    H139988   6.003   2.282   8.266 -1.8923  0.3076  0.9120
 6143TIP3    H239989   6.074   2.328   8.392  1.7114 -0.4009 -0.7475
 6144TIP3   OH239990   4.187   3.229   0.520 -0.2559 -0.4841  0.2361
 6144TIP3    H139991   4.246   3.160   0.489  3.7926  2.0479  1.4795
 6144TIP3    H239992   4.169   3.206   0.611 -1.3745 -1.3214 -0.1769
 6145TIP3   OH239993   4.120   6.151   2.800  0.4460 -0.6025 -0.1376
 6145TIP3    H139994   4.125   6.216   2.869 -2.9751  0.3168 -0.5982
 6145TIP3    H239995   4.154   6.071   2.840 -2.1267 -0.3254  2.9831
 6146TIP3   OH239996   0.754   5.874   2.876  0.4706 -0.5923 -0.2354
 6146TIP3    H139997   0.802   5.941   2.924 -0.2108 -0.2746  0.0100
 6146TIP3    H239998   0.744   5.910   2.788  1.0267 -0.8336 -0.4024
 6147TIP3   OH239999   5.653   1.233   3.151  0.8690 -0.4003 -0.0840
 6147TIP3    H140000   5.617   1.167   3.092 -0.0653 -1.0040  1.1370
 6147TIP3    H240001   5.577   1.281   3.183  1.1307 -1.4413  2.2464
 6148TIP3   OH240002   0.457   2.721   0.651  0.7643 -0.0229  0.3372
 6148TIP3    H140003   0.440   2.734   0.744 -0.2500  0.0654  0.1587
 6148TIP3    H240004   0.422   2.634   0.632 -0.6655  0.6442 -0.2980
 6149TIP3   OH240005   0.478   3.121   0.744  0.3550 -0.1351  0.2828
 6149TIP3    H140006   0.503   3.096   0.833  0.5158  0.0536  0.2916
 6149TIP3    H240007   0.507   3.047   0.690 -0.5786 -0.6704  0.4972
 6150TIP3   OH240008   4.995   2.434   2.652 -0.4425  0.4690 -0.1534
 6150TIP3    H140009   4.954   2.397   2.731  1.4496  0.9959  1.1426
 6150TIP3    H240010   5.040   2.512   2.684  1.5132 -0.0531 -1.4876
 6151TIP3   OH240011   0.834   0.358   1.474 -0.1418 -0.1112 -0.3706
 6151TIP3    H140012   0.815   0.307   1.396  2.2134 -0.7381 -0.6072
 6151TIP3    H240013   0.771   0.430   1.472 -2.3142 -1.9495 -1.0070
 6152TIP3   OH240014   3.727   4.545   8.128 -0.0232 -0.7673  0.0352
 6152TIP3    H140015   3.718   4.617   8.066  1.1176 -0.6273  0.0096
 6152TIP3    H240016   3.767   4.474   8.077 -0.7751 -1.2857  0.1578
 6153TIP3   OH240017   3.752   1.979   0.206 -0.3091 -0.2730  0.0494
 6153TIP3    H140018   3.677   1.926   0.178  0.9489 -1.7473 -0.6723
 6153TIP3    H240019   3.800   1.996   0.125  0.0414  0.8320  0.4720
 6154TIP3   OH240020   6.147   0.126   8.442 -0.0700  0.5279  0.0514
 6154TIP3    H140021   6.131   0.216   8.470  1.1446  0.9093 -0.4360
 6154TIP3    H240022   6.241   0.114   8.451 -0.2857 -0.8961  0.6588
 6155TIP3   OH240023   1.321   1.085   1.139 -0.0128  0.7735  0.4462
 6155TIP3    H140024   1.341   1.080   1.046  0.4604  1.6297  0.4887
 6155TIP3    H240025   1.371   1.014   1.179  1.0007  1.3381  0.2304
 6156TIP3   OH240026   6.442   1.371   3.356  0.5624 -0.3613  0.3230
 6156TIP3    H140027   6.407   1.325   3.280  2.5522 -1.8202  0.1909
 6156TIP3    H240028   6.423   1.313   3.430  1.1048 -0.3150  0.5056
 6157TIP3   OH240029   6.049   3.228   8.148  0.2110 -0.3157 -0.0940
 6157TIP3    H140030   6.028   3.206   8.238  0.7206  0.5384  0.2513
 6157TIP3    H240031   6.111   3.160   8.120 -1.0221 -1.3803 -0.2819
 6158TIP3   OH240032   1.277   0.067   2.351 -0.0809  0.0739  0.0074
 6158TIP3    H140033   1.310   0.062   2.261  0.6881  1.7397  0.1621
 6158TIP3    H240034   1.189   0.031   2.345  0.0023  0.0114 -1.3840
 6159TIP3   OH240035   5.046   0.788   1.055 -0.0853  0.3083  0.1281
 6159TIP3    H140036   5.075   0.777   0.965  1.9821  1.2420  0.6227
 6159TIP3    H240037   5.047   0.700   1.092 -1.4413 -0.1527 -0.8454
 6160TIP3   OH240038   0.615   2.229   1.261  0.1700  0.1178 -0.0205
 6160TIP3    H140039   0.588   2.279   1.338  0.0477 -0.1370  0.1036
 6160TIP3    H240040   0.672   2.160   1.296  0.9648  0.6388 -0.2759
 6161TIP3   OH240041   1.362   3.221   1.472  0.2235  0.1450 -0.7043
 6161TIP3    H140042   1.363   3.131   1.504  0.4608  0.8539  1.4624
 6161TIP3    H240043   1.387   3.214   1.380 -1.0807 -2.1115 -0.9749
 6162TIP3   OH240044   2.649   4.178   8.964  0.3618  0.0672  0.6188
 6162TIP3    H140045   2.633   4.212   9.052  2.5953  0.7262  0.8313
 6162TIP3    H240046   2.615   4.089   8.966  0.9118 -0.1531  2.3729
 6163TIP3   OH240047   1.863   5.004   1.152 -0.1697  0.2362 -0.2928
 6163TIP3    H140048   1.879   5.080   1.097 -1.1055  0.3260 -0.4541
 6163TIP3    H240049   1.768   4.997   1.156 -0.1200  0.1149  1.1619
 6164TIP3   OH240050   5.721   1.660   0.708  0.1326 -0.0029 -0.1441
 6164TIP3    H140051   5.712   1.634   0.616  0.3604  0.0245 -0.1761
 6164TIP3    H240052   5.691   1.751   0.711 -1.0693 -0.3952  0.0487
 6165TIP3   OH240053   2.827   4.256   1.199 -0.2908  0.2585  0.0101
 6165TIP3    H140054   2.815   4.231   1.290 -0.7210 -0.1040 -0.1418
 6165TIP3    H240055   2.921   4.263   1.188 -0.2032 -0.3900  0.2991
 6166TIP3   OH240056   1.301   1.127   2.166  0.1282 -0.7525 -0.4575
 6166TIP3    H140057   1.376   1.070   2.181 -0.0776 -0.8827  0.1204
 6166TIP3    H240058   1.226   1.068   2.158 -0.4816 -0.5403  2.5078
 6167TIP3   OH240059   6.312   5.104   7.994  0.3631 -0.0398 -0.0679
 6167TIP3    H140060   6.328   5.158   7.916  1.0309 -0.6780 -0.3870
 6167TIP3    H240061   6.217   5.104   8.004  0.3332  0.8325 -0.3219
 6168TIP3   OH240062   3.138   4.082   1.168  0.0748  0.5774  0.4002
 6168TIP3    H140063   3.133   4.059   1.261 -1.1092 -1.4129 -0.0766
 6168TIP3    H240064   3.231   4.101   1.153  0.9933 -2.5752  1.2987
 6169TIP3   OH240065   2.736   1.394   8.289 -0.2628  0.4035 -0.3663
 6169TIP3    H140066   2.758   1.450   8.214  1.5447 -0.2145 -0.3539
 6169TIP3    H240067   2.689   1.320   8.250  1.7319 -0.5344 -1.1457
 6170TIP3   OH240068   3.269   4.940   7.440 -0.0516  0.6337 -0.2629
 6170TIP3    H140069   3.274   4.856   7.394 -0.4922  1.0248 -1.0413
 6170TIP3    H240070   3.345   4.940   7.498  0.6807  0.2501 -1.2041
 6171TIP3   OH240071   6.186   6.461   0.087 -0.2726  0.3605 -0.3285
 6171TIP3    H140072   6.209   6.494   0.000  1.0358 -0.2388 -0.2338
 6171TIP3    H240073   6.105   6.508   0.110 -0.5008  0.7065 -1.7508
 6172TIP3   OH240074   5.262   1.560   3.400 -0.1748  0.2322  0.1665
 6172TIP3    H140075   5.214   1.643   3.409 -1.6804 -0.5232 -0.6759
 6172TIP3    H240076   5.339   1.583   3.348  0.3344  1.4149  1.3578
 6173TIP3   OH240077   5.039   3.070   1.287  0.0904  0.0777  0.2068
 6173TIP3    H140078   4.998   3.035   1.366 -1.8492 -1.0867 -1.2475
 6173TIP3    H240079   5.089   2.997   1.251 -0.4054  0.0941 -0.5319
 6174TIP3   OH240080   4.307   1.780   1.777  0.2229  0.2796  0.0524
 6174TIP3    H140081   4.355   1.697   1.771  1.8959  1.2370 -0.3699
 6174TIP3    H240082   4.216   1.757   1.757  0.8697 -1.2496 -1.3216
 6175TIP3   OH240083   4.429   0.008   7.653 -0.6136 -0.4304 -0.0617
 6175TIP3    H140084   4.348  -0.030   7.686 -0.9037  1.8331  2.1547
 6175TIP3    H240085   4.401   0.064   7.581 -0.5783 -1.9058 -1.2642
 6176TIP3   OH240086   5.782   6.015   1.209  0.3494 -0.1010  0.2742
 6176TIP3    H140087   5.735   6.004   1.292 -0.1338  0.5102  0.0894
 6176TIP3    H240088   5.744   6.094   1.170 -1.7113 -2.0584 -2.0491
 6177TIP3   OH240089   0.234   5.536   0.632 -0.0886  0.0920  0.4904
 6177TIP3    H140090   0.162   5.490   0.588  0.3957  0.8144 -1.1159
 6177TIP3    H240091   0.221   5.517   0.725 -0.3920 -2.6013 -0.0208
 6178TIP3   OH240092   0.688   1.695   1.282  0.0130 -0.2120 -0.6939
 6178TIP3    H140093   0.630   1.619   1.280  0.4611 -0.5725 -0.1332
 6178TIP3    H240094   0.697   1.716   1.375  0.7762 -0.1608 -0.7730
 6179TIP3   OH240095   2.146   4.829   0.477 -0.3722  0.0810  0.1280
 6179TIP3    H140096   2.228   4.879   0.485 -0.9556  1.4200 -1.6780
 6179TIP3    H240097   2.136   4.786   0.562  2.4498 -0.5322  0.2571
 6180TIP3   OH240098   6.637   5.396   2.392  0.2849 -0.1219 -0.4799
 6180TIP3    H140099   6.709   5.455   2.414 -0.3998  0.7575 -0.5613
 6180TIP3    H240100   6.565   5.423   2.448 -0.4753  0.0548 -1.5043
 6181TIP3   OH240101   5.982   2.140   1.147  0.0101  0.4845  0.0608
 6181TIP3    H140102   5.929   2.217   1.167 -0.0530  0.1538  1.2857
 6181TIP3    H240103   5.974   2.085   1.225  2.3262  0.5170  0.4015
 6182TIP3   OH240104   0.970   5.271   1.518  1.2778 -0.0131 -0.1352
 6182TIP3    H140105   0.931   5.307   1.438  0.9400 -2.4858 -1.1876
 6182TIP3    H240106   0.931   5.322   1.589 -1.6968 -0.4350 -1.3030
 6183TIP3   OH240107   5.299   6.253   1.751  0.9238  0.5371  0.3168
 6183TIP3    H140108   5.285   6.330   1.805  0.5360  0.0482  0.9302
 6183TIP3    H240109   5.212   6.234   1.714  0.3745 -1.0845  2.2118
 6184TIP3   OH240110   4.714   4.644   6.985 -0.1225  0.7381  0.4542
 6184TIP3    H140111   4.788   4.675   6.932  0.9465  1.0280  2.0564
 6184TIP3    H240112   4.644   4.708   6.967 -0.6082 -0.3873 -2.2757
 6185TIP3   OH240113   0.488   0.965   2.148  0.1765  0.3423 -0.4295
 6185TIP3    H140114   0.577   0.943   2.120  0.3479 -0.3383  0.6026
 6185TIP3    H240115   0.447   1.002   2.069  1.4422  0.9248 -0.8496
 6186TIP3   OH240116   3.250   4.153   2.733  0.0616  0.7072 -0.0360
 6186TIP3    H140117   3.287   4.226   2.783 -1.4842  0.5820  1.3782
 6186TIP3    H240118   3.253   4.079   2.794  2.4076 -0.7238 -1.7307
 6187TIP3   OH240119   3.969   0.391   1.307 -0.2148 -0.6134 -0.3825
 6187TIP3    H140120   3.971   0.430   1.219 -1.7851 -1.8517 -1.0119
 6187TIP3    H240121   4.059   0.362   1.322  0.5725  1.4683 -0.6677
 6188TIP3   OH240122   5.788   0.262   0.790  0.3170  0.6935 -0.2457
 6188TIP3    H140123   5.692   0.256   0.791  0.3733 -0.3717 -0.4064
 6188TIP3    H240124   5.806   0.351   0.760 -0.6140  0.6190 -1.0699
 6189TIP3   OH240125   4.405   5.509   1.365 -0.7868 -0.3381 -0.0235
 6189TIP3    H140126   4.479   5.569   1.351 -1.2107  0.4517  0.9806
 6189TIP3    H240127   4.430   5.429   1.319 -0.1097  0.5329 -1.2327
 6190TIP3   OH240128   1.000   5.723   0.245 -0.0298  0.3314  0.2129
 6190TIP3    H140129   0.929   5.662   0.265  0.4173  0.0752  1.0805
 6190TIP3    H240130   0.958   5.808   0.235 -0.2861  0.5396  2.5846
 6191TIP3   OH240131   3.179   3.842   0.302 -0.2558 -0.1533  0.6637
 6191TIP3    H140132   3.128   3.770   0.265  1.2260 -0.3063 -1.3139
 6191TIP3    H240133   3.264   3.803   0.323 -0.2333  0.5114  1.8639
 6192TIP3   OH240134   4.654   4.699   8.538  0.1655  0.3844 -0.2122
 6192TIP3    H140135   4.595   4.770   8.564 -1.0924 -0.2350 -1.2624
 6192TIP3    H240136   4.610   4.619   8.567  1.5831 -0.0074  0.9842
 6193TIP3   OH240137   5.410   1.382   0.022  0.0700 -0.0144  0.1343
 6193TIP3    H140138   5.466   1.362  -0.053  1.9449  1.8180  0.9434
 6193TIP3    H240139   5.347   1.446  -0.010 -0.0442 -0.2903 -0.1967
 6194TIP3   OH240140   6.183   2.719   2.110 -0.8905  0.0579 -0.2078
 6194TIP3    H140141   6.181   2.776   2.033  2.3833 -1.5524 -1.6744
 6194TIP3    H240142   6.232   2.769   2.175  1.7035 -0.7720 -1.3880
 6195TIP3   OH240143   1.103   0.312   7.373 -0.2210  0.2535  0.0796
 6195TIP3    H140144   1.103   0.323   7.468  0.5091  1.2444 -0.0124
 6195TIP3    H240145   1.172   0.371   7.342 -0.4041 -0.0982 -1.0623
 6196TIP3   OH240146   3.084   3.303   2.690  0.1895 -0.4607 -0.2032
 6196TIP3    H140147   3.145   3.367   2.728 -1.2384  0.1283  1.2161
 6196TIP3    H240148   3.035   3.353   2.625 -0.3052 -0.3312  0.2617
 6197TIP3   OH240149   6.621   4.324   3.039 -0.6846  0.4198  0.2378
 6197TIP3    H140150   6.701   4.355   3.083 -0.0457  1.2221 -1.3714
 6197TIP3    H240151   6.596   4.246   3.086  0.8129  0.4110  1.0822
 6198TIP3   OH240152   3.651   6.156   1.710  0.2587  0.2581 -0.3548
 6198TIP3    H140153   3.616   6.144   1.798  2.4117 -0.7154  0.4310
 6198TIP3    H240154   3.599   6.098   1.655 -1.1067  0.8731  0.2353
 6199TIP3   OH240155   6.679   0.844   8.344 -0.0586 -0.0163  0.7938
 6199TIP3    H140156   6.705   0.933   8.367  0.4878 -0.0034  0.1497
 6199TIP3    H240157   6.740   0.818   8.276 -2.2085  0.3296 -1.4056
 6200TIP3   OH240158   3.572   2.335   1.317 -0.5353 -0.3917 -0.0780
 6200TIP3    H140159   3.650   2.386   1.297  0.2835 -1.9965 -1.1929
 6200TIP3    H240160   3.501   2.380   1.271 -0.0208  0.3123 -0.1939
 6201TIP3   OH240161   5.711   0.577   7.862 -0.2517 -0.4878 -0.3871
 6201TIP3    H140162   5.665   0.503   7.823 -1.0464  0.6614 -1.7055
 6201TIP3    H240163   5.645   0.646   7.868  0.9102  0.7011 -0.8403
 6202TIP3   OH240164   5.957   0.020   1.347 -0.3175  0.6202  0.0702
 6202TIP3    H140165   5.940   0.070   1.267  1.5951  3.3074  1.2073
 6202TIP3    H240166   6.051   0.030   1.362 -0.5333 -0.2825  2.3556
 6203TIP3   OH240167   3.645   0.570   0.672  0.6798 -0.6009  0.6131
 6203TIP3    H140168   3.734   0.594   0.694  0.0961  0.3888  2.0221
 6203TIP3    H240169   3.592   0.599   0.746 -1.0389  0.3568 -0.8782
 6204TIP3   OH240170   0.728   3.144   3.220  0.6931 -0.2417 -0.1177
 6204TIP3    H140171   0.722   3.057   3.180 -0.7558  0.3094 -1.1917
 6204TIP3    H240172   0.792   3.191   3.167  0.1542 -0.1036 -0.6540
 6205TIP3   OH240173   2.421   6.335   1.630 -0.1292  0.7545 -0.1113
 6205TIP3    H140174   2.429   6.243   1.604  0.2754  0.4540  1.0024
 6205TIP3    H240175   2.377   6.332   1.715  1.9989  1.3900  1.0954
 6206TIP3   OH240176   5.723   2.028   8.044  0.0443  0.0665 -0.0270
 6206TIP3    H140177   5.633   2.009   8.016  0.3827  0.1185 -1.2131
 6206TIP3    H240178   5.778   1.973   7.987  0.7323 -1.1520  1.7170
 6207TIP3   OH240179   2.830   0.340   2.089 -0.4291 -0.5430  0.0293
 6207TIP3    H140180   2.875   0.290   2.156 -1.0351 -2.2100 -0.7604
 6207TIP3    H240181   2.892   0.342   2.015 -0.9836 -1.4909 -0.4883
 6208TIP3   OH240182   6.065   3.684   8.863  0.1289 -0.0869  0.1287
 6208TIP3    H140183   6.022   3.745   8.802  0.0357  1.1996  1.4234
 6208TIP3    H240184   6.157   3.686   8.837  0.2391  1.1415  0.5437
 6209TIP3   OH240185   6.424   6.497   1.033  0.7843 -0.4313  0.6540
 6209TIP3    H140186   6.376   6.567   1.077  1.8183 -0.1870  1.4288
 6209TIP3    H240187   6.471   6.540   0.962  0.1397 -0.6171  0.1045
 6210TIP3   OH240188   1.859   6.760   8.783 -0.4423 -0.1440  0.0074
 6210TIP3    H140189   1.877   6.823   8.853  1.5706  0.4233 -0.9535
 6210TIP3    H240190   1.812   6.810   8.717  1.2565  0.4811 -0.8084
 6211TIP3   OH240191   2.379   3.530   0.697  0.2162 -0.2949 -0.2452
 6211TIP3    H140192   2.453   3.557   0.751 -1.2807  4.0492  0.0180
 6211TIP3    H240193   2.305   3.524   0.758 -0.3185 -1.3574 -0.9688
 6212TIP3   OH240194   5.913   2.676   2.229 -0.9206 -0.1123 -0.0017
 6212TIP3    H140195   5.992   2.713   2.190 -1.4934 -0.5487 -1.6494
 6212TIP3    H240196   5.920   2.582   2.214 -1.7816 -0.1515 -0.2171
 6213TIP3   OH240197   5.892   0.506   1.635 -0.3837  0.5027  0.2045
 6213TIP3    H140198   5.964   0.552   1.679  0.0901  0.4535 -0.5033
 6213TIP3    H240199   5.926   0.419   1.617 -0.7503  0.3591  0.1949
 6214TIP3   OH240200   4.609   4.878   1.609  0.4537  0.1846  0.3567
 6214TIP3    H140201   4.591   4.969   1.632  0.8693  0.7012 -1.2458
 6214TIP3    H240202   4.588   4.872   1.516  0.3310 -1.4003  0.4476
 6215TIP3   OH240203   4.597   1.371   7.925  0.1520 -0.3319 -0.1552
 6215TIP3    H140204   4.510   1.379   7.886 -0.8999 -0.2263  2.0261
 6215TIP3    H240205   4.657   1.361   7.851 -1.5371  1.0385 -1.7816
 6216TIP3   OH240206   4.728   4.592   2.306  0.2133  0.3476  0.3687
 6216TIP3    H140207   4.800   4.650   2.332 -0.1337  1.1616 -0.4535
 6216TIP3    H240208   4.747   4.569   2.215  0.7165 -1.4201  0.8759
 6217TIP3   OH240209   0.203   5.969   8.008  0.3135 -0.2217  0.3204
 6217TIP3    H140210   0.151   5.998   7.933 -1.8579 -0.1440  1.7800
 6217TIP3    H240211   0.288   6.014   7.996 -0.2746  0.4944 -1.5780
 6218TIP3   OH240212   3.093   5.291   7.932 -0.2280 -0.1303  0.1148
 6218TIP3    H140213   3.009   5.266   7.894 -0.6801 -0.4663  1.3019
 6218TIP3    H240214   3.095   5.247   8.017  1.7152 -1.1737 -0.4142
 6219TIP3   OH240215   5.322   3.956   2.916  0.3413  0.3785 -0.2905
 6219TIP3    H140216   5.352   4.046   2.904 -1.2517  0.8806 -0.6557
 6219TIP3    H240217   5.381   3.920   2.983  1.5925  1.3720 -0.8114
 6220TIP3   OH240218   2.228   1.668   0.840  0.2652  0.1387 -0.6526
 6220TIP3    H140219   2.274   1.631   0.764 -0.4961 -0.1966 -0.9550
 6220TIP3    H240220   2.137   1.673   0.813 -0.0325 -0.0727  0.2743
 6221TIP3   OH240221   6.375   5.641   7.136 -0.4622  0.1931  0.7694
 6221TIP3    H140222   6.445   5.575   7.138 -1.6921 -1.2746 -0.8838
 6221TIP3    H240223   6.418   5.720   7.105  0.9806  0.1010  2.4009
 6222TIP3   OH240224   5.684   4.415   1.835 -0.1272 -0.8743  0.6138
 6222TIP3    H140225   5.589   4.425   1.846 -0.1362 -1.5988  1.3308
 6222TIP3    H240226   5.693   4.361   1.756 -0.2672  0.0094 -0.0182
 6223TIP3   OH240227   1.948   0.493   2.906 -0.7244 -0.2338  0.2698
 6223TIP3    H140228   1.975   0.585   2.908  2.2697 -0.9531 -0.8076
 6223TIP3    H240229   1.919   0.475   2.995  4.1343  0.4596  2.3570
 6224TIP3   OH240230   1.908   3.084   1.323  0.2124  0.3782 -1.0371
 6224TIP3    H140231   1.949   3.049   1.403  1.3390  0.5257 -1.5343
 6224TIP3    H240232   1.915   3.179   1.332 -0.0722  0.4094 -1.1154
 6225TIP3   OH240233   1.999   5.505   2.581  0.9726 -0.6822  0.5776
 6225TIP3    H140234   1.976   5.413   2.572  0.4370 -0.5358  0.3426
 6225TIP3    H240235   1.989   5.541   2.492  0.8072 -0.3256  0.7357
 6226TIP3   OH240236   4.661   3.841   2.864 -0.0508 -0.0619  0.8341
 6226TIP3    H140237   4.594   3.846   2.932  0.3340 -0.8839  1.2858
 6226TIP3    H240238   4.735   3.797   2.905  0.7184  0.6878  0.2884
 6227TIP3   OH240239   4.178   2.500   2.026  0.4040  0.2915  0.3541
 6227TIP3    H140240   4.268   2.470   2.013  0.7565  1.2739  0.4600
 6227TIP3    H240241   4.130   2.464   1.952  1.3055  1.4254 -0.8250
 6228TIP3   OH240242   5.241   4.126   0.924  0.4201  0.6408  0.8934
 6228TIP3    H140243   5.240   4.031   0.914  0.1550  0.7651 -0.4966
 6228TIP3    H240244   5.332   4.151   0.909  0.2172  0.7298 -0.2467
 6229TIP3   OH240245   0.961   4.192   2.671  0.0112  0.1329 -0.1457
 6229TIP3    H140246   0.960   4.111   2.723  1.8118  0.6961  0.8269
 6229TIP3    H240247   0.909   4.254   2.723  1.1764  0.4702  0.6583
 6230TIP3   OH240248   6.354   1.701   2.027  0.4807 -0.8447  0.2055
 6230TIP3    H140249   6.444   1.711   1.995  0.7287 -0.5802  0.9725
 6230TIP3    H240250   6.364   1.677   2.119 -0.1625 -3.9465 -0.4080
 6231TIP3   OH240251   3.578   2.863   2.365  0.3923  0.5807 -0.5164
 6231TIP3    H140252   3.533   2.796   2.313  1.2043 -0.0543 -0.4125
 6231TIP3    H240253   3.654   2.887   2.312  1.5301 -0.4576  0.5779
 6232TIP3   OH240254   4.410   5.113   1.390  0.0573  0.2383  0.1589
 6232TIP3    H140255   4.437   5.166   1.466 -0.3275  0.2877  0.2618
 6232TIP3    H240256   4.459   5.031   1.400 -0.9388 -0.2642  1.1684
 6233TIP3   OH240257   2.387   5.154   8.150 -0.0016  0.6722  0.1356
 6233TIP3    H140258   2.330   5.148   8.073  0.5889  0.2415 -0.2725
 6233TIP3    H240259   2.431   5.070   8.154 -1.7128 -0.2428  2.2932
 6234TIP3   OH240260   1.786   2.545   0.390 -0.0536 -0.1962  0.6325
 6234TIP3    H140261   1.747   2.608   0.450  0.5988 -0.6358  1.5399
 6234TIP3    H240262   1.834   2.598   0.327  1.4028  0.2097  2.0267
 6235TIP3   OH240263   6.699   4.825   2.422  0.1487 -0.6477 -0.0787
 6235TIP3    H140264   6.663   4.765   2.357 -2.0033  0.5410 -0.0912
 6235TIP3    H240265   6.755   4.884   2.373 -0.7088 -0.3550 -0.7384
 6236TIP3   OH240266   5.269   3.063   2.550 -0.0867 -0.1751 -0.1661
 6236TIP3    H140267   5.237   3.002   2.617  1.4149 -0.7240  0.0895
 6236TIP3    H240268   5.322   3.009   2.492 -0.2325  0.5657 -1.0108
 6237TIP3   OH240269   0.709   0.659   1.041  0.1346 -0.0714 -0.3535
 6237TIP3    H140270   0.765   0.736   1.049  0.6006 -0.5823  1.8845
 6237TIP3    H240271   0.748   0.607   0.971  0.3585  1.2590 -1.2461
 6238TIP3   OH240272   5.853   4.717   0.714  0.2872 -0.0302  0.0352
 6238TIP3    H140273   5.865   4.631   0.674 -1.0970 -0.1430 -0.2027
 6238TIP3    H240274   5.837   4.776   0.640 -0.4674  0.0985  0.2863
 6239TIP3   OH240275   6.199   6.635   8.377 -0.2771 -0.0185 -0.6901
 6239TIP3    H140276   6.157   6.714   8.410 -1.3842 -0.7566 -0.2792
 6239TIP3    H240277   6.225   6.586   8.455  0.7268  0.0964 -0.9398
 6240TIP3   OH240278   6.458   0.407   8.273 -0.1300  0.8002 -0.6296
 6240TIP3    H140279   6.527   0.370   8.219 -1.1401  1.4225 -2.4455
 6240TIP3    H240280   6.475   0.374   8.361  1.8879  0.1738 -1.2144
 6241TIP3   OH240281   3.716   5.442   0.840 -0.4105  0.6731  0.4401
 6241TIP3    H140282   3.750   5.444   0.750 -1.3436 -0.0144  0.0475
 6241TIP3    H240283   3.623   5.421   0.829  0.0954 -2.8442  1.6935
 6242TIP3   OH240284   2.561   1.197   2.341 -0.1216  1.0072  0.6487
 6242TIP3    H140285   2.518   1.217   2.258 -0.6485  2.7830  1.3088
 6242TIP3    H240286   2.642   1.152   2.316  0.8214  3.4322 -0.9830
 6243TIP3   OH240287   3.721   4.452   1.352  0.1222  0.3518 -0.3022
 6243TIP3    H140288   3.693   4.461   1.261 -3.3960 -0.2581  0.5537
 6243TIP3    H240289   3.707   4.539   1.390  0.8490  0.4075 -0.1487
 6244TIP3   OH240290   0.415   2.561   8.386 -0.1698 -0.1359 -0.2747
 6244TIP3    H140291   0.352   2.504   8.430  1.1357 -0.5084  1.2042
 6244TIP3    H240292   0.499   2.516   8.396  0.8811  1.9081  0.7664
 6245TIP3   OH240293   4.300   5.798   1.284  0.9341 -0.3963  0.5379
 6245TIP3    H140294   4.390   5.787   1.315  0.3172 -2.0719  1.9016
 6245TIP3    H240295   4.249   5.736   1.336 -0.8872 -0.1092 -0.8009
 6246TIP3   OH240296   5.424   3.387   2.009 -0.1862  0.3864 -0.2109
 6246TIP3    H140297   5.504   3.405   2.058 -0.2469  0.1235 -0.0146
 6246TIP3    H240298   5.402   3.297   2.030 -1.7216  1.0838  1.4708
 6247TIP3   OH240299   3.740   3.207   0.434  0.2632 -0.4234 -0.0014
 6247TIP3    H140300   3.814   3.250   0.392 -0.5094  1.3555  0.3885
 6247TIP3    H240301   3.753   3.223   0.528 -0.2969 -0.6372  0.1150
 6248TIP3   OH240302   5.528   4.495   0.329 -0.0370  0.3886  0.5751
 6248TIP3    H140303   5.577   4.435   0.273 -0.9096 -0.8792  1.1084
 6248TIP3    H240304   5.484   4.437   0.392  0.5491  1.7229  2.2723
 6249TIP3   OH240305   2.686   6.310   2.704  0.1864 -0.1401 -0.7189
 6249TIP3    H140306   2.593   6.311   2.679  0.0891 -1.7192 -0.4979
 6249TIP3    H240307   2.733   6.295   2.622  0.0632 -2.0081 -0.4809
 6250TIP3   OH240308   0.230   1.028   8.179  0.4245  0.0330 -0.1177
 6250TIP3    H140309   0.256   0.956   8.122 -3.3379 -1.7023  0.0364
 6250TIP3    H240310   0.267   1.006   8.265  1.1091 -0.5391 -0.5484
 6251TIP3   OH240311   5.721   0.540   7.143  0.1555 -0.1671 -0.0978
 6251TIP3    H140312   5.651   0.527   7.078  1.0438  0.5000 -1.2407
 6251TIP3    H240313   5.731   0.454   7.184  0.6346 -1.0998 -1.9986
 6252TIP3   OH240314   4.440   3.230   2.631  0.2801  0.0637 -0.2060
 6252TIP3    H140315   4.414   3.142   2.605  1.1970 -0.4574  0.5981
 6252TIP3    H240316   4.524   3.245   2.588  0.6439  0.1207  0.5072
 6253TIP3   OH240317   3.969   3.167   8.605  0.1861  0.0287  0.1781
 6253TIP3    H140318   4.063   3.163   8.588 -0.0798 -1.8116 -1.1355
 6253TIP3    H240319   3.958   3.124   8.690  0.3554 -1.9164 -0.7271
 6254TIP3   OH240320   4.842   4.790   0.555  0.3525 -0.0361 -0.5376
 6254TIP3    H140321   4.801   4.741   0.626 -0.2572 -1.8708 -2.0597
 6254TIP3    H240322   4.922   4.740   0.535  0.7204  0.6764 -0.8812
 6255TIP3   OH240323   5.739   1.184   2.431 -0.4099 -0.3145 -0.8206
 6255TIP3    H140324   5.684   1.195   2.509 -0.5047  0.4216 -0.9808
 6255TIP3    H240325   5.738   1.090   2.414  0.3216 -0.6047  0.5724
 6256TIP3   OH240326   3.909   0.825   2.771  0.1852 -0.4312  0.3449
 6256TIP3    H140327   3.922   0.770   2.694 -0.6899 -0.2791  0.0730
 6256TIP3    H240328   3.814   0.828   2.782  0.2676  0.1933  0.9659
 6257TIP3   OH240329   0.493   5.926   0.881  0.4545  0.0735 -0.1802
 6257TIP3    H140330   0.490   5.901   0.973  0.1813  0.0128 -0.2054
 6257TIP3    H240331   0.424   5.874   0.840 -0.0409  0.7862 -0.2599
 6258TIP3   OH240332   3.880   4.922   1.821 -0.0870  0.3773 -0.1581
 6258TIP3    H140333   3.884   5.017   1.833 -1.3092  0.3137  1.0646
 6258TIP3    H240334   3.809   4.894   1.879 -2.0130 -0.9041 -2.9262
 6259TIP3   OH240335   5.032   6.464   1.528 -0.6307  0.7266 -0.4517
 6259TIP3    H140336   5.115   6.456   1.481  0.2669 -1.9295  1.3193
 6259TIP3    H240337   5.052   6.524   1.600 -0.3445  0.4128 -0.2643
 6260TIP3   OH240338   1.041   2.669   0.082  0.0618 -0.4581  0.4186
 6260TIP3    H140339   0.947   2.663   0.064  0.3865 -2.2558 -0.9847
 6260TIP3    H240340   1.077   2.712   0.004  0.6908 -2.1824 -0.2864
 6261TIP3   OH240341   1.823   0.750   2.274  0.0864  0.2227 -0.1957
 6261TIP3    H140342   1.914   0.731   2.298  0.4353  1.0329 -0.8217
 6261TIP3    H240343   1.776   0.751   2.357  0.5186 -0.8503  0.0819
 6262TIP3   OH240344   2.193   4.771   8.255  0.9170 -0.6487  0.2059
 6262TIP3    H140345   2.229   4.763   8.344  0.4996 -1.8496  0.2759
 6262TIP3    H240346   2.120   4.709   8.253  0.1740  0.2307 -0.6131
 6263TIP3   OH240347   3.536   2.071   8.788  0.3373 -0.1510 -0.2351
 6263TIP3    H140348   3.618   2.121   8.796 -0.1833  0.6148  0.5052
 6263TIP3    H240349   3.505   2.063   8.878 -0.1890 -0.8092 -0.4723
 6264TIP3   OH240350   6.262   4.035   8.295  0.0258 -0.1291  0.4062
 6264TIP3    H140351   6.320   4.103   8.261 -0.7976 -0.0475 -0.8989
 6264TIP3    H240352   6.267   3.964   8.231  0.1959 -0.9427  1.3041
 6265TIP3   OH240353   3.662   1.681   1.005  0.2031  0.3127  0.8375
 6265TIP3    H140354   3.601   1.628   0.953 -0.4060  1.4190  0.3893
 6265TIP3    H240355   3.620   1.686   1.092  1.0207 -1.1909  1.3654
 6266TIP3   OH240356   4.550   0.795   2.126  0.4274  0.5136  1.0458
 6266TIP3    H140357   4.585   0.794   2.215  0.6111 -0.3289  0.9712
 6266TIP3    H240358   4.624   0.820   2.071  0.2910  1.1247  1.1291
 6267TIP3   OH240359   2.823   5.444   1.075  0.2163 -0.3591  0.7129
 6267TIP3    H140360   2.889   5.376   1.086  0.4207 -0.2213  0.3430
 6267TIP3    H240361   2.850   5.491   0.997 -0.6653 -0.7000  0.1873
 6268TIP3   OH240362   4.322   6.317   0.224 -0.1068 -0.4741  0.2001
 6268TIP3    H140363   4.321   6.368   0.143  1.0999  0.0151  0.4756
 6268TIP3    H240364   4.255   6.358   0.279  1.9612  1.9585  1.0709
 6269TIP3   OH240365   6.132   4.944   0.239 -0.0863 -0.5425 -0.1065
 6269TIP3    H140366   6.122   4.872   0.302 -0.0749  2.0133  3.0380
 6269TIP3    H240367   6.207   4.994   0.270 -1.2285  1.9136 -1.0021
 6270TIP3   OH240368   4.920   3.730   2.997 -0.3618 -0.6106  0.0565
 6270TIP3    H140369   4.904   3.639   3.024 -1.4724 -0.7441 -0.9649
 6270TIP3    H240370   5.000   3.725   2.943 -2.0800 -1.5780 -2.6199
 6271TIP3   OH240371   2.345   3.172   8.934 -0.5248  0.3920 -0.1177
 6271TIP3    H140372   2.264   3.163   8.984 -0.7499  0.5118 -0.4547
 6271TIP3    H240373   2.375   3.261   8.955 -0.3158  0.2368  0.2471
 6272TIP3   OH240374   0.153   3.276   1.930 -0.0587  0.3695  0.3176
 6272TIP3    H140375   0.148   3.356   1.983  0.4510  0.1476  0.7218
 6272TIP3    H240376   0.067   3.267   1.890  0.1587  1.6219 -0.4764
 6273TIP3   OH240377   4.265   2.587   8.406 -0.1526  0.0772  0.1748
 6273TIP3    H140378   4.277   2.642   8.329 -1.5442  1.3966  0.8633
 6273TIP3    H240379   4.232   2.646   8.474 -2.4028 -1.6809  0.7463
 6274TIP3   OH240380   0.164   0.594   8.863 -0.3986  0.1344  0.9063
 6274TIP3    H140381   0.249   0.549   8.867 -0.1686  0.4752  0.0520
 6274TIP3    H240382   0.136   0.600   8.954  0.6359  0.2708  1.2289
 6275TIP3   OH240383   2.605   0.983   1.829 -0.1609  0.1865  0.3526
 6275TIP3    H140384   2.607   1.076   1.853  1.1841  0.6806 -1.4276
 6275TIP3    H240385   2.532   0.976   1.767  0.7439  0.4283 -0.7651
 6276TIP3   OH240386   4.423   1.701   3.181  0.2850  0.3553  0.6888
 6276TIP3    H140387   4.451   1.674   3.268  1.4175 -1.1707 -0.0814
 6276TIP3    H240388   4.468   1.640   3.122  0.9040  2.3901 -1.0772
 6277TIP3   OH240389   4.768   2.809   2.562 -0.3966 -0.2590  0.2768
 6277TIP3    H140390   4.779   2.791   2.655 -0.9814  0.1935  0.4390
 6277TIP3    H240391   4.831   2.752   2.519  0.6373  0.2971  1.0059
 6278TIP3   OH240392   1.723   4.541   7.484  0.1488 -0.2985 -0.4074
 6278TIP3    H140393   1.672   4.461   7.490  0.2918 -0.3498  0.2895
 6278TIP3    H240394   1.736   4.556   7.391 -0.9699 -0.3843 -0.5827
 6279TIP3   OH240395   2.507   3.236   0.495 -0.4684  0.0045 -0.5832
 6279TIP3    H140396   2.526   3.168   0.431  0.1182 -0.1455 -0.2556
 6279TIP3    H240397   2.482   3.189   0.575  1.8298  0.0785  0.2588
 6280TIP3   OH240398   5.138   2.774   8.511  0.0965 -0.1415 -0.2531
 6280TIP3    H140399   5.155   2.784   8.418  1.2890  0.1498 -0.0104
 6280TIP3    H240400   5.080   2.847   8.533 -0.0379 -0.1056 -0.7193
 6281TIP3   OH240401   5.991   2.897   1.957 -0.0089 -0.1813 -0.1676
 6281TIP3    H140402   5.943   2.976   1.980 -0.1215  0.0485 -1.1351
 6281TIP3    H240403   5.924   2.833   1.933  0.1274 -0.1187 -0.7346
 6282TIP3   OH240404   0.374   3.322   0.542 -0.1039  0.8952  0.1529
 6282TIP3    H140405   0.387   3.269   0.621 -0.3847 -0.7268 -0.8473
 6282TIP3    H240406   0.284   3.305   0.517  0.1968  0.8285 -0.9102
 6283TIP3   OH240407   2.505   1.984   8.279  0.0191 -0.1223  0.2206
 6283TIP3    H140408   2.418   1.968   8.242 -0.4163 -0.5762  1.3912
 6283TIP3    H240409   2.488   2.027   8.363  0.9262 -0.2183  0.4668
 6284TIP3   OH240410   0.350   5.970   0.523 -0.2052  0.4194  0.1165
 6284TIP3    H140411   0.289   5.938   0.590  0.3263 -0.3038  0.2622
 6284TIP3    H240412   0.401   5.893   0.498 -0.8825  0.4976 -1.6659
 6285TIP3   OH240413   1.840   4.183   2.120 -0.1471  0.2124  0.1113
 6285TIP3    H140414   1.849   4.227   2.204 -1.6385 -0.2176  0.5303
 6285TIP3    H240415   1.805   4.097   2.142  0.4647 -0.3160 -0.8798
 6286TIP3   OH240416   4.767   0.707   1.453  0.1339 -0.0822 -0.2293
 6286TIP3    H140417   4.678   0.741   1.456  0.9378  2.4247 -1.8133
 6286TIP3    H240418   4.819   0.768   1.506  1.5336  1.0295 -2.6937
 6287TIP3   OH240419   0.359   5.921   2.484 -0.4497  0.2754 -0.2020
 6287TIP3    H140420   0.406   5.859   2.428 -0.6209 -0.4815  0.4684
 6287TIP3    H240421   0.346   5.874   2.566  0.6948  1.7050  0.8584
 6288TIP3   OH240422   1.899   4.041   0.858 -0.0013 -0.3295 -0.2900
 6288TIP3    H140423   1.846   4.087   0.923  0.6581  0.6110 -0.4075
 6288TIP3    H240424   1.871   4.077   0.774 -0.8678 -1.5559 -0.5583
 6289TIP3   OH240425   4.428   2.472   0.284 -0.4834 -0.7734 -1.0919
 6289TIP3    H140426   4.367   2.433   0.347  0.5103  0.4589  0.7371
 6289TIP3    H240427   4.374   2.531   0.232 -1.3865 -2.0360 -1.6452
 6290TIP3   OH240428   0.790   6.004   2.076 -0.2713 -0.3072  0.5327
 6290TIP3    H140429   0.805   5.930   2.134  0.5827  0.1596  0.9247
 6290TIP3    H240430   0.864   6.002   2.015 -0.3316  0.1170  0.4403
 6291TIP3   OH240431   5.125   3.640   1.692  0.0104 -0.3398 -0.5435
 6291TIP3    H140432   5.053   3.652   1.754 -1.2956 -2.2947 -1.5846
 6291TIP3    H240433   5.194   3.698   1.724 -0.7789 -0.9010  2.4505
 6292TIP3   OH240434   0.210   2.815   2.380 -0.4318 -0.1359 -0.3456
 6292TIP3    H140435   0.187   2.838   2.470 -1.4028 -0.4009 -0.5086
 6292TIP3    H240436   0.127   2.821   2.332  0.0337 -0.1838 -1.1834
 6293TIP3   OH240437   3.255   2.917   2.424 -0.5292  0.4700  0.6809
 6293TIP3    H140438   3.230   2.855   2.493 -3.3117 -0.6112 -1.1345
 6293TIP3    H240439   3.192   2.988   2.432 -2.8812 -1.0476 -2.3889
 6294TIP3   OH240440   1.507   0.140   2.499 -0.6649  0.0002 -0.0585
 6294TIP3    H140441   1.529   0.058   2.545  0.3706  0.0011 -0.5216
 6294TIP3    H240442   1.420   0.124   2.463  0.4304 -1.8242 -2.1100
 6295TIP3   OH240443   4.178   4.872   2.217 -0.4126 -0.6349  0.3153
 6295TIP3    H140444   4.089   4.887   2.249 -0.6530 -1.3908  0.0281
 6295TIP3    H240445   4.197   4.947   2.162 -0.9861 -0.6066  0.1541
 6296TIP3   OH240446   4.289   1.583   8.811  0.0399  0.0340 -0.2730
 6296TIP3    H140447   4.320   1.494   8.796  0.0830 -0.0453  0.2770
 6296TIP3    H240448   4.250   1.610   8.727  1.9796  0.2999 -1.1436
 6297TIP3   OH240449   3.627   2.048   1.589 -0.0172  0.2167 -0.2210
 6297TIP3    H140450   3.657   2.000   1.511 -1.2231 -2.4198  0.8084
 6297TIP3    H240451   3.540   2.079   1.566 -1.0373 -1.9030  0.4629
 6298TIP3   OH240452   3.531   4.840   8.808 -0.7850  0.2704 -0.0460
 6298TIP3    H140453   3.555   4.803   8.722 -1.4410 -0.5585  0.1165
 6298TIP3    H240454   3.436   4.836   8.810 -0.9994  3.0589 -0.4643
 6299TIP3   OH240455   6.605   4.263   7.992  0.6711 -0.4042  0.0554
 6299TIP3    H140456   6.576   4.299   7.908  0.0470  0.9584  0.8219
 6299TIP3    H240457   6.685   4.215   7.971 -0.9078 -2.4819 -1.7788
 6300TIP3   OH240458   5.258   5.697   1.316 -0.2940 -0.3656  0.1973
 6300TIP3    H140459   5.336   5.731   1.359  0.7822 -0.6074 -1.4490
 6300TIP3    H240460   5.206   5.659   1.386  1.6455 -1.2685  1.2207
 6301TIP3   OH240461   4.239   0.717   7.611  0.3069 -0.1851 -0.0906
 6301TIP3    H140462   4.190   0.644   7.574 -0.4965  0.1006  0.3888
 6301TIP3    H240463   4.237   0.784   7.542  0.3805 -0.3213 -0.2273
 6302TIP3   OH240464   5.195   2.105   8.039 -0.0390 -0.5614 -0.2949
 6302TIP3    H140465   5.120   2.112   7.981 -0.7216 -2.4396  0.2977
 6302TIP3    H240466   5.182   2.023   8.086  2.4826 -1.0546 -0.3039
 6303TIP3   OH240467   6.143   0.098   8.932 -0.3688  0.2111 -0.4544
 6303TIP3    H140468   6.184   0.177   8.968 -0.1477 -0.0705 -0.0847
 6303TIP3    H240469   6.053   0.102   8.964  0.0252 -0.4302  0.7961
 6304TIP3   OH240470   1.738   0.603   8.449 -0.3213 -0.4578 -0.0999
 6304TIP3    H140471   1.751   0.678   8.507 -0.1674  0.1386 -0.8876
 6304TIP3    H240472   1.690   0.539   8.502  1.1829 -0.5806  1.1930
 6305TIP3   OH240473   6.543   2.084   1.858 -0.5626 -0.4068  0.3642
 6305TIP3    H140474   6.629   2.098   1.897 -0.1289 -0.0538 -0.6618
 6305TIP3    H240475   6.490   2.156   1.892  0.0181  0.3424 -0.2458
 6306TIP3   OH240476   3.981   5.367   8.911  0.5046 -0.0364 -0.3033
 6306TIP3    H140477   3.920   5.435   8.937  2.0519  0.3030  2.9382
 6306TIP3    H240478   4.055   5.414   8.874  0.5446 -0.1198 -0.3304
 6307TIP3   OH240479   4.029   1.497   7.683 -0.1616 -0.8373 -0.1424
 6307TIP3    H140480   4.072   1.544   7.755 -1.5556  1.0834 -0.4776
 6307TIP3    H240481   4.095   1.495   7.614 -0.2795  1.4946 -0.4190
 6308TIP3   OH240482   5.250   3.175   7.235 -0.4246 -0.9386  0.2458
 6308TIP3    H140483   5.319   3.163   7.170  1.5265 -0.0969  2.0489
 6308TIP3    H240484   5.228   3.086   7.264 -0.9551 -1.2848 -1.1372
 6309TIP3   OH240485   1.171   1.934   8.008  0.0949 -0.6382  0.3683
 6309TIP3    H140486   1.101   1.871   8.029 -0.7666  0.6599  1.6076
 6309TIP3    H240487   1.248   1.880   7.990 -1.1688 -2.1118 -0.9002
 6310TIP3   OH240488   3.304   2.349   1.859  0.4042  0.1607 -0.0417
 6310TIP3    H140489   3.264   2.332   1.774  0.3510  0.3873 -0.0629
 6310TIP3    H240490   3.233   2.382   1.914  0.5802  0.6683 -0.1129
 6311TIP3   OH240491   6.649   1.699   2.072  0.5892 -0.1036 -0.6304
 6311TIP3    H140492   6.669   1.639   2.144  1.5029  0.6188 -0.2713
 6311TIP3    H240493   6.733   1.740   2.051 -0.0099  1.0063 -0.9064
 6312TIP3   OH240494   5.470   3.373   0.522 -0.3929 -0.3765 -0.1415
 6312TIP3    H140495   5.496   3.333   0.605  1.6109 -0.4811 -0.7490
 6312TIP3    H240496   5.442   3.461   0.545  0.1019 -0.4232  0.6513
 6313TIP3   OH240497   1.156   5.050   2.520  0.1523 -0.5057  0.5558
 6313TIP3    H140498   1.243   5.035   2.556  0.6438 -0.6095 -0.6258
 6313TIP3    H240499   1.146   4.983   2.452  0.1761  1.0719 -1.0503
 6314TIP3   OH240500   2.199   5.261   1.611 -0.4862  0.4835  0.2764
 6314TIP3    H140501   2.252   5.238   1.534 -0.9984 -1.0964  0.3437
 6314TIP3    H240502   2.119   5.298   1.575 -0.1602  1.0427  0.1103
 6315TIP3   OH240503   3.883   4.856   1.375  0.0353  0.1581  0.1829
 6315TIP3    H140504   3.908   4.894   1.460  0.0524  0.5053  0.0221
 6315TIP3    H240505   3.945   4.784   1.363  0.7029  0.7587 -0.0177
 6316TIP3   OH240506   2.638   6.699   0.800  0.0107  0.1481 -0.0283
 6316TIP3    H140507   2.605   6.656   0.879 -0.0370  0.4799  0.1341
 6316TIP3    H240508   2.561   6.745   0.764  0.3047  1.0029  0.4023
 6317TIP3   OH240509   3.372   3.295   2.457 -0.0242 -0.1879  0.3193
 6317TIP3    H140510   3.404   3.383   2.477  2.9181 -1.1064  0.1769
 6317TIP3    H240511   3.391   3.283   2.364  2.2239 -1.8683  0.9110
 6318TIP3   OH240512   3.006   3.766   0.998  0.0681  0.5875 -0.2135
 6318TIP3    H140513   3.057   3.819   1.059  1.4414 -0.8147 -0.0944
 6318TIP3    H240514   3.047   3.782   0.913 -0.5881  0.9972 -0.4645
 6319TIP3   OH240515   0.403   3.544   8.894 -0.3094  0.1073 -0.0022
 6319TIP3    H140516   0.482   3.597   8.899 -0.8042  0.7516  1.9892
 6319TIP3    H240517   0.432   3.455   8.912 -0.0605  0.3884  1.0358
 6320TIP3   OH240518   4.395   5.098   2.424  0.6099 -0.2672  0.5958
 6320TIP3    H140519   4.327   5.061   2.481  0.0202 -0.2828 -0.0921
 6320TIP3    H240520   4.473   5.100   2.478  0.7500 -2.7782  0.6212
 6321TIP3   OH240521   5.774   0.606   0.405  0.1654  0.2877 -0.5243
 6321TIP3    H140522   5.868   0.588   0.412  0.4113  0.6964 -2.2251
 6321TIP3    H240523   5.762   0.632   0.313 -1.6218  0.1964 -0.3452
 6322TIP3   OH240524   2.509   4.637   1.716 -0.4313  0.5542  0.2163
 6322TIP3    H140525   2.517   4.620   1.810 -2.1104 -0.7023  0.1910
 6322TIP3    H240526   2.573   4.579   1.676  0.7876  1.6069  0.5939
 6323TIP3   OH240527   0.350   2.204   2.316 -0.6912 -0.2033  0.1189
 6323TIP3    H140528   0.317   2.264   2.382 -0.3167  1.4045 -1.0794
 6323TIP3    H240529   0.444   2.200   2.332 -0.5989  0.1915 -0.2765
 6324TIP3   OH240530   1.763   5.354   0.208 -0.5380 -0.4871  0.5167
 6324TIP3    H140531   1.777   5.273   0.255  1.5391  0.1446  1.0737
 6324TIP3    H240532   1.802   5.422   0.263 -1.1839  0.7405 -0.4715
 6325TIP3   OH240533   3.581   0.567   8.745  0.7459  0.0357 -0.3163
 6325TIP3    H140534   3.577   0.538   8.654  0.2129  0.0829 -0.3064
 6325TIP3    H240535   3.623   0.653   8.740 -1.0904  0.9429 -0.7329
 6326TIP3   OH240536   4.337   1.364   2.363 -0.0337  0.2707  0.1479
 6326TIP3    H140537   4.421   1.370   2.407 -0.1754  2.4256  0.2095
 6326TIP3    H240538   4.358   1.337   2.274  0.4725 -1.4906  0.7535
 6327TIP3   OH240539   5.757   5.738   8.870 -0.1119  0.1847  0.6933
 6327TIP3    H140540   5.851   5.751   8.859  0.2186 -1.1975  1.5668
 6327TIP3    H240541   5.728   5.697   8.789 -0.1264  1.2672  0.1304
 6328TIP3   OH240542   0.404   6.664   8.971  0.4025  0.0003 -0.3452
 6328TIP3    H140543   0.494   6.633   8.986  0.1212 -1.8097 -1.9528
 6328TIP3    H240544   0.361   6.655   9.056  1.8001  1.2844  0.5586
 6329TIP3   OH240545   5.446   4.774   8.539  0.4859 -0.1667  0.2061
 6329TIP3    H140546   5.401   4.713   8.597  0.0254 -0.4081 -0.3903
 6329TIP3    H240547   5.404   4.859   8.557 -0.0245 -0.3368 -0.1397
 6330TIP3   OH240548   5.898   1.150   1.907  0.2692  0.5702  0.5102
 6330TIP3    H140549   5.836   1.216   1.875  0.1012 -0.4713 -1.5046
 6330TIP3    H240550   5.984   1.185   1.885  0.2096  0.4464  0.0644
 6331TIP3   OH240551   4.935   5.619   7.541 -0.0319  0.1745 -0.3654
 6331TIP3    H140552   4.897   5.566   7.471  0.5462 -0.4378 -0.2226
 6331TIP3    H240553   4.934   5.709   7.506  0.4748 -0.1560 -1.2567
 6332TIP3   OH240554   5.540   1.040   2.099 -0.1954 -0.0882 -0.3059
 6332TIP3    H140555   5.542   1.071   2.008 -0.7424 -2.3803 -1.1807
 6332TIP3    H240556   5.456   1.070   2.132  0.5504  1.8897 -0.0685
 6333TIP3   OH240557   4.010   3.668   2.301  0.0530  0.5057  0.8133
 6333TIP3    H140558   3.923   3.643   2.268 -0.9409 -0.3592  3.7869
 6333TIP3    H240559   4.049   3.586   2.330  1.1465  1.1290  1.1413
 6334TIP3   OH240560   5.881   1.487   1.364  0.5023 -0.9383  0.3929
 6334TIP3    H140561   5.789   1.504   1.382  0.6088 -1.1165  1.1166
 6334TIP3    H240562   5.916   1.573   1.337  0.0821 -0.9208 -0.1218
 6335TIP3   OH240563   3.605   4.189   1.345  0.0902  0.2304 -0.5717
 6335TIP3    H140564   3.615   4.153   1.433 -1.3590 -1.9984 -1.2604
 6335TIP3    H240565   3.662   4.267   1.345  2.6571 -1.4828  1.3018
 6336TIP3   OH240566   1.224   6.172   2.006 -0.0554 -0.2104 -0.1160
 6336TIP3    H140567   1.171   6.098   2.036 -0.4738  0.4529  0.8275
 6336TIP3    H240568   1.178   6.249   2.040  1.1859  0.4120  0.1967
 6337TIP3   OH240569   5.322   0.359   2.859 -0.1217 -0.5396  0.5547
 6337TIP3    H140570   5.309   0.268   2.831  0.8246 -0.6138  0.3085
 6337TIP3    H240571   5.416   0.373   2.849  0.0507 -0.1446  2.4415
 6338TIP3   OH240572   6.103   6.703   0.416  0.5947 -0.0247 -0.2924
 6338TIP3    H140573   6.022   6.688   0.463  1.0595 -1.7311  0.0178
 6338TIP3    H240574   6.083   6.681   0.325  1.1454 -2.2232  0.0804
 6339TIP3   OH240575   0.934   2.508   1.560 -0.0920  0.2887 -0.2223
 6339TIP3    H140576   1.011   2.521   1.616  0.4708  1.1280 -1.1632
 6339TIP3    H240577   0.861   2.497   1.621  0.8089 -0.8861  0.7044
 6340TIP3   OH240578   2.614   3.364   8.447  0.0550 -0.7060 -0.2906
 6340TIP3    H140579   2.619   3.337   8.538  0.3444  0.5456  0.0818
 6340TIP3    H240580   2.520   3.358   8.426 -0.2319  0.4204  0.5572
 6341TIP3   OH240581   5.272   1.931   0.783 -0.2907 -0.4089  0.1577
 6341TIP3    H140582   5.283   1.856   0.724 -1.7637 -0.6945  0.1919
 6341TIP3    H240583   5.320   2.002   0.741 -0.3468 -0.9132 -0.7985
 6342TIP3   OH240584   1.074   0.595   0.039 -0.0688 -0.0373 -0.5898
 6342TIP3    H140585   1.121   0.617  -0.042 -4.0681  1.6782 -2.7365
 6342TIP3    H240586   1.029   0.513   0.019 -0.5064  0.0166  0.1513
 6343TIP3   OH240587   5.091   1.261   2.085  0.1315 -0.0964  0.0982
 6343TIP3    H140588   5.103   1.346   2.042 -1.2019 -0.1885 -0.5047
 6343TIP3    H240589   5.020   1.275   2.147  1.3158 -0.2539  1.5484
 6344TIP3   OH240590   0.149   6.396   0.493 -0.0629 -0.3778  0.2219
 6344TIP3    H140591   0.075   6.381   0.435 -0.7065  2.0073  0.3403
 6344TIP3    H240592   0.112   6.391   0.581  0.0710  0.0469  0.3040
 6345TIP3   OH240593   3.363   3.446   8.019 -0.0612 -0.3583 -0.0219
 6345TIP3    H140594   3.324   3.413   8.100 -1.1357 -0.0900 -0.4109
 6345TIP3    H240595   3.441   3.393   8.007 -0.4262 -1.0805  0.6648
 6346TIP3   OH240596   4.019   5.973   8.323  0.0394  0.4774 -0.5439
 6346TIP3    H140597   4.018   6.036   8.251 -0.6690  1.5333  0.3636
 6346TIP3    H240598   3.968   6.015   8.392  1.5007 -0.0859  0.9405
 6347TIP3   OH240599   0.678   5.976   2.620  0.1780 -0.1549  0.3746
 6347TIP3    H140600   0.659   5.901   2.564 -1.0182  0.1972  0.2754
 6347TIP3    H240601   0.741   6.028   2.571  1.1282 -1.1394  0.5007
 6348TIP3   OH240602   4.384   6.157   8.948 -0.3302 -0.6608  0.0203
 6348TIP3    H140603   4.311   6.099   8.968 -0.3361 -0.3550  0.9411
 6348TIP3    H240604   4.379   6.225   9.014 -0.2114  0.2986 -0.9330
 6349TIP3   OH240605   6.259   3.900   0.689 -0.1102 -0.4764  0.1391
 6349TIP3    H140606   6.239   3.807   0.699 -0.0625 -0.3777  1.2070
 6349TIP3    H240607   6.249   3.937   0.777 -1.3034  0.7669 -0.4743
 6350TIP3   OH240608   4.235   3.781   2.105  0.4819 -0.2474 -0.1457
 6350TIP3    H140609   4.169   3.718   2.133  0.2423  0.3622  0.6831
 6350TIP3    H240610   4.186   3.846   2.054  1.0409 -1.8470 -2.9447
 6351TIP3   OH240611   4.235   5.176   1.179  0.6526  0.8634  0.3990
 6351TIP3    H140612   4.141   5.168   1.196  0.6758  1.3071  0.7589
 6351TIP3    H240613   4.276   5.135   1.255  0.7829 -1.9087 -1.0136
 6352TIP3   OH240614   6.247   5.983   8.032 -0.2682 -0.5356  0.0485
 6352TIP3    H140615   6.296   6.064   8.016 -1.1721  0.6095  2.4889
 6352TIP3    H240616   6.176   5.985   7.968  0.9127 -0.5211 -1.3110
 6353TIP3   OH240617   2.484   0.255   3.252  0.1002 -0.4204  0.2691
 6353TIP3    H140618   2.552   0.252   3.185  0.2443  1.7110  0.2518
 6353TIP3    H240619   2.407   0.215   3.210  0.7312 -0.9411 -0.4311
 6354TIP3   OH240620   6.287   0.561   0.249 -0.2942  0.1331  0.5960
 6354TIP3    H140621   6.323   0.558   0.160 -2.2560  1.2219 -0.2978
 6354TIP3    H240622   6.360   0.590   0.304  0.4752  1.2752 -0.9645
 6355TIP3   OH240623   3.937   5.584   1.690 -0.6981  0.1381  0.7643
 6355TIP3    H140624   3.937   5.569   1.595 -1.2669  0.1728  0.7575
 6355TIP3    H240625   4.006   5.648   1.704  0.1392 -0.6848  0.5078
 6356TIP3   OH240626   4.976   6.444   0.433  0.0521  0.4910 -0.1998
 6356TIP3    H140627   4.993   6.351   0.444  0.4043  0.4939 -0.6611
 6356TIP3    H240628   5.005   6.484   0.516 -2.4762 -0.0738  1.0307
 6357TIP3   OH240629   0.465   4.203   1.959  0.3752 -0.0113 -0.2123
 6357TIP3    H140630   0.372   4.182   1.969  0.0489  0.9894 -0.9362
 6357TIP3    H240631   0.501   4.131   1.908 -0.0715 -0.2657 -0.1728
 6358TIP3   OH240632   4.001   0.794   2.095 -0.0343  0.7463  0.2662
 6358TIP3    H140633   4.015   0.857   2.165 -2.6329  1.4581  0.2310
 6358TIP3    H240634   3.927   0.742   2.124  1.5361 -1.8696 -0.0694
 6359TIP3   OH240635   0.645   2.032   8.026  0.5796 -0.1178 -0.0170
 6359TIP3    H140636   0.588   2.107   8.044 -0.0784 -0.5611 -0.2104
 6359TIP3    H240637   0.596   1.956   8.058  0.2548 -0.7070 -1.8029
 6360TIP3   OH240638   2.528   0.014   2.282 -0.1607 -0.0853 -0.1886
 6360TIP3    H140639   2.577   0.006   2.200  1.1503 -0.0485  0.5603
 6360TIP3    H240640   2.581   0.074   2.335 -0.3296 -1.0779  1.1472
 6361TIP3   OH240641   0.398   0.604   2.135  0.3649 -0.3282 -0.3725
 6361TIP3    H140642   0.380   0.511   2.152  0.7612 -0.4375 -0.5183
 6361TIP3    H240643   0.337   0.651   2.191 -2.0045 -0.6426 -2.5537
 6362TIP3   OH240644   4.274   4.844   0.873 -0.0497  0.1612 -0.4719
 6362TIP3    H140645   4.258   4.751   0.856  0.5916  0.1780 -1.2289
 6362TIP3    H240646   4.341   4.869   0.810  0.7172  0.8228  0.5582
 6363TIP3   OH240647   2.606   1.533   8.840 -0.0490 -0.2165  0.3995
 6363TIP3    H140648   2.548   1.577   8.778 -0.8551  0.9242  1.8821
 6363TIP3    H240649   2.680   1.593   8.851  1.0862 -1.3132 -0.8942
 6364TIP3   OH240650   1.458   6.254   7.551  0.4685  0.0801  0.5598
 6364TIP3    H140651   1.392   6.281   7.488 -1.0698 -0.2707  1.9693
 6364TIP3    H240652   1.451   6.159   7.556  3.4334 -0.4307 -1.7216
 6365TIP3   OH240653   2.350   2.479   8.169 -0.5237  0.0279  0.6691
 6365TIP3    H140654   2.258   2.486   8.144 -0.4729 -0.6657  0.2373
 6365TIP3    H240655   2.374   2.389   8.146  0.0915  0.0055  1.3647
 6366TIP3   OH240656   6.255   0.324   0.049  0.2669 -0.4530 -0.1479
 6366TIP3    H140657   6.193   0.393   0.026  0.4867  0.8146  2.6503
 6366TIP3    H240658   6.337   0.351   0.010  0.6979  1.7559  2.0199
 6367TIP3   OH240659   4.636   5.710   2.786  0.1000 -0.0950  0.7233
 6367TIP3    H140660   4.591   5.778   2.738  1.3234  0.2967  0.0897
 6367TIP3    H240661   4.567   5.649   2.812 -0.7614  0.4079 -0.3221
 6368TIP3   OH240662   4.655   6.227   2.055 -0.2402 -0.4461 -0.0082
 6368TIP3    H140663   4.728   6.233   2.116  0.1447  0.2992 -0.5234
 6368TIP3    H240664   4.604   6.307   2.069 -0.5810 -0.6387 -0.1215
 6369TIP3   OH240665   1.917   4.947   1.412 -0.1183 -0.7112 -0.3744
 6369TIP3    H140666   1.905   4.966   1.320  0.9278 -1.0324 -0.5857
 6369TIP3    H240667   1.828   4.942   1.447 -0.5755 -1.7834 -1.6098
 6370TIP3   OH240668   1.884   2.970   0.403 -0.1212  0.6223 -0.0355
 6370TIP3    H140669   1.923   3.057   0.400  0.4695  0.3925  0.5604
 6370TIP3    H240670   1.792   2.984   0.381 -0.1290  1.4600  0.4771
 6371TIP3   OH240671   4.133   6.139   8.653  0.0611 -0.2855  0.1352
 6371TIP3    H140672   4.212   6.095   8.621 -0.1775 -0.4357 -0.2690
 6371TIP3    H240673   4.118   6.101   8.740 -0.0893 -0.9543 -0.1690
 6372TIP3   OH240674   4.314   3.558   8.782  0.7449 -0.0009 -0.1884
 6372TIP3    H140675   4.311   3.525   8.872 -0.4759  0.3305 -0.0898
 6372TIP3    H240676   4.361   3.641   8.789  0.4838  0.1188  0.1813
 6373TIP3   OH240677   1.520   4.137   3.374 -0.9152 -0.0251 -0.0724
 6373TIP3    H140678   1.475   4.152   3.457 -0.2648  2.4272 -0.0953
 6373TIP3    H240679   1.453   4.101   3.316 -1.4377 -1.5382  1.3960
 6374TIP3   OH240680   5.320   3.371   8.213  0.5925  0.1913 -0.0625
 6374TIP3    H140681   5.411   3.400   8.205  0.6117  0.5027  1.0870
 6374TIP3    H240682   5.327   3.277   8.232  0.6699  0.1594 -0.2525
 6375TIP3   OH240683   4.014   5.150   8.287  0.2262 -0.3853  0.1098
 6375TIP3    H140684   4.110   5.142   8.281  0.4615  0.2558  2.3369
 6375TIP3    H240685   3.984   5.063   8.314  0.4921  0.0695  2.0076
 6376TIP3   OH240686   3.878   3.099   3.204  0.5782 -0.1163 -0.0127
 6376TIP3    H140687   3.861   3.157   3.278  2.5230  0.1134  0.3219
 6376TIP3    H240688   3.828   3.020   3.222 -0.9316  0.8825  0.2765
 6377TIP3   OH240689   1.053   6.131   0.846  0.4375 -0.4508 -0.0926
 6377TIP3    H140690   1.127   6.192   0.846  0.9729 -1.0824 -0.5002
 6377TIP3    H240691   1.038   6.111   0.939  1.3430 -0.9694 -0.0407
 6378TIP3   OH240692   1.348   3.946   1.866  0.0190 -0.1508  0.7020
 6378TIP3    H140693   1.362   3.928   1.959  0.6526 -0.0701  0.6235
 6378TIP3    H240694   1.419   3.899   1.822 -0.0310  0.1602  0.2894
 6379TIP3   OH240695   0.465   6.588   1.540  0.5224  0.4597 -0.2266
 6379TIP3    H140696   0.422   6.663   1.499  0.7414  1.0059  0.5162
 6379TIP3    H240697   0.558   6.599   1.519  0.6010  0.5955  0.1969
 6380TIP3   OH240698   2.826   3.221   2.089 -0.2955  0.4318  0.2215
 6380TIP3    H140699   2.897   3.172   2.131  1.7846  0.7400 -2.6054
 6380TIP3    H240700   2.753   3.160   2.087  0.4189 -0.5380  1.7272
 6381TIP3   OH240701   4.100   0.345   0.400  0.3266  0.2612 -0.3970
 6381TIP3    H140702   4.124   0.257   0.430 -0.5696  0.4008  0.7814
 6381TIP3    H240703   4.185   0.388   0.386  0.7760 -0.6430 -0.5494
 6382TIP3   OH240704   5.856   3.382   8.816 -0.2621 -0.7111 -0.4496
 6382TIP3    H140705   5.938   3.337   8.839 -0.7209 -0.2447  2.5978
 6382TIP3    H240706   5.787   3.322   8.845 -0.9192  0.2956  0.1231
 6383TIP3   OH240707   5.495   1.786   1.252 -0.4695 -0.2786  0.1868
 6383TIP3    H140708   5.512   1.873   1.288 -2.8531 -0.2726  1.5378
 6383TIP3    H240709   5.522   1.792   1.161  3.6727  0.4441  1.2507
 6384TIP3   OH240710   6.288   2.505   8.718 -0.4330  0.1809 -0.7752
 6384TIP3    H140711   6.200   2.475   8.741 -0.1465  0.1754  0.3808
 6384TIP3    H240712   6.275   2.563   8.643 -1.5346  0.9090 -0.0419
 6385TIP3   OH240713   0.360   0.101   1.885  0.2016 -0.2622  0.1300
 6385TIP3    H140714   0.379   0.187   1.923 -0.4379 -0.3410  0.6370
 6385TIP3    H240715   0.318   0.052   1.955 -1.0576 -0.3993 -0.6962
 6386TIP3   OH240716   3.589   0.689   1.489 -0.0730  0.0718  0.1469
 6386TIP3    H140717   3.592   0.763   1.550 -0.8304  0.0547  0.2163
 6386TIP3    H240718   3.675   0.648   1.497 -0.7625 -1.0619  2.6229
 6387TIP3   OH240719   1.998   6.681   2.505 -0.1841 -0.3788 -0.1697
 6387TIP3    H140720   1.956   6.764   2.528  1.0880  0.5813 -1.1420
 6387TIP3    H240721   2.090   6.704   2.490 -0.3314 -1.3868 -3.3893
 6388TIP3   OH240722   1.983   2.017   0.065  0.1819  0.8542 -0.1182
 6388TIP3    H140723   1.935   2.066  -0.002 -0.1075  1.4659  0.5239
 6388TIP3    H240724   1.976   2.071   0.144 -1.3893 -0.9157  1.0122
 6389TIP3   OH240725   3.122   2.402   8.832  0.4986  0.3082  0.4695
 6389TIP3    H140726   3.100   2.314   8.801  0.2256 -0.3502  2.3961
 6389TIP3    H240727   3.147   2.450   8.753  1.3592 -1.6984 -0.5315
 6390TIP3   OH240728   5.207   1.151   7.634 -0.1893  0.2394  0.5700
 6390TIP3    H140729   5.122   1.193   7.620 -0.2654  0.0475  0.4408
 6390TIP3    H240730   5.203   1.071   7.581  0.3395  0.5784  0.0200
 6391TIP3   OH240731   5.346   4.400   7.413  0.3227 -0.0790  0.5357
 6391TIP3    H140732   5.360   4.307   7.391 -1.4189 -0.5921  1.3844
 6391TIP3    H240733   5.326   4.441   7.329 -2.0736 -1.1725  0.4602
 6392TIP3   OH240734   0.976   1.824   8.541  0.0883  0.0602 -0.1790
 6392TIP3    H140735   1.053   1.836   8.485  0.1085 -0.7015 -0.3218
 6392TIP3    H240736   1.011   1.825   8.630  0.2493 -0.2033 -0.2407
 6393TIP3   OH240737   4.508   0.844   7.656  0.0752 -0.4542 -0.6569
 6393TIP3    H140738   4.423   0.832   7.615 -0.4568  0.8427  0.0078
 6393TIP3    H240739   4.499   0.924   7.708  1.3409 -0.9323  0.3611
 6394TIP3   OH240740   4.953   0.213   7.631  0.2453  0.1445 -0.3623
 6394TIP3    H140741   4.926   0.305   7.636  1.1766  0.3748  2.9818
 6394TIP3    H240742   5.048   0.217   7.622  0.5324 -0.3669  1.8366
 6395TIP3   OH240743   0.281   0.562   1.835 -0.6122  0.5634  0.1344
 6395TIP3    H140744   0.333   0.505   1.892 -0.2242  0.3094 -0.4722
 6395TIP3    H240745   0.256   0.635   1.892  0.5158  0.7574  0.4203
 6396TIP3   OH240746   2.028   0.342   1.298  0.3978  0.1522 -0.5684
 6396TIP3    H140747   2.103   0.398   1.283  0.4175  0.0637 -0.8120
 6396TIP3    H240748   1.952   0.394   1.269  0.0218  1.3652  2.3244
 6397TIP3   OH240749   3.037   2.852   1.154  0.1411 -0.0753  0.5463
 6397TIP3    H140750   2.951   2.892   1.139 -0.0233 -0.7983 -0.6644
 6397TIP3    H240751   3.066   2.887   1.238 -1.4921 -0.0777  1.1527
 6398TIP3   OH240752   5.840   1.487   1.674  1.0870 -0.4651 -0.4245
 6398TIP3    H140753   5.905   1.540   1.721  1.8277 -2.1376  0.5656
 6398TIP3    H240754   5.883   1.465   1.591  0.4366  1.1233 -1.2224
 6399TIP3   OH240755   1.166   2.176   2.589  0.0400 -0.6332  0.0749
 6399TIP3    H140756   1.120   2.098   2.620 -1.6593  0.6427  0.9873
 6399TIP3    H240757   1.246   2.179   2.640 -1.6130  0.1395  2.8596
 6400TIP3   OH240758   0.377   4.651   8.700  0.7049  0.2090  0.0223
 6400TIP3    H140759   0.335   4.628   8.617 -0.0252  0.7697  0.2237
 6400TIP3    H240760   0.430   4.729   8.679  2.5256 -1.0963 -0.4733
 6401TIP3   OH240761   4.809   3.740   0.619  0.0126  0.7518  0.5589
 6401TIP3    H140762   4.715   3.744   0.636  0.0355  1.6246  0.5161
 6401TIP3    H240763   4.825   3.811   0.557  0.9038  1.3938  1.4983
 6402TIP3   OH240764   3.662   5.095   0.442 -0.1006  0.2866  0.2248
 6402TIP3    H140765   3.647   5.049   0.358  0.2284  0.4682  0.0684
 6402TIP3    H240766   3.750   5.131   0.435  0.1500 -0.1825  0.8795
 6403TIP3   OH240767   1.614   0.325   2.850  0.1202  0.1098  1.1836
 6403TIP3    H140768   1.579   0.365   2.770 -0.2034 -0.2436  1.1457
 6403TIP3    H240769   1.567   0.242   2.858  2.3547 -1.3351  0.0616
 6404TIP3   OH240770   5.632   4.154   7.951 -0.0675 -0.2512  0.2627
 6404TIP3    H140771   5.547   4.161   7.995 -0.1082 -1.8325  0.5105
 6404TIP3    H240772   5.665   4.243   7.949 -1.5609  0.3462  0.5062
 6405TIP3   OH240773   4.402   4.979   0.631  0.7404 -0.2417 -0.4072
 6405TIP3    H140774   4.362   5.057   0.591  1.0788  0.9307  1.4072
 6405TIP3    H240775   4.495   4.987   0.611  0.5393 -1.2302 -1.8447
 6406TIP3   OH240776   0.860   4.276   2.426 -0.0161  0.5811  0.1601
 6406TIP3    H140777   0.839   4.274   2.519  0.5633  0.5290  0.2939
 6406TIP3    H240778   0.909   4.196   2.410  0.8404  1.1092  0.0514
 6407TIP3   OH240779   2.246   1.484   1.954  0.5876  0.3838  0.2341
 6407TIP3    H140780   2.274   1.496   1.864 -0.4997  1.4760  0.0098
 6407TIP3    H240781   2.165   1.434   1.948  2.1213 -2.3513  0.8458
 6408TIP3   OH240782   1.954   2.643   2.437 -0.4761  0.1146 -0.6692
 6408TIP3    H140783   1.939   2.575   2.371  2.7176 -3.2704  1.6767
 6408TIP3    H240784   1.881   2.632   2.499 -0.2297 -0.9483 -0.5442
 6409TIP3   OH240785   2.241   0.746   1.429  0.2879  0.0084 -0.0407
 6409TIP3    H140786   2.225   0.687   1.355  1.9106  0.1060 -0.5091
 6409TIP3    H240787   2.262   0.687   1.502  0.9391 -0.0342 -0.2561
 6410TIP3   OH240788   6.175   3.111   0.756  0.0557 -0.1383 -0.4029
 6410TIP3    H140789   6.187   3.196   0.713  1.1211  1.0633  2.0890
 6410TIP3    H240790   6.080   3.100   0.760 -0.1389  1.3496 -0.0910
 6411TIP3   OH240791   3.249   4.418   2.596  0.5200 -0.7761 -0.3300
 6411TIP3    H140792   3.340   4.439   2.620  0.5947 -0.8217 -0.5687
 6411TIP3    H240793   3.246   4.322   2.601 -0.3259 -0.6674  2.5958
 6412TIP3   OH240794   2.067   3.580   0.787  0.2017  0.2295  0.1235
 6412TIP3    H140795   2.094   3.671   0.773  1.6270 -0.0110  1.0848
 6412TIP3    H240796   2.005   3.563   0.717  0.2390  1.8042 -0.3434
 6413TIP3   OH240797   2.406   2.855   1.050  0.1953 -0.7830 -0.2470
 6413TIP3    H140798   2.383   2.861   1.142 -0.3146 -2.6008 -0.2161
 6413TIP3    H240799   2.345   2.914   1.006 -0.3807 -0.8324  0.4686
 6414TIP3   OH240800   2.601   4.816   0.661  0.2571 -1.0850  0.2133
 6414TIP3    H140801   2.576   4.794   0.751 -0.2371 -0.1440  0.3104
 6414TIP3    H240802   2.528   4.868   0.627  1.4707  0.5585  0.0459
 6415TIP3   OH240803   1.309   3.816   1.164  0.1051 -0.7350  0.0736
 6415TIP3    H140804   1.291   3.796   1.072 -1.9274 -0.5150  0.3838
 6415TIP3    H240805   1.226   3.799   1.209  1.1794 -1.3042  1.9621
 6416TIP3   OH240806   2.946   5.775   1.473 -0.0935 -0.2032  0.0664
 6416TIP3    H140807   3.014   5.775   1.540 -1.2990  0.6600  1.3482
 6416TIP3    H240808   2.900   5.858   1.485 -4.5306 -2.5968  2.6443
 6417TIP3   OH240809   0.506   0.292   7.593 -0.1188  0.1972  0.7169
 6417TIP3    H140810   0.590   0.248   7.611  0.0206 -0.6770 -1.6967
 6417TIP3    H240811   0.526   0.355   7.524 -1.4820 -0.3212 -0.2055
 6418TIP3   OH240812   5.921   4.400   8.329  0.2082 -0.4899  0.5395
 6418TIP3    H140813   5.985   4.383   8.260 -1.3874 -0.4218 -1.0474
 6418TIP3    H240814   5.837   4.374   8.291 -0.6776 -1.0576  2.7137
 6419TIP3   OH240815   6.001   2.220   1.484  0.3091  0.0448  0.8909
 6419TIP3    H140816   5.933   2.259   1.429 -0.1088 -1.2006  0.4845
 6419TIP3    H240817   5.966   2.134   1.508  2.7130 -1.7211 -1.4068
 6420TIP3   OH240818   0.984   3.749   2.980  0.1656 -0.6002 -0.0751
 6420TIP3    H140819   0.962   3.668   3.026 -0.2872 -0.4436 -0.0148
 6420TIP3    H240820   1.056   3.787   3.031 -0.5358 -0.2680  0.6864
 6421TIP3   OH240821   4.105   4.728   7.994 -0.0545 -0.1008 -0.3172
 6421TIP3    H140822   4.127   4.636   8.008  0.5006 -0.2568 -1.9769
 6421TIP3    H240823   4.189   4.772   7.988 -0.3088  0.7897  1.7794
 6422TIP3   OH240824   2.536   2.603   1.819  0.1121 -0.0994 -0.4946
 6422TIP3    H140825   2.450   2.640   1.799 -1.7068 -3.5047  0.2729
 6422TIP3    H240826   2.562   2.559   1.739  1.5027  1.3342 -0.8934
 6423TIP3   OH240827   6.642   1.000   0.162  0.2941 -0.3086  0.1925
 6423TIP3    H140828   6.698   1.074   0.139 -0.6468  0.9486  1.6975
 6423TIP3    H240829   6.684   0.962   0.240 -0.3426 -0.0245  0.6844
 6424TIP3   OH240830   3.874   5.144   7.199 -0.3570 -0.1112 -0.0202
 6424TIP3    H140831   3.823   5.105   7.128 -1.9072 -0.8919  1.4265
 6424TIP3    H240832   3.950   5.182   7.157 -3.0278  2.8713 -2.6318
 6425TIP3   OH240833   6.264   5.814   2.041 -0.3024 -0.1570 -0.3006
 6425TIP3    H140834   6.209   5.857   2.107 -2.1507 -0.5502 -1.4982
 6425TIP3    H240835   6.292   5.732   2.082  0.9140  0.8533  0.9708
 6426TIP3   OH240836   3.205   4.020   7.198  0.6016  0.6682  0.5378
 6426TIP3    H140837   3.237   4.106   7.170 -3.0293  2.4334  1.2115
 6426TIP3    H240838   3.162   3.984   7.121  0.2981  0.3997  0.8287
 6427TIP3   OH240839   3.728   6.308   1.247 -0.1595 -0.3471 -0.7318
 6427TIP3    H140840   3.652   6.257   1.219 -0.4243 -0.0547 -0.5553
 6427TIP3    H240841   3.748   6.276   1.335 -0.2333 -0.2535 -0.6804
 6428TIP3   OH240842   1.607   0.522   0.344  0.9611  0.4381  0.1995
 6428TIP3    H140843   1.638   0.565   0.424  0.1079 -1.1080  1.4242
 6428TIP3    H240844   1.605   0.429   0.366 -0.3922  0.0798 -1.2385
 6429TIP3   OH240845   5.772   0.240   7.872  0.6396  0.2281 -0.0216
 6429TIP3    H140846   5.724   0.271   7.949 -0.2525 -1.2457  0.0496
 6429TIP3    H240847   5.716   0.264   7.798  0.3909 -0.3726 -0.0322
 6430TIP3   OH240848   3.400   4.416   2.265  0.2357 -0.5171 -0.4903
 6430TIP3    H140849   3.488   4.442   2.237 -0.3161  0.2628 -1.5691
 6430TIP3    H240850   3.415   4.362   2.343  1.6900 -0.7456 -0.8908
 6431TIP3   OH240851   1.652   4.583   2.295  0.4279  0.2693 -0.6860
 6431TIP3    H140852   1.592   4.614   2.227 -0.1672 -0.0669 -0.3214
 6431TIP3    H240853   1.689   4.663   2.333  2.0458  0.4643 -2.4886
 6432TIP3   OH240854   1.949   2.591   7.826 -0.1775  0.3815  0.4773
 6432TIP3    H140855   1.987   2.573   7.741  1.2310  0.6257  1.0225
 6432TIP3    H240856   1.858   2.615   7.808  0.2921  1.1213 -1.0070
 6433TIP3   OH240857   5.991   6.289   8.384 -0.3811  0.0093 -0.1443
 6433TIP3    H140858   5.903   6.324   8.399  0.6542  2.6209  0.4042
 6433TIP3    H240859   6.027   6.274   8.471 -0.2954 -1.1533 -0.3670
 6434TIP3   OH240860   0.348   0.059   2.611  0.2172  0.4262 -0.2704
 6434TIP3    H140861   0.440   0.061   2.636  0.7629  1.4366 -2.1429
 6434TIP3    H240862   0.326   0.151   2.594 -1.2014  0.2227  0.2987
 6435TIP3   OH240863   6.346   5.951   0.454  0.3443 -0.2013 -0.2623
 6435TIP3    H140864   6.300   6.011   0.513  2.0197 -0.6582  1.6117
 6435TIP3    H240865   6.438   5.979   0.458  0.7987 -1.4732 -1.1397
 6436TIP3   OH240866   4.783   3.315   0.212  0.1612  0.3390  0.3975
 6436TIP3    H140867   4.839   3.339   0.137  2.0753 -0.9647  1.3322
 6436TIP3    H240868   4.791   3.389   0.272 -1.1900  1.2817 -0.5084
 6437TIP3   OH240869   5.014   0.661   2.708 -0.6199 -0.2225 -0.1654
 6437TIP3    H140870   5.037   0.597   2.775  0.5057 -0.3299 -0.6233
 6437TIP3    H240871   5.039   0.745   2.746 -2.1892 -0.0144  0.4752
 6438TIP3   OH240872   5.877   4.066   1.783 -0.1568 -0.6242  0.2861
 6438TIP3    H140873   5.819   4.022   1.721  0.4643 -1.3214  0.1933
 6438TIP3    H240874   5.944   4.001   1.805  0.9409  0.3291 -0.0676
 6439TIP3   OH240875   5.627   3.599   1.056  0.2436  0.2571 -0.2116
 6439TIP3    H140876   5.661   3.510   1.050  0.9380  0.3989  1.1109
 6439TIP3    H240877   5.683   3.650   0.998  0.0551 -0.1017 -0.7157
 6440TIP3   OH240878   5.709   1.358   1.850 -0.5694 -0.3554 -0.2486
 6440TIP3    H140879   5.664   1.408   1.918  2.6791  0.6563  1.3688
 6440TIP3    H240880   5.716   1.419   1.777 -1.5511 -0.4468 -0.4329
 6441TIP3   OH240881   5.885   0.047   8.202  0.0017  0.6230  0.5493
 6441TIP3    H140882   5.843  -0.022   8.150 -0.5190  1.3984 -0.0905
 6441TIP3    H240883   5.843   0.128   8.173 -1.5083  0.9735  3.3104
 6442TIP3   OH240884   2.093   3.531   2.326 -0.7157 -0.3303  0.8761
 6442TIP3    H140885   2.148   3.604   2.356 -2.9908  0.1206  4.4427
 6442TIP3    H240886   2.057   3.562   2.242  2.8847  0.0564 -0.7188
 6443TIP3   OH240887   6.091   1.163   7.036  0.0488  0.3672 -0.3061
 6443TIP3    H140888   6.013   1.167   7.090  0.2671  0.5412 -0.0055
 6443TIP3    H240889   6.096   1.248   6.993 -0.6068 -0.0567 -1.2900
 6444TIP3   OH240890   6.630   5.359   0.362 -0.4891  0.1816  0.0038
 6444TIP3    H140891   6.679   5.337   0.283 -2.3557 -0.2208 -1.1186
 6444TIP3    H240892   6.696   5.383   0.426  1.2116 -1.3779 -1.0769
 6445TIP3   OH240893   5.988   4.706   1.910  0.1055  0.1361 -0.6673
 6445TIP3    H140894   5.987   4.796   1.943 -0.9524 -0.7836  2.0714
 6445TIP3    H240895   5.946   4.712   1.823 -1.9440  2.0106  0.3492
 6446TIP3   OH240896   6.270   5.984   1.070  0.1284 -0.7531  0.4929
 6446TIP3    H140897   6.186   5.988   1.115  0.5245  0.5404  1.1732
 6446TIP3    H240898   6.310   6.069   1.086  2.6891 -2.1545  2.3856
 6447TIP3   OH240899   4.525   3.721   0.690  0.3547 -0.1770 -0.2576
 6447TIP3    H140900   4.558   3.712   0.779 -1.4995  0.0725  0.5049
 6447TIP3    H240901   4.434   3.693   0.695  0.3393 -0.6546 -2.2033
 6448TIP3   OH240902   3.124   1.397   7.721 -0.0389  0.4960 -0.0204
 6448TIP3    H140903   3.055   1.421   7.782 -0.0027 -0.8968  0.6008
 6448TIP3    H240904   3.085   1.329   7.666  0.6894  0.0082  0.0544
 6449TIP3   OH240905   1.598   3.347   8.158 -0.7778  0.2905 -0.0840
 6449TIP3    H140906   1.620   3.345   8.065  0.2567  2.2260  0.0706
 6449TIP3    H240907   1.504   3.366   8.159 -0.9033 -0.2688 -0.7328
 6450TIP3   OH240908   5.614   1.260   2.703 -0.2402 -0.4355 -0.5921
 6450TIP3    H140909   5.533   1.266   2.752 -1.8850 -0.3586 -3.1049
 6450TIP3    H240910   5.635   1.167   2.700  1.9055 -0.2461  3.0862
 6451TIP3   OH240911   3.377   0.527   3.029  0.4212  0.4108  0.6273
 6451TIP3    H140912   3.285   0.507   3.042  0.3830 -0.1657 -0.4153
 6451TIP3    H240913   3.393   0.510   2.936  1.8587 -0.7371  1.0262
 6452TIP3   OH240914   5.812   5.768   1.056 -0.5556 -0.3395  0.5011
 6452TIP3    H140915   5.782   5.844   1.106 -1.0971  0.7781 -1.4100
 6452TIP3    H240916   5.739   5.706   1.061 -0.1740 -0.7008  1.9415
 6453TIP3   OH240917   1.310   4.370   8.956 -0.1602  0.2118 -0.3468
 6453TIP3    H140918   1.290   4.462   8.971 -1.3590  0.0212 -0.7373
 6453TIP3    H240919   1.262   4.347   8.877  1.3921 -0.3464 -1.1694
 6454TIP3   OH240920   1.375   0.312   2.117 -0.2944 -0.5460  0.0168
 6454TIP3    H140921   1.332   0.315   2.202 -2.0153  0.1241 -0.8123
 6454TIP3    H240922   1.361   0.223   2.086 -0.6779 -0.4675 -0.0398
 6455TIP3   OH240923   3.349   5.482   8.743  0.6167  0.2294  0.2908
 6455TIP3    H140924   3.303   5.548   8.692  0.3007 -0.2039  0.0141
 6455TIP3    H240925   3.367   5.411   8.681  1.5692  0.3480  0.4194
 6456TIP3   OH240926   5.375   0.492   2.204 -0.0397  0.2890 -0.0472
 6456TIP3    H140927   5.393   0.474   2.296 -0.7967 -0.6241 -0.0652
 6456TIP3    H240928   5.413   0.578   2.188 -0.0179  0.5064  1.1445
 6457TIP3   OH240929   0.528   6.042   8.947  0.7008  0.3193 -0.3297
 6457TIP3    H140930   0.562   5.961   8.985  0.1920  0.8410  1.3445
 6457TIP3    H240931   0.569   6.047   8.861  0.7346 -1.7085 -0.4779
 6458TIP3   OH240932   2.681   5.847   2.290  0.7029 -0.7150 -0.2085
 6458TIP3    H140933   2.768   5.884   2.304  1.1374 -0.2009 -3.4732
 6458TIP3    H240934   2.680   5.821   2.198 -1.3832 -4.1056  0.5830
 6459TIP3   OH240935   5.427   6.343   0.551  0.0947 -0.5007  0.2144
 6459TIP3    H140936   5.512   6.355   0.509 -0.5881 -2.1514 -1.8211
 6459TIP3    H240937   5.368   6.402   0.504  0.2717  1.5906  2.4489
 6460TIP3   OH240938   4.575   2.787   0.956  0.1607 -0.5072 -0.4128
 6460TIP3    H140939   4.661   2.795   0.997 -0.2869  1.2937  0.2739
 6460TIP3    H240940   4.564   2.693   0.941  1.3327 -0.9993  1.4756
 6461TIP3   OH240941   3.141   6.007   8.908 -0.8615  0.3824  0.1155
 6461TIP3    H140942   3.229   6.044   8.910 -0.6149 -0.0693 -1.1324
 6461TIP3    H240943   3.123   5.980   8.998  0.7914 -0.6841  0.1542
 6462TIP3   OH240944   5.521   1.013   7.782  0.6728  0.0825  0.1734
 6462TIP3    H140945   5.429   1.018   7.753  0.7427 -0.4994 -0.1658
 6462TIP3    H240946   5.562   0.953   7.719  0.5686 -2.2026  2.1420
 6463TIP3   OH240947   3.505   2.503   1.973 -0.5936 -0.4506  0.4119
 6463TIP3    H140948   3.462   2.425   1.938 -0.0026 -0.4141 -0.4395
 6463TIP3    H240949   3.595   2.497   1.942 -0.1601 -0.1572  1.5499
 6464TIP3   OH240950   5.059   1.055   1.370 -0.3286  0.7920  0.7685
 6464TIP3    H140951   5.034   0.972   1.329 -1.5143  1.0017  1.0104
 6464TIP3    H240952   5.153   1.063   1.354 -0.4124 -0.0423 -0.2552
 6465TIP3   OH240953   1.857   2.672   0.147 -0.8425 -0.0584  0.3730
 6465TIP3    H140954   1.873   2.591   0.099 -0.9609 -0.9993  1.8780
 6465TIP3    H240955   1.917   2.736   0.106 -0.9261 -0.8161 -0.9862
 6466TIP3   OH240956   5.627   5.392   8.816 -0.1761 -0.3215 -0.0739
 6466TIP3    H140957   5.623   5.476   8.862 -0.6928 -1.3465  1.8874
 6466TIP3    H240958   5.553   5.394   8.755 -1.7422 -0.2870  1.7390
 6467TIP3   OH240959   0.125   1.753   7.675  0.5519  0.0083 -0.1430
 6467TIP3    H140960   0.172   1.694   7.734 -1.1333 -2.3492 -1.0376
 6467TIP3    H240961   0.155   1.728   7.588 -0.5992  0.0908 -0.5709
 6468TIP3   OH240962   4.152   0.134   1.550  0.2478  0.1081  0.3283
 6468TIP3    H140963   4.065   0.119   1.587  0.7935  1.3876  2.3244
 6468TIP3    H240964   4.135   0.172   1.464 -1.2676  2.1792  1.4437
 6469TIP3   OH240965   2.377   1.246   7.927 -0.5072 -0.3342 -0.1566
 6469TIP3    H140966   2.352   1.169   7.877  2.3621 -1.4871 -0.0188
 6469TIP3    H240967   2.295   1.294   7.941 -2.1464 -2.5506 -1.5556
 6470TIP3   OH240968   3.347   0.027   2.569  0.0332 -0.3798  0.1811
 6470TIP3    H140969   3.297  -0.054   2.560 -0.9853  0.3385 -1.0621
 6470TIP3    H240970   3.390   0.039   2.485  0.4805  0.1665  0.4776
 6471TIP3   OH240971   6.676   5.034   1.353  0.2789  0.3123  0.3259
 6471TIP3    H140972   6.641   4.978   1.284  0.8223  2.1197 -1.5187
 6471TIP3    H240973   6.604   5.041   1.417  0.1360 -2.2196  0.5375
 6472TIP3   OH240974   1.066   1.107   8.427  0.1472 -0.5221  0.9612
 6472TIP3    H140975   0.984   1.156   8.422  0.3483 -0.2603  0.0045
 6472TIP3    H240976   1.071   1.061   8.344  0.7722 -0.8655  1.1866
 6473TIP3   OH240977   0.231   2.860   0.097  0.2156  0.0241  0.2717
 6473TIP3    H140978   0.161   2.888   0.155 -0.4343  0.3468 -0.6346
 6473TIP3    H240979   0.238   2.930   0.032  0.8922 -0.3410 -0.0673
 6474TIP3   OH240980   1.376   3.938   8.543  0.3887  0.1127 -0.5101
 6474TIP3    H140981   1.356   3.956   8.635  2.5240 -0.2832  0.0980
 6474TIP3    H240982   1.380   3.843   8.538 -1.9943  0.0032 -1.6131
 6475TIP3   OH240983   0.081   2.684   1.063  0.5926  0.2161 -0.6910
 6475TIP3    H140984   0.136   2.626   1.010  1.2319  0.0984  0.0767
 6475TIP3    H240985  -0.002   2.688   1.016  1.7791  1.8174 -2.8497
 6476TIP3   OH240986   4.486   6.087   2.355 -0.0095  0.2598 -0.1230
 6476TIP3    H140987   4.518   6.000   2.331 -1.5997 -0.1436 -0.8987
 6476TIP3    H240988   4.522   6.146   2.289  0.0387 -0.0116 -0.3391
 6477TIP3   OH240989   3.231   2.901   2.150  0.2441  0.7718 -0.1215
 6477TIP3    H140990   3.245   2.809   2.126 -0.1863  0.9390 -1.0565
 6477TIP3    H240991   3.275   2.910   2.235  0.3960 -0.2640 -0.0692
 6478TIP3   OH240992   5.700   4.709   8.143 -0.0296  0.2087 -0.3332
 6478TIP3    H140993   5.730   4.716   8.052 -0.7553 -0.2484 -0.6206
 6478TIP3    H240994   5.650   4.789   8.158 -1.9470 -0.7681 -1.1472
 6479TIP3   OH240995   1.754   6.173   2.752 -0.7277  0.1702 -0.1491
 6479TIP3    H140996   1.687   6.138   2.811 -1.1152 -0.2565 -0.8305
 6479TIP3    H240997   1.837   6.142   2.788 -1.0472 -1.3202 -0.6272
 6480TIP3   OH240998   4.192   5.913   7.995 -0.1078 -0.2085 -0.3571
 6480TIP3    H140999   4.151   5.983   8.045  0.6318  1.3471 -1.8340
 6480TIP3    H241000   4.130   5.840   8.002 -1.5472  1.0008  0.1558
 6481TIP3   OH241001   3.157   4.611   1.660 -0.6948 -0.0566 -0.8229
 6481TIP3    H141002   3.139   4.517   1.665  0.8151 -0.3332 -0.2491
 6481TIP3    H241003   3.074   4.649   1.630 -0.6653 -1.8203 -3.5322
 6482TIP3   OH241004   5.369   4.454   8.342  0.1609 -0.1093 -0.3931
 6482TIP3    H141005   5.438   4.407   8.296 -0.2133 -1.1212  0.0459
 6482TIP3    H241006   5.338   4.393   8.408 -1.5884  0.0739 -0.9841
 6483TIP3   OH241007   6.741   5.288   1.285  0.1527 -0.2144  0.0334
 6483TIP3    H141008   6.666   5.313   1.231 -0.9986 -0.6302  1.3752
 6483TIP3    H241009   6.712   5.210   1.332  1.7039 -0.8120  0.0482
 6484TIP3   OH241010   3.851   1.410   0.402 -0.3991 -0.1717 -0.5022
 6484TIP3    H141011   3.806   1.349   0.344 -1.8337 -0.1593  0.5379
 6484TIP3    H241012   3.892   1.355   0.469 -1.7192 -0.0485  0.4540
 6485TIP3   OH241013   2.467   0.504   2.900 -0.3238 -0.2841  0.5040
 6485TIP3    H141014   2.420   0.587   2.908  1.2672  0.5416  1.5462
 6485TIP3    H241015   2.405   0.438   2.934 -0.8988  0.7083  1.4277
 6486TIP3   OH241016   5.162   2.253   2.520 -0.1576 -0.6632 -0.4624
 6486TIP3    H141017   5.112   2.231   2.442  0.5263 -2.3216 -0.4750
 6486TIP3    H241018   5.110   2.321   2.564 -0.2939  0.6790 -2.5901
 6487TIP3   OH241019   3.900   3.570   8.035  0.0853  0.3333 -0.0115
 6487TIP3    H141020   3.861   3.522   8.108 -0.3812  1.4527  0.5047
 6487TIP3    H241021   3.890   3.512   7.960 -1.9801  0.2595  0.2457
 6488TIP3   OH241022   3.171   2.136   8.075 -0.1175  1.0234  0.0187
 6488TIP3    H141023   3.206   2.125   7.986  0.6199 -0.5205  0.4557
 6488TIP3    H241024   3.076   2.128   8.064  0.0028  0.1962 -0.5655
 6489TIP3   OH241025   2.733   3.939   8.624  0.4572  0.2091  0.2426
 6489TIP3    H141026   2.815   3.964   8.667 -0.2272  0.9019  1.1830
 6489TIP3    H241027   2.707   4.017   8.575  0.0029  0.2332  0.5162
 6490TIP3   OH241028   5.120   2.874   2.696  0.4623  0.1625  0.2905
 6490TIP3    H141029   5.114   2.896   2.789  2.7626  0.7186  0.3754
 6490TIP3    H241030   5.136   2.780   2.695 -1.3885 -0.1918  0.3194
 6491TIP3   OH241031   3.348   4.246   0.401 -0.4223 -0.3095  0.0637
 6491TIP3    H141032   3.344   4.254   0.496 -0.5024  1.6651 -0.0770
 6491TIP3    H241033   3.285   4.177   0.380 -0.3927 -0.7798  1.4237
 6492TIP3   OH241034   1.723   0.845   7.717 -0.3912  0.4885  0.7118
 6492TIP3    H141035   1.723   0.925   7.664  0.2279 -0.2417 -0.4356
 6492TIP3    H241036   1.805   0.848   7.766 -1.1588  1.3726  2.0011
 6493TIP3   OH241037   4.412   0.357   8.206  0.2222  0.2660  0.2166
 6493TIP3    H141038   4.383   0.309   8.283  0.2419  2.7817  1.8912
 6493TIP3    H241039   4.493   0.313   8.179 -0.7751 -1.7931  0.4331
 6494TIP3   OH241040   0.554   5.069   8.007 -0.1389 -0.4985  0.2447
 6494TIP3    H141041   0.585   5.088   7.919 -0.9600 -0.3701 -0.0328
 6494TIP3    H241042   0.466   5.034   7.994 -0.0736 -0.9612  0.9856
 6495TIP3   OH241043   4.538   0.256   2.028 -0.4561 -0.5256 -0.0916
 6495TIP3    H141044   4.488   0.228   1.952 -3.0314  0.9854  0.9145
 6495TIP3    H241045   4.511   0.346   2.043  1.5856 -0.0765  1.3872
 6496TIP3   OH241046   3.720   0.573   2.910 -0.9707 -0.6610 -0.1360
 6496TIP3    H141047   3.679   0.659   2.918 -1.7204 -0.9664 -0.5648
 6496TIP3    H241048   3.804   0.581   2.955 -0.5912  0.5865 -1.0064
 6497TIP3   OH241049   6.285   4.750   0.706  0.5315  0.1975 -0.1173
 6497TIP3    H141050   6.378   4.733   0.719  0.0711 -0.6070  2.6967
 6497TIP3    H241051   6.242   4.670   0.734 -1.0541  0.7089 -0.9697
 6498TIP3   OH241052   0.206   1.265   3.187 -0.2482 -0.0368  0.0620
 6498TIP3    H141053   0.167   1.187   3.227 -0.2310  0.0598  0.2671
 6498TIP3    H241054   0.193   1.252   3.093 -0.1997 -0.3111  0.0917
 6499TIP3   OH241055   1.406   1.265   0.227  0.1622 -0.6403 -0.1002
 6499TIP3    H141056   1.352   1.304   0.158  0.7909 -0.2547 -0.3864
 6499TIP3    H241057   1.345   1.247   0.298 -0.1052  1.3149  0.2319
 6500TIP3   OH241058   2.229   1.827   2.197  0.3902 -0.0261 -0.3319
 6500TIP3    H141059   2.215   1.828   2.102  0.0848 -3.3104 -0.4390
 6500TIP3    H241060   2.323   1.817   2.207  0.4468  0.5536 -0.2721
 6501TIP3   OH241061   6.446   3.504   1.430 -0.0902  0.0541 -0.2322
 6501TIP3    H141062   6.541   3.500   1.443 -0.1320  0.5506  0.2580
 6501TIP3    H241063   6.419   3.585   1.474 -0.6289  0.3488 -1.0791
 6502TIP3   OH241064   4.023   3.194   1.247  0.0594 -0.3007  0.4087
 6502TIP3    H141065   3.935   3.229   1.232  0.1977  0.4964  1.3208
 6502TIP3    H241066   4.027   3.178   1.341  0.9048 -0.2882  0.3863
 6503TIP3   OH241067   5.641   2.561   7.349 -0.2739  0.1384  0.1795
 6503TIP3    H141068   5.578   2.546   7.419 -0.5966 -0.9363 -0.3227
 6503TIP3    H241069   5.590   2.602   7.279 -0.8278 -2.1123 -0.8274
 6504TIP3   OH241070   1.352   1.682   7.089  0.4765 -0.1200 -0.0058
 6504TIP3    H141071   1.344   1.750   7.155 -2.9731 -0.6511  0.3330
 6504TIP3    H241072   1.375   1.729   7.008  1.6195  0.9394  0.9045
 6505TIP3   OH241073   1.605   0.063   0.831 -0.0448  0.2440 -0.0883
 6505TIP3    H141074   1.615  -0.028   0.861  0.5081 -0.0724 -1.2012
 6505TIP3    H241075   1.601   0.057   0.736 -1.2516  1.2843 -0.1255
 6506TIP3   OH241076   0.714   1.739   8.851 -0.5742  0.2103  0.0911
 6506TIP3    H141077   0.697   1.799   8.778  0.2818  1.3064  0.7712
 6506TIP3    H241078   0.662   1.774   8.923 -1.3960 -0.8558  0.0386
 6507TIP3   OH241079   3.980   4.232   0.619  0.4101  0.0377  0.3911
 6507TIP3    H141080   3.967   4.165   0.553 -0.0241 -0.9322  1.4359
 6507TIP3    H241081   3.940   4.197   0.698 -0.7688  1.9799  0.7175
 6508TIP3   OH241082   4.204   1.911   2.280  0.1673  0.3037  0.1577
 6508TIP3    H141083   4.269   1.842   2.283  0.5124  0.6177  2.9082
 6508TIP3    H241084   4.122   1.867   2.259  0.6342 -0.7230  0.4569
 6509TIP3   OH241085   3.333   3.295   7.294 -0.7872 -0.5700  0.1286
 6509TIP3    H141086   3.302   3.235   7.361  0.8292 -0.9079  0.6015
 6509TIP3    H241087   3.426   3.305   7.311 -1.0784  2.5907  0.4834
 6510TIP3   OH241088   1.585   0.190   1.797 -0.0206 -0.3408  0.0005
 6510TIP3    H141089   1.538   0.108   1.784 -2.0930  0.6418  0.7899
 6510TIP3    H241090   1.554   0.222   1.882  2.0281  0.4573  0.5115
 6511TIP3   OH241091   3.870   2.607   0.978  0.5233  0.3050  0.2255
 6511TIP3    H141092   3.833   2.547   1.042 -0.9560 -0.1493 -0.9800
 6511TIP3    H241093   3.906   2.550   0.909 -0.8364  0.7534 -0.9033
 6512TIP3   OH241094   5.007   3.636   1.951 -0.4346 -0.2548  0.2898
 6512TIP3    H141095   4.987   3.697   2.022 -0.0303  0.5340 -0.2532
 6512TIP3    H241096   5.102   3.625   1.955 -0.2209  0.8489 -0.9260
 6513TIP3   OH241097   4.118   2.871   2.000 -0.6677 -0.5302 -0.5056
 6513TIP3    H141098   4.105   2.954   1.953 -0.4131 -0.6461 -0.7799
 6513TIP3    H241099   4.190   2.888   2.060 -0.6329 -0.5447 -0.5434
 6514TIP3   OH241100   2.311   2.077   2.024  0.4274 -0.4221  0.1625
 6514TIP3    H141101   2.247   2.062   1.955  0.1520  1.1871  0.0197
 6514TIP3    H241102   2.273   2.147   2.078  0.5294 -1.7951  2.1034
 6515TIP3   OH241103   3.542   1.458   0.485 -0.2763 -0.1611 -0.2777
 6515TIP3    H141104   3.464   1.477   0.538  0.4412  1.2911  0.3111
 6515TIP3    H241105   3.522   1.375   0.442 -0.6475 -1.8546  2.8270
 6516TIP3   OH241106   2.836   3.630   2.873 -0.5160 -0.8877 -0.4241
 6516TIP3    H141107   2.755   3.680   2.858 -1.0690 -0.6333  2.7018
 6516TIP3    H241108   2.902   3.697   2.891  0.4713 -1.1062 -2.7957
 6517TIP3   OH241109   1.971   0.885   2.624  0.3324  0.3109 -0.3272
 6517TIP3    H141110   2.020   0.808   2.595  1.7477  0.9800  0.2194
 6517TIP3    H241111   2.037   0.945   2.659 -0.8717  1.2671  0.4169
 6518TIP3   OH241112   5.595   3.773   2.247 -0.6809  0.4936 -0.6746
 6518TIP3    H141113   5.506   3.739   2.238  0.3718 -2.8852  0.3582
 6518TIP3    H241114   5.613   3.769   2.341  0.0416  2.8024 -0.6562
 6519TIP3   OH241115   6.324   6.689   7.899  0.4187  0.0975 -0.3450
 6519TIP3    H141116   6.239   6.718   7.932 -0.4776 -0.7591 -1.8018
 6519TIP3    H241117   6.337   6.740   7.819  1.8982  1.1317  0.5011
 6520TIP3   OH241118   5.167   0.762   8.528  0.2964 -0.2381 -0.3096
 6520TIP3    H141119   5.136   0.798   8.611  0.4894 -0.2748 -0.2227
 6520TIP3    H241120   5.262   0.755   8.538  0.3065 -0.3579 -0.4872
 6521TIP3   OH241121   6.251   5.424   0.099 -0.2374 -0.2649 -0.0568
 6521TIP3    H141122   6.291   5.386   0.177 -1.2990 -0.4063  0.4318
 6521TIP3    H241123   6.316   5.488   0.068  1.0382 -1.5763 -0.1959
 6522TIP3   OH241124   4.023   4.045   0.939 -0.6828  0.1289 -0.0653
 6522TIP3    H141125   3.948   4.093   0.975 -0.8172  0.9224 -1.3268
 6522TIP3    H241126   4.083   4.034   1.012 -0.8386  1.8762  0.3652
 6523TIP3   OH241127   5.314   3.424   8.693  0.1548  0.0477  0.0872
 6523TIP3    H141128   5.343   3.404   8.782  0.0366  3.0722  0.9207
 6523TIP3    H241129   5.221   3.445   8.702 -0.0119 -0.2091 -0.8755
 6524TIP3   OH241130   6.097   6.739   7.405 -0.4672 -0.3356  0.9144
 6524TIP3    H141131   6.018   6.770   7.361  0.3442  0.7850  0.1833
 6524TIP3    H241132   6.159   6.811   7.397  1.0683 -1.6480  0.3152
 6525TIP3   OH241133   3.187   4.314   0.644  0.7512  0.3759 -0.2686
 6525TIP3    H141134   3.230   4.399   0.635  1.0859  0.5008  1.8894
 6525TIP3    H241135   3.095   4.331   0.626  0.4907  1.6652  1.8966
 6526TIP3   OH241136   2.700   1.390   3.409  0.2114 -0.2795  0.1967
 6526TIP3    H141137   2.663   1.469   3.447 -0.6419 -1.3607  1.7135
 6526TIP3    H241138   2.794   1.397   3.424 -0.1466 -1.0003  3.2968
 6527TIP3   OH241139   1.599   5.601   1.826 -0.4716 -0.4616 -0.2871
 6527TIP3    H141140   1.617   5.565   1.740  1.3078  0.3155 -0.2927
 6527TIP3    H241141   1.602   5.526   1.885 -1.9521 -1.0363 -0.8935
 6528TIP3   OH241142   6.639   3.760   1.681 -0.1673  0.2738  0.1941
 6528TIP3    H141143   6.710   3.777   1.742  2.0088 -2.2264 -1.4200
 6528TIP3    H241144   6.601   3.677   1.712  0.2059 -0.4095 -1.1192
 6529TIP3   OH241145   5.325   6.590   8.049  0.1687  0.6003 -0.5394
 6529TIP3    H141146   5.356   6.669   8.003 -1.9231  1.6452 -0.2802
 6529TIP3    H241147   5.243   6.568   8.006 -0.6213  0.1650  1.0948
 6530TIP3   OH241148   6.153   2.013   1.642  0.2515  0.1035  0.3011
 6530TIP3    H141149   6.059   2.015   1.627  0.1500 -2.1645  0.2795
 6530TIP3    H241150   6.169   2.084   1.704 -1.5068  0.3557  0.5160
 6531TIP3   OH241151   3.610   6.434   2.769  0.0440 -0.5072  0.3176
 6531TIP3    H141152   3.697   6.469   2.750  0.4903 -1.3563  0.7349
 6531TIP3    H241153   3.625   6.371   2.839 -0.9087 -0.6974  0.3572
 6532TIP3   OH241154   6.413   1.441   1.102 -0.2808  0.4309  0.4160
 6532TIP3    H141155   6.378   1.351   1.099  1.0345 -0.1056 -3.1508
 6532TIP3    H241156   6.336   1.496   1.089 -0.7169 -0.4281 -0.9475
 6533TIP3   OH241157   2.688   6.332   1.244 -0.2936 -0.4379  0.3864
 6533TIP3    H141158   2.635   6.252   1.246  0.4550 -0.9447  2.2244
 6533TIP3    H241159   2.777   6.301   1.225  0.0119 -0.0554  1.1560
 6534TIP3   OH241160   0.808   1.853   1.099 -0.5692  0.1093 -0.3064
 6534TIP3    H141161   0.865   1.792   1.053 -0.6149  0.6547 -1.1068
 6534TIP3    H241162   0.758   1.798   1.159  0.2829 -0.4657 -0.1071
 6535TIP3   OH241163   0.620   5.241   0.336  0.3368  0.6039  0.0159
 6535TIP3    H141164   0.582   5.328   0.328  1.1351  0.8208 -2.0568
 6535TIP3    H241165   0.557   5.183   0.291  1.2657  0.6233 -1.3745
 6536TIP3   OH241166   6.127   1.450   2.660  0.4416 -0.4660  0.5687
 6536TIP3    H141167   6.035   1.476   2.656  0.4453 -0.4567  0.5421
 6536TIP3    H241168   6.156   1.452   2.569 -0.0860 -2.5098  0.3254
 6537TIP3   OH241169   2.678   2.834   7.660 -0.4007 -0.0056  0.0622
 6537TIP3    H141170   2.730   2.855   7.737  1.0799 -1.7700 -0.3956
 6537TIP3    H241171   2.731   2.867   7.586  0.2312 -1.9790 -0.4186
 6538TIP3   OH241172   4.069   0.017   2.832  0.4383 -0.8812  0.2736
 6538TIP3    H141173   4.003   0.015   2.901  1.2359 -0.8144  1.0599
 6538TIP3    H241174   4.039   0.084   2.771 -0.3230 -1.0059  0.5087
 6539TIP3   OH241175   0.790   4.968   8.084  0.7424  0.1362  0.4755
 6539TIP3    H141176   0.795   4.918   8.166 -0.4403  0.1861  0.5840
 6539TIP3    H241177   0.704   5.009   8.086  0.3599 -0.5220 -1.1851
 6540TIP3   OH241178   3.280   1.880   0.659  0.0021  0.3376 -0.0372
 6540TIP3    H141179   3.244   1.792   0.648  0.4999  0.2247 -0.8839
 6540TIP3    H241180   3.210   1.938   0.630 -0.7425  0.2896  1.5836
 6541TIP3   OH241181   5.295   1.808   7.865  0.1526 -0.2200  0.2430
 6541TIP3    H141182   5.374   1.782   7.818 -1.3009 -0.5153 -2.2149
 6541TIP3    H241183   5.238   1.846   7.798 -2.0093 -0.4743  1.8182
 6542TIP3   OH241184   5.604   0.567   1.017  0.3996  0.2880  0.0264
 6542TIP3    H141185   5.604   0.658   0.987 -0.3344  0.6164  0.9755
 6542TIP3    H241186   5.550   0.520   0.953 -0.7381  0.8885  0.5170
 6543TIP3   OH241187   6.175   3.217   3.489 -0.1842 -0.1839  0.1018
 6543TIP3    H141188   6.245   3.280   3.472  0.4622 -0.9048  0.0553
 6543TIP3    H241189   6.095   3.264   3.467  0.3233  0.4505 -0.4241
 6544TIP3   OH241190   0.275   1.571   0.006  0.3382  0.3668 -0.0342
 6544TIP3    H141191   0.336   1.638   0.037  1.3021 -0.5310  0.0839
 6544TIP3    H241192   0.303   1.491   0.050 -0.9753 -0.0689  0.0568
 6545TIP3   OH241193   6.768   2.357   1.475 -0.2167  0.3655  0.1202
 6545TIP3    H141194   6.693   2.297   1.466  0.4405 -0.6480  1.1727
 6545TIP3    H241195   6.839   2.314   1.427  0.3096  0.2080  1.0218
 6546TIP3   OH241196   0.275   5.404   2.015  0.2621  0.0023 -0.0628
 6546TIP3    H141197   0.181   5.422   2.009  0.1596 -0.8847 -2.0079
 6546TIP3    H241198   0.285   5.357   2.098 -1.1563 -0.5847 -0.1844
 6547TIP3   OH241199   0.733   1.967   8.707 -0.7462  0.5558  0.0015
 6547TIP3    H141200   0.825   1.992   8.700 -0.4909 -0.6679 -1.2314
 6547TIP3    H241201   0.709   1.991   8.797  0.9782  0.1829  0.5907
 6548TIP3   OH241202   6.508   6.749   1.245 -0.2375 -0.3368 -0.0415
 6548TIP3    H141203   6.571   6.677   1.253 -0.3541 -0.4351 -0.0108
 6548TIP3    H241204   6.433   6.721   1.297 -0.8398 -0.7929 -1.1209
 6549TIP3   OH241205   3.016   4.363   0.981 -0.3979 -0.5000 -0.3098
 6549TIP3    H141206   2.925   4.347   1.004 -0.6943  0.4228 -0.7738
 6549TIP3    H241207   3.044   4.285   0.933 -0.1652 -1.8995  1.9418
 6550TIP3   OH241208   2.185   3.818   2.298 -0.1224 -0.5946 -0.5395
 6550TIP3    H141209   2.187   3.819   2.394 -0.4765 -2.0074 -0.4987
 6550TIP3    H241210   2.274   3.842   2.272 -0.2143  0.5449  0.1111
 6551TIP3   OH241211   3.150   0.046   8.076 -0.3112  0.1852  0.0612
 6551TIP3    H141212   3.055   0.055   8.066 -0.1808  2.0197  0.2317
 6551TIP3    H241213   3.170  -0.037   8.033 -1.9453 -0.0827 -0.2631
 6552TIP3   OH241214   3.574   6.714   0.986 -0.3029  0.4259 -0.0149
 6552TIP3    H141215   3.658   6.744   0.952 -0.5551 -0.0907 -1.1429
 6552TIP3    H241216   3.516   6.713   0.910 -1.3965  0.9686  0.7755
 6553TIP3   OH241217   3.587   5.267   8.847 -0.2700  0.7541 -0.4245
 6553TIP3    H141218   3.604   5.187   8.897  1.6699  1.3076 -0.1161
 6553TIP3    H241219   3.621   5.248   8.760 -0.8207  0.8752 -0.6689
 6554TIP3   OH241220   2.970   5.542   0.847  0.2705 -0.0842  0.1808
 6554TIP3    H141221   3.051   5.592   0.834  1.4199 -1.8669  0.0860
 6554TIP3    H241222   2.958   5.494   0.765 -3.3922  3.3291 -1.6474
 6555TIP3   OH241223   4.907   4.236   0.321  0.1126 -0.4166  0.2663
 6555TIP3    H141224   4.972   4.303   0.345  0.3257  0.0594 -1.5426
 6555TIP3    H241225   4.957   4.155   0.315  0.4225 -0.1710 -0.4956
 6556TIP3   OH241226   5.108   4.615   1.930  0.3674  0.2533 -0.1140
 6556TIP3    H141227   5.163   4.644   2.003  0.3267 -0.1751  0.0879
 6556TIP3    H241228   5.060   4.694   1.904  0.3043  0.3866  0.3891
 6557TIP3   OH241229   2.439   4.537   8.202  0.3691  0.2255 -0.1594
 6557TIP3    H141230   2.501   4.600   8.166 -1.5757  1.6493 -1.1735
 6557TIP3    H241231   2.422   4.476   8.130 -1.0698  1.1952 -0.7075
 6558TIP3   OH241232   2.876   6.492   8.778 -0.1227 -0.1717 -0.0665
 6558TIP3    H141233   2.971   6.506   8.779 -0.2999  1.2335 -0.8210
 6558TIP3    H241234   2.863   6.418   8.837  1.1417  1.5427  2.5857
 6559TIP3   OH241235   3.196   4.582   0.523  0.1648 -0.5081 -1.3523
 6559TIP3    H141236   3.148   4.665   0.530  0.9714 -0.1397  0.3252
 6559TIP3    H241237   3.285   4.608   0.499  0.8112 -0.7029  0.6408
 6560TIP3   OH241238   4.526   4.514   0.484  0.0776  0.7250  0.1510
 6560TIP3    H141239   4.533   4.502   0.578 -2.5876 -0.2524  0.2947
 6560TIP3    H241240   4.616   4.500   0.452  0.5977 -1.5711  2.2732
 6561TIP3   OH241241   2.541   6.595   1.884  0.5419 -0.8702 -0.3964
 6561TIP3    H141242   2.453   6.558   1.873  0.0715 -0.3746  1.3700
 6561TIP3    H241243   2.591   6.525   1.927 -0.7453  0.7486  4.3253
 6562TIP3   OH241244   0.435   6.505   0.478 -0.3235  0.1531 -0.4394
 6562TIP3    H141245   0.473   6.444   0.542 -0.7808  0.4794  0.1463
 6562TIP3    H241246   0.343   6.478   0.471 -0.3083  0.2001 -0.8755
 6563TIP3   OH241247   4.267   2.135   0.854 -0.9062  0.3782  0.1830
 6563TIP3    H141248   4.315   2.167   0.930 -2.5694 -0.0200  1.4391
 6563TIP3    H241249   4.261   2.040   0.866 -0.2107  0.1416 -1.0566
 6564TIP3   OH241250   6.541   4.538   1.846  0.3562 -0.5644  0.2321
 6564TIP3    H141251   6.591   4.457   1.848  0.0789 -0.7353  0.2721
 6564TIP3    H241252   6.454   4.514   1.878  0.3425 -0.2033  0.4740
 6565TIP3   OH241253   6.201   1.436   2.398 -0.0630  0.9487 -0.0381
 6565TIP3    H141254   6.131   1.413   2.337  0.2055  0.4638 -0.1705
 6565TIP3    H241255   6.278   1.449   2.342  0.1074  0.8256  0.1668
 6566TIP3   OH241256   6.055   4.797   8.236 -0.1407  0.3641  0.4862
 6566TIP3    H141257   5.986   4.810   8.171  0.2465  2.7862  0.4611
 6566TIP3    H241258   6.136   4.813   8.187  0.4601 -1.7582  0.6785
 6567TIP3   OH241259   1.194   0.968   0.656 -0.4978 -0.1685 -0.6073
 6567TIP3    H141260   1.100   0.949   0.648 -0.9890  2.3836 -1.8219
 6567TIP3    H241261   1.237   0.899   0.605 -1.7180 -1.1280 -0.3956
 6568TIP3   OH241262   0.277   1.793   1.128  0.3561 -0.6526 -0.9561
 6568TIP3    H141263   0.285   1.853   1.202 -0.1225  0.0325 -1.4489
 6568TIP3    H241264   0.261   1.707   1.168  2.0839 -0.6668 -0.2065
 6569TIP3   OH241265   3.188   6.531   8.143 -0.5569 -0.2025  0.3532
 6569TIP3    H141266   3.259   6.538   8.079 -1.4832  3.0886 -0.5489
 6569TIP3    H241267   3.120   6.481   8.098 -0.1126 -0.3645 -0.1486
 6570TIP3   OH241268   6.226   4.748   8.654  0.4270 -0.6190 -0.1655
 6570TIP3    H141269   6.310   4.737   8.699  0.0727 -1.7507  0.2549
 6570TIP3    H241270   6.165   4.693   8.704 -1.0354  1.6808  0.7528
 6571TIP3   OH241271   3.681   5.172   8.608  0.5456 -0.6018  0.2729
 6571TIP3    H141272   3.699   5.137   8.521  0.6334 -0.1355  0.1019
 6571TIP3    H241273   3.750   5.135   8.664 -0.3825 -2.1480  0.4852
 6572TIP3   OH241274   0.837   1.244   8.398  0.3033 -0.1784  0.1699
 6572TIP3    H141275   0.750   1.228   8.362 -0.2119  1.3156  0.6415
 6572TIP3    H241276   0.820   1.277   8.486  1.1553  2.8568 -0.6913
 6573TIP3   OH241277   0.044   0.811   0.997 -0.2575 -0.3992 -0.2746
 6573TIP3    H141278   0.094   0.729   1.002  0.5450 -0.0980 -2.4634
 6573TIP3    H241279  -0.042   0.785   0.964 -1.0528 -0.6901  1.8660
 6574TIP3   OH241280   3.102   0.966   1.715 -0.4290  0.1637 -0.2618
 6574TIP3    H141281   3.076   0.875   1.733  0.0546  0.1846  0.5744
 6574TIP3    H241282   3.040   0.995   1.648 -0.7393 -0.7070 -0.3762
 6575TIP3   OH241283   5.392   0.165   7.843  0.7259  0.3932 -0.0970
 6575TIP3    H141284   5.444   0.109   7.901  0.1669  1.7773  1.7916
 6575TIP3    H241285   5.450   0.239   7.823  1.3959 -0.6486 -2.4523
 6576TIP3   OH241286   3.122   0.798   0.015  0.1443  0.4100 -0.5459
 6576TIP3    H141287   3.070   0.871   0.049  2.1653  1.0005  1.5295
 6576TIP3    H241288   3.168   0.835  -0.060  1.4784  1.4790  0.7392
 6577TIP3   OH241289   0.602   2.442   2.478 -0.1189 -0.2668  0.4109
 6577TIP3    H141290   0.618   2.486   2.562  1.9047 -0.3310  0.1095
 6577TIP3    H241291   0.585   2.351   2.501 -3.2427  0.3616  0.9615
 6578TIP3   OH241292   0.354   2.450   1.017  0.4703 -0.1380 -0.6778
 6578TIP3    H141293   0.373   2.400   1.097 -0.0599 -0.0922 -0.5218
 6578TIP3    H241294   0.292   2.395   0.969 -0.7651  0.7245 -0.1218
 6579TIP3   OH241295   2.762   3.156   0.216 -0.0357 -0.0550  0.3039
 6579TIP3    H141296   2.820   3.098   0.167 -1.1411 -0.9885  0.0841
 6579TIP3    H241297   2.811   3.175   0.297  0.9481 -0.0939 -0.2620
 6580TIP3   OH241298   6.208   5.593   2.326 -0.2691 -1.0907  0.4293
 6580TIP3    H141299   6.188   5.684   2.349  2.2810  0.3100 -2.2081
 6580TIP3    H241300   6.230   5.551   2.409  1.0892  1.4864  1.4907
 6581TIP3   OH241301   3.690   0.460   1.764  0.2981 -0.4596 -0.5074
 6581TIP3    H141302   3.773   0.475   1.809 -0.8639  0.4123  1.4519
 6581TIP3    H241303   3.628   0.520   1.806 -2.5267 -4.4020  1.6414
 6582TIP3   OH241304   1.162   5.146   7.731 -0.2339  0.0437  0.1202
 6582TIP3    H141305   1.255   5.126   7.718 -0.5279 -0.2729 -1.7608
 6582TIP3    H241306   1.157   5.241   7.719  0.1540  0.4207  2.5060
 6583TIP3   OH241307   5.654   2.823   1.116  0.1784 -0.7776 -0.6336
 6583TIP3    H141308   5.662   2.859   1.027  0.5274  0.6268 -0.0598
 6583TIP3    H241309   5.742   2.828   1.152 -0.0611 -0.8251 -0.0277
 6584TIP3   OH241310   2.623   2.024   2.768  0.1299  0.2909  0.2684
 6584TIP3    H141311   2.716   2.007   2.783 -0.1631 -0.8590  0.9740
 6584TIP3    H241312   2.615   2.033   2.673  1.1171  1.5046  0.2797
 6585TIP3   OH241313   3.222   2.883   7.384 -0.0894  0.1895 -0.0148
 6585TIP3    H141314   3.150   2.903   7.443  0.3104  1.2481  0.1351
 6585TIP3    H241315   3.298   2.872   7.441  0.1579  0.5387 -0.2689
 6586TIP3   OH241316   3.347   2.248   2.874 -0.6069  0.4346  0.2873
 6586TIP3    H141317   3.331   2.188   2.947  1.0557 -0.8337 -0.3426
 6586TIP3    H241318   3.287   2.321   2.890 -0.4548  0.0859  2.7892
 6587TIP3   OH241319   4.349   1.073   2.199  0.3574 -0.5423 -0.1470
 6587TIP3    H141320   4.362   0.983   2.230  1.3517 -0.9494 -1.6065
 6587TIP3    H241321   4.437   1.104   2.177 -0.0263  0.6328 -0.0982
 6588TIP3   OH241322   0.885   4.992   8.480  0.0381  0.2302  0.1552
 6588TIP3    H141323   0.850   5.001   8.568  0.2475 -1.5674  0.4603
 6588TIP3    H241324   0.809   4.971   8.426 -0.2890  2.4750 -0.3643
 6589TIP3   OH241325   6.396   1.234   7.928  0.8684 -0.1218 -0.1180
 6589TIP3    H141326   6.466   1.252   7.992  0.7628  0.1687 -0.0826
 6589TIP3    H241327   6.401   1.140   7.914  3.1654  0.2162 -2.2922
 6590TIP3   OH241328   3.993   1.950   3.347  0.2309 -0.6600 -0.3149
 6590TIP3    H141329   3.946   1.887   3.292 -0.7487  0.6159 -0.9774
 6590TIP3    H241330   3.948   1.945   3.431  0.3215 -1.0279 -0.2850
 6591TIP3   OH241331   4.103   3.681   0.378  0.7500 -0.3147  0.3389
 6591TIP3    H141332   4.194   3.651   0.388  1.2720  0.9610 -0.3141
 6591TIP3    H241333   4.100   3.766   0.422 -0.4942 -0.9380  1.5088
 6592TIP3   OH241334   2.233   0.540   1.254  0.0684  0.2856  0.0631
 6592TIP3    H141335   2.323   0.522   1.227 -0.4944 -2.0530 -0.5070
 6592TIP3    H241336   2.187   0.561   1.174 -0.1157  0.3979  0.1981
 6593TIP3   OH241337   3.716   2.306   0.106 -0.1475 -0.2454  0.2439
 6593TIP3    H141338   3.715   2.260   0.190  2.0801 -0.7082  0.0981
 6593TIP3    H241339   3.678   2.391   0.124  1.6203  0.2258  2.1412
 6594TIP3   OH241340   2.998   6.746   0.075 -0.1391 -0.2183  0.0922
 6594TIP3    H141341   3.091   6.743   0.100 -0.5202 -0.9245  1.5550
 6594TIP3    H241342   2.972   6.654   0.070 -0.0987 -0.1849 -3.2115
 6595TIP3   OH241343   4.262   1.901   2.612 -0.0791  0.0346 -0.0010
 6595TIP3    H141344   4.228   1.985   2.644  1.0681  1.1666 -1.6252
 6595TIP3    H241345   4.333   1.880   2.672 -0.6918 -0.0388  0.7106
 6596TIP3   OH241346   0.521   4.404   8.793  0.2004 -0.0506  0.0244
 6596TIP3    H141347   0.490   4.392   8.703  2.2274  2.6488 -1.1566
 6596TIP3    H241348   0.492   4.492   8.817  2.1187  0.3888  0.9113
 6597TIP3   OH241349   1.425   4.957   1.438  0.0706 -0.2203 -0.0220
 6597TIP3    H141350   1.481   4.881   1.456  0.0118  0.0221  1.2995
 6597TIP3    H241351   1.472   5.030   1.477 -0.8053  0.1052  0.4425
 6598TIP3   OH241352   3.898   0.310   0.191  0.4239 -0.2619  1.0087
 6598TIP3    H141353   3.949   0.349   0.262 -1.1837  1.0297  1.5012
 6598TIP3    H241354   3.809   0.345   0.202  0.1365  0.1377 -1.7272
 6599TIP3   OH241355   4.208   0.509   2.168  0.0235  0.0378 -0.3701
 6599TIP3    H141356   4.263   0.586   2.152  1.1096  0.4233  3.9129
 6599TIP3    H241357   4.118   0.541   2.161  0.4354  1.2195 -0.4578
 6600TIP3   OH241358   5.871   4.877   0.965  0.4346 -0.2541  0.3750
 6600TIP3    H141359   5.778   4.879   0.984  0.4776 -0.8188  0.6718
 6600TIP3    H241360   5.880   4.815   0.893  0.5648 -0.1162  0.2719
 6601TIP3   OH241361   1.138   4.558   0.876 -0.1958  0.0053 -0.5973
 6601TIP3    H141362   1.179   4.575   0.960  0.2304  1.0528 -1.0011
 6601TIP3    H241363   1.110   4.644   0.844 -1.4145 -0.5161 -0.9938
 6602TIP3   OH241364   3.517   0.633   2.141 -0.2125 -0.3071 -0.1351
 6602TIP3    H141365   3.469   0.645   2.058  1.2246 -0.0781 -0.9608
 6602TIP3    H241366   3.585   0.568   2.120 -0.9534 -1.6430  1.3696
 6603TIP3   OH241367   6.567   4.601   2.268  0.3578 -0.3418 -0.5729
 6603TIP3    H141368   6.498   4.588   2.202 -0.6307 -1.2235  0.6017
 6603TIP3    H241369   6.520   4.623   2.348  1.5102  0.0269  0.0211
 6604TIP3   OH241370   3.723   5.739   7.705 -0.1669  0.2315 -0.8366
 6604TIP3    H141371   3.725   5.655   7.659  1.9373  0.2169 -0.8191
 6604TIP3    H241372   3.749   5.803   7.638 -3.3763  1.1977 -1.3189
 6605TIP3   OH241373   1.039   5.510   2.262 -0.0130  0.3080 -0.1520
 6605TIP3    H141374   1.065   5.475   2.177 -1.7789  0.0858 -0.6544
 6605TIP3    H241375   1.002   5.435   2.309 -2.2357  1.0650 -0.5655
 6606TIP3   OH241376   2.855   1.207   2.635 -0.4777 -0.3596 -0.3807
 6606TIP3    H141377   2.846   1.287   2.583 -0.8536  0.5438  1.0252
 6606TIP3    H241378   2.932   1.163   2.599 -0.9050  0.0530 -1.9007
 6607TIP3   OH241379   6.701   1.279   7.870  0.6303  0.1274 -0.0249
 6607TIP3    H141380   6.647   1.263   7.793 -0.0431  0.3580  0.3882
 6607TIP3    H241381   6.772   1.335   7.839  0.5224 -0.0156 -0.5337
 6608TIP3   OH241382   6.641   6.297   2.898  0.0645 -0.4680  0.3904
 6608TIP3    H141383   6.550   6.310   2.873  0.3993  0.3073 -0.4927
 6608TIP3    H241384   6.691   6.333   2.824  1.0842 -0.4013  1.0981
 6609TIP3   OH241385   6.280   5.701   2.894  0.0118 -1.0030 -0.1720
 6609TIP3    H141386   6.357   5.705   2.950  0.0544 -1.2861 -0.2077
 6609TIP3    H241387   6.231   5.625   2.926 -0.6833 -0.3297  0.3985
 6610TIP3   OH241388   2.209   6.255   1.833  0.1111  0.3239 -0.6911
 6610TIP3    H141389   2.247   6.243   1.920 -1.3626 -2.3432 -0.3009
 6610TIP3    H241390   2.145   6.325   1.843 -1.7700 -1.5171  1.0925
 6611TIP3   OH241391   0.810   4.122   0.879 -0.3228  0.4379 -0.5024
 6611TIP3    H141392   0.740   4.062   0.904  0.2850  0.0079  0.2234
 6611TIP3    H241393   0.802   4.195   0.941 -0.3070  0.5202 -0.5979
 6612TIP3   OH241394   4.358   3.599   7.503 -0.1788  0.0242  0.7419
 6612TIP3    H141395   4.342   3.618   7.595  1.2113 -4.0792  2.0822
 6612TIP3    H241396   4.277   3.559   7.472 -0.2014  0.1547  0.6373
 6613TIP3   OH241397   6.624   1.792   8.082 -0.5097 -0.3367  0.0234
 6613TIP3    H141398   6.673   1.718   8.046 -1.9011 -0.5991 -1.4586
 6613TIP3    H241399   6.653   1.867   8.030  0.0334 -0.0519  0.7316
 6614TIP3   OH241400   4.334   4.843   8.280  0.2963  0.4310  0.0782
 6614TIP3    H141401   4.333   4.818   8.188 -0.4707 -0.3821  0.2880
 6614TIP3    H241402   4.328   4.939   8.280  1.5008  0.5297 -0.7230
 6615TIP3   OH241403   3.525   0.038   0.610  0.2151  0.6469  0.0729
 6615TIP3    H141404   3.474  -0.007   0.678  0.1419 -0.6703 -0.8359
 6615TIP3    H241405   3.484   0.012   0.528  2.0096 -0.0025 -0.6443
 6616TIP3   OH241406   4.930   0.885   1.601  0.9174 -0.1884 -0.2738
 6616TIP3    H141407   4.967   0.915   1.518 -0.2246  0.2441 -0.6470
 6616TIP3    H241408   4.987   0.923   1.668 -0.0002  2.2234 -0.7570
 6617TIP3   OH241409   0.412   5.017   2.686  0.3900  0.5813 -0.0303
 6617TIP3    H141410   0.441   5.084   2.625  0.0468 -0.3492 -1.2605
 6617TIP3    H241411   0.324   4.994   2.657 -0.3770  1.1302  1.7100
 6618TIP3   OH241412   1.323   5.206   1.988  0.3093 -0.2905 -0.6915
 6618TIP3    H141413   1.267   5.128   1.992  0.2805 -0.2234  0.6598
 6618TIP3    H241414   1.266   5.276   1.957 -0.7395  0.0580  1.8225
 6619TIP3   OH241415   5.425   0.452   1.825  0.8181 -0.6492 -0.1307
 6619TIP3    H141416   5.448   0.395   1.899  2.2580 -0.3047 -0.3007
 6619TIP3    H241417   5.508   0.482   1.790  0.1021  1.4739 -0.1517
 6620TIP3   OH241418   4.320   1.877   8.680 -0.3552  0.4177 -0.2369
 6620TIP3    H141419   4.318   1.788   8.644  0.9101  0.4824 -0.5283
 6620TIP3    H241420   4.292   1.933   8.608  0.5761  0.3955 -0.6378
 6621TIP3   OH241421   3.750   1.963   3.533 -0.1797  0.7469  0.0128
 6621TIP3    H141422   3.772   2.056   3.529 -0.6672  0.8519 -0.2341
 6621TIP3    H241423   3.695   1.948   3.456 -0.4104  0.3305  0.2573
 6622TIP3   OH241424   2.331   2.802   2.606  0.4359 -0.1179 -0.4500
 6622TIP3    H141425   2.272   2.872   2.634 -0.4428 -1.0677  0.1268
 6622TIP3    H241426   2.276   2.744   2.553  1.0331 -0.6267 -0.5201
 6623TIP3   OH241427   5.389   3.643   0.619  0.2228 -0.5283 -0.2075
 6623TIP3    H141428   5.321   3.633   0.685  1.1844  1.1920  1.1443
 6623TIP3    H241429   5.468   3.610   0.661  0.6189 -0.5788 -0.9707
 6624TIP3   OH241430   3.055   4.606   2.575  0.2662  0.3711 -0.2616
 6624TIP3    H141431   3.119   4.555   2.624 -1.1919  0.4533  1.8580
 6624TIP3    H241432   3.102   4.635   2.497  2.9276  0.7441  1.3697
 6625TIP3   OH241433   2.437   5.474   2.753 -0.0297  0.2422 -0.2331
 6625TIP3    H141434   2.438   5.569   2.747 -0.3202  0.3641  1.2194
 6625TIP3    H241435   2.522   5.446   2.720  1.0287  1.1908  1.5531
 6626TIP3   OH241436   3.786   3.367   2.486 -0.3698 -0.0876 -0.3648
 6626TIP3    H141437   3.798   3.454   2.448 -1.9149  0.4709  0.3355
 6626TIP3    H241438   3.864   3.352   2.539  0.2652  0.5197 -1.0946
 6627TIP3   OH241439   4.130   3.151   2.347  0.0339  0.1800 -0.5430
 6627TIP3    H141440   4.159   3.071   2.390 -3.1540 -1.0579 -0.3750
 6627TIP3    H241441   4.136   3.131   2.253 -1.1336 -0.4978 -0.5017
 6628TIP3   OH241442   2.908   1.632   8.175  0.5138  0.2200 -0.2909
 6628TIP3    H141443   2.833   1.676   8.213 -0.8905 -3.4728  1.7751
 6628TIP3    H241444   2.957   1.598   8.250  1.4430 -1.6547 -1.6390
 6629TIP3   OH241445   0.097   4.443   2.801  0.0502  0.3950 -0.2683
 6629TIP3    H141446   0.146   4.515   2.762 -0.1988  0.4170 -0.5363
 6629TIP3    H241447   0.161   4.398   2.856  0.1574  0.9451  0.0688
 6630TIP3   OH241448   5.892   5.320   8.700  0.1191 -0.1083  0.5404
 6630TIP3    H141449   5.821   5.364   8.747 -0.1822 -0.5190  0.4744
 6630TIP3    H241450   5.861   5.230   8.689  0.9678 -0.4911  1.1808
 6631TIP3   OH241451   6.348   5.547   2.001  0.1287 -0.2766  0.0346
 6631TIP3    H141452   6.426   5.592   1.968  1.5848 -0.8079  2.4688
 6631TIP3    H241453   6.382   5.467   2.040 -1.5280 -0.1335  1.9082
 6632TIP3   OH241454   4.586   0.931   1.110 -0.4081  0.0260 -0.3515
 6632TIP3    H141455   4.608   0.951   1.201 -2.1602 -3.7967  1.1239
 6632TIP3    H241456   4.492   0.950   1.104 -0.5240 -0.7325 -1.0162
 6633TIP3   OH241457   2.537   3.796   7.430 -0.1462  0.3265  0.1486
 6633TIP3    H141458   2.476   3.726   7.405 -0.8942 -0.2063  3.0417
 6633TIP3    H241459   2.607   3.791   7.366 -2.6080  0.3255 -2.7934
 6634TIP3   OH241460   0.268   3.732   2.660 -0.1062 -0.9648 -0.6547
 6634TIP3    H141461   0.276   3.818   2.701 -1.4445 -1.2724  0.3252
 6634TIP3    H241462   0.243   3.750   2.570 -1.7273 -0.3283 -0.1000
 6635TIP3   OH241463   4.915   5.218   7.405  0.5042  0.0049  0.1736
 6635TIP3    H141464   4.932   5.134   7.362  0.4113 -0.1895  0.5181
 6635TIP3    H241465   4.994   5.270   7.387  2.3333 -1.4469  3.1829
 6636TIP3   OH241466   3.476   1.476   1.876  0.4101 -0.0691 -0.6132
 6636TIP3    H141467   3.531   1.494   1.800  1.5813 -0.8857  0.0046
 6636TIP3    H241468   3.490   1.383   1.894 -0.7891 -0.1675 -0.1322
 6637TIP3   OH241469   2.747   6.511   2.879 -0.0954  0.2977 -0.0819
 6637TIP3    H141470   2.749   6.459   2.960 -2.1374  0.4061  0.0744
 6637TIP3    H241471   2.687   6.464   2.822  0.6295  0.7207 -1.2264
 6638TIP3   OH241472   1.503   2.761   1.340  0.0716 -0.2150 -0.2535
 6638TIP3    H141473   1.494   2.668   1.363  0.7987 -0.6364 -1.5745
 6638TIP3    H241474   1.438   2.774   1.271 -1.5623  0.8383  1.3887
 6639TIP3   OH241475   6.205   6.457   0.823  0.1952  0.3462 -0.2188
 6639TIP3    H141476   6.216   6.542   0.865  1.0090 -0.2573  0.8481
 6639TIP3    H241477   6.233   6.470   0.733  0.9899  1.0373  0.1215
 6640TIP3   OH241478   0.489   3.111   2.494 -0.1021  0.5446 -0.4758
 6640TIP3    H141479   0.457   3.141   2.579 -0.8090  1.4616 -1.0363
 6640TIP3    H241480   0.549   3.179   2.465 -0.7353  0.8163 -1.1978
 6641TIP3   OH241481   0.591   3.526   1.036 -0.7728 -0.3815 -0.0492
 6641TIP3    H141482   0.555   3.587   0.972 -0.8946  1.0428  1.3262
 6641TIP3    H241483   0.624   3.453   0.983 -1.4740  0.4238 -1.6691
 6642TIP3   OH241484   2.796   2.617   1.027  0.1386  0.9357 -0.3056
 6642TIP3    H141485   2.706   2.627   1.059  0.3535  1.1527  0.2372
 6642TIP3    H241486   2.848   2.671   1.086  0.4765  1.7805 -1.3426
 6643TIP3   OH241487   4.228   3.524   1.657 -0.3839  0.0574 -0.2599
 6643TIP3    H141488   4.139   3.494   1.674  0.0881 -0.2354  1.8598
 6643TIP3    H241489   4.219   3.618   1.641 -1.2458 -0.2618 -1.9340
 6644TIP3   OH241490   3.922   2.230   2.115  0.0847  0.5832 -0.1989
 6644TIP3    H141491   3.885   2.317   2.099 -0.0366  0.4902 -0.4291
 6644TIP3    H241492   4.009   2.233   2.076  0.8494  1.2219  1.4560
 6645TIP3   OH241493   5.393   3.305   7.434 -0.1110  0.2558  0.2046
 6645TIP3    H141494   5.464   3.321   7.371 -0.4350 -0.4135 -0.3334
 6645TIP3    H241495   5.333   3.247   7.389 -1.0250  0.8246  0.6538
 6646TIP3   OH241496   6.358   1.669   0.790 -0.0977 -0.4337  0.3163
 6646TIP3    H141497   6.450   1.666   0.817 -0.0267  0.3080  0.1636
 6646TIP3    H241498   6.310   1.645   0.869  0.1617  0.6999  0.8424
 6647TIP3   OH241499   0.607   2.084   8.387  0.2379 -0.5293 -0.1330
 6647TIP3    H141500   0.636   2.004   8.431 -1.6459 -0.9590  0.4110
 6647TIP3    H241501   0.542   2.122   8.447 -1.1874 -0.2623 -1.7755
 6648TIP3   OH241502   1.939   0.871   1.052  0.3492  0.0341  0.2930
 6648TIP3    H141503   2.007   0.904   0.994  2.4960 -2.2291  1.3446
 6648TIP3    H241504   1.857   0.890   1.006  1.7758  1.0181 -2.0093
 6649TIP3   OH241505   2.789   1.224   7.451 -0.0744  0.1508 -0.1865
 6649TIP3    H141506   2.884   1.233   7.458 -0.1147  0.0804  0.4763
 6649TIP3    H241507   2.775   1.133   7.424  0.0465  0.1717 -0.3192
 6650TIP3   OH241508   4.389   5.163   8.510  0.6162 -0.5472  0.9651
 6650TIP3    H141509   4.330   5.144   8.583  1.5539 -0.2149  1.8315
 6650TIP3    H241510   4.437   5.081   8.497 -0.4406 -1.0207 -0.1583
 6651TIP3   OH241511   3.257   4.795   0.793  0.0019  0.1819  0.0230
 6651TIP3    H141512   3.261   4.708   0.833 -0.7359  1.3135  2.8205
 6651TIP3    H241513   3.195   4.785   0.721 -2.2628 -1.0846  1.9970
 6652TIP3   OH241514   3.533   3.797   7.883  0.3451  0.2995 -0.2689
 6652TIP3    H141515   3.510   3.864   7.948 -0.7183 -1.1353  0.9084
 6652TIP3    H241516   3.491   3.827   7.802  0.1609  1.2065  0.1496
 6653TIP3   OH241517   2.042   1.999   0.668 -0.5513  0.6715  0.1086
 6653TIP3    H141518   2.028   1.961   0.755 -1.4272 -0.4026 -0.4753
 6653TIP3    H241519   2.114   1.948   0.631  0.7373  2.0018  0.6754
 6654TIP3   OH241520   0.659   5.532   1.598  0.6379  0.4053 -0.3081
 6654TIP3    H141521   0.661   5.486   1.682  0.5735 -0.0816 -0.5709
 6654TIP3    H241522   0.722   5.604   1.609 -0.4783  1.2714  0.6768
 6655TIP3   OH241523   6.211   0.908   1.875 -0.5429  0.3328 -0.1483
 6655TIP3    H141524   6.219   0.884   1.967 -0.9866  3.9992  1.0293
 6655TIP3    H241525   6.300   0.901   1.840  0.3793  2.1406  1.5984
 6656TIP3   OH241526   1.093   5.080   1.317 -0.2552 -0.3485 -0.2669
 6656TIP3    H141527   1.059   5.139   1.385  1.9938  1.9771 -1.0022
 6656TIP3    H241528   1.059   5.115   1.235 -0.7610 -1.5164 -0.5765
 6657TIP3   OH241529   1.303   2.063   1.900 -0.3156 -0.4027 -0.4881
 6657TIP3    H141530   1.379   2.032   1.851  0.2218 -1.3097  0.8529
 6657TIP3    H241531   1.241   2.092   1.834 -0.2986 -3.0766 -1.7890
 6658TIP3   OH241532   3.916   3.367   7.819  0.0112  0.0763  0.2792
 6658TIP3    H141533   3.843   3.337   7.765 -0.4840  2.5779 -0.5598
 6658TIP3    H241534   3.982   3.398   7.757 -0.5624  2.9960  0.9678
 6659TIP3   OH241535   3.299   3.027   1.697  0.4682 -0.0121  0.4137
 6659TIP3    H141536   3.292   2.949   1.642  0.6583  1.1353 -1.2922
 6659TIP3    H241537   3.222   3.079   1.675  0.4281  0.3804  1.4259
 6660TIP3   OH241538   2.529   6.590   7.395  0.4344 -0.1228  0.0029
 6660TIP3    H141539   2.448   6.548   7.424  0.5447 -0.9303 -0.8289
 6660TIP3    H241540   2.511   6.684   7.405 -0.2745 -0.3137  0.6658
 6661TIP3   OH241541   4.047   4.160   2.270  0.1304 -0.3687 -0.1697
 6661TIP3    H141542   4.024   4.082   2.220 -0.7130 -0.0064 -0.3837
 6661TIP3    H241543   4.111   4.206   2.215 -0.8554  0.0716 -0.9903
 6662TIP3   OH241544   6.733   4.198   1.089  0.5401 -0.7834 -0.2039
 6662TIP3    H141545   6.737   4.149   1.172 -0.2425 -0.5884 -0.0342
 6662TIP3    H241546   6.682   4.277   1.111  0.8557 -0.4325 -0.7286
 6663TIP3   OH241547   1.295   2.822   0.569 -0.3383 -0.4325  0.1216
 6663TIP3    H141548   1.310   2.905   0.615  0.1755 -1.5205  1.9923
 6663TIP3    H241549   1.222   2.841   0.509 -0.8228  1.1358  1.1462
 6664TIP3   OH241550   6.470   2.516   8.894  0.1795 -0.4097  0.0410
 6664TIP3    H141551   6.512   2.599   8.874 -0.7285  0.4685  1.5407
 6664TIP3    H241552   6.412   2.500   8.820  0.2159  0.4148 -0.1807
 6665TIP3   OH241553   4.114   5.779   1.785 -0.1776 -0.7200  0.2467
 6665TIP3    H141554   4.157   5.699   1.815 -1.3011 -1.4003  0.1138
 6665TIP3    H241555   4.132   5.844   1.853  3.8865  0.0795 -1.3156
 6666TIP3   OH241556   3.702   2.484   1.542 -0.2178 -0.0908 -0.1331
 6666TIP3    H141557   3.617   2.458   1.508 -0.6454 -0.3897  1.1149
 6666TIP3    H241558   3.739   2.403   1.578  2.2020 -0.8479 -3.7707
 6667TIP3   OH241559   5.761   3.996   1.012 -0.3660  0.4639  0.1489
 6667TIP3    H141560   5.849   3.971   1.042 -0.2850  1.2611  0.5996
 6667TIP3    H241561   5.776   4.043   0.930 -0.3452  0.7630  0.3198
 6668TIP3   OH241562   5.837   5.993   0.491  0.0849  0.4896 -0.1019
 6668TIP3    H141563   5.854   6.059   0.423  1.0432 -0.5706 -0.9478
 6668TIP3    H241564   5.820   6.043   0.570 -0.6465  1.7641 -1.0379
 6669TIP3   OH241565   2.335   4.844   1.112  0.5904  0.1617  0.0320
 6669TIP3    H141566   2.272   4.780   1.147  1.1847  0.4589  1.7437
 6669TIP3    H241567   2.363   4.895   1.189  1.1096  1.6338 -1.0761
 6670TIP3   OH241568   3.957   0.534   1.808  0.4813 -0.1764  0.1259
 6670TIP3    H141569   3.964   0.613   1.862  0.1114  1.8196 -2.5375
 6670TIP3    H241570   4.045   0.496   1.809  1.7389  2.3915 -1.3895
 6671TIP3   OH241571   6.514   1.984   1.603 -0.0777  0.2727 -0.3456
 6671TIP3    H141572   6.520   2.001   1.697 -0.3439  1.7234 -0.5643
 6671TIP3    H241573   6.421   1.973   1.586  0.1265 -2.3891 -0.0963
 6672TIP3   OH241574   6.157   1.297   0.065  0.2291 -0.3492  0.1443
 6672TIP3    H141575   6.208   1.220   0.041  0.9316 -0.0398  0.6310
 6672TIP3    H241576   6.139   1.340  -0.019  1.0054 -0.3112 -0.0127
 6673TIP3   OH241577   5.721   4.322   0.254 -0.5415 -0.0832 -0.2480
 6673TIP3    H141578   5.717   4.334   0.159 -0.9652  2.1332  0.0013
 6673TIP3    H241579   5.807   4.283   0.270 -0.5529 -0.6808 -1.5474
 6674TIP3   OH241580   5.795   3.371   8.344  0.0739  0.9311 -1.0364
 6674TIP3    H141581   5.802   3.278   8.364 -0.5367  0.8533 -1.1535
 6674TIP3    H241582   5.734   3.374   8.270  0.9609  1.3353 -1.7687
 6675TIP3   OH241583   4.588   3.166   2.864 -0.3059 -0.3394  0.0947
 6675TIP3    H141584   4.674   3.195   2.894 -0.2518 -2.4030  2.3311
 6675TIP3    H241585   4.596   3.071   2.857 -2.5537 -0.6736  1.0455
 6676TIP3   OH241586   5.719   1.183   7.820 -0.0012 -0.0208  0.1860
 6676TIP3    H141587   5.662   1.113   7.852  1.0000 -1.3738 -0.8487
 6676TIP3    H241588   5.705   1.185   7.726 -1.3783  2.4904  0.3613
 6677TIP3   OH241589   6.411   3.381   2.140  0.2731 -0.0483  0.2846
 6677TIP3    H141590   6.402   3.336   2.056 -2.5202 -0.9299  0.9642
 6677TIP3    H241591   6.341   3.446   2.140  1.8533  1.7339  0.9260
 6678TIP3   OH241592   1.803   1.377   1.244  0.6051 -0.0957  0.3176
 6678TIP3    H141593   1.838   1.350   1.329 -0.1725 -0.3264  0.5667
 6678TIP3    H241594   1.835   1.309   1.183  1.5214  0.3018  0.3374
 6679TIP3   OH241595   6.556   3.457   2.498  0.1623 -0.2315  0.3423
 6679TIP3    H141596   6.549   3.427   2.588  0.8783 -1.6810 -0.0510
 6679TIP3    H241597   6.475   3.507   2.483  0.8377  1.5997  2.2894
 6680TIP3   OH241598   0.250   5.712   8.032 -0.3377 -0.3844 -0.0665
 6680TIP3    H141599   0.222   5.798   8.002  0.2065  0.7218  2.3635
 6680TIP3    H241600   0.346   5.713   8.022 -0.4738 -1.7621 -2.4229
 6681TIP3   OH241601   1.174   4.781   1.112 -0.3313 -0.2414 -0.5019
 6681TIP3    H141602   1.136   4.763   1.198  0.0048 -1.1676 -0.5356
 6681TIP3    H241603   1.099   4.808   1.058 -0.6026 -0.0298 -0.0250
 6682TIP3   OH241604   1.431   4.465   1.456 -0.4166 -0.3840  0.5325
 6682TIP3    H141605   1.351   4.479   1.406 -0.2306  0.9506  0.5568
 6682TIP3    H241606   1.443   4.370   1.457 -0.8055 -0.4917 -1.3472
 6683TIP3   OH241607   3.158   6.592   2.067  0.0760 -0.2656 -0.5858
 6683TIP3    H141608   3.103   6.663   2.098 -0.8778 -0.0795 -2.5937
 6683TIP3    H241609   3.157   6.528   2.138 -0.1734  1.0906  0.6713
 6684TIP3   OH241610   5.583   2.258   0.603  0.6518  0.1962 -0.4975
 6684TIP3    H141611   5.581   2.351   0.583  1.5068 -0.0736 -1.9839
 6684TIP3    H241612   5.662   2.247   0.656 -1.2400  0.7976  2.6927
 6685TIP3   OH241613   2.829   2.932   2.829 -0.1404 -0.3102  0.5177
 6685TIP3    H141614   2.790   2.942   2.916 -0.6678 -0.0010  0.2456
 6685TIP3    H241615   2.813   2.840   2.806  0.2253 -0.4632  0.8484
 6686TIP3   OH241616   3.146   3.705   1.382  0.6944  0.0605  0.1383
 6686TIP3    H141617   3.063   3.748   1.402 -1.4838 -3.2601 -0.9437
 6686TIP3    H241618   3.209   3.745   1.443 -1.7479  2.3732  1.3571
 6687TIP3   OH241619   2.819   1.717   8.940  0.1110 -0.3078  0.2782
 6687TIP3    H141620   2.780   1.802   8.920  1.6316  0.6185  1.0190
 6687TIP3    H241621   2.836   1.721   9.034 -2.8717 -2.8196  1.0779
 6688TIP3   OH241622   0.329   3.344   2.171  0.4985 -0.1202 -0.9580
 6688TIP3    H141623   0.289   3.425   2.140 -2.0630 -0.4204  1.1521
 6688TIP3    H241624   0.375   3.370   2.251 -1.9073 -0.9051  0.7980
 6689TIP3   OH241625   6.359   6.711   1.841  0.5861 -0.1706 -0.4524
 6689TIP3    H141626   6.430   6.754   1.888 -1.0146  2.1855  0.0040
 6689TIP3    H241627   6.381   6.721   1.749  1.0218  0.2038 -0.3124
 6690TIP3   OH241628   0.266   2.944   1.668 -0.0917  0.3535  0.1819
 6690TIP3    H141629   0.302   2.878   1.728  0.1782 -0.0173 -0.3816
 6690TIP3    H241630   0.219   2.892   1.602  0.3253  0.7100 -0.4019
 6691TIP3   OH241631   6.571   6.201   8.096  0.4459  0.1317  0.0670
 6691TIP3    H141632   6.645   6.145   8.071  1.0000  0.7167  0.3875
 6691TIP3    H241633   6.554   6.180   8.188  1.6326  1.5512  0.6413
 6692TIP3   OH241634   0.845   2.861   0.263  0.7841  0.0680 -0.3057
 6692TIP3    H141635   0.855   2.954   0.284 -0.7235  0.2729 -0.4018
 6692TIP3    H241636   0.930   2.823   0.286  0.5429  0.9561  2.4766
 6693TIP3   OH241637   5.514   1.556   8.555  0.5582  0.8039 -0.2329
 6693TIP3    H141638   5.544   1.537   8.644 -2.0544 -1.8283  0.2657
 6693TIP3    H241639   5.431   1.602   8.567 -0.1338 -0.1183 -1.2347
 6694TIP3   OH241640   6.741   3.915   1.070  0.1391 -0.1322 -0.1267
 6694TIP3    H141641   6.767   4.002   1.040  1.2565 -0.0652  0.9697
 6694TIP3    H241642   6.820   3.862   1.062 -0.3235 -0.8533 -0.0388
 6695TIP3   OH241643   2.068   0.632   1.041  0.2960 -0.0061 -0.2042
 6695TIP3    H141644   2.012   0.709   1.042 -1.8344 -1.3098 -3.2462
 6695TIP3    H241645   2.143   0.657   0.988 -0.4929 -0.0161 -1.3656
 6696TIP3   OH241646   2.337   4.483   0.304  0.4357  0.8340  0.3031
 6696TIP3    H141647   2.249   4.518   0.321  1.0223  2.3223  0.4598
 6696TIP3    H241648   2.329   4.438   0.220 -0.7590 -0.1520  0.9143
 6697TIP3   OH241649   1.240   4.768   2.023  0.4691 -0.1023 -0.1609
 6697TIP3    H141650   1.179   4.695   2.015  0.9378 -1.2034  4.0835
 6697TIP3    H241651   1.215   4.828   1.952 -2.2810 -2.6621 -1.5885
 6698TIP3   OH241652   4.580   5.697   8.383  0.2689  0.1349  0.1501
 6698TIP3    H141653   4.639   5.749   8.329  1.6502 -3.4989 -2.2639
 6698TIP3    H241654   4.506   5.677   8.327  0.3770 -1.4329  0.5010
 6699TIP3   OH241655   0.394   3.001   2.262  0.3403  0.1281  0.1808
 6699TIP3    H141656   0.428   3.039   2.343 -1.7260  1.1678  0.6207
 6699TIP3    H241657   0.357   2.917   2.288 -0.0553  0.3269  0.2621
 6700TIP3   OH241658   0.533   0.390   0.287  0.2656  0.2835 -0.6534
 6700TIP3    H141659   0.456   0.439   0.314  2.4146  3.4864  0.1726
 6700TIP3    H241660   0.542   0.321   0.352 -0.6604  1.2202  0.5052
 6701TIP3   OH241661   3.506   3.716   8.549 -0.0763  0.7336 -0.4416
 6701TIP3    H141662   3.529   3.796   8.595  2.6315  1.2383 -2.4091
 6701TIP3    H241663   3.548   3.646   8.599  3.0349  1.2983 -2.0178
 6702TIP3   OH241664   0.170   2.753   1.508 -0.1121  0.1387 -0.8519
 6702TIP3    H141665   0.215   2.764   1.425  0.9559  1.0175 -0.1883
 6702TIP3    H241666   0.109   2.680   1.494  0.5372 -0.1613 -2.1833
 6703TIP3   OH241667   2.610   4.299   0.226 -0.5394  0.1052 -0.2695
 6703TIP3    H141668   2.531   4.309   0.174 -0.5857  1.4369  0.0248
 6703TIP3    H241669   2.579   4.283   0.315 -0.4589 -1.6968 -0.5298
 6704TIP3   OH241670   4.900   5.800   0.190 -0.3395  0.2186  0.0998
 6704TIP3    H141671   4.904   5.737   0.261  0.9715 -0.5056 -0.5817
 6704TIP3    H241672   4.918   5.749   0.111 -2.0926  0.9288 -0.8305
 6705TIP3   OH241673   5.942   3.803   1.254  0.1960  0.4373  0.0423
 6705TIP3    H141674   5.941   3.898   1.266 -0.0144  0.2570  1.7701
 6705TIP3    H241675   5.856   3.775   1.288  0.6736 -0.4509  0.5400
 6706TIP3   OH241676   5.315   3.874   0.833  0.4885  0.3032  0.4615
 6706TIP3    H141677   5.247   3.821   0.792  0.1896  0.7091  0.4216
 6706TIP3    H241678   5.396   3.847   0.791  0.6263 -1.4601  1.7396
 6707TIP3   OH241679   6.476   4.555   0.779  0.5533 -0.6506 -0.1022
 6707TIP3    H141680   6.392   4.527   0.816 -0.3126 -0.1185 -1.5715
 6707TIP3    H241681   6.520   4.474   0.755 -0.4694 -0.8974 -1.2305
 6708TIP3   OH241682   2.624   0.320   1.715 -0.6024  0.5693 -0.6377
 6708TIP3    H141683   2.539   0.361   1.700 -0.8619 -0.7245 -3.3587
 6708TIP3    H241684   2.612   0.229   1.687  1.2123 -0.1461  0.6876
 6709TIP3   OH241685   1.520   4.691   2.094 -0.2990 -0.2203 -0.0248
 6709TIP3    H141686   1.565   4.771   2.068 -2.7384  0.7351 -1.5677
 6709TIP3    H241687   1.434   4.696   2.053 -0.4551 -3.8148 -0.4717
 6710TIP3   OH241688   4.919   4.903   1.281  0.0037  0.0707  0.1580
 6710TIP3    H141689   4.989   4.864   1.229 -0.5982  1.2390 -1.6446
 6710TIP3    H241690   4.948   4.993   1.295 -0.6468  0.2567  0.3120
 6711TIP3   OH241691   2.530   5.467   2.125 -0.0643 -0.2677 -0.4129
 6711TIP3    H141692   2.596   5.501   2.064 -0.4628 -0.9844 -1.2757
 6711TIP3    H241693   2.574   5.395   2.170  0.3912  0.5811  0.5319
 6712TIP3   OH241694   2.348   5.465   6.989 -0.4819  0.0126  0.6946
 6712TIP3    H141695   2.415   5.398   6.973 -1.7644 -0.8957 -1.2452
 6712TIP3    H241696   2.397   5.546   6.997  0.8307 -0.3198 -2.5445
 6713TIP3   OH241697   0.319   1.464   2.502  0.0016  0.1510  0.2501
 6713TIP3    H141698   0.260   1.461   2.427  1.8076 -0.2640 -1.2538
 6713TIP3    H241699   0.287   1.536   2.555 -1.7722 -0.0046 -0.5329
 6714TIP3   OH241700   4.839   5.613   8.072 -0.5325 -0.3101 -0.1276
 6714TIP3    H141701   4.806   5.692   8.115 -0.8581 -1.7509  2.4769
 6714TIP3    H241702   4.927   5.636   8.043 -0.6204  1.0098  0.6007
 6715TIP3   OH241703   6.632   4.952   3.055 -0.5548 -0.2946  0.1362
 6715TIP3    H141704   6.545   4.924   3.085 -0.1823 -0.7536  0.8030
 6715TIP3    H241705   6.614   5.004   2.976 -1.4096 -0.6464  0.0857
 6716TIP3   OH241706   5.883   6.358   2.719  0.8732  0.3087 -0.4397
 6716TIP3    H141707   5.918   6.274   2.690  0.5820  0.3966 -1.0684
 6716TIP3    H241708   5.790   6.355   2.694  0.7134  0.5675  0.1000
 6717TIP3   OH241709   5.602   3.784   0.023 -0.1837  0.2192 -0.5641
 6717TIP3    H141710   5.617   3.856   0.084 -1.4813 -0.3043  0.4313
 6717TIP3    H241711   5.562   3.825  -0.054 -0.3843  0.6368 -0.2387
 6718TIP3   OH241712   4.679   5.343   2.375  0.2134 -0.1871 -0.3311
 6718TIP3    H141713   4.653   5.265   2.424 -1.7081 -0.4419 -1.6521
 6718TIP3    H241714   4.659   5.416   2.434  1.8245 -0.6197  0.8256
 6719TIP3   OH241715   5.046   1.055   1.785  0.7181 -0.0775  0.1348
 6719TIP3    H141716   4.996   1.136   1.801  0.9201 -0.0284  0.5423
 6719TIP3    H241717   5.118   1.082   1.728 -0.5407 -0.4357 -1.6909
 6720TIP3   OH241718   4.847   5.827   1.718 -0.7993 -0.1773  0.2628
 6720TIP3    H141719   4.842   5.896   1.785  1.6899  0.2546  0.1130
 6720TIP3    H241720   4.814   5.868   1.638 -0.6718  0.3882  0.4953
 6721TIP3   OH241721   5.180   1.187   0.417 -0.3020  0.1153  0.3384
 6721TIP3    H141722   5.176   1.116   0.482  0.3490 -0.1242  0.1268
 6721TIP3    H241723   5.272   1.190   0.391 -0.3031  1.0973  0.4060
 6722TIP3   OH241724   4.527   2.420   7.838  0.6758 -0.2152  0.1201
 6722TIP3    H141725   4.572   2.363   7.776  0.0906 -0.4561 -0.0832
 6722TIP3    H241726   4.583   2.420   7.916  1.5420  0.2813 -0.4834
 6723TIP3   OH241727   1.560   4.205   2.666  0.3535 -0.2654  0.7240
 6723TIP3    H141728   1.512   4.268   2.721  0.1436  0.7235 -0.5323
 6723TIP3    H241729   1.502   4.129   2.660 -1.6606  1.2603 -1.5394
 6724TIP3   OH241730   5.542   3.035   7.917 -0.3599  0.2468 -0.3626
 6724TIP3    H141731   5.538   2.944   7.884  0.3946  0.5090 -1.2432
 6724TIP3    H241732   5.580   3.084   7.844 -0.4416  1.2149  0.2380
 6725TIP3   OH241733   0.950   5.938   1.526 -0.0713  0.2473  0.7757
 6725TIP3    H141734   1.011   5.906   1.459 -0.8724  3.2508 -1.5554
 6725TIP3    H241735   0.997   6.009   1.569 -1.0920  1.0816  0.5292
 6726TIP3   OH241736   4.220   1.139   2.488 -0.1694 -0.5967  0.1346
 6726TIP3    H141737   4.252   1.188   2.412 -1.6155 -0.5709 -0.4763
 6726TIP3    H241738   4.298   1.096   2.523  0.9971  1.4658  0.1965
 6727TIP3   OH241739   6.688   4.286   8.579  0.1527  0.2552  0.3227
 6727TIP3    H141740   6.655   4.245   8.499  0.9976 -0.0916  0.1466
 6727TIP3    H241741   6.672   4.222   8.648 -1.1813  0.8132  0.5775
 6728TIP3   OH241742   2.074   2.337   8.548  0.0354 -0.6439 -0.0285
 6728TIP3    H141743   1.998   2.343   8.606  0.0861 -1.0031  0.0744
 6728TIP3    H241744   2.138   2.395   8.588 -0.8301  1.1713 -1.1363
 6729TIP3   OH241745   3.294   5.144   1.109 -0.2374  0.1273  0.1002
 6729TIP3    H141746   3.376   5.123   1.154  0.5217  1.3348 -0.6563
 6729TIP3    H241747   3.255   5.059   1.090  0.6064 -0.4589  0.8903
 6730TIP3   OH241748   5.699   4.862   8.521 -0.3875  0.1293 -0.2767
 6730TIP3    H141749   5.611   4.835   8.493 -0.1898  0.5710 -1.3651
 6730TIP3    H241750   5.720   4.937   8.466  1.0627 -0.5544 -0.6940
 6731TIP3   OH241751   4.585   5.475   7.510  0.5061 -0.1076 -0.1175
 6731TIP3    H141752   4.620   5.503   7.425 -1.8903  1.1835 -0.7700
 6731TIP3    H241753   4.598   5.380   7.511  1.2407 -0.0567 -1.5989
 6732TIP3   OH241754   5.340   3.750   0.363  0.0710 -0.2112  0.0630
 6732TIP3    H141755   5.353   3.720   0.453 -0.6586 -0.3034  0.1395
 6732TIP3    H241756   5.361   3.843   0.366 -0.9822  0.0240  0.5694
 6733TIP3   OH241757   2.542   3.691   0.484 -0.0068 -0.2100  0.1547
 6733TIP3    H141758   2.584   3.702   0.569 -1.4303 -2.5693  1.2672
 6733TIP3    H241759   2.597   3.628   0.437 -0.3333 -0.4909  0.1475
 6734TIP3   OH241760   1.786   3.818   1.992 -0.0887  0.0438  0.1795
 6734TIP3    H141761   1.716   3.870   1.954 -0.1631  0.4960  0.9041
 6734TIP3    H241762   1.799   3.856   2.079  1.2153  0.1313 -0.0244
 6735TIP3   OH241763   3.393   1.573   8.000 -0.4861 -0.1042  0.2120
 6735TIP3    H141764   3.345   1.490   8.009  1.0275 -1.0734 -0.3066
 6735TIP3    H241765   3.465   1.552   7.941 -0.6930  1.8842 -0.8099
 6736TIP3   OH241766   2.704   3.484   1.641 -0.1330  0.3083 -0.0889
 6736TIP3    H141767   2.623   3.467   1.689  0.5095 -0.0402  0.9134
 6736TIP3    H241768   2.743   3.559   1.686 -0.2631  0.9690 -1.0514
 6737TIP3   OH241769   4.085   6.403   8.122  0.0982  1.1532 -0.4307
 6737TIP3    H141770   4.120   6.384   8.209 -0.4505  1.0576 -0.2268
 6737TIP3    H241771   4.094   6.498   8.113  0.9569  1.0623 -0.6257
 6738TIP3   OH241772   1.191   3.562   0.618 -0.4205  0.1463  0.0526
 6738TIP3    H141773   1.248   3.583   0.692 -0.1851  1.7225 -0.5352
 6738TIP3    H241774   1.147   3.645   0.598 -2.0451 -0.7555 -0.2541
 6739TIP3   OH241775   6.751   4.552   8.559  0.4630  0.3368 -0.1512
 6739TIP3    H141776   6.743   4.457   8.569  0.3803  0.4842  1.4376
 6739TIP3    H241777   6.704   4.572   8.478  1.7577 -1.1310 -1.3366
 6740TIP3   OH241778   2.985   3.288   2.969 -0.1005  0.0371 -0.0657
 6740TIP3    H141779   3.030   3.284   2.884  1.7007  0.0487  0.8458
 6740TIP3    H241780   3.035   3.352   3.020 -0.6669 -0.5537  1.2775
 6741TIP3   OH241781   3.523   0.830   2.607  0.4813  0.4510  0.1199
 6741TIP3    H141782   3.495   0.825   2.515  0.4046 -1.9244  0.2265
 6741TIP3    H241783   3.531   0.739   2.635  4.0620  1.0025  1.4168
 6742TIP3   OH241784   5.964   4.312   1.748 -0.4705  0.6202  0.5064
 6742TIP3    H141785   5.925   4.226   1.763  0.0859 -0.0374 -1.4444
 6742TIP3    H241786   5.918   4.370   1.808 -1.0870 -0.9689  1.6483
 6743TIP3   OH241787   1.558   3.765   7.898 -0.0738  0.0086 -0.4116
 6743TIP3    H141788   1.599   3.679   7.886  0.0654 -0.1272  0.9596
 6743TIP3    H241789   1.632   3.825   7.909 -0.1632  0.3657 -1.5478
 6744TIP3   OH241790   4.145   4.860   1.811 -0.2195  0.2123 -0.5274
 6744TIP3    H141791   4.051   4.846   1.801 -0.5744  0.4027  1.9720
 6744TIP3    H241792   4.172   4.797   1.877  1.6201 -0.3735 -1.7452
 6745TIP3   OH241793   3.636   5.791   8.945 -0.3544  0.0986  0.3696
 6745TIP3    H141794   3.576   5.811   8.873  1.0671 -0.8508 -1.1921
 6745TIP3    H241795   3.637   5.695   8.949 -0.4615  0.1378  1.7427
 6746TIP3   OH241796   5.580   1.439   0.551 -0.0562  0.1245  0.5748
 6746TIP3    H141797   5.574   1.454   0.457  1.5899  1.1854  0.6024
 6746TIP3    H241798   5.653   1.377   0.561 -0.8273 -0.7164  1.0984
 6747TIP3   OH241799   5.730   6.152   2.374  0.0874  0.2619 -0.6087
 6747TIP3    H141800   5.758   6.062   2.358 -0.7109  0.1511 -1.4639
 6747TIP3    H241801   5.662   6.144   2.441 -0.3043  0.1754 -1.0126
 6748TIP3   OH241802   2.691   4.477   1.553 -0.3605 -0.3604 -0.2606
 6748TIP3    H141803   2.756   4.490   1.622 -0.9433  0.0567  0.2204
 6748TIP3    H241804   2.698   4.384   1.531  1.2974 -0.0715 -1.1333
 6749TIP3   OH241805   3.892   4.015   0.486 -0.0239  0.0362  0.0044
 6749TIP3    H141806   3.813   4.068   0.499 -1.1933 -1.6263  0.0046
 6749TIP3    H241807   3.874   3.965   0.406  0.9827 -0.4722  0.0814
 6750TIP3   OH241808   4.444   0.632   8.267  0.1042  0.5571  0.0343
 6750TIP3    H141809   4.507   0.642   8.339  1.1214  0.9868 -0.8754
 6750TIP3    H241810   4.453   0.540   8.240 -0.1749  0.4330  0.3604
 6751TIP3   OH241811   4.873   5.372   8.259 -0.4767 -0.4713  0.2607
 6751TIP3    H141812   4.792   5.321   8.263  0.2058 -1.6856 -0.6729
 6751TIP3    H241813   4.861   5.430   8.184  0.2387 -2.0511 -1.1544
 6752TIP3   OH241814   0.039   1.688   0.017  0.2475  0.5008  0.2704
 6752TIP3    H141815   0.106   1.621   0.009 -0.3326 -0.2377  1.3484
 6752TIP3    H241816   0.083   1.762   0.060  0.8625  0.8011 -0.8370
 6753TIP3   OH241817   0.131   1.053   8.597 -0.5840 -0.5319  0.2799
 6753TIP3    H141818   0.161   0.965   8.573  0.4253  0.3394 -1.8980
 6753TIP3    H241819   0.201   1.088   8.653 -0.4316 -0.6903  0.1879
 6754TIP3   OH241820   0.549   0.462   8.030  0.8319 -0.4931  0.0191
 6754TIP3    H141821   0.570   0.554   8.047 -1.2411 -0.0151  0.2813
 6754TIP3    H241822   0.587   0.415   8.104  1.6001  0.1867  0.0719
 6755TIP3   OH241823   0.338   1.920   0.847  0.0412 -0.0131  0.0200
 6755TIP3    H141824   0.361   1.952   0.760 -0.4232 -0.6688 -0.3564
 6755TIP3    H241825   0.413   1.941   0.902 -0.3672  2.0215 -0.1170
 6756TIP3   OH241826   6.414   6.209   8.776 -0.3490 -0.0520 -0.1480
 6756TIP3    H141827   6.353   6.195   8.849  0.2307 -1.5155  0.0876
 6756TIP3    H241828   6.479   6.270   8.810 -0.3418 -0.3630  0.4036
 6757TIP3   OH241829   5.008   2.814   7.539 -0.5150 -0.3270 -0.0749
 6757TIP3    H141830   4.941   2.802   7.471 -1.1878  1.1304  0.2900
 6757TIP3    H241831   5.084   2.764   7.507 -1.8785 -2.3625 -0.2936
 6758TIP3   OH241832   2.275   0.348   2.949  0.0592 -0.5605 -0.0393
 6758TIP3    H141833   2.277   0.272   3.007 -0.5797  1.9480  3.5885
 6758TIP3    H241834   2.188   0.386   2.963  0.7949  1.5232 -0.7632
 6759TIP3   OH241835   2.941   2.900   1.619  0.0650 -0.4819  0.1538
 6759TIP3    H141836   2.948   2.995   1.626 -0.2022 -0.3120 -1.4359
 6759TIP3    H241837   2.846   2.884   1.614 -0.0038 -1.0294  2.2722
 6760TIP3   OH241838   0.475   1.177   1.953 -0.1551 -0.3232 -0.1573
 6760TIP3    H141839   0.532   1.168   2.030  0.3332 -0.2907 -0.5080
 6760TIP3    H241840   0.535   1.197   1.882 -0.7607  1.1908 -0.2645
 6761TIP3   OH241841   5.178   1.359   2.496 -0.0831  0.2006  0.1016
 6761TIP3    H141842   5.154   1.292   2.559 -1.8502  0.5068 -0.1876
 6761TIP3    H241843   5.097   1.377   2.448 -0.1181  3.6391  1.2066
 6762TIP3   OH241844   2.273   5.095   1.234 -0.7669 -0.3310 -0.1092
 6762TIP3    H141845   2.316   5.133   1.310  0.8276 -0.2796 -0.9915
 6762TIP3    H241846   2.185   5.133   1.234 -0.7702 -0.2710  1.6287
 6763TIP3   OH241847   5.475   6.251   8.661  0.4110 -0.1011 -0.5454
 6763TIP3    H141848   5.385   6.227   8.683 -0.0146  0.8709 -1.1630
 6763TIP3    H241849   5.467   6.336   8.618  1.7826  0.8559  0.9877
 6764TIP3   OH241850   4.598   3.223   0.787  0.1575 -0.7061  0.7035
 6764TIP3    H141851   4.511   3.187   0.797 -0.0507 -0.2280  0.6572
 6764TIP3    H241852   4.621   3.256   0.874 -1.6346  3.4088 -0.1584
 6765TIP3   OH241853   6.466   1.937   0.276 -0.0280  0.2144 -0.4973
 6765TIP3    H141854   6.518   2.014   0.300 -1.4568  1.0231  0.1355
 6765TIP3    H241855   6.525   1.884   0.222  0.6405  2.2871 -1.9272
 6766TIP3   OH241856   2.456   1.020   2.651  0.1127 -0.0042  0.2028
 6766TIP3    H141857   2.389   1.058   2.593  0.0040 -0.2903  0.1370
 6766TIP3    H241858   2.426   0.931   2.666  0.2542  0.0016  0.5306
 6767TIP3   OH241859   4.986   1.152   7.339 -0.7665 -0.1481 -0.7587
 6767TIP3    H141860   4.900   1.149   7.296 -0.6890  2.2274 -1.1936
 6767TIP3    H241861   4.966   1.161   7.432 -0.9268 -2.9268 -0.4404
 6768TIP3   OH241862   4.269   6.673   1.620 -0.0069 -0.5246  0.6519
 6768TIP3    H141863   4.216   6.752   1.604  0.3153 -0.5030 -0.3619
 6768TIP3    H241864   4.226   6.631   1.695 -1.2466 -0.3174  0.0808
 6769TIP3   OH241865   1.498   4.344   1.814  0.4352 -0.3462  0.2293
 6769TIP3    H141866   1.442   4.268   1.828  0.7615 -0.6452 -0.0654
 6769TIP3    H241867   1.438   4.413   1.786  0.2487 -0.7695 -0.4495
 6770TIP3   OH241868   4.170   4.044   2.530 -0.1309  0.4039 -0.1193
 6770TIP3    H141869   4.242   4.105   2.544  0.5580 -0.2808 -0.6347
 6770TIP3    H241870   4.129   4.074   2.449  0.7119 -0.2883 -0.8159
 6771TIP3   OH241871   5.867   6.235   0.319  0.1887 -0.1394 -0.4797
 6771TIP3    H141872   5.862   6.262   0.411  2.2869 -0.6019 -0.1721
 6771TIP3    H241873   5.827   6.306   0.270  0.9484  1.1258  0.6729
 6772TIP3   OH241874   0.676   0.632   0.372  0.3873 -0.1028  0.2292
 6772TIP3    H141875   0.762   0.591   0.363  0.4344 -0.1429  0.8506
 6772TIP3    H241876   0.620   0.564   0.410  0.1806  0.0487  0.2009
 6773TIP3   OH241877   4.959   4.815   8.495 -0.1103 -0.2001 -0.2884
 6773TIP3    H141878   4.897   4.863   8.440 -0.0065  1.4837  0.9825
 6773TIP3    H241879   5.045   4.842   8.464 -0.0486  0.3764  0.3800
 6774TIP3   OH241880   4.085   5.619   8.039 -0.0991  0.7635 -0.2223
 6774TIP3    H141881   4.039   5.562   8.100 -2.2742  0.2622 -2.2018
 6774TIP3    H241882   4.149   5.561   7.996  0.8154  0.9148  0.8895
 6775TIP3   OH241883   3.873   5.751   2.080 -0.0324 -0.1607  0.2834
 6775TIP3    H141884   3.866   5.803   2.000  0.8196 -0.7342 -0.1701
 6775TIP3    H241885   3.922   5.808   2.140  0.0240 -0.0439  0.1288
 6776TIP3   OH241886   1.237   6.485   8.418 -0.2589 -0.2414  0.1366
 6776TIP3    H141887   1.221   6.393   8.438 -1.4531  0.0475  0.6300
 6776TIP3    H241888   1.327   6.488   8.385 -0.5909 -1.7528 -0.9956
 6777TIP3   OH241889   5.197   6.331   0.797  0.2937  0.0581 -0.2058
 6777TIP3    H141890   5.238   6.415   0.774 -1.0746  0.8990  0.2897
 6777TIP3    H241891   5.192   6.332   0.893 -0.7286 -0.0817 -0.2444
 6778TIP3   OH241892   3.296   1.606   0.990 -0.3320 -0.5212  0.5075
 6778TIP3    H141893   3.356   1.583   0.919 -0.6465 -1.4385  0.5246
 6778TIP3    H241894   3.248   1.681   0.956 -0.0108 -0.5293  0.0109
 6779TIP3   OH241895   1.937   2.427   2.658 -0.2626 -0.0421  0.1212
 6779TIP3    H141896   1.974   2.398   2.742 -0.2826  1.0491  0.5297
 6779TIP3    H241897   1.843   2.439   2.677 -0.0881  1.2412  0.2572
 6780TIP3   OH241898   6.461   4.731   8.826  0.0733  0.6293 -0.0849
 6780TIP3    H141899   6.525   4.802   8.821  0.1276  0.5071 -1.5475
 6780TIP3    H241900   6.512   4.651   8.812 -0.6612  0.6918 -4.1600
 6781TIP3   OH241901   0.792   6.282   2.148 -0.0168 -0.0798 -0.1850
 6781TIP3    H141902   0.794   6.201   2.097  0.1416 -0.1658 -0.0463
 6781TIP3    H241903   0.807   6.351   2.084 -0.5668 -0.1289 -0.3657
 6782TIP3   OH241904   5.536   1.039   1.308 -0.0167  0.5024  0.2604
 6782TIP3    H141905   5.606   0.978   1.283 -1.4881 -0.7104 -1.1315
 6782TIP3    H241906   5.480   0.989   1.366 -1.2742  0.4498 -0.9418
 6783TIP3   OH241907   5.097   6.645   2.560  0.4758  0.3407  0.4928
 6783TIP3    H141908   5.189   6.669   2.547 -0.2170  3.5711  0.5915
 6783TIP3    H241909   5.055   6.666   2.477 -0.5524  1.4674  1.2554
 6784TIP3   OH241910   1.836   0.517   1.212 -0.0964 -0.4321 -0.1080
 6784TIP3    H141911   1.867   0.602   1.243  1.1111 -1.0521  0.4855
 6784TIP3    H241912   1.776   0.537   1.141  0.0498  0.9174  0.1222
 6785TIP3   OH241913   2.657   1.828   0.492  0.0305  0.6762 -0.2678
 6785TIP3    H141914   2.646   1.859   0.402  0.3757  0.4981 -0.3730
 6785TIP3    H241915   2.694   1.740   0.482  0.6670  0.9047  0.0597
 6786TIP3   OH241916   0.299   4.209   7.376  0.5629 -0.3444  0.8080
 6786TIP3    H141917   0.231   4.233   7.313 -0.7676 -0.5053  2.1139
 6786TIP3    H241918   0.262   4.133   7.423  1.5075 -0.2458  1.7480
 6787TIP3   OH241919   5.898   5.131   7.376 -0.1762  0.0099  0.1035
 6787TIP3    H141920   5.939   5.132   7.290  0.0711  3.0789  0.1397
 6787TIP3    H241921   5.804   5.126   7.358 -0.3261  3.2715 -0.6133
 6788TIP3   OH241922   2.006   1.219   7.688 -0.0456  0.5728  0.2691
 6788TIP3    H141923   2.035   1.136   7.728 -1.1744  0.0607  0.0538
 6788TIP3    H241924   2.088   1.267   7.674  0.5232  0.0731  1.6354
 6789TIP3   OH241925   1.811   5.981   0.300  0.3799 -0.1738  0.4932
 6789TIP3    H141926   1.904   5.975   0.278  0.2071 -1.2203 -0.0273
 6789TIP3    H241927   1.790   6.074   0.289  1.2500 -0.0067  0.1352
 6790TIP3   OH241928   4.243   4.071   0.788 -0.1542 -0.8255 -0.2675
 6790TIP3    H141929   4.249   3.986   0.744 -0.1335 -0.4953 -0.9228
 6790TIP3    H241930   4.153   4.075   0.821 -0.9920 -0.0613 -2.4569
 6791TIP3   OH241931   2.368   4.954   0.624  0.1530  0.2480  0.1886
 6791TIP3    H141932   2.344   5.047   0.619 -0.7597  0.0423  0.5300
 6791TIP3    H241933   2.343   4.927   0.712  0.7037 -0.2460  0.1963
 6792TIP3   OH241934   1.653   6.461   3.342 -0.4720  0.1484  0.0267
 6792TIP3    H141935   1.580   6.414   3.302 -0.4475 -0.7050  0.9494
 6792TIP3    H241936   1.649   6.438   3.435  0.6516  0.5150  0.1853
 6793TIP3   OH241937   2.495   1.058   8.490 -0.0927 -0.0184 -0.3538
 6793TIP3    H141938   2.531   1.008   8.416 -2.1839  1.0795 -2.2466
 6793TIP3    H241939   2.468   1.141   8.451  0.0988  1.2209  2.0073
 6794TIP3   OH241940   3.250   1.886   0.159  0.3898 -0.1496 -0.0198
 6794TIP3    H141941   3.187   1.813   0.159 -0.1518  0.3174  0.3596
 6794TIP3    H241942   3.226   1.938   0.083  1.3463 -0.8343 -0.8285
 6795TIP3   OH241943   1.052   6.290   1.293  0.0029 -0.0743 -0.1994
 6795TIP3    H141944   0.981   6.340   1.332  0.5274  1.5016 -1.1871
 6795TIP3    H241945   1.081   6.231   1.363  0.2265  1.8938  1.4600
 6796TIP3   OH241946   2.924   1.989   2.457  0.0376 -0.1107  0.3820
 6796TIP3    H141947   2.870   1.931   2.403  0.1043  0.1330  0.0490
 6796TIP3    H241948   2.919   2.074   2.413 -1.1567  0.4892  1.5948
 6797TIP3   OH241949   6.380   1.096   8.324  0.0576 -0.4620 -0.0962
 6797TIP3    H141950   6.391   1.031   8.254  0.8819  0.0364 -0.4422
 6797TIP3    H241951   6.344   1.046   8.397 -0.5221 -1.0581 -0.7686
 6798TIP3   OH241952   2.876   0.602   3.458  0.2631 -0.5380  0.5804
 6798TIP3    H141953   2.869   0.697   3.463 -2.3384 -0.5064 -1.4326
 6798TIP3    H241954   2.820   0.570   3.528 -3.1615 -0.3955 -1.8186
 6799TIP3   OH241955   6.278   2.231   1.390 -0.0354  0.0783 -0.0270
 6799TIP3    H141956   6.195   2.226   1.436  0.5969  0.3091  1.1765
 6799TIP3    H241957   6.258   2.279   1.309 -0.8596  1.0438  0.7290
 6800TIP3   OH241958   3.690   1.228   0.982 -0.6067  0.2424 -0.8027
 6800TIP3    H141959   3.638   1.272   1.049 -0.7707  0.6014 -1.1554
 6800TIP3    H241960   3.629   1.165   0.943 -0.3449 -0.3615 -0.2372
 6801TIP3   OH241961   6.031   6.096   8.807  0.2683 -0.1004  0.1134
 6801TIP3    H141962   6.088   6.131   8.875  0.0092  0.6729 -0.0599
 6801TIP3    H241963   5.996   6.014   8.844 -1.1244  1.0888  1.5773
 6802TIP3   OH241964   0.867   6.135   2.516 -0.2675  0.6958 -0.5108
 6802TIP3    H141965   0.910   6.211   2.555  1.1933 -0.2765 -0.1538
 6802TIP3    H241966   0.848   6.161   2.426  0.7169  1.3107 -0.5566
 6803TIP3   OH241967   2.855   6.769   8.104 -0.0341 -0.3150  0.4837
 6803TIP3    H141968   2.871   6.677   8.126  0.3175 -0.8341 -1.6942
 6803TIP3    H241969   2.791   6.766   8.033  0.2851  1.0958  0.1053
 6804TIP3   OH241970   2.245   5.643   7.923  0.2643  0.0940 -0.2867
 6804TIP3    H141971   2.168   5.655   7.979 -0.1803  0.2052 -0.9115
 6804TIP3    H241972   2.211   5.602   7.843  0.5504  1.7338 -1.3010
 6805TIP3   OH241973   1.271   5.733   0.204  0.3451 -0.3229  0.6380
 6805TIP3    H141974   1.180   5.707   0.191 -0.0260  0.3394  1.7654
 6805TIP3    H241975   1.292   5.701   0.292  1.1138 -0.2183  0.4982
 6806TIP3   OH241976   3.090   1.895   2.834  0.0017 -0.0484  0.1838
 6806TIP3    H141977   3.080   1.974   2.886 -0.1988 -0.1138  0.2435
 6806TIP3    H241978   3.166   1.851   2.872  0.0593  0.0696  0.2065
 6807TIP3   OH241979   6.024   5.507   8.472 -0.2827 -0.8757 -0.4462
 6807TIP3    H141980   5.990   5.462   8.549  0.8832 -0.9631  0.0400
 6807TIP3    H241981   6.104   5.459   8.449 -0.9197 -1.2328 -2.0899
 6808TIP3   OH241982   1.552   1.962   0.543 -0.2824  0.2774 -0.1049
 6808TIP3    H141983   1.640   1.997   0.531  0.0318 -0.4763 -0.0697
 6808TIP3    H241984   1.566   1.874   0.578 -1.0203 -0.2275 -1.0419
 6809TIP3   OH241985   1.180   4.506   1.392  0.2332 -1.3162 -0.2415
 6809TIP3    H141986   1.133   4.488   1.473  0.8733  1.7281  0.9505
 6809TIP3    H241987   1.187   4.601   1.389 -0.1370 -1.2294 -4.1268
 6810TIP3   OH241988   0.456   4.766   2.449  0.3825  0.0657  0.2401
 6810TIP3    H141989   0.521   4.830   2.480 -0.7040  1.5696 -0.4641
 6810TIP3    H241990   0.404   4.745   2.527  1.4067 -0.8230  0.7128
 6811TIP3   OH241991   3.461   0.680   7.630 -0.3889  0.2669 -0.0703
 6811TIP3    H141992   3.407   0.677   7.709  0.0446  2.9384  0.3998
 6811TIP3    H241993   3.543   0.637   7.656 -1.3806 -1.8336 -0.1417
 6812TIP3   OH241994   4.492   4.344   8.831 -0.5817  0.0430 -0.0236
 6812TIP3    H141995   4.564   4.327   8.891  0.1664 -0.7690 -1.1134
 6812TIP3    H241996   4.420   4.371   8.888  0.0784 -0.7431  1.2376
 6813TIP3   OH241997   6.304   3.772   8.793 -0.1031 -0.0523  0.1281
 6813TIP3    H141998   6.395   3.748   8.778  0.4685  0.7631  2.0501
 6813TIP3    H241999   6.305   3.866   8.808 -0.9169 -0.3141  2.2349
 6814TIP3   OH242000   1.637   4.515   1.116 -0.4267 -0.3588  0.4755
 6814TIP3    H142001   1.714   4.555   1.076 -0.1198 -0.7105  0.7120
 6814TIP3    H242002   1.657   4.513   1.210 -1.1382  0.4645  0.6616
 6815TIP3   OH242003   6.182   2.219   1.865  0.2622 -0.2062 -0.2744
 6815TIP3    H142004   6.134   2.290   1.907  1.2231  0.4479 -0.2283
 6815TIP3    H242005   6.184   2.148   1.929  0.4077  0.2188  0.1945
 6816TIP3   OH242006   3.468   0.940   0.356 -0.5994 -0.6983 -0.4413
 6816TIP3    H142007   3.400   0.876   0.338 -0.1766 -1.0400 -0.8232
 6816TIP3    H242008   3.537   0.921   0.293 -0.0976 -0.4299  0.0155
 6817TIP3   OH242009   6.275   1.530   7.902 -0.1637  0.1191  0.2755
 6817TIP3    H142010   6.186   1.564   7.903  0.0036  0.5863 -0.2734
 6817TIP3    H242011   6.293   1.511   7.810  0.0158 -0.7520  0.4741
 6818TIP3   OH242012   1.257   6.032   0.554 -0.0826 -0.5494  0.5486
 6818TIP3    H142013   1.211   5.948   0.549 -2.3593  0.6725 -0.5868
 6818TIP3    H242014   1.270   6.057   0.462  1.5215 -0.1228  0.8726
 6819TIP3   OH242015   2.634   1.947   0.246 -0.2260  0.5354  0.1020
 6819TIP3    H142016   2.650   1.886   0.175 -1.6514  0.1379  0.0780
 6819TIP3    H242017   2.600   2.026   0.204 -2.3926 -0.1785  0.3493
 6820TIP3   OH242018   0.060   3.637   0.800  0.1753 -0.1739  0.0498
 6820TIP3    H142019  -0.016   3.582   0.778 -0.2272  0.7159 -0.8890
 6820TIP3    H242020   0.039   3.722   0.762  1.6627  0.0919 -0.2300
 6821TIP3   OH242021   3.422   5.832   0.819 -0.3022 -0.2716 -0.0144
 6821TIP3    H142022   3.441   5.917   0.858  0.4324  0.3657 -1.6725
 6821TIP3    H242023   3.476   5.771   0.869  0.2953  0.4482  0.2443
 6822TIP3   OH242024   6.265   6.388   1.776  0.4735 -0.1766  0.1252
 6822TIP3    H142025   6.242   6.319   1.839  2.3858 -1.9500 -0.9762
 6822TIP3    H242026   6.308   6.455   1.829 -0.8872 -0.0480  1.1393
 6823TIP3   OH242027   6.700   3.042   1.827 -0.5452 -0.0586 -0.2223
 6823TIP3    H142028   6.671   2.994   1.749 -2.4680  0.6667 -0.0118
 6823TIP3    H242029   6.697   3.134   1.800  0.0751  0.1252  0.3188
 6824TIP3   OH242030   6.440   2.326   2.032 -0.0665 -0.0233 -0.2208
 6824TIP3    H142031   6.354   2.339   1.991 -0.0044  0.1376 -0.2985
 6824TIP3    H242032   6.467   2.413   2.059 -0.4346 -0.2049  0.8168
 6825TIP3   OH242033   1.856   0.245   8.594  0.0671 -0.4617 -0.0555
 6825TIP3    H142034   1.774   0.238   8.546  0.8215 -0.5661 -1.3865
 6825TIP3    H242035   1.840   0.312   8.660 -1.0873 -0.5003 -0.2894
 6826TIP3   OH242036   1.698   4.336   7.164  0.1878 -0.4052 -0.4149
 6826TIP3    H142037   1.619   4.389   7.175 -0.0393 -0.6381 -0.8937
 6826TIP3    H242038   1.689   4.266   7.228 -0.1856 -0.6510 -0.7301
 6827TIP3   OH242039   0.424   6.752   8.348  0.3702  0.5880  0.2759
 6827TIP3    H142040   0.464   6.668   8.325 -0.6623  0.4535 -1.1515
 6827TIP3    H242041   0.449   6.811   8.276 -2.0815  0.4532 -0.7836
 6828TIP3   OH242042   5.678   3.663   2.522 -0.5645 -0.1444 -0.2003
 6828TIP3    H142043   5.730   3.603   2.468  0.2170 -1.6982  2.1344
 6828TIP3    H242044   5.730   3.676   2.601 -1.3857  2.5374  0.0101
 6829TIP3   OH242045   2.847   3.707   1.752  0.8251  0.8288  0.1296
 6829TIP3    H142046   2.816   3.708   1.843  0.6047  0.8950  0.0536
 6829TIP3    H242047   2.917   3.773   1.750 -0.0233  1.7543 -0.0458
 6830TIP3   OH242048   3.905   2.879   0.985  0.6500  0.3234 -0.5067
 6830TIP3    H142049   3.907   2.796   1.032  1.1470  0.3744 -0.4303
 6830TIP3    H242050   3.997   2.907   0.982  0.6268  0.3397 -1.4702
 6831TIP3   OH242051   3.043   2.897   8.501 -0.0551  0.1794  0.2733
 6831TIP3    H142052   3.015   2.810   8.529  0.1826  0.2280  0.6800
 6831TIP3    H242053   3.138   2.896   8.509 -0.0349  0.4068  0.0781
 6832TIP3   OH242054   3.024   1.975   8.525  0.9275 -0.1835 -0.3338
 6832TIP3    H142055   3.054   2.066   8.516 -0.9168  0.4399 -0.5626
 6832TIP3    H242056   3.104   1.926   8.546  1.6795  1.7934  1.9682
 6833TIP3   OH242057   4.228   6.144   0.456 -0.1105 -0.1047 -0.5555
 6833TIP3    H142058   4.215   6.198   0.378  1.6774  1.1879 -0.0109
 6833TIP3    H242059   4.270   6.064   0.423  1.8352  0.9747 -0.8108
 6834TIP3   OH242060   3.303   3.726   2.090 -0.2296  0.0376  0.1773
 6834TIP3    H142061   3.283   3.651   2.146 -1.4215  0.3628  0.2209
 6834TIP3    H242062   3.398   3.724   2.079 -0.1313 -0.8196  1.0929
 6835TIP3   OH242063   1.892   1.452   8.487  0.0152  0.2862  0.2555
 6835TIP3    H142064   1.843   1.489   8.414  1.2298  1.2159 -0.1043
 6835TIP3    H242065   1.825   1.434   8.553 -1.0532 -0.2202 -0.9133
 6836TIP3   OH242066   4.642   4.001   8.462 -0.3207  0.0518 -0.4589
 6836TIP3    H142067   4.593   4.041   8.534  0.3960 -1.0747  0.6961
 6836TIP3    H242068   4.674   4.075   8.410 -0.9306  0.8766  0.3215
 6837TIP3   OH242069   3.049   1.425   8.975 -0.3305  0.0291  0.2141
 6837TIP3    H142070   2.956   1.408   8.990  0.1440 -3.0295  0.3506
 6837TIP3    H242071   3.092   1.391   9.053  0.9724  0.8848 -0.1092
 6838TIP3   OH242072   2.203   6.055   1.159  0.1792  0.1565 -0.1072
 6838TIP3    H142073   2.111   6.075   1.141  0.1552 -0.3693 -0.6072
 6838TIP3    H242074   2.240   6.038   1.072  0.2763 -1.5789  0.2499
 6839TIP3   OH242075   2.301   0.658   0.417  0.1753  0.3210  0.0450
 6839TIP3    H142076   2.263   0.571   0.427  1.4193 -0.3654 -0.9313
 6839TIP3    H242077   2.301   0.674   0.322 -1.0160  1.8640  0.2584
 6840TIP3   OH242078   4.179   5.112   2.088  0.4280 -1.0928 -0.3074
 6840TIP3    H142079   4.243   5.168   2.132 -1.8065  1.1155  0.3304
 6840TIP3    H242080   4.096   5.131   2.131 -0.6571 -4.3331 -0.6366
 6841TIP3   OH242081   6.066   6.144   2.369 -0.0574 -0.2218  0.1696
 6841TIP3    H142082   6.145   6.134   2.422 -0.0931 -4.3684 -0.2875
 6841TIP3    H242083   5.995   6.154   2.433  0.5483  1.5333  0.6228
 6842TIP3   OH242084   1.295   6.248   8.554 -0.3361 -0.1241 -0.6369
 6842TIP3    H142085   1.234   6.183   8.520 -1.6677 -0.5960  2.2944
 6842TIP3    H242086   1.370   6.197   8.584 -1.6388 -0.5433  2.2226
 6843TIP3   OH242087   1.658   0.644   3.006 -0.3183  0.0256  0.3699
 6843TIP3    H142088   1.688   0.556   3.028 -1.9421 -0.0416  2.6149
 6843TIP3    H242089   1.718   0.702   3.053  0.2019  0.1414 -0.3991
 6844TIP3   OH242090   5.897   2.317   2.681  0.0323 -0.2531  0.3955
 6844TIP3    H142091   5.934   2.392   2.634 -1.8722 -1.0290 -2.5591
 6844TIP3    H242092   5.836   2.357   2.743 -0.2232  0.7032 -0.4409
 6845TIP3   OH242093   0.253   2.325   2.540  0.4486  0.0083  0.2210
 6845TIP3    H142094   0.272   2.414   2.512 -0.5172  0.3914  0.7068
 6845TIP3    H242095   0.324   2.302   2.600 -0.5742  1.4127  2.0597
 6846TIP3   OH242096   4.656   3.162   0.464  0.0552 -0.2263 -0.2130
 6846TIP3    H142097   4.681   3.075   0.433  1.3773  0.3865 -0.9624
 6846TIP3    H242098   4.651   3.215   0.384 -0.2787  0.4889  0.2745
 6847TIP3   OH242099   6.742   3.764   2.993 -0.2788 -0.2035 -0.1226
 6847TIP3    H142100   6.792   3.724   3.065 -0.1937  0.3878  0.1487
 6847TIP3    H242101   6.781   3.850   2.981  0.1138 -0.5235 -1.3098
 6848TIP3   OH242102   4.918   4.081   8.724  0.0682  0.1398  0.1083
 6848TIP3    H142103   4.894   4.173   8.729 -1.6855 -0.2832  0.1050
 6848TIP3    H242104   4.907   4.058   8.632  0.3820 -0.1238  0.1310
 6849TIP3   OH242105   0.768   2.596   8.967 -0.2025  0.4446 -0.0207
 6849TIP3    H142106   0.692   2.558   8.923 -0.3761  1.4919 -0.6640
 6849TIP3    H242107   0.840   2.586   8.904  0.0036  0.1782  0.2571
 6850TIP3   OH242108   1.112   1.578   8.434  0.1904  0.2270  0.2337
 6850TIP3    H142109   1.035   1.615   8.475 -0.4968  0.0375 -0.8489
 6850TIP3    H242110   1.169   1.553   8.507 -0.2553  1.4198  1.0153
 6851TIP3   OH242111   5.472   2.605   8.502  0.3391  0.6778  0.2201
 6851TIP3    H142112   5.523   2.642   8.430  0.9094  2.1382  1.3141
 6851TIP3    H242113   5.533   2.544   8.545  0.5502  1.0371  0.4334
 6852TIP3   OH242114   2.797   0.216   0.554 -0.5441  0.4184 -0.0070
 6852TIP3    H142115   2.870   0.273   0.532  1.1052 -0.9579  1.5877
 6852TIP3    H242116   2.784   0.229   0.648 -0.4306 -1.4244  0.3006
 6853TIP3   OH242117   3.659   4.059   8.167 -0.1908 -0.1935  0.1279
 6853TIP3    H142118   3.690   3.972   8.192 -0.9145 -0.2765  0.7431
 6853TIP3    H242119   3.567   4.047   8.145 -0.0454  0.2348 -0.7756
 6854TIP3   OH242120   0.777   2.266   2.957  0.2225 -0.3806 -0.1846
 6854TIP3    H142121   0.776   2.283   3.052 -1.0641  0.6688 -0.3495
 6854TIP3    H242122   0.684   2.260   2.933  0.4453  1.1715 -1.6455
 6855TIP3   OH242123   2.342   1.504   1.688 -0.0069  0.2056  0.2766
 6855TIP3    H142124   2.336   1.595   1.658 -1.2668 -0.0754 -0.4023
 6855TIP3    H242125   2.417   1.469   1.640  0.2327  0.7676  0.2260
 6856TIP3   OH242126   3.760   1.117   0.334 -0.5704  0.3045  0.2157
 6856TIP3    H142127   3.792   1.111   0.424  0.4180 -2.0324 -0.2032
 6856TIP3    H242128   3.751   1.026   0.306 -1.1716  0.9706 -1.9441
 6857TIP3   OH242129   0.111   6.034   0.390 -0.4264  0.2612  0.1832
 6857TIP3    H142130   0.191   6.043   0.441  0.2639  2.1760 -1.1278
 6857TIP3    H242131   0.120   6.097   0.318 -2.8018  0.0350 -0.4260
 6858TIP3   OH242132   5.154   0.716   7.337 -0.2809  0.2771  0.5082
 6858TIP3    H142133   5.171   0.625   7.312  0.7373  0.2936  1.0840
 6858TIP3    H242134   5.059   0.721   7.344 -0.5330 -0.1427 -1.7243
 6859TIP3   OH242135   0.722   3.012   2.708 -0.1422 -0.5647 -0.1129
 6859TIP3    H142136   0.633   2.976   2.700 -0.6317  0.6113 -0.2428
 6859TIP3    H242137   0.709   3.100   2.745  0.9631 -0.3438 -0.2137
 6860TIP3   OH242138   1.847   5.524   7.806 -0.4050  0.5165 -0.3333
 6860TIP3    H142139   1.783   5.504   7.874 -0.1835 -0.8457 -0.5056
 6860TIP3    H242140   1.921   5.562   7.854 -1.5297  2.7057 -0.1951
 6861TIP3   OH242141   0.298   3.226   1.683 -0.2885  0.2967 -0.3100
 6861TIP3    H142142   0.241   3.227   1.760  0.7761 -1.3017  0.5460
 6861TIP3    H242143   0.298   3.134   1.654 -0.3474  0.7838 -2.0014
 6862TIP3   OH242144   5.036   2.521   1.364 -0.5429  0.3550 -0.2556
 6862TIP3    H142145   5.099   2.524   1.436 -0.9153  2.7041  0.0774
 6862TIP3    H242146   5.085   2.485   1.290  1.8163  3.4703 -0.4466
 6863TIP3   OH242147   1.191   4.910   0.291  0.5846  0.2476  0.1295
 6863TIP3    H142148   1.157   4.999   0.283  0.7983  0.6851  3.0236
 6863TIP3    H242149   1.286   4.920   0.285  0.5699  0.0359 -0.5835
 6864TIP3   OH242150   5.682   0.691   8.885  0.4379  0.2498  0.0320
 6864TIP3    H142151   5.636   0.773   8.868 -1.7731 -0.8158  0.5352
 6864TIP3    H242152   5.735   0.676   8.807  2.3522  3.0276  0.6697
 6865TIP3   OH242153   1.393   3.989   2.747  0.7002  0.0220 -0.2336
 6865TIP3    H142154   1.304   4.013   2.776  0.8492  0.1500  0.1271
 6865TIP3    H242155   1.385   3.898   2.718 -0.0625  0.7093 -2.3842
 6866TIP3   OH242156   2.311   3.183   3.128 -0.3252  0.0915  0.1119
 6866TIP3    H142157   2.375   3.223   3.187 -0.9167  0.9645  0.1757
 6866TIP3    H242158   2.330   3.089   3.132  0.4829  0.2736  0.6817
 6867TIP3   OH242159   2.211   4.206   8.253 -0.0668 -0.1017 -0.2354
 6867TIP3    H142160   2.184   4.114   8.250  4.2034 -1.6233 -3.8817
 6867TIP3    H242161   2.270   4.211   8.329 -0.7671 -0.1263  0.3257
 6868TIP3   OH242162   1.143   0.616   2.601  0.2767  0.1505 -0.4545
 6868TIP3    H142163   1.197   0.689   2.571  0.5401 -0.7413 -2.2754
 6868TIP3    H242164   1.058   0.630   2.560 -0.9160  1.4217  2.2105
 6869TIP3   OH242165   0.152   1.417   8.077  0.3634  0.3898 -0.4140
 6869TIP3    H142166   0.106   1.478   8.021 -1.9901 -0.3797  0.5569
 6869TIP3    H242167   0.128   1.443   8.166  2.3313  0.3003  0.2015
 6870TIP3   OH242168   4.214   0.456   1.845  0.1641  0.0670 -0.4521
 6870TIP3    H142169   4.264   0.379   1.820  0.7755  0.6078 -0.8872
 6870TIP3    H242170   4.262   0.493   1.920 -0.6753 -0.5272  0.4102
 6871TIP3   OH242171   3.929   4.117   1.699 -0.5815  0.4156  0.5533
 6871TIP3    H142172   3.903   4.033   1.661 -1.7023  0.5761  0.9113
 6871TIP3    H242173   3.857   4.139   1.758  0.7128  0.5960  2.1037
 6872TIP3   OH242174   5.585   0.840   1.676  0.0556 -0.0275 -0.2928
 6872TIP3    H142175   5.654   0.882   1.624 -1.2837  1.2516 -1.1640
 6872TIP3    H242176   5.554   0.910   1.734 -1.5633 -0.0336 -1.0772
 6873TIP3   OH242177   3.708   1.195   8.076  0.1268  0.0466  0.4803
 6873TIP3    H142178   3.712   1.207   7.981 -1.6095 -0.1910  0.3456
 6873TIP3    H242179   3.718   1.101   8.089  0.5924  0.1038  0.5638
 6874TIP3   OH242180   4.795   6.005   1.492  0.0781 -0.0128  0.3083
 6874TIP3    H142181   4.735   6.063   1.444 -0.7255 -0.7192  0.4304
 6874TIP3    H242182   4.875   6.005   1.439 -0.6781 -0.5276 -0.8845
 6875TIP3   OH242183   2.477   2.959   3.455  0.2867 -0.1494 -0.8534
 6875TIP3    H142184   2.534   3.001   3.391  1.9165 -0.7821  0.1281
 6875TIP3    H242185   2.535   2.903   3.507 -1.3290 -1.3227 -0.2052
 6876TIP3   OH242186   4.211   5.370   7.795  0.2649 -0.0112 -0.0380
 6876TIP3    H142187   4.148   5.321   7.743  1.3120 -0.8871 -0.5076
 6876TIP3    H242188   4.191   5.462   7.777 -0.7681 -0.2797 -0.2938
 6877TIP3   OH242189   1.965   5.790   2.186  0.1277 -0.4651 -0.6222
 6877TIP3    H142190   1.888   5.792   2.243  0.2675 -1.4101 -0.3835
 6877TIP3    H242191   2.028   5.735   2.232  0.3784 -0.9584 -1.5292
 6878TIP3   OH242192   1.662   5.338   8.575  0.2375  0.0128  0.1431
 6878TIP3    H142193   1.601   5.283   8.623 -2.1380  2.2940 -0.0877
 6878TIP3    H242194   1.682   5.287   8.496 -1.8084 -0.5871 -0.0365
 6879TIP3   OH242195   2.980   6.688   2.573  0.3841 -0.5056  0.2102
 6879TIP3    H142196   3.036   6.707   2.648  1.4180  0.0527 -0.6675
 6879TIP3    H242197   2.960   6.774   2.536 -1.7067 -0.6418  0.9454
 6880TIP3   OH242198   5.678   0.339   3.163 -0.7194 -0.2271 -0.0672
 6880TIP3    H142199   5.639   0.327   3.076 -1.6619  0.0199  0.3085
 6880TIP3    H242200   5.730   0.419   3.156 -1.6490  0.3863 -0.1261
 6881TIP3   OH242201   2.898   6.560   8.340 -0.3691 -0.2980 -0.0977
 6881TIP3    H142202   2.884   6.505   8.417  1.4877  0.0657  0.5538
 6881TIP3    H242203   2.994   6.567   8.332 -0.5332  1.4393 -1.1632
 6882TIP3   OH242204   4.806   5.003   8.918 -0.1119  0.6375  0.4637
 6882TIP3    H142205   4.791   5.081   8.864 -0.1506  1.4628  1.6445
 6882TIP3    H242206   4.853   4.942   8.860 -0.7075  1.2564 -0.6881
 6883TIP3   OH242207   2.824   2.162   8.541  0.7494 -0.1936 -0.4587
 6883TIP3    H142208   2.875   2.227   8.491 -1.4172  0.8393 -1.4875
 6883TIP3    H242209   2.759   2.130   8.478 -0.7536 -0.4071  1.1292
 6884TIP3   OH242210   0.666   1.493   7.207  0.0929 -0.1168  0.3331
 6884TIP3    H142211   0.666   1.398   7.213  0.0599 -0.1346  0.0738
 6884TIP3    H242212   0.574   1.518   7.213  0.0282 -0.1578 -0.3882
 6885TIP3   OH242213   0.486   0.049   2.350 -0.4812  0.6053 -0.2035
 6885TIP3    H142214   0.502  -0.015   2.281 -0.8794  0.4703 -0.1705
 6885TIP3    H242215   0.441  -0.000   2.419  2.2140  0.0624  1.3175
 6886TIP3   OH242216   3.719   6.004   2.194  0.2659 -0.1381 -0.1952
 6886TIP3    H142217   3.688   5.980   2.281  0.9214 -2.9011 -0.6321
 6886TIP3    H242218   3.815   6.005   2.202  0.3235 -0.1479 -0.8384
 6887TIP3   OH242219   4.595   1.136   8.700 -0.5176 -0.2203 -0.3242
 6887TIP3    H142220   4.590   1.203   8.631 -1.4503  0.7749  0.6894
 6887TIP3    H242221   4.688   1.133   8.722 -0.4865  0.9466 -0.2081
 6888TIP3   OH242222   2.231   6.420   2.459  0.2109 -0.4231  0.5243
 6888TIP3    H142223   2.181   6.381   2.388  2.0555 -0.7498 -0.6741
 6888TIP3    H242224   2.188   6.390   2.539 -0.6365 -1.8459 -0.4297
 6889TIP3   OH242225   5.890   2.584   0.906 -0.5249 -0.3583 -0.0027
 6889TIP3    H142226   5.954   2.611   0.839  0.9800 -1.6360  0.8502
 6889TIP3    H242227   5.919   2.629   0.985 -1.0686 -0.4618  0.2533
 6890TIP3   OH242228   0.186   5.027   8.077  0.4906  0.0385 -0.3025
 6890TIP3    H142229   0.213   5.109   8.118  0.3290 -0.0831  0.0460
 6890TIP3    H242230   0.134   4.982   8.143 -0.6114  0.2889 -0.9654
 6891TIP3   OH242231   0.736   1.166   2.099  0.2072  0.6368  0.0042
 6891TIP3    H142232   0.805   1.168   2.165  0.8546  1.1927 -0.6681
 6891TIP3    H242233   0.764   1.099   2.037 -0.6093 -0.1802  0.5005
 6892TIP3   OH242234   2.531   1.189   0.414  0.2784 -0.3590  0.0180
 6892TIP3    H142235   2.617   1.206   0.378 -0.7505  1.9923 -1.6094
 6892TIP3    H242236   2.499   1.112   0.367  1.0715 -0.5801 -0.1572
 6893TIP3   OH242237   0.697   1.652   0.744  0.1038  0.4484 -0.3369
 6893TIP3    H142238   0.779   1.667   0.791  0.3327 -0.5607 -0.4065
 6893TIP3    H242239   0.629   1.681   0.806  0.4950  1.3188 -0.2948
 6894TIP3   OH242240   5.384   5.110   0.962 -0.1299  0.1899  0.4095
 6894TIP3    H142241   5.416   5.117   1.052 -0.3374  2.3399  0.3551
 6894TIP3    H242242   5.435   5.038   0.925  0.8291  0.0521  1.8774
 6895TIP3   OH242243   5.126   4.406   0.258  0.4482  0.3181 -0.6954
 6895TIP3    H142244   5.163   4.346   0.194 -0.1269 -0.1870 -0.5689
 6895TIP3    H242245   5.139   4.493   0.221  0.4961  0.0566 -1.2937
 6896TIP3   OH242246   1.780   4.174   2.482  0.2679  0.1182  0.2919
 6896TIP3    H142247   1.703   4.169   2.539 -1.9107 -0.6481 -2.4978
 6896TIP3    H242248   1.851   4.137   2.535 -1.3159  0.4323  2.8366
 6897TIP3   OH242249   0.678   1.595   8.112  0.6207  0.2369 -0.1447
 6897TIP3    H142250   0.619   1.662   8.076  1.5312  0.9542 -0.3390
 6897TIP3    H242251   0.640   1.573   8.197 -1.5794 -1.5003 -1.4686
 6898TIP3   OH242252   3.819   1.169   1.447  0.4101 -0.1219  0.0533
 6898TIP3    H142253   3.858   1.118   1.518 -0.6201 -0.4509  0.3984
 6898TIP3    H242254   3.805   1.106   1.377 -2.4074 -0.7783  1.0671
 6899TIP3   OH242255   5.475   0.634   0.635 -0.3728 -0.2665  0.6592
 6899TIP3    H142256   5.551   0.609   0.688 -0.6369 -0.7515  0.8159
 6899TIP3    H242257   5.467   0.729   0.648  1.0004  0.0369 -0.4156
 6900TIP3   OH242258   0.508   5.856   1.512 -0.2872  0.1613  0.1501
 6900TIP3    H142259   0.416   5.863   1.540 -0.3233 -0.2082  0.1169
 6900TIP3    H242260   0.527   5.942   1.474 -0.1733  0.7750  1.5060
 6901TIP3   OH242261   4.170   6.261   7.342  0.6010 -0.3429  0.0144
 6901TIP3    H142262   4.190   6.170   7.364  2.6525  0.4709  1.9533
 6901TIP3    H242263   4.254   6.297   7.314 -0.0496  1.0828 -0.1459
 6902TIP3   OH242264   5.655   5.822   8.356  0.4354  0.1372 -0.6108
 6902TIP3    H142265   5.646   5.865   8.442  0.2018 -0.1119 -0.5084
 6902TIP3    H242266   5.748   5.801   8.350 -0.0287 -3.2242  1.2577
 6903TIP3   OH242267   1.084   0.262   2.689 -0.4090 -0.6574 -0.3711
 6903TIP3    H142268   1.075   0.167   2.685  0.2334 -0.7607  0.4439
 6903TIP3    H242269   0.995   0.295   2.677 -0.7212 -1.3783 -0.0623
 6904TIP3   OH242270   4.438   6.417   1.325 -0.0293  0.2291 -0.3769
 6904TIP3    H142271   4.474   6.414   1.236  1.7538  1.1745  0.2476
 6904TIP3    H242272   4.509   6.456   1.377 -1.1758  0.0368  1.3858
 6905TIP3   OH242273   6.551   2.529   1.683 -0.0774  0.7543  0.0914
 6905TIP3    H142274   6.559   2.547   1.589 -0.2920  1.5172  0.2081
 6905TIP3    H242275   6.480   2.466   1.689 -1.1948  1.9500 -0.1501
 6906TIP3   OH242276   5.256   3.927   2.418  0.7699 -0.3990 -0.0641
 6906TIP3    H142277   5.183   3.984   2.444  0.6983 -0.3030 -0.4727
 6906TIP3    H242278   5.323   3.944   2.484  0.9970  0.6540 -0.5387
 6907TIP3   OH242279   4.891   5.205   1.410 -0.5060 -0.0610  0.0669
 6907TIP3    H142280   4.833   5.182   1.337 -1.3498  0.0346  0.6883
 6907TIP3    H242281   4.892   5.300   1.410 -0.4611 -0.0618  0.1436
 6908TIP3   OH242282   5.053   2.288   0.709 -0.7826  0.2825  0.0735
 6908TIP3    H142283   5.065   2.279   0.614 -0.4903  1.0650  0.0326
 6908TIP3    H242284   4.987   2.357   0.719 -0.8229  0.1949  0.4462
 6909TIP3   OH242285   6.040   4.124   7.584  0.3672 -0.8812 -0.2725
 6909TIP3    H142286   6.102   4.051   7.573  0.5634 -0.5626 -1.4131
 6909TIP3    H242287   6.026   4.157   7.495 -1.4899 -0.9789 -0.0556
 6910TIP3   OH242288   1.142   2.574   2.735  0.5091  0.5981 -0.1798
 6910TIP3    H142289   1.221   2.558   2.683  1.2254  0.2524  0.9880
 6910TIP3    H242290   1.173   2.580   2.825 -0.7569  0.8468  0.2573
 6911TIP3   OH242291   5.667   3.133   2.295  0.5874  0.2333  0.1228
 6911TIP3    H142292   5.690   3.074   2.224 -0.4710  1.5470 -1.3877
 6911TIP3    H242293   5.646   3.216   2.251 -1.7885  0.6195  1.7916
 6912TIP3   OH242294   6.081   0.792   0.181 -0.0004  0.6335 -0.0502
 6912TIP3    H142295   6.080   0.876   0.136  0.9568  0.0251 -1.2654
 6912TIP3    H242296   6.167   0.755   0.161 -0.0464 -0.2232  1.2508
 6913TIP3   OH242297   6.305   4.236   1.417 -0.3890  0.0389 -0.1071
 6913TIP3    H142298   6.398   4.248   1.436 -0.5228 -1.4271  1.6793
 6913TIP3    H242299   6.303   4.168   1.350 -0.1619  1.4242 -1.6157
 6914TIP3   OH242300   3.869   1.604   1.199  0.2567  0.1531  1.1950
 6914TIP3    H142301   3.935   1.674   1.194  0.0671  0.2518 -0.4323
 6914TIP3    H242302   3.803   1.629   1.134  0.4676 -1.8125  0.1619
 6915TIP3   OH242303   2.245   6.558   1.851 -0.5045 -0.2426 -0.1383
 6915TIP3    H142304   2.154   6.552   1.880  0.0350  0.4549  1.8132
 6915TIP3    H242305   2.255   6.647   1.818  0.0881  0.5721  2.0762
 6916TIP3   OH242306   1.832   5.293   1.247 -0.8045 -0.0826 -0.0670
 6916TIP3    H142307   1.857   5.331   1.163 -0.9022  2.4669  0.9570
 6916TIP3    H242308   1.908   5.306   1.303 -1.2375 -0.4766  0.6337
 6917TIP3   OH242309   1.994   0.506   0.389  0.5479 -0.4577  0.3205
 6917TIP3    H142310   1.909   0.468   0.411  0.9111 -0.9657  0.8966
 6917TIP3    H242311   2.040   0.437   0.341  0.4999 -0.0493 -0.3240
 6918TIP3   OH242312   2.576   2.362   1.082 -0.0013  0.9666  0.1164
 6918TIP3    H142313   2.571   2.434   1.145 -1.7411 -0.1540  1.3419
 6918TIP3    H242314   2.563   2.404   0.997 -1.8261  2.0417  0.8685
 6919TIP3   OH242315   4.283   0.060   1.108  0.4162 -0.0066  0.1608
 6919TIP3    H142316   4.297  -0.004   1.038  3.6953  1.0774 -0.3726
 6919TIP3    H242317   4.335   0.028   1.181  2.0896  1.9053 -0.1049
 6920TIP3   OH242318   5.137   3.921   7.067 -0.3650  0.1610 -0.0584
 6920TIP3    H142319   5.228   3.929   7.037  0.2892  0.0615  1.7761
 6920TIP3    H242320   5.118   3.827   7.060 -0.7358  0.3125 -1.4633
 6921TIP3   OH242321   5.624   3.218   0.366 -0.0125  0.1962  0.1253
 6921TIP3    H142322   5.709   3.261   0.360  0.7623 -1.4474 -1.2328
 6921TIP3    H242323   5.578   3.267   0.434  2.2604  0.6706  1.4237
 6922TIP3   OH242324   1.318   1.115   8.571 -0.5113  0.0508 -0.2772
 6922TIP3    H142325   1.232   1.131   8.530  1.1909  0.5993 -4.0736
 6922TIP3    H242326   1.319   1.173   8.647 -3.0362  0.9721 -0.8226
 6923TIP3   OH242327   0.081   0.340   1.076 -0.1072  0.6155 -0.1351
 6923TIP3    H142328   0.086   0.275   1.006 -0.8367  1.4998 -1.0481
 6923TIP3    H242329   0.154   0.319   1.134 -1.4746 -2.2423  0.7133
 6924TIP3   OH242330   4.706   3.322   1.260  0.2457  0.8711 -0.6493
 6924TIP3    H142331   4.795   3.297   1.284 -0.2774 -1.3367 -0.7670
 6924TIP3    H242332   4.688   3.401   1.311  2.0017  0.9520 -0.0859
 6925TIP3   OH242333   1.317   3.450   2.242 -0.1432  0.0844  0.8274
 6925TIP3    H142334   1.282   3.508   2.174 -1.8193 -0.5526  1.1046
 6925TIP3    H242335   1.389   3.404   2.199 -0.1968  0.7879 -0.0494
 6926TIP3   OH242336   6.656   0.123   1.643 -0.4203  0.0685  0.3081
 6926TIP3    H142337   6.642   0.110   1.736 -0.9308 -0.5845  0.1506
 6926TIP3    H242338   6.635   0.038   1.603 -2.0375  0.8373 -0.5817
 6927TIP3   OH242339   6.117   5.875   2.280  0.4696 -0.0367  0.5727
 6927TIP3    H142340   6.056   5.842   2.347  0.2084 -0.1690  0.2764
 6927TIP3    H242341   6.119   5.969   2.294 -1.0422  0.1779 -0.4057
 6928TIP3   OH242342   5.905   6.405   1.400 -0.8916  0.0903  0.1123
 6928TIP3    H142343   5.884   6.322   1.443 -0.0236  0.2991  0.9742
 6928TIP3    H242344   5.961   6.381   1.327  0.3059 -0.0157  1.0323
 6929TIP3   OH242345   0.158   4.426   1.482  0.4024  0.4840 -0.1241
 6929TIP3    H142346   0.224   4.417   1.551 -1.1449  0.5364  1.4379
 6929TIP3    H242347   0.134   4.519   1.483  1.5314  0.8548 -1.9377
 6930TIP3   OH242348   1.323   0.506   1.269  0.3431 -0.2895 -0.3598
 6930TIP3    H142349   1.306   0.418   1.234  0.7778 -0.5826  0.1575
 6930TIP3    H242350   1.236   0.543   1.282  0.1509  0.0989 -2.4088
 6931TIP3   OH242351   0.723   2.560   1.254 -0.0864  0.0491  0.1597
 6931TIP3    H142352   0.663   2.515   1.314  0.3806  0.4012  0.9052
 6931TIP3    H242353   0.707   2.519   1.169 -0.2099 -1.0059  0.6737
 6932TIP3   OH242354   0.241   0.118   7.577 -0.1528  0.1779  0.4017
 6932TIP3    H142355   0.207   0.091   7.491 -0.9226  2.0401  0.0574
 6932TIP3    H242356   0.334   0.094   7.575 -0.0645  0.5332 -1.1399
 6933TIP3   OH242357   2.965   0.637   7.955  0.1240  0.0466 -0.0280
 6933TIP3    H142358   2.963   0.619   8.049 -1.7562  1.2305  0.2014
 6933TIP3    H242359   2.907   0.571   7.916  0.2204  0.0975 -0.2614
 6934TIP3   OH242360   2.037   3.961   7.867  0.2181 -0.3321  0.3610
 6934TIP3    H142361   2.120   3.992   7.831 -0.2676  0.6271  0.0394
 6934TIP3    H242362   2.061   3.882   7.916  1.2073 -0.4801 -0.3114
 6935TIP3   OH242363   0.294   3.725   2.309 -0.6394  0.1146  0.7478
 6935TIP3    H142364   0.203   3.694   2.304 -0.7592  0.2880  1.6861
 6935TIP3    H242365   0.287   3.820   2.321 -0.3401  0.1189  0.9026
 6936TIP3   OH242366   4.065   1.010   1.284  0.2598  0.1463  0.0261
 6936TIP3    H142367   4.072   0.981   1.374  0.8020  0.5594  0.1222
 6936TIP3    H242368   3.972   1.000   1.262  0.0214  0.6119  0.8186
 6937TIP3   OH242369   3.089   2.540   0.588  0.4531  0.1886  0.2039
 6937TIP3    H142370   3.173   2.573   0.557  1.2726 -0.8700  1.2521
 6937TIP3    H242371   3.033   2.619   0.593  1.7020  1.0735  0.5808
 6938TIP3   OH242372   1.775   6.499   1.750  0.0195 -0.3222  0.5954
 6938TIP3    H142373   1.749   6.417   1.708 -0.0378 -0.7614  1.4509
 6938TIP3    H242374   1.782   6.562   1.679 -1.3495 -0.7132  0.0950
 6939TIP3   OH242375   2.789   2.526   7.916  0.2923  0.5046  0.6794
 6939TIP3    H142376   2.733   2.552   7.989 -1.3312  1.5523 -0.8351
 6939TIP3    H242377   2.738   2.461   7.868  1.1736  0.0997  0.2600
 6940TIP3   OH242378   2.117   3.210   2.339 -0.0714 -0.6076  0.1361
 6940TIP3    H142379   2.123   3.290   2.391 -0.1307 -0.2554 -0.3983
 6940TIP3    H242380   2.149   3.141   2.398  0.6933 -0.0816  0.3498
 6941TIP3   OH242381   2.056   2.327   2.435  0.1273  0.0199 -0.0581
 6941TIP3    H142382   2.030   2.345   2.525  1.4182  0.2998  0.2715
 6941TIP3    H242383   2.035   2.407   2.387  1.8715  0.8849  0.5478
 6942TIP3   OH242384   1.844   2.785   1.837  0.1874 -0.6223 -0.2790
 6942TIP3    H142385   1.785   2.734   1.782 -0.7225  0.7229 -0.6108
 6942TIP3    H242386   1.804   2.872   1.841  1.2603 -0.1463  0.9148
 6943TIP3   OH242387   3.416   4.803   6.760  0.1945  0.6728  0.2864
 6943TIP3    H142388   3.405   4.872   6.694  1.2212  1.5879  1.0243
 6943TIP3    H242389   3.511   4.799   6.774  0.1294 -0.8001  0.3796
 6944TIP3   OH242390   5.949   4.365   7.655 -0.4670 -0.1432 -0.4078
 6944TIP3    H142391   6.014   4.423   7.616  0.0695 -0.1951  0.3911
 6944TIP3    H242392   5.987   4.277   7.646 -0.4657 -0.1830 -0.0267
 6945TIP3   OH242393   6.664   1.793   8.648 -0.1445 -0.6573  0.2001
 6945TIP3    H142394   6.611   1.778   8.570  0.9356 -0.9833 -0.4978
 6945TIP3    H242395   6.610   1.761   8.720 -1.2882 -0.0589 -0.3614
 6946TIP3   OH242396   3.137   6.732   2.832 -0.2341 -0.3044  0.1181
 6946TIP3    H142397   3.117   6.824   2.852 -0.4303  0.6105 -3.4514
 6946TIP3    H242398   3.191   6.702   2.905 -0.5907  2.4841  1.6614
 6947TIP3   OH242399   2.310   3.564   2.554 -0.7765  0.3348  0.0665
 6947TIP3    H142400   2.389   3.554   2.608 -0.7227 -0.4130 -0.1426
 6947TIP3    H242401   2.274   3.476   2.547 -0.7231  0.3946 -1.2067
 6948TIP3   OH242402   0.708   6.049   1.471 -0.0040 -0.4827  0.2022
 6948TIP3    H142403   0.666   6.117   1.523 -0.1939 -1.1393  0.9238
 6948TIP3    H242404   0.799   6.048   1.503  0.4090  0.4783 -0.8887
 6949TIP3   OH242405   6.188   3.223   0.419  0.1761  0.1003 -0.4490
 6949TIP3    H142406   6.262   3.162   0.412  1.0914  1.1616 -0.2117
 6949TIP3    H242407   6.162   3.240   0.329  0.1205 -0.3919 -0.5278
 6950TIP3   OH242408   3.107   3.851   0.751 -0.7659  0.0733  0.1106
 6950TIP3    H142409   3.038   3.874   0.689 -1.7710 -1.5879  0.5453
 6950TIP3    H242410   3.154   3.933   0.767 -1.6966  0.9229 -1.3420
 6951TIP3   OH242411   6.672   2.694   8.208  0.4929 -0.2646  0.7258
 6951TIP3    H142412   6.621   2.774   8.222 -0.9602 -1.0023 -0.1165
 6951TIP3    H242413   6.754   2.724   8.168 -1.4720  0.6366 -3.1157
 6952TIP3   OH242414   3.850   5.865   1.523  0.4108  0.2492 -0.4019
 6952TIP3    H142415   3.873   5.958   1.520  2.8749 -0.2902 -0.4470
 6952TIP3    H242416   3.932   5.819   1.505 -0.7712 -1.9564 -0.5679
 6953TIP3   OH242417   0.400   2.929   8.864 -0.1935  0.2344 -0.6595
 6953TIP3    H142418   0.349   3.010   8.873  0.5561  0.6217  0.2517
 6953TIP3    H242419   0.447   2.920   8.947  2.1897  0.5696 -1.8666
 6954TIP3   OH242420   1.030   5.326   2.498 -0.0907  0.3747  0.1606
 6954TIP3    H142421   1.060   5.409   2.536  0.9625  0.3494 -0.5625
 6954TIP3    H242422   1.095   5.262   2.526 -0.9435 -0.2381  0.7858
 6955TIP3   OH242423   5.452   3.083   2.068 -0.1492  0.2831  0.0558
 6955TIP3    H142424   5.403   3.082   2.150  0.4445  2.6575  0.5347
 6955TIP3    H242425   5.521   3.018   2.080 -0.3274  0.3021  1.2969
 6956TIP3   OH242426   1.811   2.019   0.522 -0.3060 -0.2471  0.1530
 6956TIP3    H142427   1.843   1.986   0.439 -0.8662 -0.6870  0.1057
 6956TIP3    H242428   1.888   2.019   0.579 -0.2564 -1.5031  0.1121
 6957TIP3   OH242429   4.821   0.486   8.722  0.2191 -0.0993  0.5993
 6957TIP3    H142430   4.786   0.573   8.739  1.7494  0.5400  0.6817
 6957TIP3    H242431   4.899   0.501   8.668  0.3788 -1.4389  0.4030
 6958TIP3   OH242432   3.688   2.282   1.952  0.2570 -0.5137 -0.6852
 6958TIP3    H142433   3.612   2.224   1.953 -0.1055 -0.0525  0.3379
 6958TIP3    H242434   3.729   2.268   2.038  0.9359 -0.2491 -0.9575
 6959TIP3   OH242435   5.145   4.815   1.152 -0.1014  0.1828  0.0270
 6959TIP3    H142436   5.195   4.735   1.135 -0.7202  0.1282 -1.7517
 6959TIP3    H242437   5.184   4.851   1.232  0.1805 -1.8820  0.9028
 6960TIP3   OH242438   5.567   1.875   1.767 -0.1514 -0.2777 -0.5344
 6960TIP3    H142439   5.642   1.819   1.745 -0.0261 -0.8526  1.2220
 6960TIP3    H242440   5.515   1.822   1.828 -0.4420  1.2168  0.5609
 6961TIP3   OH242441   4.466   1.242   0.273  0.7591 -0.3644 -0.3861
 6961TIP3    H142442   4.409   1.243   0.196  0.3244  0.1801 -0.0615
 6961TIP3    H242443   4.481   1.149   0.290  0.9528 -0.4875 -1.1903
 6962TIP3   OH242444   0.618   2.936   8.672 -0.2176  0.2153 -0.5077
 6962TIP3    H142445   0.566   2.909   8.597 -1.7851 -1.3473  1.0590
 6962TIP3    H242446   0.574   2.898   8.748  2.6368 -0.3430  1.0247
 6963TIP3   OH242447   0.916   4.206   7.149 -0.0807 -0.3714 -0.0964
 6963TIP3    H142448   0.927   4.121   7.192 -3.1465 -0.2666  1.1517
 6963TIP3    H242449   0.822   4.211   7.128 -0.1074  2.8102  0.1935
 6964TIP3   OH242450   0.484   0.908   0.172  0.3531  0.1384  0.8587
 6964TIP3    H142451   0.462   0.837   0.113 -1.2420  0.2540  1.2707
 6964TIP3    H242452   0.540   0.867   0.239 -1.8676 -1.1758  2.0297
 6965TIP3   OH242453   1.233   0.828   7.841 -0.5315 -0.5489 -0.4268
 6965TIP3    H142454   1.183   0.870   7.772 -0.0936  0.2855 -0.2477
 6965TIP3    H242455   1.226   0.886   7.916  0.9695 -0.2232 -0.4996
 6966TIP3   OH242456   6.132   3.433   0.059 -0.4590 -0.2769  0.0451
 6966TIP3    H142457   6.086   3.493   0.000  1.8713 -0.2235 -1.9202
 6966TIP3    H242458   6.160   3.487   0.132 -0.0759  0.6230 -0.7431
 6967TIP3   OH242459   3.705   2.451   0.402 -0.0979 -0.5842  0.3001
 6967TIP3    H142460   3.685   2.359   0.422  0.3364 -0.4600  1.3294
 6967TIP3    H242461   3.635   2.500   0.443 -2.6703 -0.5828 -3.5463
 6968TIP3   OH242462   5.599   6.212   2.137 -0.5332 -0.7705  0.3585
 6968TIP3    H142463   5.576   6.305   2.139 -1.7974 -1.0494 -0.1025
 6968TIP3    H242464   5.655   6.199   2.214 -2.0006 -0.0373  1.5993
 6969TIP3   OH242465   6.306   4.655   7.983  0.6148 -0.3119 -1.0349
 6969TIP3    H142466   6.369   4.679   7.915  1.9664 -3.2670 -0.9662
 6969TIP3    H242467   6.297   4.734   8.036  3.0115  0.7139 -2.0170
 6970TIP3   OH242468   0.925   0.392   8.895 -0.1741 -0.3802 -0.2664
 6970TIP3    H142469   0.912   0.431   8.808 -0.3166  0.1795  0.0017
 6970TIP3    H242470   0.840   0.402   8.939  0.5551  1.6273  0.8329
 6971TIP3   OH242471   3.867   0.346   8.650  0.2194 -0.1886  0.2906
 6971TIP3    H142472   3.899   0.405   8.582  1.3170 -1.2987 -0.1821
 6971TIP3    H242473   3.935   0.347   8.717  0.6984 -1.6007 -0.1426
 6972TIP3   OH242474   3.945   2.012   8.157 -0.1959 -0.3742 -0.0885
 6972TIP3    H142475   3.892   2.039   8.232 -1.3259 -0.1623 -0.9251
 6972TIP3    H242476   3.896   1.940   8.117 -0.2383  0.2894 -1.2933
 6973TIP3   OH242477   1.971   2.981   8.761  0.2898  0.2291 -0.0126
 6973TIP3    H142478   2.019   2.998   8.680 -1.0792 -0.0154 -0.9106
 6973TIP3    H242479   2.026   2.920   8.809  0.5770 -0.5867 -1.3216
 6974TIP3   OH242480   4.668   5.278   7.818  0.2337  0.2974  0.4183
 6974TIP3    H142481   4.747   5.311   7.861  1.3613  0.5825 -1.7313
 6974TIP3    H242482   4.697   5.253   7.730 -2.5177  2.8284 -1.3899
 6975TIP3   OH242483   5.675   3.106   7.683  0.3922 -0.4993 -0.1128
 6975TIP3    H142484   5.755   3.060   7.659  0.4023 -0.7173  0.3227
 6975TIP3    H242485   5.615   3.089   7.611  0.4374 -1.1036 -0.0195
 6976TIP3   OH242486   0.621   2.383   8.116  0.0508 -0.5537  0.2332
 6976TIP3    H142487   0.577   2.301   8.137 -0.8348 -0.1048  0.1639
 6976TIP3    H242488   0.565   2.425   8.050  0.4506  0.1363  0.3149
 6977TIP3   OH242489   2.212   2.472   8.930 -0.6830 -0.1076  0.0302
 6977TIP3    H142490   2.270   2.458   8.855 -0.9411  0.3452 -0.2567
 6977TIP3    H242491   2.184   2.563   8.922 -1.1940 -0.2330  0.3420
 6978TIP3   OH242492   0.814   5.584   0.456  0.1414 -0.2236 -0.2803
 6978TIP3    H142493   0.811   5.495   0.490 -0.0179  0.0423  0.4154
 6978TIP3    H242494   0.753   5.633   0.511  1.0960  0.5618  0.1086
 6979TIP3   OH242495   3.293   4.682   7.364  0.0866  0.0576 -0.0053
 6979TIP3    H142496   3.330   4.603   7.401  1.1593  1.0442  1.1105
 6979TIP3    H242497   3.274   4.660   7.273 -0.6989 -1.8008  0.5712
 6980TIP3   OH242498   0.378   1.798   0.354  0.7280 -0.6742  0.2495
 6980TIP3    H142499   0.418   1.872   0.399  0.0462 -0.5916  0.7373
 6980TIP3    H242500   0.436   1.724   0.374 -0.0345 -0.8425  2.0824
 6981TIP3   OH242501   4.564   0.230   8.594  0.3913 -0.0269  0.6754
 6981TIP3    H142502   4.593   0.141   8.574 -0.5686 -0.3079  0.4690
 6981TIP3    H242503   4.615   0.286   8.536  0.7399 -0.4741  0.5468
 6982TIP3   OH242504   2.004   1.933   1.633 -0.4508 -0.6046 -0.1659
 6982TIP3    H142505   2.071   1.995   1.604 -0.3319 -0.8421 -0.4042
 6982TIP3    H242506   2.040   1.847   1.612 -0.9063 -0.7290 -0.4730
 6983TIP3   OH242507   3.956   2.331   0.524 -0.2584 -0.2502  0.2892
 6983TIP3    H142508   3.890   2.294   0.582 -0.3808 -1.7202 -0.7411
 6983TIP3    H242509   3.946   2.283   0.442  1.5932  0.0095 -0.1349
 6984TIP3   OH242510   3.076   4.814   8.400  0.0220  0.1312  0.5782
 6984TIP3    H142511   3.127   4.736   8.424  0.1174 -0.2755 -0.8027
 6984TIP3    H242512   3.134   4.861   8.339 -1.3967 -0.6347 -1.4827
 6985TIP3   OH242513   3.789   6.038   8.005  0.2751  0.0425  0.2415
 6985TIP3    H142514   3.771   6.082   7.921 -0.3764  1.6281  1.1661
 6985TIP3    H242515   3.755   5.950   7.993 -1.9656  0.9183 -0.4099
 6986TIP3   OH242516   1.913   5.821   2.772  0.4940 -0.1506 -0.0441
 6986TIP3    H142517   1.962   5.757   2.823 -0.4103 -1.3742 -0.6538
 6986TIP3    H242518   1.821   5.802   2.792  0.2160  1.8338  0.7784
 6987TIP3   OH242519   0.285   0.299   7.784  0.6834  0.7780  0.0636
 6987TIP3    H142520   0.279   0.252   7.701 -0.3323  0.7085  0.1672
 6987TIP3    H242521   0.243   0.242   7.848 -0.4790  1.7572  0.2089
 6988TIP3   OH242522   5.753   3.151   0.062 -1.0153 -0.1072 -0.3749
 6988TIP3    H142523   5.722   3.134  -0.027 -0.7131 -0.4555 -0.4136
 6988TIP3    H242524   5.678   3.192   0.106 -0.7380  1.3209 -1.1791
 6989TIP3   OH242525   6.662   2.388   2.287  0.7496 -0.0215  0.3065
 6989TIP3    H142526   6.585   2.331   2.288  0.2945  0.5738 -0.0508
 6989TIP3    H242527   6.642   2.453   2.220  1.2643  0.5514  0.7067
 6990TIP3   OH242528   2.759   4.802   0.435 -0.3473  0.5219  0.1960
 6990TIP3    H142529   2.698   4.822   0.507 -0.1825 -1.2864  0.8778
 6990TIP3    H242530   2.711   4.740   0.380  0.4651 -0.0380  0.1126
 6991TIP3   OH242531   0.115   5.123   8.584  0.4749 -0.3410 -0.7221
 6991TIP3    H142532   0.048   5.169   8.533  0.1100  0.9418  0.8083
 6991TIP3    H242533   0.147   5.190   8.645  0.7561 -1.8336  0.8295
 6992TIP3   OH242534   6.240   6.185   0.016  0.2957 -0.3091 -0.1012
 6992TIP3    H142535   6.205   6.273   0.031  0.3921 -0.2746 -0.0743
 6992TIP3    H242536   6.286   6.164   0.097 -1.3301 -1.1614  0.6457
 6993TIP3   OH242537   0.253   1.617   0.872  0.0147  0.4337 -0.1363
 6993TIP3    H142538   0.254   1.704   0.913  0.1902  0.4685 -0.2128
 6993TIP3    H242539   0.162   1.590   0.876  0.2499 -0.2625  1.7440
 6994TIP3   OH242540   3.195   5.601   8.525 -0.2891  0.3634  0.5461
 6994TIP3    H142541   3.136   5.589   8.450 -0.1771 -1.0016  0.6499
 6994TIP3    H242542   3.282   5.610   8.486 -0.1376 -1.0344  0.5102
 6995TIP3   OH242543   3.051   5.201   8.276 -0.2917 -0.8156  0.3439
 6995TIP3    H142544   3.061   5.296   8.271  0.5854 -0.9277 -0.3554
 6995TIP3    H242545   3.075   5.179   8.366 -0.2024 -0.4041  0.4208
 6996TIP3   OH242546   6.557   0.020   0.954  0.1757 -0.5224 -0.0139
 6996TIP3    H142547   6.512   0.103   0.945 -1.3037 -1.3239 -0.2531
 6996TIP3    H242548   6.563   0.006   1.049  1.4129  0.3405  0.0623
 6997TIP3   OH242549   5.075   3.649   0.454  0.5178 -0.3790  0.2364
 6997TIP3    H142550   5.059   3.711   0.525 -0.6813  1.0977 -1.2588
 6997TIP3    H242551   5.158   3.678   0.415  0.4250 -0.2819  0.1110
 6998TIP3   OH242552   1.597   1.254   0.019 -0.0330 -0.6623 -0.4179
 6998TIP3    H142553   1.538   1.215   0.083 -0.0312 -0.2786 -0.1787
 6998TIP3    H242554   1.604   1.189  -0.051 -1.1939 -0.4775 -0.7228
 6999TIP3   OH242555   3.677   3.062   8.042  0.4540 -0.1127 -0.1101
 6999TIP3    H142556   3.651   3.042   7.952  0.5408 -2.4135  0.3155
 6999TIP3    H242557   3.632   2.997   8.095  1.1271  0.6277  1.4459
 7000TIP3   OH242558   0.853   0.518   7.353  0.2990 -0.6610  0.1811
 7000TIP3    H142559   0.920   0.456   7.325  0.9684  0.1956 -0.1953
 7000TIP3    H242560   0.884   0.602   7.319 -1.5167 -0.3981 -0.9808
 7001TIP3   OH242561   5.124   4.124   7.882  0.2272  0.2066  0.0577
 7001TIP3    H142562   5.130   4.193   7.816  0.7446  0.3767  0.2732
 7001TIP3    H242563   5.049   4.150   7.936 -0.3490 -0.0659 -0.6033
 7002TIP3   OH242564   0.778   0.476   2.013  0.2462 -0.7319  0.1678
 7002TIP3    H142565   0.758   0.432   2.096  1.7121 -0.5949  0.6297
 7002TIP3    H242566   0.829   0.412   1.963  0.8489 -0.2121  0.1007
 7003TIP3   OH242567   4.616   6.088   1.769  0.5875 -0.3209  0.1994
 7003TIP3    H142568   4.591   6.003   1.806  1.3455 -0.2207  0.9851
 7003TIP3    H242569   4.664   6.131   1.840 -0.4089  1.0707  0.0773
 7004TIP3   OH242570   0.126   6.413   2.940 -0.0127 -0.3385 -0.0065
 7004TIP3    H142571   0.041   6.374   2.921 -0.5836  0.5389  0.6669
 7004TIP3    H242572   0.164   6.355   3.007  0.1318 -0.9845 -0.6333
 7005TIP3   OH242573   4.932   2.514   8.831 -0.0971 -0.3229  0.2449
 7005TIP3    H142574   4.926   2.501   8.737  2.2151  1.2917 -0.2235
 7005TIP3    H242575   5.008   2.462   8.858  1.7889  2.2858  0.3894
 7006TIP3   OH242576   0.248   4.208   0.030 -0.3401 -0.8400  0.3624
 7006TIP3    H142577   0.269   4.149   0.102  2.8406  3.3923  3.4573
 7006TIP3    H242578   0.299   4.175  -0.044  1.6597 -1.8227  2.0829
 7007TIP3   OH242579   3.965   4.701   7.714 -0.0415 -0.1482 -0.0398
 7007TIP3    H142580   4.021   4.699   7.792  1.7884 -0.7393 -1.2901
 7007TIP3    H242581   3.999   4.773   7.662 -0.2196 -0.7217 -0.9800
 7008TIP3   OH242582   0.826   5.332   1.293  0.2130 -0.1830 -0.0398
 7008TIP3    H142583   0.803   5.397   1.226  1.6212 -0.0434 -0.4218
 7008TIP3    H242584   0.829   5.249   1.245 -0.0083 -0.2797  0.1150
 7009TIP3   OH242585   3.456   0.872   1.095  0.7601  0.4197  0.1666
 7009TIP3    H142586   3.461   0.793   1.149  1.1485  1.2363  1.3596
 7009TIP3    H242587   3.410   0.936   1.150 -1.8145  0.3373 -1.6632
 7010TIP3   OH242588   2.990   6.289   8.276  0.3690  0.1699  0.6962
 7010TIP3    H142589   2.986   6.347   8.352 -0.6508 -2.6514  3.0245
 7010TIP3    H242590   3.081   6.262   8.272  0.2401 -0.4689  1.6544
 7011TIP3   OH242591   6.354   1.655   0.395  0.3839 -0.0387 -0.0221
 7011TIP3    H142592   6.282   1.653   0.458  1.0146 -0.5246  0.7059
 7011TIP3    H242593   6.312   1.638   0.311 -0.0318 -4.0407  0.7510
 7012TIP3   OH242594   2.021   5.953   8.546  0.1917 -0.0841  0.0689
 7012TIP3    H142595   2.111   5.982   8.539 -0.0966  1.2910  1.5229
 7012TIP3    H242596   2.006   5.943   8.640 -1.8986  2.2609  0.0746
 7013TIP3   OH242597   2.786   6.699   1.388 -0.1249 -0.3980 -0.6483
 7013TIP3    H142598   2.735   6.633   1.435  0.2792 -1.9743 -2.3235
 7013TIP3    H242599   2.877   6.683   1.416 -0.1657  0.3260 -0.0738
 7014TIP3   OH242600   5.630   1.705   0.088  0.1820  0.1631  0.0795
 7014TIP3    H142601   5.601   1.632   0.142 -1.1006 -2.4864 -3.7456
 7014TIP3    H242602   5.678   1.664   0.016  0.6472  3.2381 -1.5615
 7015TIP3   OH242603   2.798   5.016   0.685  0.2539 -0.7528  0.1302
 7015TIP3    H142604   2.840   5.026   0.770  1.3068 -0.6939 -0.3863
 7015TIP3    H242605   2.743   4.938   0.694 -0.5198 -0.1180  1.1940
 7016TIP3   OH242606   2.945   4.661   0.135 -0.0778  0.3258  0.0372
 7016TIP3    H142607   3.020   4.607   0.157 -1.9170 -2.6000 -0.3009
 7016TIP3    H242608   2.870   4.617   0.175 -1.8822  1.9093 -1.3505
 7017TIP3   OH242609   3.801   1.930   2.835 -0.0042 -0.1623  0.3638
 7017TIP3    H142610   3.741   1.969   2.772  1.1713 -0.3542 -0.9243
 7017TIP3    H242611   3.767   1.841   2.848 -1.2302  0.4088  1.3741
 7018TIP3   OH242612   1.951   5.779   2.481 -0.2340  0.1447 -0.0068
 7018TIP3    H142613   1.857   5.760   2.478  0.0773 -1.9093  1.1115
 7018TIP3    H242614   1.967   5.807   2.571  0.4236 -1.0050  0.2641
 7019TIP3   OH242615   0.841   2.804   2.315 -0.3972  0.6093  0.4837
 7019TIP3    H142616   0.927   2.786   2.277 -0.7443 -0.0983  0.0168
 7019TIP3    H242617   0.858   2.869   2.383  0.9366 -1.4651  2.2543
 7020TIP3   OH242618   6.017   5.205   1.652  0.0341 -0.3646  0.2281
 7020TIP3    H142619   5.937   5.222   1.702 -1.1931 -0.5049 -1.5753
 7020TIP3    H242620   6.023   5.279   1.591  0.8628 -0.7365 -0.1543
 7021TIP3   OH242621   3.754   5.631   7.191 -0.4031 -0.1647  0.4628
 7021TIP3    H142622   3.683   5.655   7.251 -0.5818  0.3776  0.0413
 7021TIP3    H242623   3.716   5.563   7.134 -1.1648  1.3209 -0.8855
 7022TIP3   OH242624   3.901   1.975   2.285 -0.2000 -0.4954  0.8625
 7022TIP3    H142625   3.821   1.980   2.233  1.3072  1.4316 -1.4559
 7022TIP3    H242626   3.916   2.065   2.314  0.5254 -1.0529  2.2987
 7023TIP3   OH242627   3.862   2.395   8.408 -0.0719  0.7380  0.3730
 7023TIP3    H142628   3.827   2.306   8.406 -1.3588  1.1115  2.7521
 7023TIP3    H242629   3.908   2.405   8.325 -2.0290 -1.2737 -1.0497
 7024TIP3   OH242630   1.685   4.216   0.610  0.7762  0.5844 -0.0189
 7024TIP3    H142631   1.707   4.292   0.665 -0.3752  1.1599 -0.3351
 7024TIP3    H242632   1.621   4.249   0.548  1.0038 -0.4196 -0.8061
 7025TIP3   OH242633   4.241   3.595   0.951  0.2562 -0.3102 -0.0631
 7025TIP3    H142634   4.204   3.627   1.034  0.4636 -0.2826  0.0178
 7025TIP3    H242635   4.317   3.543   0.977  0.8662  0.4465 -0.2896
 7026TIP3   OH242636   1.716   4.729   2.747  0.5687  0.5974  0.0943
 7026TIP3    H142637   1.662   4.808   2.750  0.3892  0.4617  0.5433
 7026TIP3    H242638   1.666   4.664   2.797  1.6842  0.8164  1.5768
 7027TIP3   OH242639   5.340   4.645   0.519  0.4815 -0.1508 -0.0529
 7027TIP3    H142640   5.325   4.551   0.508  1.2380 -0.4379  1.1015
 7027TIP3    H242641   5.390   4.670   0.442  0.4711 -0.7597 -0.2648
 7028TIP3   OH242642   4.429   1.182   1.003 -0.6008  0.0954 -0.0291
 7028TIP3    H142643   4.337   1.192   0.979 -0.3773  0.5885 -0.7170
 7028TIP3    H242644   4.449   1.259   1.056  0.0649  1.3672 -2.0039
 7029TIP3   OH242645   5.039   1.425   7.334  0.7101  0.0801 -0.4883
 7029TIP3    H142646   4.970   1.439   7.398 -0.6952 -0.2400 -1.8894
 7029TIP3    H242647   5.043   1.330   7.323  2.5148 -0.0416  0.7434
 7030TIP3   OH242648   2.073   4.914   2.267  0.7524  0.7097 -0.4728
 7030TIP3    H142649   2.038   4.938   2.181 -1.1314  0.3009  0.1486
 7030TIP3    H242650   1.997   4.911   2.324  1.8166 -0.2358  0.9552
 7031TIP3   OH242651   0.506   2.417   0.580  0.0066 -0.2348  0.3865
 7031TIP3    H142652   0.568   2.363   0.530 -0.2934 -0.4192  0.2038
 7031TIP3    H242653   0.420   2.391   0.546 -0.1556  0.2008  0.4547
 7032TIP3   OH242654   1.373   4.749   2.629 -0.2051 -0.0327 -0.2214
 7032TIP3    H142655   1.352   4.730   2.721 -1.1326 -0.4807 -0.5214
 7032TIP3    H242656   1.457   4.795   2.633  0.6554 -1.6350  0.7288
 7033TIP3   OH242657   5.021   5.405   7.700  0.1280 -0.2038  0.2589
 7033TIP3    H142658   4.979   5.428   7.783  1.3513 -1.2210  1.2020
 7033TIP3    H242659   5.013   5.484   7.647  1.1015  1.2312  2.0883
 7034TIP3   OH242660   4.817   4.641   7.490 -0.4170  0.0749 -0.3678
 7034TIP3    H142661   4.724   4.626   7.475 -0.3290 -0.2083 -0.6372
 7034TIP3    H242662   4.861   4.580   7.431 -0.0528  0.9013 -0.9843
 7035TIP3   OH242663   1.809   4.097   8.225 -0.2169 -0.4099 -0.6391
 7035TIP3    H142664   1.725   4.110   8.269 -1.4340 -1.9551 -2.3677
 7035TIP3    H242665   1.841   4.013   8.257  0.9073  0.3224  0.2749
 7036TIP3   OH242666   2.119   3.121   0.099  0.0805  0.0554 -0.0250
 7036TIP3    H142667   2.115   3.036   0.055 -1.0249 -0.4818  1.0758
 7036TIP3    H242668   2.076   3.108   0.183 -1.4738  2.0783 -0.4182
 7037TIP3   OH242669   0.749   5.427   2.590  0.2365  0.1596  0.0440
 7037TIP3    H142670   0.704   5.364   2.535  0.5546  1.4028 -1.7393
 7037TIP3    H242671   0.841   5.400   2.588  0.0363 -0.6743  1.2612
 7038TIP3   OH242672   1.901   4.659   7.991 -0.0243 -0.7200 -0.1454
 7038TIP3    H142673   1.910   4.600   8.066  0.4709  1.5050  1.6663
 7038TIP3    H242674   1.988   4.661   7.951 -0.0896 -1.3201 -0.3280
 7039TIP3   OH242675   2.743   4.862   8.776 -0.2463  0.3067  0.1161
 7039TIP3    H142676   2.798   4.799   8.729 -1.4428 -0.4694 -0.2983
 7039TIP3    H242677   2.683   4.807   8.828 -1.5025  1.0702 -0.4664
 7040TIP3   OH242678   3.950   1.303   1.187  0.2100  0.6007  0.3275
 7040TIP3    H142679   3.902   1.375   1.145 -0.9416 -0.3437 -0.0579
 7040TIP3    H242680   3.881   1.242   1.215  1.1873 -1.1053 -0.7773
 7041TIP3   OH242681   2.958   3.930   1.412  0.2017 -0.3189  0.1257
 7041TIP3    H142682   2.897   3.868   1.452 -0.2865 -0.1711 -0.3705
 7041TIP3    H242683   2.916   4.015   1.425  2.0515  0.2775  3.0691
 7042TIP3   OH242684   5.067   1.981   0.580  0.0457  0.2975 -0.1330
 7042TIP3    H142685   5.142   1.934   0.616  1.3611 -0.9040 -4.0030
 7042TIP3    H242686   5.008   1.992   0.655  2.6491 -1.4893  2.4034
 7043TIP3   OH242687   0.563   5.775   0.101 -0.2238  0.6848  0.4986
 7043TIP3    H142688   0.548   5.804   0.191  0.5104  0.3429  0.7370
 7043TIP3    H242689   0.600   5.688   0.110 -0.5847  0.4531 -0.1579
 7044TIP3   OH242690   3.632   4.723   8.367  0.0384 -0.6779 -0.0523
 7044TIP3    H142691   3.613   4.712   8.460  0.9054 -1.5917  0.0372
 7044TIP3    H242692   3.618   4.636   8.329 -0.7383 -0.2074 -0.8626
 7045TIP3   OH242693   5.437   2.980   0.380  0.1307  0.1297 -0.0583
 7045TIP3    H142694   5.402   2.968   0.469 -0.9099 -1.0849 -0.5981
 7045TIP3    H242695   5.489   3.060   0.386 -0.6627  0.5875  1.4336
 7046TIP3   OH242696   1.970   6.444   1.086 -0.1411  0.4429 -0.2147
 7046TIP3    H142697   1.889   6.443   1.035  0.4161  0.6650 -1.1087
 7046TIP3    H242698   2.003   6.533   1.077 -0.3436  0.6615  1.0344
 7047TIP3   OH242699   2.717   4.634   1.340  0.3771 -0.0632  0.9460
 7047TIP3    H142700   2.700   4.577   1.415  0.4287  0.4021  1.3202
 7047TIP3    H242701   2.811   4.624   1.323  0.3851 -0.0975  1.0085
 7048TIP3   OH242702   0.353   4.886   2.217  0.2138  0.8383  0.4957
 7048TIP3    H142703   0.366   4.838   2.299  0.0519 -0.6719 -0.3240
 7048TIP3    H242704   0.258   4.890   2.207  0.2362  0.7010  0.2127
 7049TIP3   OH242705   4.330   0.878   8.297  0.0407 -0.3679 -0.3493
 7049TIP3    H142706   4.330   0.784   8.278 -1.3284 -0.5374  0.3277
 7049TIP3    H242707   4.238   0.898   8.316  0.1018  1.3729 -1.7012
 7050TIP3   OH242708   1.212   1.825   2.037  0.1899  0.1182 -0.3749
 7050TIP3    H142709   1.167   1.750   1.998  0.0872 -0.4714  0.8137
 7050TIP3    H242710   1.178   1.901   1.991  0.2522 -0.5529 -1.5724
 7051TIP3   OH242711   0.924   3.154   1.791  0.1585  0.2665  0.3038
 7051TIP3    H142712   0.975   3.221   1.837  0.3104  1.5185 -1.5687
 7051TIP3    H242713   0.982   3.125   1.720 -1.2292  0.7463 -1.0613
 7052TIP3   OH242714   0.167   5.275   2.273  0.8539 -0.0533  0.2054
 7052TIP3    H142715   0.135   5.256   2.361 -1.4521  0.6383 -0.4143
 7052TIP3    H242716   0.089   5.298   2.223  2.2133  0.5420 -1.7933
 7053TIP3   OH242717   6.714   4.721   2.006  0.2382  0.5632  0.1282
 7053TIP3    H142718   6.682   4.788   2.065 -1.1070  0.1389 -0.0874
 7053TIP3    H242719   6.637   4.668   1.985  0.0615  1.9987 -3.7789
 7054LIG     O142720   3.816   1.929   7.288 -1.0380  0.4260 -0.4101
 7054LIG     O242721   4.066   1.975   7.363  0.0417 -0.2724 -0.4943
 7054LIG     O342722   3.877   1.651   7.408 -0.1527 -0.4576  0.1060
 7054LIG     O442723   4.244   2.072   7.497 -0.1292 -0.1212  0.4557
 7054LIG     O542724   3.960   1.848   7.582  0.2294  0.2801  0.0185
 7054LIG     O642725   4.127   1.809   7.802  0.1395 -0.4575  0.0291
 7054LIG     O742726   4.337   1.989   7.853 -0.1044  0.4195  0.0699
 7054LIG     O842727   4.527   2.032   7.522  0.1305  0.1794  0.0925
 7054LIG     O942728   4.519   2.205   7.677 -0.2010  0.4618 -0.0780
 7054LIG      N42729   3.844   1.960   6.779 -0.2380  0.3650  0.3318
 7054LIG     C142730   3.879   1.994   7.080  0.2398 -0.2976  0.1256
 7054LIG     C242731   3.982   2.044   6.981 -0.6969 -0.5486 -0.5942
 7054LIG     C342732   3.874   2.050   7.220  0.1466 -0.2723 -0.4513
 7054LIG     C442733   3.980   1.952   6.849  0.9701 -0.0927  0.6424
 7054LIG     C542734   3.746   1.993   7.006 -0.8646  0.5512  0.3433
 7054LIG     C642735   3.912   1.847   7.092  0.3298 -0.5858  0.1085
 7054LIG     C742736   4.026   1.808   6.877 -0.0753 -0.6473 -0.4136
 7054LIG     C842737   3.738   1.922   6.869 -0.2537 -0.2075 -0.7694
 7054LIG     C942738   4.018   2.081   7.281  0.3710  0.2643  0.0706
 7054LIG    C1042739   3.980   1.765   7.013 -0.3566  0.2255  0.5795
 7054LIG    C1142740   4.115   2.068   7.049 -0.1338 -0.7792 -0.2227
 7054LIG    C1242741   3.878   1.823   7.227 -0.2565  0.2296 -0.0633
 7054LIG    C1342742   4.132   2.076   7.185 -0.2047  0.0011  0.0326
 7054LIG    C1442743   3.821   2.073   6.690 -0.6514 -0.0473  0.8722
 7054LIG    C1542744   4.025   1.640   7.062 -0.4882  0.3295  0.6623
 7054LIG    C1642745   3.917   1.693   7.276 -0.0289 -0.0134 -0.4379
 7054LIG    C1742746   3.997   1.605   7.190 -0.0348 -0.2999 -0.3087
 7054LIG    C1842747   4.108   2.019   7.497 -0.2069  0.2812  0.2045
 7054LIG    C1942748   4.092   1.894   7.582  0.0838 -0.7202  0.3274
 7054LIG    C2042749   4.136   1.923   7.722  0.2323 -0.0658 -0.2143
 7054LIG    C2142750   4.286   1.968   7.722  0.4150 -0.5936  0.1859
 7054LIG    C2242751   4.305   2.088   7.625  0.9076  0.4634 -0.7221
 7054LIG    C2342752   4.457   2.119   7.612 -0.0267 -0.0878 -0.1536
 7054LIG     H142753   3.951   2.145   6.948 -0.4337 -0.7963 -1.6224
 7054LIG     H242754   3.806   2.136   7.237  1.1772  0.6268 -0.7709
 7054LIG     H342755   4.048   1.999   6.775 -1.4967  0.9366 -1.0903
 7054LIG     H442756   3.722   2.100   6.987 -0.5383  0.3766 -1.2481
 7054LIG     H542757   3.654   1.968   7.063 -1.1692  0.9308  0.0321
 7054LIG     H642758   4.137   1.804   6.876  0.0579  1.4564 -1.7526
 7054LIG     H742759   3.970   1.738   6.811  1.5315  1.6331 -4.5660
 7054LIG     H842760   3.720   1.814   6.885 -0.3738  0.3405  4.3335
 7054LIG     H942761   3.643   1.953   6.820  0.6894 -0.0834 -2.6146
 7054LIG    H1042762   4.015   2.177   7.336 -2.1557  0.7354 -0.7288
 7054LIG    H1142763   4.207   2.075   6.990  0.0792  3.6822  0.2880
 7054LIG    H1242764   4.236   2.075   7.223  0.3981  0.1994 -1.5525
 7054LIG    H1342765   3.713   2.092   6.674 -0.0519  2.5451 -0.8366
 7054LIG    H1442766   3.862   2.049   6.589 -0.7633  0.9988  0.5646
 7054LIG    H1542767   3.873   2.166   6.723 -1.6564  0.7795  0.2276
 7054LIG    H1642768   4.073   1.571   6.995 -0.8340 -0.7873  1.5322
 7054LIG    H1742769   4.019   1.506   7.228  1.2390 -0.0912 -0.4559
 7054LIG    H1842770   4.045   2.099   7.541  0.3126  1.5789 -1.3135
 7054LIG    H1942771   4.160   1.819   7.537 -0.2755 -0.4373 -0.7090
 7054LIG    H2042772   4.076   2.000   7.776 -1.8331 -2.4385  1.0757
 7054LIG    H2142773   3.866   1.557   7.395  1.8156 -0.9507  1.5271
 7054LIG    H2242774   4.337   1.876   7.687 -3.1271 -3.2906  1.5814
 7054LIG    H2342775   4.253   2.173   7.675  1.5577  0.4896 -0.0708
 7054LIG    H2442776   3.953   1.771   7.526  0.1147  0.5946 -0.4033
 7054LIG    H2542777   4.034   1.814   7.824  0.1503  1.5451 -0.2155
 7054LIG    H2642778   4.307   1.921   7.913 -1.5387  0.8176 -0.1507
 7054LIG    H2742779   4.619   2.050   7.541 -0.2955  1.4497  1.0871
   6.76963   6.76963   8.97786
